<LesHouchesEvents version="3.0">
<header>
<!--
#*********************************************************************
#                                                                    *
#                        MadGraph5_aMC@NLO                           *
#                                                                    *
#                           Going Beyond                             *
#                                                                    *
#                   http://madgraph.hep.uiuc.edu                     *
#                   http://madgraph.phys.ucl.ac.be                   *
#                   http://amcatnlo.cern.ch                          *
#                                                                    *
#                     The MadGraph5_aMC@NLO team                     *
#                                                                    *
#....................................................................*
#                                                                    *
# This file contains all the information necessary to reproduce      *
# the events generated:                                              *
#                                                                    *
# 1. software version                                                *
# 2. proc_card          : code generation info including model       *
# 3. param_card         : model primary parameters in the LH format  *
# 4. run_card           : running parameters (collider and cuts)     *
# 5. pythia_card        : present only if pythia has been run        *
# 6. pgs_card           : present only if pgs has been run           *
# 7. delphes_cards      : present only if delphes has been run       *
#                                                                    *
#                                                                    *
#*********************************************************************
-->
<MGVersion>
#5.2.2.3
</MGVersion>
<MG5ProcCard>
#************************************************************
#*                     MadGraph5_aMC@NLO                    *
#*                                                          *
#*                *                       *                 *
#*                  *        * *        *                   *
#*                    * * * * 5 * * * *                     *
#*                  *        * *        *                   *
#*                *                       *                 *
#*                                                          *
#*                                                          *
#*         VERSION 2.2.3                 2015-02-10         *
#*                                                          *
#*    The MadGraph5_aMC@NLO Development Team - Find us at   *
#*    https://server06.fynu.ucl.ac.be/projects/madgraph     *
#*                                                          *
#************************************************************
#*                                                          *
#*               Command File for MadGraph5_aMC@NLO         *
#*                                                          *
#*     run as ./bin/mg5_aMC  filename                       *
#*                                                          *
#************************************************************
set group_subprocesses Auto
set ignore_six_quark_processes False
set loop_optimized_output True
set gauge unitary
set complex_mass_scheme False
import model sm
define p = g u c d s u~ c~ d~ s~
define j = g u c d s u~ c~ d~ s~
define l+ = e+ mu+
define l- = e- mu-
define vl = ve vm vt
define vl~ = ve~ vm~ vt~
import model Zprime_UFO
generate p p > zph, zph > j j
add process p p > zph, zph > b b~
output Dijet_signal
</MG5ProcCard>
<MGProcCard>
#*********************************************************************
#                        MadGraph/MadEvent                           *
#                   http://madgraph.hep.uiuc.edu                     *
#                                                                    *
#                          proc_card.dat                             *
#*********************************************************************
#                                                                    *
#            This Files is generated by MADGRAPH 5                   *
#                                                                    *
# WARNING: This Files is generated for MADEVENT (compatibility issue)*
#          This files is NOT a valid MG4 proc_card.dat               *
#          Running this in MG4 will NEVER reproduce the result of MG5*
#                                                                    *
#*********************************************************************
#*********************************************************************
# Process(es) requested : mg2 input                                  *
#*********************************************************************
# Begin PROCESS # This is TAG. Do not modify this line
p p > zph , zph > j j           #Process
# Be carefull the coupling are here in MG5 convention
          
end_coup           # End the couplings input

done               # this tells MG there are no more procs
# End PROCESS  # This is TAG. Do not modify this line
#*********************************************************************
# Model information                                                  *
#*********************************************************************
# Begin MODEL  # This is TAG. Do not modify this line
Zprime_UFO
# End   MODEL  # This is TAG. Do not modify this line
#*********************************************************************
# Start multiparticle definitions                                    *
#*********************************************************************
# Begin MULTIPARTICLES # This is TAG. Do not modify this line

# End  MULTIPARTICLES # This is TAG. Do not modify this line
</MGProcCard>
<MGRunCard>
#*********************************************************************
#                       MadGraph5_aMC@NLO                            *
#                                                                    *
#                     run_card.dat MadEvent                          *
#                                                                    *
#  This file is used to set the parameters of the run.               *
#                                                                    *
#  Some notation/conventions:                                        *
#                                                                    *
#   Lines starting with a '# ' are info or comments                  *
#                                                                    *
#   mind the format:   value    = variable     ! comment             *
#*********************************************************************
#
#*******************                                                 
# Running parameters
#*******************                                                 
#                                                                    
#*********************************************************************
# Tag name for the run (one word)                                    *
#*********************************************************************
  tag_1     = run_tag ! name of the run 
#*********************************************************************
# Run to generate the grid pack                                      *
#*********************************************************************
  .false.     = gridpack  !True = setting up the grid pack
#*********************************************************************
# Number of events and rnd seed                                      *
# Warning: Do not generate more than 1M events in a single run       *
# If you want to run Pythia, avoid more than 50k events in a run.    *
#*********************************************************************
  2000 = nevents ! Number of unweighted events requested 
 2091 = iseed   ! rnd seed (0=assigned automatically=default))
#*********************************************************************
# Collider type and energy                                           *
# lpp: 0=No PDF, 1=proton, -1=antiproton, 2=photon from proton,      *
#                                         3=photon from electron     *
#*********************************************************************
        1     = lpp1    ! beam 1 type 
        1     = lpp2    ! beam 2 type
     4000     = ebeam1  ! beam 1 total energy in GeV
     4000     = ebeam2  ! beam 2 total energy in GeV
#*********************************************************************
# Beam polarization from -100 (left-handed) to 100 (right-handed)    *
#*********************************************************************
        0     = polbeam1 ! beam polarization for beam 1
        0     = polbeam2 ! beam polarization for beam 2
#*********************************************************************
# PDF CHOICE: this automatically fixes also alpha_s and its evol.    *
#*********************************************************************
 'nn23lo1'    = pdlabel     ! PDF set                                     
 230000    = lhaid     ! if pdlabel=lhapdf, this is the lhapdf number
#*********************************************************************
# Renormalization and factorization scales                           *
#*********************************************************************
 F        = fixed_ren_scale  ! if .true. use fixed ren scale
 F        = fixed_fac_scale  ! if .true. use fixed fac scale
 91.1880  = scale            ! fixed ren scale
 91.1880  = dsqrt_q2fact1    ! fixed fact scale for pdf1
 91.1880  = dsqrt_q2fact2    ! fixed fact scale for pdf2
 1        = scalefact        ! scale factor for event-by-event scales
#*********************************************************************
# Matching - Warning! ickkw > 1 is still beta
#*********************************************************************
 0        = ickkw            ! 0 no matching, 1 MLM, 2 CKKW matching
 1        = highestmult      ! for ickkw=2, highest mult group
 1        = ktscheme         ! for ickkw=1, 1 Durham kT, 2 Pythia pTE
 1        = alpsfact         ! scale factor for QCD emission vx
 F        = chcluster        ! cluster only according to channel diag
 T        = pdfwgt           ! for ickkw=1, perform pdf reweighting
 5        = asrwgtflavor     ! highest quark flavor for a_s reweight
 T        = clusinfo         ! include clustering tag in output
 3.0      = lhe_version       ! Change the way clustering information pass to shower.        
#*********************************************************************
#**********************************************************
#
#**********************************************************
# Automatic ptj and mjj cuts if xqcut > 0
# (turn off for VBF and single top processes)
#**********************************************************
   T  = auto_ptj_mjj  ! Automatic setting of ptj and mjj
#**********************************************************
#                                                                    
#**********************************
# BW cutoff (M+/-bwcutoff*Gamma)
#**********************************
  15  = bwcutoff      ! (M+/-bwcutoff*Gamma)
#**********************************************************
# Apply pt/E/eta/dr/mij cuts on decay products or not
# (note that etmiss/ptll/ptheavy/ht/sorted cuts always apply)
#**********************************************************
   T  = cut_decays    ! Cut decay products 
#*************************************************************
# Number of helicities to sum per event (0 = all helicities)
# 0 gives more stable result, but longer run time (needed for
# long decay chains e.g.).
# Use >=2 if most helicities contribute, e.g. pure QCD.
#*************************************************************
   0  = nhel          ! Number of helicities used per event
#*******************                                                 
# Standard Cuts
#*******************                                                 
#                                                                    
#*********************************************************************
# Minimum and maximum pt's (for max, -1 means no cut)                *
#*********************************************************************
 20  = ptj       ! minimum pt for the jets 
  0  = ptb       ! minimum pt for the b 
 10  = pta       ! minimum pt for the photons 
 10  = ptl       ! minimum pt for the charged leptons 
  0  = misset    ! minimum missing Et (sum of neutrino's momenta)
  0  = ptheavy   ! minimum pt for one heavy final state
 1.0 = ptonium   ! minimum pt for the quarkonium states
 -1  = ptjmax    ! maximum pt for the jets
 -1  = ptbmax    ! maximum pt for the b
 -1  = ptamax    ! maximum pt for the photons
 -1  = ptlmax    ! maximum pt for the charged leptons
 -1  = missetmax ! maximum missing Et (sum of neutrino's momenta)
#*********************************************************************
# Minimum and maximum E's (in the center of mass frame)              *
#*********************************************************************
  0  = ej     ! minimum E for the jets 
  0  = eb     ! minimum E for the b 
  0  = ea     ! minimum E for the photons 
  0  = el     ! minimum E for the charged leptons 
 -1   = ejmax ! maximum E for the jets
 -1   = ebmax ! maximum E for the b
 -1   = eamax ! maximum E for the photons
 -1   = elmax ! maximum E for the charged leptons
#*********************************************************************
# Maximum and minimum absolute rapidity (for max, -1 means no cut)   *
#*********************************************************************
   5  = etaj    ! max rap for the jets 
  -1  = etab    ! max rap for the b
 2.5  = etaa    ! max rap for the photons 
 2.5  = etal    ! max rap for the charged leptons 
 0.6  = etaonium ! max rap for the quarkonium states
   0  = etajmin ! min rap for the jets
   0  = etabmin ! min rap for the b
   0  = etaamin ! min rap for the photons
   0  = etalmin ! main rap for the charged leptons
#*********************************************************************
# Minimum and maximum DeltaR distance                                *
#*********************************************************************
 0.4 = drjj    ! min distance between jets 
 0   = drbb    ! min distance between b's 
 0.4 = drll    ! min distance between leptons 
 0.4 = draa    ! min distance between gammas 
 0   = drbj    ! min distance between b and jet 
 0.4 = draj    ! min distance between gamma and jet 
 0.4 = drjl    ! min distance between jet and lepton 
 0   = drab    ! min distance between gamma and b 
 0   = drbl    ! min distance between b and lepton 
 0.4 = dral    ! min distance between gamma and lepton 
 -1  = drjjmax ! max distance between jets
 -1  = drbbmax ! max distance between b's
 -1  = drllmax ! max distance between leptons
 -1  = draamax ! max distance between gammas
 -1  = drbjmax ! max distance between b and jet
 -1  = drajmax ! max distance between gamma and jet
 -1  = drjlmax ! max distance between jet and lepton
 -1  = drabmax ! max distance between gamma and b
 -1  = drblmax ! max distance between b and lepton
 -1  = dralmax ! maxdistance between gamma and lepton
#*********************************************************************
# Minimum and maximum invariant mass for pairs                       *
# WARNING: for four lepton final state mmll cut require to have      *
#          different lepton masses for each flavor!                  *           
#*********************************************************************
 0   = mmjj    ! min invariant mass of a jet pair 
 0   = mmbb    ! min invariant mass of a b pair 
 0   = mmaa    ! min invariant mass of gamma gamma pair
 0   = mmll    ! min invariant mass of l+l- (same flavour) lepton pair
 -1  = mmjjmax ! max invariant mass of a jet pair
 -1  = mmbbmax ! max invariant mass of a b pair
 -1  = mmaamax ! max invariant mass of gamma gamma pair
 -1  = mmllmax ! max invariant mass of l+l- (same flavour) lepton pair
#*********************************************************************
# Minimum and maximum invariant mass for all letpons                 *
#*********************************************************************
 0   = mmnl    ! min invariant mass for all letpons (l+- and vl) 
 -1  = mmnlmax ! max invariant mass for all letpons (l+- and vl) 
#*********************************************************************
# Minimum and maximum pt for 4-momenta sum of leptons                *
#*********************************************************************
 0   = ptllmin  ! Minimum pt for 4-momenta sum of leptons(l and vl)
 -1  = ptllmax  ! Maximum pt for 4-momenta sum of leptons(l and vl)
#*********************************************************************
# Inclusive cuts                                                     *
#*********************************************************************
 0  = xptj ! minimum pt for at least one jet  
 0  = xptb ! minimum pt for at least one b 
 0  = xpta ! minimum pt for at least one photon 
 0  = xptl ! minimum pt for at least one charged lepton 
#*********************************************************************
# Control the pt's of the jets sorted by pt                          *
#*********************************************************************
 0   = ptj1min ! minimum pt for the leading jet in pt
 0   = ptj2min ! minimum pt for the second jet in pt
 0   = ptj3min ! minimum pt for the third jet in pt
 0   = ptj4min ! minimum pt for the fourth jet in pt
 -1  = ptj1max ! maximum pt for the leading jet in pt 
 -1  = ptj2max ! maximum pt for the second jet in pt
 -1  = ptj3max ! maximum pt for the third jet in pt
 -1  = ptj4max ! maximum pt for the fourth jet in pt
 0   = cutuse  ! reject event if fails any (0) / all (1) jet pt cuts
#*********************************************************************
# Control the pt's of leptons sorted by pt                           *
#*********************************************************************
 0   = ptl1min ! minimum pt for the leading lepton in pt
 0   = ptl2min ! minimum pt for the second lepton in pt
 0   = ptl3min ! minimum pt for the third lepton in pt
 0   = ptl4min ! minimum pt for the fourth lepton in pt
 -1  = ptl1max ! maximum pt for the leading lepton in pt 
 -1  = ptl2max ! maximum pt for the second lepton in pt
 -1  = ptl3max ! maximum pt for the third lepton in pt
 -1  = ptl4max ! maximum pt for the fourth lepton in pt
#*********************************************************************
# Control the Ht(k)=Sum of k leading jets                            *
#*********************************************************************
 0   = htjmin ! minimum jet HT=Sum(jet pt)
 -1  = htjmax ! maximum jet HT=Sum(jet pt)
 0   = ihtmin  !inclusive Ht for all partons (including b)
 -1  = ihtmax  !inclusive Ht for all partons (including b)
 0   = ht2min ! minimum Ht for the two leading jets
 0   = ht3min ! minimum Ht for the three leading jets
 0   = ht4min ! minimum Ht for the four leading jets
 -1  = ht2max ! maximum Ht for the two leading jets
 -1  = ht3max ! maximum Ht for the three leading jets
 -1  = ht4max ! maximum Ht for the four leading jets
#***********************************************************************
# Photon-isolation cuts, according to hep-ph/9801442                   *
# When ptgmin=0, all the other parameters are ignored                  *
# When ptgmin>0, pta and draj are not going to be used                 *
#***********************************************************************
   0 = ptgmin ! Min photon transverse momentum
 0.4 = R0gamma ! Radius of isolation code
 1.0 = xn ! n parameter of eq.(3.4) in hep-ph/9801442
 1.0 = epsgamma ! epsilon_gamma parameter of eq.(3.4) in hep-ph/9801442
 .true. = isoEM ! isolate photons from EM energy (photons and leptons)
#*********************************************************************
# WBF cuts                                                           *
#*********************************************************************
 0   = xetamin ! minimum rapidity for two jets in the WBF case  
 0   = deltaeta ! minimum rapidity for two jets in the WBF case 
#*********************************************************************
# KT DURHAM CUT                                                      *
#*********************************************************************
 -1    =  ktdurham        
 0.4  =  dparameter 
#*********************************************************************
# maximal pdg code for quark to be considered as a light jet         *
# (otherwise b cuts are applied)                                     *
#*********************************************************************
 4 = maxjetflavor    ! Maximum jet pdg code
#*********************************************************************
# Jet measure cuts                                                   *
#*********************************************************************
 0   = xqcut   ! minimum kt jet measure between partons
#*********************************************************************
#
#*********************************************************************
# Store info for systematics studies                                 *
# WARNING: If use_syst is T, matched Pythia output is                *
#          meaningful ONLY if plotted taking matchscale              *
#          reweighting into account!                                 *
#*********************************************************************
   F  = use_syst      ! Enable systematics studies
#
#**************************************
# Parameter of the systematics study
#  will be used by SysCalc (if installed)
#**************************************                                  
#
0.5 1 2 = sys_scalefact  # factorization/renormalization scale factor
0.5 1 2 = sys_alpsfact  # \alpha_s emission scale factors
30 50 = sys_matchscale # variation of merging scale
# PDF sets and number of members (0 or none for all members).
CT10nlo.LHgrid = sys_pdf # matching scales
# MSTW2008nlo68cl.LHgrid 1  = sys_pdf
</MGRunCard>
<slha>
######################################################################
## PARAM_CARD AUTOMATICALY GENERATED BY MG5 FOLLOWING UFO MODEL   ####
######################################################################
##                                                                  ##
##  Width set on Auto will be computed following the information    ##
##        present in the decay.py files of the model.               ##
##        See  arXiv:1402.1178 for more details.                    ##
##                                                                  ##
######################################################################

###################################
## INFORMATION FOR CKMBLOCK
###################################
Block ckmblock 
    1 2.277360e-01 # cabi 

###################################
## INFORMATION FOR FRBLOCK
###################################
Block frblock 
    1 1.000000e+00 # gz 

###################################
## INFORMATION FOR MASS
###################################
Block mass 
    1 5.040000e-03 # MD 
    2 2.550000e-03 # MU 
    3 1.010000e-01 # MS 
    4 1.270000e+00 # MC 
    5 4.700000e+00 # MB 
    6 1.720000e+02 # MT 
   11 5.110000e-04 # Me 
   13 1.056600e-01 # MM 
   15 1.777000e+00 # MTA 
   23 9.118760e+01 # MZ 
   25 1.200000e+02 # MH 
  10030 3.800000e+03 # MZph 
  10031 3.000000e+02 # MZpl 
## Dependent parameters, given by model restrictions.
## Those values should be edited following the 
## analytical expression. MG5 ignores those values 
## but they are important for interfacing the output of MG5
## to external program such as Pythia.
  12 0.000000 # ve : 0.0 
  14 0.000000 # vm : 0.0 
  16 0.000000 # vt : 0.0 
  21 0.000000 # g : 0.0 
  22 0.000000 # a : 0.0 
  24 79.824360 # w+ : cmath.sqrt(MZ__exp__2/2. + cmath.sqrt(MZ__exp__4/4. - (aEW*cmath.pi*MZ__exp__2)/(Gf*sqrt__2))) 

###################################
## INFORMATION FOR SMINPUTS
###################################
Block sminputs 
    1 1.279000e+02 # aEWM1 
    2 1.166370e-05 # Gf 
    3 1.184000e-01 # aS 

###################################
## INFORMATION FOR YUKAWA
###################################
Block yukawa 
    1 5.040000e-03 # ymdo 
    2 2.550000e-03 # ymup 
    3 1.010000e-01 # yms 
    4 1.270000e+00 # ymc 
    5 4.700000e+00 # ymb 
    6 1.720000e+02 # ymt 
   11 5.110000e-04 # yme 
   13 1.056600e-01 # ymm 
   15 1.777000e+00 # ymtau 

###################################
## INFORMATION FOR DECAY
###################################
DECAY   6 1.508336e+00 # WT 
DECAY  23 2.495200e+00 # WZ 
DECAY  24 2.085000e+00 # WW 
DECAY  25 5.753088e-03 # WH 
## Dependent parameters, given by model restrictions.
## Those values should be edited following the 
## analytical expression. MG5 ignores those values 
## but they are important for interfacing the output of MG5
## to external program such as Pythia.
DECAY  1 0.000000 # d : 0.0 
DECAY  2 0.000000 # u : 0.0 
DECAY  3 0.000000 # s : 0.0 
DECAY  4 0.000000 # c : 0.0 
DECAY  5 0.000000 # b : 0.0 
DECAY  11 0.000000 # e- : 0.0 
DECAY  12 0.000000 # ve : 0.0 
DECAY  13 0.000000 # mu- : 0.0 
DECAY  14 0.000000 # vm : 0.0 
DECAY  15 0.000000 # ta- : 0.0 
DECAY  16 0.000000 # vt : 0.0 
DECAY  21 0.000000 # g : 0.0 
DECAY  22 0.000000 # a : 0.0 
DECAY  10030 0.308725 # zph : (gz__exp__2*MZph*(5 + cmath.sqrt(1 - (4*MT__exp__2)/MZph__exp__2)))/(144.*cmath.pi) 
DECAY  10031 0.132629 # zpl : (5*gz__exp__2*MZpl)/(144.*cmath.pi) 
#===========================================================
# QUANTUM NUMBERS OF NEW STATE(S) (NON SM PDG CODE)
#===========================================================

Block QNUMBERS 10030  # zph 
        1 0  # 3 times electric charge
        2 3  # number of spin states (2S+1)
        3 1  # colour rep (1: singlet, 3: triplet, 8: octet)
        4 0  # Particle/Antiparticle distinction (0=own anti)
Block QNUMBERS 10031  # zpl 
        1 0  # 3 times electric charge
        2 3  # number of spin states (2S+1)
        3 1  # colour rep (1: singlet, 3: triplet, 8: octet)
        4 0  # Particle/Antiparticle distinction (0=own anti)
</slha>
## END BANNER##
<MGGenerationInfo>
#  Number of Events        :         3824
#  Integrated weight (pb)  :  0.85679E-04
#  Max wgt                 :  0.35390E-07
#  Average wgt             :  0.22406E-07
</MGGenerationInfo>
</header>
<init>
     2212     2212  0.40000000000E+04  0.40000000000E+04 0 0  247000  247000 2   1
  0.85729468935E-04  0.21655748738E-06  0.35390100000E-07   0
</init>
<event>
 5   0  0.3539010E-07  0.3794499E+04  0.7818609E-02  0.8047336E-01
       -2   -1    0    0    0  501  0.00000000000E+00  0.00000000000E+00  0.17320796383E+04  0.17320796383E+04  0.25500000920E-02 0.  1.
        2   -1    0    0  501    0  0.00000000000E+00  0.00000000000E+00 -0.20781699283E+04  0.20781699283E+04  0.25500000920E-02 0. -1.
    10030    2    1    2    0    0  0.00000000000E+00  0.00000000000E+00 -0.34609028998E+03  0.38102495666E+04  0.37944990804E+04 0.  0.
        1    1    3    3  502    0  0.13703895144E+04  0.10806659380E+04 -0.92027747615E+03  0.19729969396E+04  0.50400001928E-02 0. -1.
       -1    1    3    3    0  502 -0.13703895144E+04 -0.10806659380E+04  0.57418718617E+03  0.18372526270E+04  0.50400001928E-02 0.  1.
</event>
<event>
 5   0  0.3539010E-07  0.3855287E+04  0.7818609E-02  0.8034393E-01
        2   -1    0    0  501    0  0.00000000000E+00  0.00000000000E+00  0.24890808302E+04  0.24890808302E+04  0.25500000920E-02 0.  1.
       -2   -1    0    0    0  501  0.00000000000E+00  0.00000000000E+00 -0.14928440056E+04  0.14928440056E+04  0.25500000920E-02 0. -1.
    10030    2    1    2    0    0  0.00000000000E+00  0.00000000000E+00  0.99623682464E+03  0.39819248358E+04  0.38552869656E+04 0.  0.
        1    1    3    3  502    0  0.53192470553E+03 -0.15727113068E+04  0.15098057412E+04  0.22440762293E+04  0.50400001928E-02 0. -1.
       -1    1    3    3    0  502 -0.53192470553E+03  0.15727113068E+04 -0.51356891652E+03  0.17378486065E+04  0.50400001928E-02 0.  1.
</event>
<event>
 5   0  0.3327241E-07  0.3749212E+04  0.7818609E-02  0.8057143E-01
       -2   -1    0    0    0  501  0.00000000000E+00  0.00000000000E+00  0.15981480264E+04  0.15981480264E+04  0.25500000920E-02 0. -1.
        2   -1    0    0  501    0  0.00000000000E+00  0.00000000000E+00 -0.21988871257E+04  0.21988871257E+04  0.25500000920E-02 0.  1.
    10030    2    1    2    0    0  0.00000000000E+00  0.00000000000E+00 -0.60073909935E+03  0.37970351521E+04  0.37492117146E+04 0.  0.
        3    1    3    3  502    0 -0.37251624267E+03 -0.12579976794E+04 -0.16564113251E+04  0.21130605766E+04  0.10100000352E+00 0. -1.
       -3    1    3    3    0  502  0.37251624267E+03  0.12579976794E+04  0.10556722258E+04  0.16839745755E+04  0.10100000352E+00 0.  1.
</event>
<event>
 5   0  0.3539010E-07  0.3824178E+04  0.7818609E-02  0.8040986E-01
        2   -1    0    0  501    0  0.00000000000E+00  0.00000000000E+00  0.18058825279E+04  0.18058825279E+04  0.25500000920E-02 0.  1.
       -2   -1    0    0    0  501  0.00000000000E+00  0.00000000000E+00 -0.20245414708E+04  0.20245414708E+04  0.25500000920E-02 0. -1.
    10030    2    1    2    0    0  0.00000000000E+00  0.00000000000E+00 -0.21865894291E+03  0.38304239987E+04  0.38241778563E+04 0.  0.
        1    1    3    3  502    0  0.17003773584E+04  0.85708568556E+03 -0.28340929816E+03  0.19251493094E+04  0.50400001928E-02 0.  1.
       -1    1    3    3    0  502 -0.17003773584E+04 -0.85708568556E+03  0.64750355247E+02  0.19052746893E+04  0.50400001928E-02 0. -1.
</event>
<event>
 5   0  0.3327241E-07  0.3771173E+04  0.7818609E-02  0.8052369E-01
        2   -1    0    0  501    0  0.00000000000E+00  0.00000000000E+00  0.20156576198E+04  0.20156576198E+04  0.25500000920E-02 0. -1.
       -2   -1    0    0    0  501  0.00000000000E+00  0.00000000000E+00 -0.17639093280E+04  0.17639093280E+04  0.25500000920E-02 0.  1.
    10030    2    1    2    0    0  0.00000000000E+00  0.00000000000E+00  0.25174829174E+03  0.37795669478E+04  0.37711734395E+04 0.  0.
        3    1    3    3  502    0 -0.84645354271E+03 -0.16735650920E+04  0.32158691292E+03  0.19028194528E+04  0.10100000352E+00 0.  1.
       -3    1    3    3    0  502  0.84645354271E+03  0.16735650920E+04 -0.69838621183E+02  0.18767474951E+04  0.10100000352E+00 0. -1.
</event>
<event>
 5   0  0.1085771E-07  0.3872219E+04  0.7818609E-02  0.8030832E-01
        1   -1    0    0  501    0  0.00000000000E+00  0.00000000000E+00  0.26069582115E+04  0.26069582116E+04  0.50400001928E-02 0. -1.
       -1   -1    0    0    0  501  0.00000000000E+00  0.00000000000E+00 -0.14378905614E+04  0.14378905614E+04  0.50400001928E-02 0.  1.
    10030    2    1    2    0    0  0.00000000000E+00  0.00000000000E+00  0.11690676502E+04  0.40448487729E+04  0.38722193152E+04 0.  0.
        1    1    3    3  502    0  0.70193064759E+03  0.15935453102E+03  0.24619988027E+04  0.25650611308E+04  0.50400001928E-02 0. -1.
       -1    1    3    3    0  502 -0.70193064759E+03 -0.15935453102E+03 -0.12929311525E+04  0.14797876421E+04  0.50400001928E-02 0.  1.
</event>
<event>
 5   0  0.1070988E-07  0.3793308E+04  0.7818609E-02  0.8047593E-01
        1   -1    0    0  501    0  0.00000000000E+00  0.00000000000E+00  0.18841485710E+04  0.18841485710E+04  0.50400001928E-02 0.  1.
       -1   -1    0    0    0  501  0.00000000000E+00  0.00000000000E+00 -0.19092422655E+04  0.19092422655E+04  0.50400001928E-02 0. -1.
    10030    2    1    2    0    0  0.00000000000E+00  0.00000000000E+00 -0.25093694511E+02  0.37933908365E+04  0.37933078369E+04 0.  0.
        3    1    3    3  502    0 -0.16905192894E+02 -0.43241094950E+03  0.18341204995E+04  0.18844795122E+04  0.10100000352E+00 0.  1.
       -3    1    3    3    0  502  0.16905192894E+02  0.43241094950E+03 -0.18592141940E+04  0.19089113244E+04  0.10100000352E+00 0. -1.
</event>
<event>
 5   0  0.3539010E-07  0.3786442E+04  0.7818609E-02  0.8049071E-01
        2   -1    0    0  501    0  0.00000000000E+00  0.00000000000E+00  0.19242096153E+04  0.19242096153E+04  0.25500000920E-02 0. -1.
       -2   -1    0    0    0  501  0.00000000000E+00  0.00000000000E+00 -0.18627318958E+04  0.18627318958E+04  0.25500000920E-02 0.  1.
    10030    2    1    2    0    0  0.00000000000E+00  0.00000000000E+00  0.61477719495E+02  0.37869415111E+04  0.37864424594E+04 0.  0.
        1    1    3    3  502    0 -0.79345716046E+03 -0.12891943594E+04 -0.11063763663E+04  0.18750106735E+04  0.50400001928E-02 0.  1.
       -1    1    3    3    0  502  0.79345716046E+03  0.12891943594E+04  0.11678540858E+04  0.19119308376E+04  0.50400001928E-02 0. -1.
</event>
<event>
 5   0  0.1070988E-07  0.3868478E+04  0.7818609E-02  0.8031617E-01
       -1   -1    0    0    0  501  0.00000000000E+00  0.00000000000E+00  0.27544267017E+04  0.27544267017E+04  0.50400001928E-02 0. -1.
        1   -1    0    0  501    0  0.00000000000E+00  0.00000000000E+00 -0.13582789669E+04  0.13582789669E+04  0.50400001928E-02 0.  1.
    10030    2    1    2    0    0  0.00000000000E+00  0.00000000000E+00  0.13961477348E+04  0.41127056687E+04  0.38684776618E+04 0.  0.
        2    1    3    3  502    0 -0.11635209762E+04  0.10832582682E+04  0.18694756477E+04  0.24540107447E+04  0.25500000920E-02 0. -1.
       -2    1    3    3    0  502  0.11635209762E+04 -0.10832582682E+04 -0.47332791290E+03  0.16586949240E+04  0.25500000920E-02 0.  1.
</event>
<event>
 5   0  0.3539010E-07  0.3712838E+04  0.7818609E-02  0.8065123E-01
       -2   -1    0    0    0  501  0.00000000000E+00  0.00000000000E+00  0.30241323865E+04  0.30241323865E+04  0.25500000920E-02 0.  1.
        2   -1    0    0  501    0  0.00000000000E+00  0.00000000000E+00 -0.11395967764E+04  0.11395967764E+04  0.25500000920E-02 0. -1.
    10030    2    1    2    0    0  0.00000000000E+00  0.00000000000E+00  0.18845356101E+04  0.41637291629E+04  0.37128380083E+04 0.  0.
        1    1    3    3  502    0  0.58738843648E+03  0.59194439501E+03  0.28022610228E+04  0.29237117133E+04  0.50400001928E-02 0.  1.
       -1    1    3    3    0  502 -0.58738843648E+03 -0.59194439501E+03 -0.91772541276E+03  0.12400174496E+04  0.50400001928E-02 0. -1.
</event>
<event>
 5   0  0.1070988E-07  0.3612948E+04  0.7818609E-02  0.8087532E-01
        1   -1    0    0  501    0  0.00000000000E+00  0.00000000000E+00  0.18352971439E+04  0.18352971439E+04  0.50400001928E-02 0.  1.
       -1   -1    0    0    0  501  0.00000000000E+00  0.00000000000E+00 -0.17781033017E+04  0.17781033017E+04  0.50400001928E-02 0. -1.
    10030    2    1    2    0    0  0.00000000000E+00  0.00000000000E+00  0.57193842197E+02  0.36134004457E+04  0.36129477778E+04 0.  0.
        2    1    3    3  502    0 -0.17437558189E+03  0.17697999639E+04 -0.28885292187E+03  0.18016755441E+04  0.25500000920E-02 0. -1.
       -2    1    3    3    0  502  0.17437558189E+03 -0.17697999639E+04  0.34604676407E+03  0.18117249015E+04  0.25500000920E-02 0.  1.
</event>
<event>
 5   0  0.3377396E-07  0.3804187E+04  0.7818609E-02  0.8045257E-01
       -2   -1    0    0    0  501  0.00000000000E+00  0.00000000000E+00  0.18083740079E+04  0.18083740079E+04  0.25500000920E-02 0. -1.
        2   -1    0    0  501    0  0.00000000000E+00  0.00000000000E+00 -0.20006697811E+04  0.20006697811E+04  0.25500000920E-02 0.  1.
    10030    2    1    2    0    0  0.00000000000E+00  0.00000000000E+00 -0.19229577318E+03  0.38090437890E+04  0.38041867622E+04 0.  0.
        5    1    3    3  502    0  0.11990257792E+04  0.48625255194E+03 -0.14921419964E+04  0.19749972635E+04  0.46999998093E+01 0.  1.
       -5    1    3    3    0  502 -0.11990257792E+04 -0.48625255194E+03  0.12998462232E+04  0.18340465254E+04  0.46999998093E+01 0. -1.
</event>
<event>
 5   0  0.1070988E-07  0.3801779E+04  0.7818609E-02  0.8045773E-01
        1   -1    0    0  501    0  0.00000000000E+00  0.00000000000E+00  0.22951035962E+04  0.22951035962E+04  0.50400001928E-02 0. -1.
       -1   -1    0    0    0  501  0.00000000000E+00  0.00000000000E+00 -0.15743868810E+04  0.15743868810E+04  0.50400001928E-02 0.  1.
    10030    2    1    2    0    0  0.00000000000E+00  0.00000000000E+00  0.72071671525E+03  0.38694904772E+04  0.38017790533E+04 0.  0.
        5    1    3    3  502    0 -0.38281403582E+03  0.63669753374E+03  0.21412150549E+04  0.22664408964E+04  0.46999998093E+01 0. -1.
       -5    1    3    3    0  502  0.38281403582E+03 -0.63669753374E+03 -0.14204983397E+04  0.16030495808E+04  0.46999998093E+01 0.  1.
</event>
<event>
 5   0  0.1085771E-07  0.3790472E+04  0.7818609E-02  0.8048203E-01
        1   -1    0    0  501    0  0.00000000000E+00  0.00000000000E+00  0.24536499229E+04  0.24536499229E+04  0.50400001928E-02 0. -1.
       -1   -1    0    0    0  501  0.00000000000E+00  0.00000000000E+00 -0.14639083848E+04  0.14639083848E+04  0.50400001928E-02 0.  1.
    10030    2    1    2    0    0  0.00000000000E+00  0.00000000000E+00  0.98974153805E+03  0.39175583077E+04  0.37904715778E+04 0.  0.
        1    1    3    3  502    0 -0.42739231473E+03 -0.24193610985E+02 -0.14132886312E+04  0.14766970835E+04  0.50400001928E-02 0.  1.
       -1    1    3    3    0  502  0.42739231473E+03  0.24193610985E+02  0.24030301692E+04  0.24408612242E+04  0.50400001928E-02 0. -1.
</event>
<event>
 5   0  0.1070988E-07  0.3757313E+04  0.7818609E-02  0.8055378E-01
       -1   -1    0    0    0  501  0.00000000000E+00  0.00000000000E+00  0.20145606678E+04  0.20145606678E+04  0.50400001928E-02 0. -1.
        1   -1    0    0  501    0  0.00000000000E+00  0.00000000000E+00 -0.17519209835E+04  0.17519209835E+04  0.50400001928E-02 0.  1.
    10030    2    1    2    0    0  0.00000000000E+00  0.00000000000E+00  0.26263968427E+03  0.37664816514E+04  0.37573134586E+04 0.  0.
        3    1    3    3  502    0  0.11797864236E+04 -0.16151673824E+03 -0.13252802641E+04  0.17816709715E+04  0.10100000352E+00 0.  1.
       -3    1    3    3    0  502 -0.11797864236E+04  0.16151673824E+03  0.15879199484E+04  0.19848106798E+04  0.10100000352E+00 0. -1.
</event>
<event>
 5   0  0.1070988E-07  0.3998663E+04  0.7818609E-02  0.8004816E-01
        1   -1    0    0  501    0  0.00000000000E+00  0.00000000000E+00  0.20712422081E+04  0.20712422081E+04  0.50400001928E-02 0. -1.
       -1   -1    0    0    0  501  0.00000000000E+00  0.00000000000E+00 -0.19299174081E+04  0.19299174081E+04  0.50400001928E-02 0.  1.
    10030    2    1    2    0    0  0.00000000000E+00  0.00000000000E+00  0.14132480000E+03  0.40011596162E+04  0.39986629734E+04 0.  0.
        3    1    3    3  502    0  0.77180801364E+03  0.96320878979E+03 -0.15031729725E+04  0.19449904314E+04  0.10100000352E+00 0.  1.
       -3    1    3    3    0  502 -0.77180801364E+03 -0.96320878979E+03  0.16444977725E+04  0.20561691848E+04  0.10100000352E+00 0. -1.
</event>
<event>
 5   0  0.3539010E-07  0.3734869E+04  0.7818609E-02  0.8060278E-01
        2   -1    0    0  501    0  0.00000000000E+00  0.00000000000E+00  0.25581990708E+04  0.25581990708E+04  0.25500000920E-02 0.  1.
       -2   -1    0    0    0  501  0.00000000000E+00  0.00000000000E+00 -0.13631898392E+04  0.13631898392E+04  0.25500000920E-02 0. -1.
    10030    2    1    2    0    0  0.00000000000E+00  0.00000000000E+00  0.11950092315E+04  0.39213889100E+04  0.37348686617E+04 0.  0.
        1    1    3    3  502    0 -0.54621164127E+03  0.94894519820E+03  0.21858205520E+04  0.24447199495E+04  0.50400001928E-02 0.  1.
       -1    1    3    3    0  502  0.54621164127E+03 -0.94894519820E+03 -0.99081132041E+03  0.14766689605E+04  0.50400001928E-02 0. -1.
</event>
<event>
 5   0  0.1084315E-07  0.3788970E+04  0.7818609E-02  0.8048526E-01
       -1   -1    0    0    0  501  0.00000000000E+00  0.00000000000E+00  0.26663824579E+04  0.26663824579E+04  0.50400001928E-02 0. -1.
        1   -1    0    0  501    0  0.00000000000E+00  0.00000000000E+00 -0.13460457107E+04  0.13460457107E+04  0.50400001928E-02 0.  1.
    10030    2    1    2    0    0  0.00000000000E+00  0.00000000000E+00  0.13203367471E+04  0.40124281686E+04  0.37889696070E+04 0.  0.
        4    1    3    3  502    0  0.18634434165E+03 -0.18647352845E+04  0.95423053351E+03  0.21029787015E+04  0.12699999809E+01 0. -1.
       -4    1    3    3    0  502 -0.18634434165E+03  0.18647352845E+04  0.36610621364E+03  0.19094494671E+04  0.12699999809E+01 0.  1.
</event>
<event>
 5   0  0.1085771E-07  0.3705774E+04  0.7818609E-02  0.8066683E-01
        1   -1    0    0  501    0  0.00000000000E+00  0.00000000000E+00  0.21893260445E+04  0.21893260445E+04  0.50400001928E-02 0. -1.
       -1   -1    0    0    0  501  0.00000000000E+00  0.00000000000E+00 -0.15681496686E+04  0.15681496686E+04  0.50400001928E-02 0.  1.
    10030    2    1    2    0    0  0.00000000000E+00  0.00000000000E+00  0.62117637586E+03  0.37574757131E+04  0.37057743651E+04 0.  0.
        1    1    3    3  502    0 -0.15386715792E+04  0.49257284375E+03 -0.60929149129E+03  0.17266656759E+04  0.50400001928E-02 0.  1.
       -1    1    3    3    0  502  0.15386715792E+04 -0.49257284375E+03  0.12304678671E+04  0.20308100372E+04  0.50400001928E-02 0. -1.
</event>
<event>
 5   0  0.3442126E-07  0.3781617E+04  0.7818609E-02  0.8050111E-01
        2   -1    0    0  501    0  0.00000000000E+00  0.00000000000E+00  0.15492908677E+04  0.15492908677E+04  0.25500000920E-02 0. -1.
       -2   -1    0    0    0  501  0.00000000000E+00  0.00000000000E+00 -0.23076079651E+04  0.23076079651E+04  0.25500000920E-02 0.  1.
    10030    2    1    2    0    0  0.00000000000E+00  0.00000000000E+00 -0.75831709742E+03  0.38568988328E+04  0.37816165573E+04 0.  0.
        2    1    3    3  502    0  0.91337188976E+03  0.13613109297E+04  0.58179793652E+03  0.17395127177E+04  0.25500000920E-02 0. -1.
       -2    1    3    3    0  502 -0.91337188976E+03 -0.13613109297E+04 -0.13401150339E+04  0.21173861151E+04  0.25500000920E-02 0.  1.
</event>
<event>
 5   0  0.1070988E-07  0.3880375E+04  0.7818609E-02  0.8029123E-01
        1   -1    0    0  501    0  0.00000000000E+00  0.00000000000E+00  0.21922989334E+04  0.21922989334E+04  0.50400001928E-02 0. -1.
       -1   -1    0    0    0  501  0.00000000000E+00  0.00000000000E+00 -0.17170687896E+04  0.17170687896E+04  0.50400001928E-02 0.  1.
    10030    2    1    2    0    0  0.00000000000E+00  0.00000000000E+00  0.47523014374E+03  0.39093677230E+04  0.38803752788E+04 0.  0.
        3    1    3    3  502    0  0.40806121300E+03  0.48369226085E+03  0.20854002797E+04  0.21793041306E+04  0.10100000352E+00 0. -1.
       -3    1    3    3    0  502 -0.40806121300E+03 -0.48369226085E+03 -0.16101701360E+04  0.17300635924E+04  0.10100000352E+00 0.  1.
</event>
<event>
 5   0  0.3327241E-07  0.3817008E+04  0.7818609E-02  0.8042515E-01
       -2   -1    0    0    0  501  0.00000000000E+00  0.00000000000E+00  0.24751719389E+04  0.24751719389E+04  0.25500000920E-02 0.  1.
        2   -1    0    0  501    0  0.00000000000E+00  0.00000000000E+00 -0.14715697778E+04  0.14715697778E+04  0.25500000920E-02 0. -1.
    10030    2    1    2    0    0  0.00000000000E+00  0.00000000000E+00  0.10036021611E+04  0.39467417167E+04  0.38170083679E+04 0.  0.
        3    1    3    3  502    0 -0.17815497697E+04  0.67048974066E+02 -0.20250587579E+03  0.17942752818E+04  0.10100000352E+00 0. -1.
       -3    1    3    3    0  502  0.17815497697E+04 -0.67048974066E+02  0.12061080369E+04  0.21524664350E+04  0.10100000352E+00 0.  1.
</event>
<event>
 5   0  0.1085771E-07  0.3803982E+04  0.7818609E-02  0.8045301E-01
        1   -1    0    0  501    0  0.00000000000E+00  0.00000000000E+00  0.15912150869E+04  0.15912150870E+04  0.50400001928E-02 0.  1.
       -1   -1    0    0    0  501  0.00000000000E+00  0.00000000000E+00 -0.22734637111E+04  0.22734637111E+04  0.50400001928E-02 0. -1.
    10030    2    1    2    0    0  0.00000000000E+00  0.00000000000E+00 -0.68224862412E+03  0.38646787980E+04  0.38039819961E+04 0.  0.
        1    1    3    3  502    0  0.70582591053E+03  0.67553055258E+03  0.13167959325E+04  0.16396594986E+04  0.50400001928E-02 0.  1.
       -1    1    3    3    0  502 -0.70582591053E+03 -0.67553055258E+03 -0.19990445566E+04  0.22250192994E+04  0.50400001928E-02 0. -1.
</event>
<event>
 5   0  0.3442126E-07  0.3723328E+04  0.7818609E-02  0.8062812E-01
       -2   -1    0    0    0  501  0.00000000000E+00  0.00000000000E+00  0.12732347764E+04  0.12732347764E+04  0.25500000920E-02 0. -1.
        2   -1    0    0  501    0  0.00000000000E+00  0.00000000000E+00 -0.27220382597E+04  0.27220382597E+04  0.25500000920E-02 0.  1.
    10030    2    1    2    0    0  0.00000000000E+00  0.00000000000E+00 -0.14488034833E+04  0.39952730361E+04  0.37233284974E+04 0.  0.
        2    1    3    3  502    0 -0.15099031885E+04  0.92682582321E+03 -0.11081534259E+03  0.17751320473E+04  0.25500000920E-02 0. -1.
       -2    1    3    3    0  502  0.15099031885E+04 -0.92682582321E+03 -0.13379881407E+04  0.22201409887E+04  0.25500000920E-02 0.  1.
</event>
<event>
 5   0  0.1070988E-07  0.3749170E+04  0.7818609E-02  0.8057152E-01
        1   -1    0    0  501    0  0.00000000000E+00  0.00000000000E+00  0.21624664235E+04  0.21624664235E+04  0.50400001928E-02 0. -1.
       -1   -1    0    0    0  501  0.00000000000E+00  0.00000000000E+00 -0.16250286089E+04  0.16250286089E+04  0.50400001928E-02 0.  1.
    10030    2    1    2    0    0  0.00000000000E+00  0.00000000000E+00  0.53743781460E+03  0.37874950325E+04  0.37491704704E+04 0.  0.
        2    1    3    3  502    0 -0.85698270139E+03  0.67967949850E+03 -0.12692381337E+04  0.16755145512E+04  0.25500000920E-02 0. -1.
       -2    1    3    3    0  502  0.85698270139E+03 -0.67967949850E+03  0.18066759483E+04  0.21119804813E+04  0.25500000920E-02 0.  1.
</event>
<event>
 5   0  0.3327241E-07  0.3791448E+04  0.7818609E-02  0.8047993E-01
       -2   -1    0    0    0  501  0.00000000000E+00  0.00000000000E+00  0.16659222647E+04  0.16659222647E+04  0.25500000920E-02 0. -1.
        2   -1    0    0  501    0  0.00000000000E+00  0.00000000000E+00 -0.21572246336E+04  0.21572246336E+04  0.25500000920E-02 0.  1.
    10030    2    1    2    0    0  0.00000000000E+00  0.00000000000E+00 -0.49130236890E+03  0.38231468982E+04  0.37914475056E+04 0.  0.
        3    1    3    3  502    0 -0.14140281086E+04 -0.10897424558E+04  0.39745410414E+03  0.18289297108E+04  0.10100000352E+00 0. -1.
       -3    1    3    3    0  502  0.14140281086E+04  0.10897424558E+04 -0.88875647304E+03  0.19942171874E+04  0.10100000352E+00 0.  1.
</event>
<event>
 5   0  0.3377396E-07  0.3784862E+04  0.7818609E-02  0.8049411E-01
        2   -1    0    0  501    0  0.00000000000E+00  0.00000000000E+00  0.22765404477E+04  0.22765404477E+04  0.25500000920E-02 0.  1.
       -2   -1    0    0    0  501  0.00000000000E+00  0.00000000000E+00 -0.15731307711E+04  0.15731307711E+04  0.25500000920E-02 0. -1.
    10030    2    1    2    0    0  0.00000000000E+00  0.00000000000E+00  0.70340967654E+03  0.38496712188E+04  0.37848623911E+04 0.  0.
        5    1    3    3  502    0 -0.12994824998E+04 -0.13085679366E+04  0.78355589243E+03  0.20037431818E+04  0.46999998093E+01 0. -1.
       -5    1    3    3    0  502  0.12994824998E+04  0.13085679366E+04 -0.80146215894E+02  0.18459280370E+04  0.46999998093E+01 0.  1.
</event>
<event>
 5   0  0.1070988E-07  0.3417205E+04  0.7818609E-02  0.8133696E-01
        1   -1    0    0  501    0  0.00000000000E+00  0.00000000000E+00  0.18158592644E+04  0.18158592644E+04  0.50400001928E-02 0.  1.
       -1   -1    0    0    0  501  0.00000000000E+00  0.00000000000E+00 -0.16076813213E+04  0.16076813214E+04  0.50400001928E-02 0. -1.
    10030    2    1    2    0    0  0.00000000000E+00  0.00000000000E+00  0.20817794301E+03  0.34235405857E+04  0.34172053035E+04 0.  0.
        2    1    3    3  502    0  0.10924077285E+04 -0.74765866947E+03 -0.97817989351E+03  0.16459599131E+04  0.25500000920E-02 0. -1.
       -2    1    3    3    0  502 -0.10924077285E+04  0.74765866947E+03  0.11863578365E+04  0.17775806726E+04  0.25500000920E-02 0.  1.
</event>
<event>
 5   0  0.3327241E-07  0.3782166E+04  0.7818609E-02  0.8049993E-01
        2   -1    0    0  501    0  0.00000000000E+00  0.00000000000E+00  0.26674568174E+04  0.26674568174E+04  0.25500000920E-02 0.  1.
       -2   -1    0    0    0  501  0.00000000000E+00  0.00000000000E+00 -0.13406758559E+04  0.13406758559E+04  0.25500000920E-02 0. -1.
    10030    2    1    2    0    0  0.00000000000E+00  0.00000000000E+00  0.13267809615E+04  0.40081326733E+04  0.37821660205E+04 0.  0.
        3    1    3    3  502    0  0.10699860494E+04  0.10738038813E+04 -0.53476396026E+03  0.16074505979E+04  0.10100000352E+00 0. -1.
       -3    1    3    3    0  502 -0.10699860494E+04 -0.10738038813E+04  0.18615449218E+04  0.24006820754E+04  0.10100000352E+00 0.  1.
</event>
<event>
 5   0  0.3539010E-07  0.3823594E+04  0.7818609E-02  0.8041110E-01
       -2   -1    0    0    0  501  0.00000000000E+00  0.00000000000E+00  0.13515998071E+04  0.13515998071E+04  0.25500000920E-02 0. -1.
        2   -1    0    0  501    0  0.00000000000E+00  0.00000000000E+00 -0.27041795037E+04  0.27041795037E+04  0.25500000920E-02 0.  1.
    10030    2    1    2    0    0  0.00000000000E+00  0.00000000000E+00 -0.13525796966E+04  0.40557793108E+04  0.38235943799E+04 0.  0.
        1    1    3    3  502    0  0.72863220889E+03  0.14681342992E+04 -0.17202523129E+04  0.23760452934E+04  0.50400001928E-02 0.  1.
       -1    1    3    3    0  502 -0.72863220889E+03 -0.14681342992E+04  0.36767261629E+03  0.16797340173E+04  0.50400001928E-02 0. -1.
</event>
<event>
 5   0  0.1070988E-07  0.3787881E+04  0.7818609E-02  0.8048761E-01
        1   -1    0    0  501    0  0.00000000000E+00  0.00000000000E+00  0.21303056777E+04  0.21303056777E+04  0.50400001928E-02 0.  1.
       -1   -1    0    0    0  501  0.00000000000E+00  0.00000000000E+00 -0.16838011110E+04  0.16838011110E+04  0.50400001928E-02 0. -1.
    10030    2    1    2    0    0  0.00000000000E+00  0.00000000000E+00  0.44650456663E+03  0.38141067887E+04  0.37878812373E+04 0.  0.
        5    1    3    3  502    0 -0.28106340316E+03 -0.13204965574E+04  0.15607110304E+04  0.20636251610E+04  0.46999998093E+01 0.  1.
       -5    1    3    3    0  502  0.28106340316E+03  0.13204965574E+04 -0.11142064638E+04  0.17504816277E+04  0.46999998093E+01 0. -1.
</event>
<event>
 5   0  0.3327241E-07  0.3765280E+04  0.7818609E-02  0.8053647E-01
       -2   -1    0    0    0  501  0.00000000000E+00  0.00000000000E+00  0.25118860638E+04  0.25118860638E+04  0.25500000920E-02 0.  1.
        2   -1    0    0  501    0  0.00000000000E+00  0.00000000000E+00 -0.14110249657E+04  0.14110249657E+04  0.25500000920E-02 0. -1.
    10030    2    1    2    0    0  0.00000000000E+00  0.00000000000E+00  0.11008610981E+04  0.39229110296E+04  0.37652803068E+04 0.  0.
        3    1    3    3  502    0 -0.20916607237E+03 -0.16800243841E+04 -0.30751261346E+03  0.17206964854E+04  0.10100000352E+00 0. -1.
       -3    1    3    3    0  502  0.20916607237E+03  0.16800243841E+04  0.14083737116E+04  0.22022145442E+04  0.10100000352E+00 0.  1.
</event>
<event>
 5   0  0.1084315E-07  0.3853183E+04  0.7818609E-02  0.8034837E-01
        1   -1    0    0  501    0  0.00000000000E+00  0.00000000000E+00  0.12265310995E+04  0.12265310995E+04  0.50400001928E-02 0.  1.
       -1   -1    0    0    0  501  0.00000000000E+00  0.00000000000E+00 -0.30262215051E+04  0.30262215051E+04  0.50400001928E-02 0. -1.
    10030    2    1    2    0    0  0.00000000000E+00  0.00000000000E+00 -0.17996904056E+04  0.42527526047E+04  0.38531829907E+04 0.  0.
        4    1    3    3  502    0  0.40067866534E+03  0.14699070047E+04  0.40166917777E+03  0.15755982154E+04  0.12699999809E+01 0.  1.
       -4    1    3    3    0  502 -0.40067866534E+03 -0.14699070047E+04 -0.22013595834E+04  0.26771543892E+04  0.12699999809E+01 0. -1.
</event>
<event>
 5   0  0.1085771E-07  0.3428323E+04  0.7818609E-02  0.8130990E-01
       -1   -1    0    0    0  501  0.00000000000E+00  0.00000000000E+00  0.15446648442E+04  0.15446648442E+04  0.50400001928E-02 0. -1.
        1   -1    0    0  501    0  0.00000000000E+00  0.00000000000E+00 -0.19022568299E+04  0.19022568299E+04  0.50400001928E-02 0.  1.
    10030    2    1    2    0    0  0.00000000000E+00  0.00000000000E+00 -0.35759198569E+03  0.34469216742E+04  0.34283227677E+04 0.  0.
        1    1    3    3  502    0 -0.15983375330E+04  0.89920573214E+02  0.43737511261E+03  0.16595377573E+04  0.50400001928E-02 0.  1.
       -1    1    3    3    0  502  0.15983375330E+04 -0.89920573214E+02 -0.79496709829E+03  0.17873839169E+04  0.50400001928E-02 0. -1.
</event>
<event>
 5   0  0.1070988E-07  0.3785277E+04  0.7818609E-02  0.8049322E-01
       -1   -1    0    0    0  501  0.00000000000E+00  0.00000000000E+00  0.19207902922E+04  0.19207902922E+04  0.50400001928E-02 0.  1.
        1   -1    0    0  501    0  0.00000000000E+00  0.00000000000E+00 -0.18648994260E+04  0.18648994260E+04  0.50400001928E-02 0. -1.
    10030    2    1    2    0    0  0.00000000000E+00  0.00000000000E+00  0.55890866190E+02  0.37856897182E+04  0.37852771172E+04 0.  0.
        5    1    3    3  502    0 -0.52880618315E+03  0.15675483953E+04  0.94740121894E+03  0.19064194477E+04  0.46999998093E+01 0.  1.
       -5    1    3    3    0  502  0.52880618315E+03 -0.15675483953E+04 -0.89151035275E+03  0.18792702706E+04  0.46999998093E+01 0. -1.
</event>
<event>
 5   0  0.3509843E-07  0.3880363E+04  0.7818609E-02  0.8029126E-01
       -2   -1    0    0    0  501  0.00000000000E+00  0.00000000000E+00  0.24205320413E+04  0.24205320413E+04  0.25500000920E-02 0.  1.
        2   -1    0    0  501    0  0.00000000000E+00  0.00000000000E+00 -0.15551559583E+04  0.15551559583E+04  0.25500000920E-02 0. -1.
    10030    2    1    2    0    0  0.00000000000E+00  0.00000000000E+00  0.86537608300E+03  0.39756879996E+04  0.38803632955E+04 0.  0.
        4    1    3    3  502    0 -0.76144026814E+03 -0.11116862440E+04  0.18629268864E+04  0.22991597996E+04  0.12699999809E+01 0.  1.
       -4    1    3    3    0  502  0.76144026814E+03  0.11116862440E+04 -0.99755080338E+03  0.16765282000E+04  0.12699999809E+01 0. -1.
</event>
<event>
 5   0  0.3509843E-07  0.3798422E+04  0.7818609E-02  0.8046494E-01
       -2   -1    0    0    0  501  0.00000000000E+00  0.00000000000E+00  0.13177214608E+04  0.13177214608E+04  0.25500000920E-02 0.  1.
        2   -1    0    0  501    0  0.00000000000E+00  0.00000000000E+00 -0.27373020110E+04  0.27373020110E+04  0.25500000920E-02 0. -1.
    10030    2    1    2    0    0  0.00000000000E+00  0.00000000000E+00 -0.14195805502E+04  0.40550234718E+04  0.37984215693E+04 0.  0.
        4    1    3    3  502    0 -0.14785062897E+04  0.30628161376E+03  0.52008238903E+03  0.15969585405E+04  0.12699999809E+01 0.  1.
       -4    1    3    3    0  502  0.14785062897E+04 -0.30628161376E+03 -0.19396629392E+04  0.24580649313E+04  0.12699999809E+01 0. -1.
</event>
<event>
 5   0  0.1070988E-07  0.3813541E+04  0.7818609E-02  0.8043255E-01
        1   -1    0    0  501    0  0.00000000000E+00  0.00000000000E+00  0.20867785760E+04  0.20867785760E+04  0.50400001928E-02 0.  1.
       -1   -1    0    0    0  501  0.00000000000E+00  0.00000000000E+00 -0.17422899063E+04  0.17422899063E+04  0.50400001928E-02 0. -1.
    10030    2    1    2    0    0  0.00000000000E+00  0.00000000000E+00  0.34448866976E+03  0.38290684823E+04  0.38135407430E+04 0.  0.
        2    1    3    3  502    0 -0.18635651920E+03 -0.16979815617E+04  0.10229859188E+04  0.19910726572E+04  0.25500000920E-02 0.  1.
       -2    1    3    3    0  502  0.18635651920E+03  0.16979815617E+04 -0.67849724904E+03  0.18379958251E+04  0.25500000920E-02 0. -1.
</event>
<event>
 5   0  0.1070988E-07  0.3784012E+04  0.7818609E-02  0.8049595E-01
        1   -1    0    0  501    0  0.00000000000E+00  0.00000000000E+00  0.15548884687E+04  0.15548884687E+04  0.50400001928E-02 0.  1.
       -1   -1    0    0    0  501  0.00000000000E+00  0.00000000000E+00 -0.23022142472E+04  0.23022142472E+04  0.50400001928E-02 0. -1.
    10030    2    1    2    0    0  0.00000000000E+00  0.00000000000E+00 -0.74732577844E+03  0.38571027159E+04  0.37840118316E+04 0.  0.
        5    1    3    3  502    0 -0.55454863820E+03 -0.14730929448E+04  0.69644253393E+03  0.17212150677E+04  0.46999998093E+01 0.  1.
       -5    1    3    3    0  502  0.55454863820E+03  0.14730929448E+04 -0.14437683124E+04  0.21358876482E+04  0.46999998093E+01 0. -1.
</event>
<event>
 5   0  0.1070988E-07  0.3802150E+04  0.7818609E-02  0.8045694E-01
        1   -1    0    0  501    0  0.00000000000E+00  0.00000000000E+00  0.24431047868E+04  0.24431047868E+04  0.50400001928E-02 0. -1.
       -1   -1    0    0    0  501  0.00000000000E+00  0.00000000000E+00 -0.14793003433E+04  0.14793003433E+04  0.50400001928E-02 0.  1.
    10030    2    1    2    0    0  0.00000000000E+00  0.00000000000E+00  0.96380444353E+03  0.39224051302E+04  0.38021497866E+04 0.  0.
        5    1    3    3  502    0  0.49716271248E+03  0.57632966162E+03 -0.13152454204E+04  0.15196115449E+04  0.46999998093E+01 0.  1.
       -5    1    3    3    0  502 -0.49716271248E+03 -0.57632966162E+03  0.22790498639E+04  0.24027935853E+04  0.46999998093E+01 0. -1.
</event>
<event>
 5   0  0.3442126E-07  0.3937369E+04  0.7818609E-02  0.8017302E-01
        2   -1    0    0  501    0  0.00000000000E+00  0.00000000000E+00  0.21988494780E+04  0.21988494780E+04  0.25500000920E-02 0. -1.
       -2   -1    0    0    0  501  0.00000000000E+00  0.00000000000E+00 -0.17626123841E+04  0.17626123841E+04  0.25500000920E-02 0.  1.
    10030    2    1    2    0    0  0.00000000000E+00  0.00000000000E+00  0.43623709389E+03  0.39614618621E+04  0.39373693354E+04 0.  0.
        2    1    3    3  502    0 -0.63392780351E+03 -0.12417158485E+04  0.16165864557E+04  0.21347305397E+04  0.25500000920E-02 0. -1.
       -2    1    3    3    0  502  0.63392780351E+03  0.12417158485E+04 -0.11803493618E+04  0.18267313224E+04  0.25500000920E-02 0.  1.
</event>
<event>
 5   0  0.3327241E-07  0.3830475E+04  0.7818609E-02  0.8039647E-01
       -2   -1    0    0    0  501  0.00000000000E+00  0.00000000000E+00  0.18546415942E+04  0.18546415942E+04  0.25500000920E-02 0.  1.
        2   -1    0    0  501    0  0.00000000000E+00  0.00000000000E+00 -0.19778130014E+04  0.19778130014E+04  0.25500000920E-02 0. -1.
    10030    2    1    2    0    0  0.00000000000E+00  0.00000000000E+00 -0.12317140717E+03  0.38324545956E+04  0.38304747789E+04 0.  0.
        3    1    3    3  502    0  0.91329292583E+03 -0.11311079650E+04  0.11859047818E+04  0.18761341526E+04  0.10100000352E+00 0.  1.
       -3    1    3    3    0  502 -0.91329292583E+03  0.11311079650E+04 -0.13090761890E+04  0.19563204430E+04  0.10100000352E+00 0. -1.
</event>
<event>
 5   0  0.3539010E-07  0.3847416E+04  0.7818609E-02  0.8036055E-01
        2   -1    0    0  501    0  0.00000000000E+00  0.00000000000E+00  0.24379132265E+04  0.24379132265E+04  0.25500000920E-02 0.  1.
       -2   -1    0    0    0  501  0.00000000000E+00  0.00000000000E+00 -0.15179590862E+04  0.15179590862E+04  0.25500000920E-02 0. -1.
    10030    2    1    2    0    0  0.00000000000E+00  0.00000000000E+00  0.91995414032E+03  0.39558723126E+04  0.38474160333E+04 0.  0.
        1    1    3    3  502    0 -0.13246285483E+04 -0.11214603836E+04  0.13130263052E+04  0.21763162135E+04  0.50400001928E-02 0.  1.
       -1    1    3    3    0  502  0.13246285483E+04  0.11214603836E+04 -0.39307216486E+03  0.17795560991E+04  0.50400001928E-02 0. -1.
</event>
<event>
 5   0  0.3442126E-07  0.3825562E+04  0.7818609E-02  0.8040691E-01
       -2   -1    0    0    0  501  0.00000000000E+00  0.00000000000E+00  0.15742800709E+04  0.15742800709E+04  0.25500000920E-02 0.  1.
        2   -1    0    0  501    0  0.00000000000E+00  0.00000000000E+00 -0.23240667419E+04  0.23240667419E+04  0.25500000920E-02 0. -1.
    10030    2    1    2    0    0  0.00000000000E+00  0.00000000000E+00 -0.74978667101E+03  0.38983468128E+04  0.38255624189E+04 0.  0.
        2    1    3    3  502    0  0.40448150033E+03 -0.42834273123E+03  0.14795234177E+04  0.15925050465E+04  0.25500000920E-02 0.  1.
       -2    1    3    3    0  502 -0.40448150033E+03  0.42834273123E+03 -0.22293100887E+04  0.23058417663E+04  0.25500000920E-02 0. -1.
</event>
<event>
 5   0  0.3327241E-07  0.3870569E+04  0.7818609E-02  0.8031178E-01
        2   -1    0    0  501    0  0.00000000000E+00  0.00000000000E+00  0.24835502672E+04  0.24835502672E+04  0.25500000920E-02 0.  1.
       -2   -1    0    0    0  501  0.00000000000E+00  0.00000000000E+00 -0.15080534113E+04  0.15080534113E+04  0.25500000920E-02 0. -1.
    10030    2    1    2    0    0  0.00000000000E+00  0.00000000000E+00  0.97549685597E+03  0.39916036785E+04  0.38705691843E+04 0.  0.
        3    1    3    3  502    0  0.11941834421E+04  0.11365311777E+04 -0.55763087849E+03  0.17403245151E+04  0.10100000352E+00 0. -1.
       -3    1    3    3    0  502 -0.11941834421E+04 -0.11365311777E+04  0.15331277345E+04  0.22512791634E+04  0.10100000352E+00 0.  1.
</event>
<event>
 5   0  0.1070988E-07  0.3807018E+04  0.7818609E-02  0.8044651E-01
        1   -1    0    0  501    0  0.00000000000E+00  0.00000000000E+00  0.28416634108E+04  0.28416634108E+04  0.50400001928E-02 0.  1.
       -1   -1    0    0    0  501  0.00000000000E+00  0.00000000000E+00 -0.12750792289E+04  0.12750792289E+04  0.50400001928E-02 0. -1.
    10030    2    1    2    0    0  0.00000000000E+00  0.00000000000E+00  0.15665841820E+04  0.41167426397E+04  0.38070177255E+04 0.  0.
        5    1    3    3  502    0 -0.10708134601E+03 -0.11954488828E+04 -0.81432154185E+03  0.14504158402E+04  0.46999998093E+01 0. -1.
       -5    1    3    3    0  502  0.10708134601E+03  0.11954488828E+04  0.23809057238E+04  0.26663267995E+04  0.46999998093E+01 0.  1.
</event>
<event>
 5   0  0.3377396E-07  0.3766560E+04  0.7818609E-02  0.8053369E-01
       -2   -1    0    0    0  501  0.00000000000E+00  0.00000000000E+00  0.13270549856E+04  0.13270549856E+04  0.25500000920E-02 0.  1.
        2   -1    0    0  501    0  0.00000000000E+00  0.00000000000E+00 -0.26726430260E+04  0.26726430260E+04  0.25500000920E-02 0. -1.
    10030    2    1    2    0    0  0.00000000000E+00  0.00000000000E+00 -0.13455880404E+04  0.39996980115E+04  0.37665603684E+04 0.  0.
        5    1    3    3  502    0  0.69734889250E+03 -0.17477988950E+04 -0.59314676202E+03  0.19730538833E+04  0.46999998093E+01 0. -1.
       -5    1    3    3    0  502 -0.69734889250E+03  0.17477988950E+04 -0.75244127839E+03  0.20266441282E+04  0.46999998093E+01 0.  1.
</event>
<event>
 5   0  0.1070988E-07  0.3598050E+04  0.7818609E-02  0.8090938E-01
        1   -1    0    0  501    0  0.00000000000E+00  0.00000000000E+00  0.15091059044E+04  0.15091059044E+04  0.50400001928E-02 0.  1.
       -1   -1    0    0    0  501  0.00000000000E+00  0.00000000000E+00 -0.21446419367E+04  0.21446419367E+04  0.50400001928E-02 0. -1.
    10030    2    1    2    0    0  0.00000000000E+00  0.00000000000E+00 -0.63553603231E+03  0.36537478411E+04  0.35980504774E+04 0.  0.
        5    1    3    3  502    0  0.44834940376E+03  0.16996973889E+04  0.70885355180E+02  0.17592712199E+04  0.46999998093E+01 0.  1.
       -5    1    3    3    0  502 -0.44834940376E+03 -0.16996973889E+04 -0.70642138749E+03  0.18944766212E+04  0.46999998093E+01 0. -1.
</event>
<event>
 5   0  0.1070988E-07  0.3782120E+04  0.7818609E-02  0.8050003E-01
       -1   -1    0    0    0  501  0.00000000000E+00  0.00000000000E+00  0.22979907093E+04  0.22979907093E+04  0.50400001928E-02 0. -1.
        1   -1    0    0  501    0  0.00000000000E+00  0.00000000000E+00 -0.15561889726E+04  0.15561889726E+04  0.50400001928E-02 0.  1.
    10030    2    1    2    0    0  0.00000000000E+00  0.00000000000E+00  0.74180173673E+03  0.38541796820E+04  0.37821199352E+04 0.  0.
        3    1    3    3  502    0 -0.39763969170E+03 -0.12473070397E+04  0.17615310245E+04  0.21947400156E+04  0.10100000352E+00 0. -1.
       -3    1    3    3    0  502  0.39763969170E+03  0.12473070397E+04 -0.10197292878E+04  0.16594396663E+04  0.10100000352E+00 0.  1.
</event>
<event>
 5   0  0.3327241E-07  0.3807922E+04  0.7818609E-02  0.8044457E-01
       -2   -1    0    0    0  501  0.00000000000E+00  0.00000000000E+00  0.30192847418E+04  0.30192847418E+04  0.25500000920E-02 0. -1.
        2   -1    0    0  501    0  0.00000000000E+00  0.00000000000E+00 -0.12006376286E+04  0.12006376286E+04  0.25500000920E-02 0.  1.
    10030    2    1    2    0    0  0.00000000000E+00  0.00000000000E+00  0.18186471132E+04  0.42199223703E+04  0.38079216758E+04 0.  0.
        3    1    3    3  502    0 -0.61813693753E+03 -0.19926502878E+03  0.28927359709E+04  0.29647464028E+04  0.10100000352E+00 0. -1.
       -3    1    3    3    0  502  0.61813693753E+03  0.19926502878E+03 -0.10740888577E+04  0.12551759676E+04  0.10100000352E+00 0.  1.
</event>
<event>
 5   0  0.1085771E-07  0.3798536E+04  0.7818609E-02  0.8046469E-01
       -1   -1    0    0    0  501  0.00000000000E+00  0.00000000000E+00  0.12030452637E+04  0.12030452637E+04  0.50400001928E-02 0.  1.
        1   -1    0    0  501    0  0.00000000000E+00  0.00000000000E+00 -0.29984071192E+04  0.29984071192E+04  0.50400001928E-02 0. -1.
    10030    2    1    2    0    0  0.00000000000E+00  0.00000000000E+00 -0.17953618555E+04  0.42014523830E+04  0.37985362883E+04 0.  0.
        1    1    3    3  502    0 -0.14822054578E+04  0.58258466592E+03 -0.20422813154E+04  0.25898360726E+04  0.50400001928E-02 0.  1.
       -1    1    3    3    0  502  0.14822054578E+04 -0.58258466592E+03  0.24691945982E+03  0.16116163103E+04  0.50400001928E-02 0. -1.
</event>
<event>
 5   0  0.1070988E-07  0.3817901E+04  0.7818609E-02  0.8042324E-01
        1   -1    0    0  501    0  0.00000000000E+00  0.00000000000E+00  0.28663030947E+04  0.28663030947E+04  0.50400001928E-02 0.  1.
       -1   -1    0    0    0  501  0.00000000000E+00  0.00000000000E+00 -0.12713558750E+04  0.12713558750E+04  0.50400001928E-02 0. -1.
    10030    2    1    2    0    0  0.00000000000E+00  0.00000000000E+00  0.15949472197E+04  0.41376589698E+04  0.38179006164E+04 0.  0.
        5    1    3    3  502    0 -0.76069387598E+03 -0.15035861506E+04  0.17696198761E+04  0.24435636028E+04  0.46999998093E+01 0.  1.
       -5    1    3    3    0  502  0.76069387598E+03  0.15035861506E+04 -0.17467265639E+03  0.16940953669E+04  0.46999998093E+01 0. -1.
</event>
<event>
 5   0  0.1084315E-07  0.3905531E+04  0.7818609E-02  0.8023880E-01
       -1   -1    0    0    0  501  0.00000000000E+00  0.00000000000E+00  0.24429150559E+04  0.24429150559E+04  0.50400001928E-02 0.  1.
        1   -1    0    0  501    0  0.00000000000E+00  0.00000000000E+00 -0.15609602441E+04  0.15609602441E+04  0.50400001928E-02 0. -1.
    10030    2    1    2    0    0  0.00000000000E+00  0.00000000000E+00  0.88195481185E+03  0.40038753000E+04  0.39055310943E+04 0.  0.
        4    1    3    3  502    0 -0.54002976729E+03 -0.10903982892E+04 -0.11247965264E+04  0.16570363356E+04  0.12699999809E+01 0. -1.
       -4    1    3    3    0  502  0.54002976729E+03  0.10903982892E+04  0.20067513383E+04  0.23468389645E+04  0.12699999809E+01 0.  1.
</event>
<event>
 5   0  0.1070988E-07  0.3758917E+04  0.7818609E-02  0.8055029E-01
       -1   -1    0    0    0  501  0.00000000000E+00  0.00000000000E+00  0.14248940227E+04  0.14248940227E+04  0.50400001928E-02 0.  1.
        1   -1    0    0  501    0  0.00000000000E+00  0.00000000000E+00 -0.24790361883E+04  0.24790361883E+04  0.50400001928E-02 0. -1.
    10030    2    1    2    0    0  0.00000000000E+00  0.00000000000E+00 -0.10541421656E+04  0.39039302110E+04  0.37589167837E+04 0.  0.
        5    1    3    3  502    0  0.25482708333E+03 -0.17111559845E+04 -0.12898079177E+04  0.21579198781E+04  0.46999998093E+01 0. -1.
       -5    1    3    3    0  502 -0.25482708333E+03  0.17111559845E+04  0.23566575209E+03  0.17460103329E+04  0.46999998093E+01 0.  1.
</event>
<event>
 5   0  0.3509843E-07  0.3742006E+04  0.7818609E-02  0.8058716E-01
       -2   -1    0    0    0  501  0.00000000000E+00  0.00000000000E+00  0.14408928907E+04  0.14408928907E+04  0.25500000920E-02 0. -1.
        2   -1    0    0  501    0  0.00000000000E+00  0.00000000000E+00 -0.24295016184E+04  0.24295016184E+04  0.25500000920E-02 0.  1.
    10030    2    1    2    0    0  0.00000000000E+00  0.00000000000E+00 -0.98860872769E+03  0.38703945090E+04  0.37420056706E+04 0.  0.
        4    1    3    3  502    0 -0.11236687755E+04  0.10354289535E+04 -0.16111224627E+04  0.22204643293E+04  0.12699999809E+01 0.  1.
       -4    1    3    3    0  502  0.11236687755E+04 -0.10354289535E+04  0.62251373498E+03  0.16499301798E+04  0.12699999809E+01 0. -1.
</event>
<event>
 5   0  0.3539010E-07  0.3720483E+04  0.7818609E-02  0.8063438E-01
        2   -1    0    0  501    0  0.00000000000E+00  0.00000000000E+00  0.11194818280E+04  0.11194818280E+04  0.25500000920E-02 0.  1.
       -2   -1    0    0    0  501  0.00000000000E+00  0.00000000000E+00 -0.30911613047E+04  0.30911613047E+04  0.25500000920E-02 0. -1.
    10030    2    1    2    0    0  0.00000000000E+00  0.00000000000E+00 -0.19716794767E+04  0.42106431327E+04  0.37204832526E+04 0.  0.
        1    1    3    3  502    0  0.47296195712E+03  0.17042595793E+04 -0.16382452744E+04  0.24108175596E+04  0.50400001928E-02 0.  1.
       -1    1    3    3    0  502 -0.47296195712E+03 -0.17042595793E+04 -0.33343420233E+03  0.17998255732E+04  0.50400001928E-02 0. -1.
</event>
<event>
 5   0  0.1084315E-07  0.3812128E+04  0.7818609E-02  0.8043557E-01
       -1   -1    0    0    0  501  0.00000000000E+00  0.00000000000E+00  0.17578746125E+04  0.17578746125E+04  0.50400001928E-02 0. -1.
        1   -1    0    0  501    0  0.00000000000E+00  0.00000000000E+00 -0.20667456503E+04  0.20667456503E+04  0.50400001928E-02 0.  1.
    10030    2    1    2    0    0  0.00000000000E+00  0.00000000000E+00 -0.30887103781E+03  0.38246202628E+04  0.38121278621E+04 0.  0.
        4    1    3    3  502    0  0.15536537296E+04  0.16904546261E+03  0.94031478877E+03  0.18238996121E+04  0.12699999809E+01 0. -1.
       -4    1    3    3    0  502 -0.15536537296E+04 -0.16904546261E+03 -0.12491858266E+04  0.20007206507E+04  0.12699999809E+01 0.  1.
</event>
<event>
 5   0  0.3442126E-07  0.3804387E+04  0.7818609E-02  0.8045214E-01
        2   -1    0    0  501    0  0.00000000000E+00  0.00000000000E+00  0.29099055959E+04  0.29099055959E+04  0.25500000920E-02 0. -1.
       -2   -1    0    0    0  501  0.00000000000E+00  0.00000000000E+00 -0.12434560033E+04  0.12434560033E+04  0.25500000920E-02 0.  1.
    10030    2    1    2    0    0  0.00000000000E+00  0.00000000000E+00  0.16664495926E+04  0.41533615992E+04  0.38043867218E+04 0.  0.
        2    1    3    3  502    0 -0.11198903688E+04  0.15017133658E+04  0.11937305592E+04  0.22213262073E+04  0.25500000920E-02 0.  1.
       -2    1    3    3    0  502  0.11198903688E+04 -0.15017133658E+04  0.47271903338E+03  0.19320353919E+04  0.25500000920E-02 0. -1.
</event>
<event>
 5   0  0.1070988E-07  0.3787093E+04  0.7818609E-02  0.8048930E-01
        1   -1    0    0  501    0  0.00000000000E+00  0.00000000000E+00  0.21686875463E+04  0.21686875464E+04  0.50400001928E-02 0. -1.
       -1   -1    0    0    0  501  0.00000000000E+00  0.00000000000E+00 -0.16533127757E+04  0.16533127757E+04  0.50400001928E-02 0.  1.
    10030    2    1    2    0    0  0.00000000000E+00  0.00000000000E+00  0.51537477067E+03  0.38220003220E+04  0.37870932531E+04 0.  0.
        5    1    3    3  502    0  0.12312146972E+04 -0.11145192623E+04 -0.66034209754E+03  0.17872091630E+04  0.46999998093E+01 0. -1.
       -5    1    3    3    0  502 -0.12312146972E+04  0.11145192623E+04  0.11757168682E+04  0.20347911590E+04  0.46999998093E+01 0.  1.
</event>
<event>
 5   0  0.3442126E-07  0.3788349E+04  0.7818609E-02  0.8048660E-01
        2   -1    0    0  501    0  0.00000000000E+00  0.00000000000E+00  0.21130567189E+04  0.21130567189E+04  0.25500000920E-02 0. -1.
       -2   -1    0    0    0  501  0.00000000000E+00  0.00000000000E+00 -0.16979652307E+04  0.16979652307E+04  0.25500000920E-02 0.  1.
    10030    2    1    2    0    0  0.00000000000E+00  0.00000000000E+00  0.41509148821E+03  0.38110219495E+04  0.37883488958E+04 0.  0.
        2    1    3    3  502    0  0.24840813985E+03 -0.27515388975E+03 -0.16611184924E+04  0.17019785288E+04  0.25500000920E-02 0.  1.
       -2    1    3    3    0  502 -0.24840813985E+03  0.27515388975E+03  0.20762099806E+04  0.21090434207E+04  0.25500000920E-02 0. -1.
</event>
<event>
 5   0  0.1084315E-07  0.3787760E+04  0.7818609E-02  0.8048787E-01
       -1   -1    0    0    0  501  0.00000000000E+00  0.00000000000E+00  0.24072677775E+04  0.24072677775E+04  0.50400001928E-02 0.  1.
        1   -1    0    0  501    0  0.00000000000E+00  0.00000000000E+00 -0.14899805986E+04  0.14899805986E+04  0.50400001928E-02 0. -1.
    10030    2    1    2    0    0  0.00000000000E+00  0.00000000000E+00  0.91728717882E+03  0.38972483761E+04  0.37877604381E+04 0.  0.
        4    1    3    3  502    0 -0.13377595236E+04  0.42909731748E+03 -0.84812971081E+03  0.16410516963E+04  0.12699999809E+01 0. -1.
       -4    1    3    3    0  502  0.13377595236E+04 -0.42909731748E+03  0.17654168896E+04  0.22561966798E+04  0.12699999809E+01 0.  1.
</event>
<event>
 5   0  0.1084315E-07  0.3786860E+04  0.7818609E-02  0.8048981E-01
       -1   -1    0    0    0  501  0.00000000000E+00  0.00000000000E+00  0.12167581630E+04  0.12167581630E+04  0.50400001928E-02 0.  1.
        1   -1    0    0  501    0  0.00000000000E+00  0.00000000000E+00 -0.29464171315E+04  0.29464171315E+04  0.50400001928E-02 0. -1.
    10030    2    1    2    0    0  0.00000000000E+00  0.00000000000E+00 -0.17296589685E+04  0.41631752945E+04  0.37868599638E+04 0.  0.
        4    1    3    3  502    0 -0.18751962826E+03 -0.16542996331E+04  0.12656241195E+03  0.16696977403E+04  0.12699999809E+01 0.  1.
       -4    1    3    3    0  502  0.18751962826E+03  0.16542996331E+04 -0.18562213805E+04  0.24934775542E+04  0.12699999809E+01 0. -1.
</event>
<event>
 5   0  0.1084315E-07  0.3809734E+04  0.7818609E-02  0.8044069E-01
       -1   -1    0    0    0  501  0.00000000000E+00  0.00000000000E+00  0.15621537386E+04  0.15621537386E+04  0.50400001928E-02 0. -1.
        1   -1    0    0  501    0  0.00000000000E+00  0.00000000000E+00 -0.23227659846E+04  0.23227659846E+04  0.50400001928E-02 0.  1.
    10030    2    1    2    0    0  0.00000000000E+00  0.00000000000E+00 -0.76061224593E+03  0.38849197232E+04  0.38097336216E+04 0.  0.
        4    1    3    3  502    0 -0.13318839649E+04 -0.88425851257E+03 -0.14364525584E+04  0.21492383717E+04  0.12699999809E+01 0.  1.
       -4    1    3    3    0  502  0.13318839649E+04  0.88425851257E+03  0.67584031251E+03  0.17356813515E+04  0.12699999809E+01 0. -1.
</event>
<event>
 5   0  0.3442126E-07  0.3789092E+04  0.7818609E-02  0.8048500E-01
        2   -1    0    0  501    0  0.00000000000E+00  0.00000000000E+00  0.15137193006E+04  0.15137193006E+04  0.25500000920E-02 0. -1.
       -2   -1    0    0    0  501  0.00000000000E+00  0.00000000000E+00 -0.23711820678E+04  0.23711820678E+04  0.25500000920E-02 0.  1.
    10030    2    1    2    0    0  0.00000000000E+00  0.00000000000E+00 -0.85746276720E+03  0.38849013683E+04  0.37890917440E+04 0.  0.
        2    1    3    3  502    0 -0.90307382955E+03 -0.99709080115E+03 -0.17964684480E+04  0.22443331509E+04  0.25500000920E-02 0.  1.
       -2    1    3    3    0  502  0.90307382955E+03  0.99709080115E+03  0.93900568084E+03  0.16405682174E+04  0.25500000920E-02 0. -1.
</event>
<event>
 5   0  0.3377396E-07  0.3822553E+04  0.7818609E-02  0.8041332E-01
        2   -1    0    0  501    0  0.00000000000E+00  0.00000000000E+00  0.20921861144E+04  0.20921861144E+04  0.25500000920E-02 0.  1.
       -2   -1    0    0    0  501  0.00000000000E+00  0.00000000000E+00 -0.17460103804E+04  0.17460103804E+04  0.25500000920E-02 0. -1.
    10030    2    1    2    0    0  0.00000000000E+00  0.00000000000E+00  0.34617573401E+03  0.38381964948E+04  0.38225534259E+04 0.  0.
        5    1    3    3  502    0 -0.74823931888E+03 -0.16417745536E+04  0.80627998911E+03  0.19762072953E+04  0.46999998093E+01 0.  1.
       -5    1    3    3    0  502  0.74823931888E+03  0.16417745536E+04 -0.46010425510E+03  0.18619891994E+04  0.46999998093E+01 0. -1.
</event>
<event>
 5   0  0.3377396E-07  0.3787471E+04  0.7818609E-02  0.8048849E-01
        2   -1    0    0  501    0  0.00000000000E+00  0.00000000000E+00  0.23006401993E+04  0.23006401993E+04  0.25500000920E-02 0.  1.
       -2   -1    0    0    0  501  0.00000000000E+00  0.00000000000E+00 -0.15587979811E+04  0.15587979811E+04  0.25500000920E-02 0. -1.
    10030    2    1    2    0    0  0.00000000000E+00  0.00000000000E+00  0.74184221828E+03  0.38594381804E+04  0.37874705532E+04 0.  0.
        5    1    3    3  502    0  0.91447749337E+03 -0.15242925173E+04 -0.29453793163E+03  0.18018078275E+04  0.46999998093E+01 0. -1.
       -5    1    3    3    0  502 -0.91447749337E+03  0.15242925173E+04  0.10363801499E+04  0.20576303529E+04  0.46999998093E+01 0.  1.
</event>
<event>
 5   0  0.3509843E-07  0.3855457E+04  0.7818609E-02  0.8034358E-01
       -2   -1    0    0    0  501  0.00000000000E+00  0.00000000000E+00  0.15300339596E+04  0.15300339596E+04  0.25500000920E-02 0. -1.
        2   -1    0    0  501    0  0.00000000000E+00  0.00000000000E+00 -0.24287933571E+04  0.24287933571E+04  0.25500000920E-02 0.  1.
    10030    2    1    2    0    0  0.00000000000E+00  0.00000000000E+00 -0.89875939751E+03  0.39588273168E+04  0.38554565578E+04 0.  0.
        4    1    3    3  502    0 -0.15608692425E+02  0.15406020356E+04 -0.16390801074E+04  0.22495073849E+04  0.12699999809E+01 0.  1.
       -4    1    3    3    0  502  0.15608692425E+02 -0.15406020356E+04  0.74032070986E+03  0.17093199319E+04  0.12699999809E+01 0. -1.
</event>
<event>
 5   0  0.1085771E-07  0.3881632E+04  0.7818609E-02  0.8028860E-01
        1   -1    0    0  501    0  0.00000000000E+00  0.00000000000E+00  0.21674204212E+04  0.21674204212E+04  0.50400001928E-02 0. -1.
       -1   -1    0    0    0  501  0.00000000000E+00  0.00000000000E+00 -0.17379030821E+04  0.17379030821E+04  0.50400001928E-02 0.  1.
    10030    2    1    2    0    0  0.00000000000E+00  0.00000000000E+00  0.42951733907E+03  0.39053235033E+04  0.38816319404E+04 0.  0.
        1    1    3    3  502    0  0.82966500626E+03 -0.15822834659E+04 -0.54802548373E+03  0.18687688246E+04  0.50400001928E-02 0.  1.
       -1    1    3    3    0  502 -0.82966500626E+03  0.15822834659E+04  0.97754282281E+03  0.20365546787E+04  0.50400001928E-02 0. -1.
</event>
<event>
 5   0  0.1070988E-07  0.3729175E+04  0.7818609E-02  0.8061527E-01
        1   -1    0    0  501    0  0.00000000000E+00  0.00000000000E+00  0.25462400052E+04  0.25462400052E+04  0.50400001928E-02 0. -1.
       -1   -1    0    0    0  501  0.00000000000E+00  0.00000000000E+00 -0.13654200004E+04  0.13654200004E+04  0.50400001928E-02 0.  1.
    10030    2    1    2    0    0  0.00000000000E+00  0.00000000000E+00  0.11808200048E+04  0.39116600056E+04  0.37291752594E+04 0.  0.
        2    1    3    3  502    0 -0.42315021439E+01 -0.15864468063E+04 -0.43725429582E+03  0.16456070898E+04  0.25500000920E-02 0. -1.
       -2    1    3    3    0  502  0.42315021439E+01  0.15864468063E+04  0.16180743006E+04  0.22660529158E+04  0.25500000920E-02 0.  1.
</event>
<event>
 5   0  0.3442126E-07  0.3767865E+04  0.7818609E-02  0.8053086E-01
        2   -1    0    0  501    0  0.00000000000E+00  0.00000000000E+00  0.22945951205E+04  0.22945951205E+04  0.25500000920E-02 0. -1.
       -2   -1    0    0    0  501  0.00000000000E+00  0.00000000000E+00 -0.15467663191E+04  0.15467663191E+04  0.25500000920E-02 0.  1.
    10030    2    1    2    0    0  0.00000000000E+00  0.00000000000E+00  0.74782880147E+03  0.38413614396E+04  0.37678654160E+04 0.  0.
        2    1    3    3  502    0 -0.16182477652E+04  0.96389858329E+03  0.41173436366E+03  0.19280434369E+04  0.25500000920E-02 0.  1.
       -2    1    3    3    0  502  0.16182477652E+04 -0.96389858329E+03  0.33609443780E+03  0.19133180027E+04  0.25500000920E-02 0. -1.
</event>
<event>
 5   0  0.1070988E-07  0.3795671E+04  0.7818609E-02  0.8047085E-01
        1   -1    0    0  501    0  0.00000000000E+00  0.00000000000E+00  0.19682976481E+04  0.19682976481E+04  0.50400001928E-02 0.  1.
       -1   -1    0    0    0  501  0.00000000000E+00  0.00000000000E+00 -0.18298954744E+04  0.18298954744E+04  0.50400001928E-02 0. -1.
    10030    2    1    2    0    0  0.00000000000E+00  0.00000000000E+00  0.13840217370E+03  0.37981931225E+04  0.37956706699E+04 0.  0.
        2    1    3    3  502    0  0.12903932425E+03  0.17732983350E+04  0.73337467341E+03  0.19232983501E+04  0.25500000920E-02 0. -1.
       -2    1    3    3    0  502 -0.12903932425E+03 -0.17732983350E+04 -0.59497249972E+03  0.18748947724E+04  0.25500000920E-02 0.  1.
</event>
<event>
 5   0  0.3327241E-07  0.3785510E+04  0.7818609E-02  0.8049272E-01
        2   -1    0    0  501    0  0.00000000000E+00  0.00000000000E+00  0.23200627254E+04  0.23200627254E+04  0.25500000920E-02 0. -1.
       -2   -1    0    0    0  501  0.00000000000E+00  0.00000000000E+00 -0.15441481758E+04  0.15441481758E+04  0.25500000920E-02 0.  1.
    10030    2    1    2    0    0  0.00000000000E+00  0.00000000000E+00  0.77591454966E+03  0.38642109012E+04  0.37855095430E+04 0.  0.
        3    1    3    3  502    0 -0.16798488207E+04 -0.65329888145E+03 -0.20183433295E+03  0.18136781956E+04  0.10100000352E+00 0. -1.
       -3    1    3    3    0  502  0.16798488207E+04  0.65329888145E+03  0.97774888261E+03  0.20505327056E+04  0.10100000352E+00 0.  1.
</event>
<event>
 5   0  0.3377396E-07  0.3625495E+04  0.7818609E-02  0.8084676E-01
       -2   -1    0    0    0  501  0.00000000000E+00  0.00000000000E+00  0.17482744357E+04  0.17482744357E+04  0.25500000920E-02 0. -1.
        2   -1    0    0  501    0  0.00000000000E+00  0.00000000000E+00 -0.18795987208E+04  0.18795987208E+04  0.25500000920E-02 0.  1.
    10030    2    1    2    0    0  0.00000000000E+00  0.00000000000E+00 -0.13132428511E+03  0.36278731564E+04  0.36254954932E+04 0.  0.
        5    1    3    3  502    0  0.65016111990E+03  0.50828966863E+03 -0.16807108466E+04  0.18723992387E+04  0.46999998093E+01 0.  1.
       -5    1    3    3    0  502 -0.65016111990E+03 -0.50828966863E+03  0.15493865615E+04  0.17554739178E+04  0.46999998093E+01 0. -1.
</event>
<event>
 5   0  0.1070988E-07  0.3780077E+04  0.7818609E-02  0.8050444E-01
        1   -1    0    0  501    0  0.00000000000E+00  0.00000000000E+00  0.16643779591E+04  0.16643779591E+04  0.50400001928E-02 0.  1.
       -1   -1    0    0    0  501  0.00000000000E+00  0.00000000000E+00 -0.21462949360E+04  0.21462949360E+04  0.50400001928E-02 0. -1.
    10030    2    1    2    0    0  0.00000000000E+00  0.00000000000E+00 -0.48191697696E+03  0.38106728951E+04  0.37800772401E+04 0.  0.
        5    1    3    3  502    0 -0.13767060842E+04  0.79579611091E+03  0.78888373991E+03  0.17750973882E+04  0.46999998093E+01 0.  1.
       -5    1    3    3    0  502  0.13767060842E+04 -0.79579611091E+03 -0.12708007169E+04  0.20355755069E+04  0.46999998093E+01 0. -1.
</event>
<event>
 5   0  0.1070988E-07  0.3834713E+04  0.7818609E-02  0.8038746E-01
        1   -1    0    0  501    0  0.00000000000E+00  0.00000000000E+00  0.29891005700E+04  0.29891005700E+04  0.50400001928E-02 0. -1.
       -1   -1    0    0    0  501  0.00000000000E+00  0.00000000000E+00 -0.12298871813E+04  0.12298871813E+04  0.50400001928E-02 0.  1.
    10030    2    1    2    0    0  0.00000000000E+00  0.00000000000E+00  0.17592133887E+04  0.42189877513E+04  0.38347132746E+04 0.  0.
        3    1    3    3  502    0 -0.71839614518E+01 -0.16846700371E+04 -0.12760588917E+03  0.16895111768E+04  0.10100000352E+00 0.  1.
       -3    1    3    3    0  502  0.71839614518E+01  0.16846700371E+04  0.18868192779E+04  0.25294765745E+04  0.10100000352E+00 0. -1.
</event>
<event>
 5   0  0.3327241E-07  0.3819836E+04  0.7818609E-02  0.8041911E-01
        2   -1    0    0  501    0  0.00000000000E+00  0.00000000000E+00  0.25686323236E+04  0.25686323236E+04  0.25500000920E-02 0.  1.
       -2   -1    0    0    0  501  0.00000000000E+00  0.00000000000E+00 -0.14201283546E+04  0.14201283546E+04  0.25500000920E-02 0. -1.
    10030    2    1    2    0    0  0.00000000000E+00  0.00000000000E+00  0.11485039691E+04  0.39887606782E+04  0.38198364338E+04 0.  0.
        3    1    3    3  502    0 -0.14724711176E+04  0.13509036044E+03  0.18365818557E+04  0.23578493422E+04  0.10100000352E+00 0.  1.
       -3    1    3    3    0  502  0.14724711176E+04 -0.13509036044E+03 -0.68807788662E+03  0.16309113360E+04  0.10100000352E+00 0. -1.
</event>
<event>
 5   0  0.3539010E-07  0.3731990E+04  0.7818609E-02  0.8060909E-01
        2   -1    0    0  501    0  0.00000000000E+00  0.00000000000E+00  0.12954437424E+04  0.12954437424E+04  0.25500000920E-02 0.  1.
       -2   -1    0    0    0  501  0.00000000000E+00  0.00000000000E+00 -0.26878332870E+04  0.26878332870E+04  0.25500000920E-02 0. -1.
    10030    2    1    2    0    0  0.00000000000E+00  0.00000000000E+00 -0.13923895446E+04  0.39832770294E+04  0.37319897171E+04 0.  0.
        1    1    3    3  502    0  0.18571646901E+04  0.28170730211E+02 -0.50501831131E+03  0.19248111001E+04  0.50400001928E-02 0.  1.
       -1    1    3    3    0  502 -0.18571646901E+04 -0.28170730211E+02 -0.88737123332E+03  0.20584659293E+04  0.50400001928E-02 0. -1.
</event>
<event>
 5   0  0.3539010E-07  0.3762974E+04  0.7818609E-02  0.8054147E-01
        2   -1    0    0  501    0  0.00000000000E+00  0.00000000000E+00  0.22566126050E+04  0.22566126050E+04  0.25500000920E-02 0.  1.
       -2   -1    0    0    0  501  0.00000000000E+00  0.00000000000E+00 -0.15687202848E+04  0.15687202848E+04  0.25500000920E-02 0. -1.
    10030    2    1    2    0    0  0.00000000000E+00  0.00000000000E+00  0.68789232014E+03  0.38253328898E+04  0.37629743387E+04 0.  0.
        1    1    3    3  502    0  0.68083260354E+03  0.14213594880E+04  0.13886920637E+04  0.21005383777E+04  0.50400001928E-02 0.  1.
       -1    1    3    3    0  502 -0.68083260354E+03 -0.14213594880E+04 -0.70079974358E+03  0.17247945121E+04  0.50400001928E-02 0. -1.
</event>
<event>
 5   0  0.3442126E-07  0.3811637E+04  0.7818609E-02  0.8043662E-01
       -2   -1    0    0    0  501  0.00000000000E+00  0.00000000000E+00  0.15070196667E+04  0.15070196668E+04  0.25500000920E-02 0.  1.
        2   -1    0    0  501    0  0.00000000000E+00  0.00000000000E+00 -0.24101502885E+04  0.24101502885E+04  0.25500000920E-02 0. -1.
    10030    2    1    2    0    0  0.00000000000E+00  0.00000000000E+00 -0.90313062175E+03  0.39171699553E+04  0.38116368581E+04 0.  0.
        2    1    3    3  502    0  0.84998407422E+03 -0.98458826099E+03 -0.18830625568E+04  0.22886265670E+04  0.25500000920E-02 0. -1.
       -2    1    3    3    0  502 -0.84998407422E+03  0.98458826099E+03  0.97993193508E+03  0.16285433883E+04  0.25500000920E-02 0.  1.
</event>
<event>
 5   0  0.1085771E-07  0.3814035E+04  0.7818609E-02  0.8043150E-01
       -1   -1    0    0    0  501  0.00000000000E+00  0.00000000000E+00  0.24644271065E+04  0.24644271065E+04  0.50400001928E-02 0. -1.
        1   -1    0    0  501    0  0.00000000000E+00  0.00000000000E+00 -0.14756837159E+04  0.14756837159E+04  0.50400001928E-02 0.  1.
    10030    2    1    2    0    0  0.00000000000E+00  0.00000000000E+00  0.98874339068E+03  0.39401108224E+04  0.38140345830E+04 0.  0.
        1    1    3    3  502    0 -0.15311392651E+04  0.95678906444E+03 -0.13982885756E+03  0.18109071960E+04  0.50400001928E-02 0. -1.
       -1    1    3    3    0  502  0.15311392651E+04 -0.95678906444E+03  0.11285722482E+04  0.21292036264E+04  0.50400001928E-02 0.  1.
</event>
<event>
 5   0  0.3539010E-07  0.3801342E+04  0.7818609E-02  0.8045867E-01
       -2   -1    0    0    0  501  0.00000000000E+00  0.00000000000E+00  0.17159610342E+04  0.17159610342E+04  0.25500000920E-02 0.  1.
        2   -1    0    0  501    0  0.00000000000E+00  0.00000000000E+00 -0.21052635502E+04  0.21052635502E+04  0.25500000920E-02 0. -1.
    10030    2    1    2    0    0  0.00000000000E+00  0.00000000000E+00 -0.38930251592E+03  0.38212245844E+04  0.38013419835E+04 0.  0.
        1    1    3    3  502    0  0.47300747992E+03 -0.13362823287E+04  0.10781322923E+04  0.17809423847E+04  0.50400001928E-02 0.  1.
       -1    1    3    3    0  502 -0.47300747992E+03  0.13362823287E+04 -0.14674348082E+04  0.20402821997E+04  0.50400001928E-02 0. -1.
</event>
<event>
 5   0  0.3509843E-07  0.3850448E+04  0.7818609E-02  0.8035415E-01
       -2   -1    0    0    0  501  0.00000000000E+00  0.00000000000E+00  0.18450020323E+04  0.18450020323E+04  0.25500000920E-02 0.  1.
        2   -1    0    0  501    0  0.00000000000E+00  0.00000000000E+00 -0.20089342779E+04  0.20089342779E+04  0.25500000920E-02 0. -1.
    10030    2    1    2    0    0  0.00000000000E+00  0.00000000000E+00 -0.16393224564E+03  0.38539363102E+04  0.38504481949E+04 0.  0.
        4    1    3    3  502    0  0.11882293839E+04  0.14185837346E+04 -0.61368868565E+03  0.19495856731E+04  0.12699999809E+01 0. -1.
       -4    1    3    3    0  502 -0.11882293839E+04 -0.14185837346E+04  0.44975644001E+03  0.19043506371E+04  0.12699999809E+01 0.  1.
</event>
<event>
 5   0  0.3327241E-07  0.3764818E+04  0.7818609E-02  0.8053747E-01
       -2   -1    0    0    0  501  0.00000000000E+00  0.00000000000E+00  0.14521891101E+04  0.14521891101E+04  0.25500000920E-02 0.  1.
        2   -1    0    0  501    0  0.00000000000E+00  0.00000000000E+00 -0.24400839147E+04  0.24400839147E+04  0.25500000920E-02 0. -1.
    10030    2    1    2    0    0  0.00000000000E+00  0.00000000000E+00 -0.98789480464E+03  0.38922730248E+04  0.37648178116E+04 0.  0.
        3    1    3    3  502    0  0.10789790485E+04 -0.15199515846E+04 -0.22234722721E+03  0.18772018821E+04  0.10100000352E+00 0.  1.
       -3    1    3    3    0  502 -0.10789790485E+04  0.15199515846E+04 -0.76554757743E+03  0.20150711427E+04  0.10100000352E+00 0. -1.
</event>
<event>
 5   0  0.1070988E-07  0.3805573E+04  0.7818609E-02  0.8044960E-01
        1   -1    0    0  501    0  0.00000000000E+00  0.00000000000E+00  0.25657879409E+04  0.25657879409E+04  0.50400001928E-02 0. -1.
       -1   -1    0    0    0  501  0.00000000000E+00  0.00000000000E+00 -0.14111054108E+04  0.14111054108E+04  0.50400001928E-02 0.  1.
    10030    2    1    2    0    0  0.00000000000E+00  0.00000000000E+00  0.11546825301E+04  0.39768933517E+04  0.38055734109E+04 0.  0.
        5    1    3    3  502    0  0.46223452791E+03 -0.18080007013E+04  0.18906693173E+03  0.18757120486E+04  0.46999998093E+01 0.  1.
       -5    1    3    3    0  502 -0.46223452791E+03  0.18080007013E+04  0.96561559839E+03  0.21011813031E+04  0.46999998093E+01 0. -1.
</event>
<event>
 5   0  0.1070988E-07  0.3664457E+04  0.7818609E-02  0.8075884E-01
        1   -1    0    0  501    0  0.00000000000E+00  0.00000000000E+00  0.27520099610E+04  0.27520099610E+04  0.50400001928E-02 0.  1.
       -1   -1    0    0    0  501  0.00000000000E+00  0.00000000000E+00 -0.12198582283E+04  0.12198582283E+04  0.50400001928E-02 0. -1.
    10030    2    1    2    0    0  0.00000000000E+00  0.00000000000E+00  0.15321517327E+04  0.39718681894E+04  0.36644573925E+04 0.  0.
        2    1    3    3  502    0 -0.72356752398E+03 -0.78783756097E+03  0.23784231444E+04  0.26078985099E+04  0.25500000920E-02 0.  1.
       -2    1    3    3    0  502  0.72356752398E+03  0.78783756097E+03 -0.84627141167E+03  0.13639696794E+04  0.25500000920E-02 0. -1.
</event>
<event>
 5   0  0.3539010E-07  0.3788376E+04  0.7818609E-02  0.8048654E-01
        2   -1    0    0  501    0  0.00000000000E+00  0.00000000000E+00  0.27671329864E+04  0.27671329864E+04  0.25500000920E-02 0.  1.
       -2   -1    0    0    0  501  0.00000000000E+00  0.00000000000E+00 -0.12966302574E+04  0.12966302574E+04  0.25500000920E-02 0. -1.
    10030    2    1    2    0    0  0.00000000000E+00  0.00000000000E+00  0.14705027290E+04  0.40637632438E+04  0.37883760935E+04 0.  0.
        1    1    3    3  502    0 -0.36122645725E+02  0.17460884203E+04 -0.51419880405E+02  0.17472188246E+04  0.50400001928E-02 0. -1.
       -1    1    3    3    0  502  0.36122645725E+02 -0.17460884203E+04  0.15219226094E+04  0.23165444192E+04  0.50400001928E-02 0.  1.
</event>
<event>
 5   0  0.3509843E-07  0.3489302E+04  0.7818609E-02  0.8116330E-01
        2   -1    0    0  501    0  0.00000000000E+00  0.00000000000E+00  0.28939373879E+04  0.28939373879E+04  0.25500000920E-02 0. -1.
       -2   -1    0    0    0  501  0.00000000000E+00  0.00000000000E+00 -0.10517871991E+04  0.10517871991E+04  0.25500000920E-02 0.  1.
    10030    2    1    2    0    0  0.00000000000E+00  0.00000000000E+00  0.18421501888E+04  0.39457245869E+04  0.34893015344E+04 0.  0.
        4    1    3    3  502    0  0.13646983415E+03 -0.15224490232E+04 -0.29965809253E+02  0.15288474765E+04  0.12699999809E+01 0.  1.
       -4    1    3    3    0  502 -0.13646983415E+03  0.15224490232E+04  0.18721159981E+04  0.24168771104E+04  0.12699999809E+01 0. -1.
</event>
<event>
 5   0  0.3327241E-07  0.3655202E+04  0.7818609E-02  0.8077963E-01
       -2   -1    0    0    0  501  0.00000000000E+00  0.00000000000E+00  0.17276221645E+04  0.17276221645E+04  0.25500000920E-02 0. -1.
        2   -1    0    0  501    0  0.00000000000E+00  0.00000000000E+00 -0.19333654952E+04  0.19333654952E+04  0.25500000920E-02 0.  1.
    10030    2    1    2    0    0  0.00000000000E+00  0.00000000000E+00 -0.20574333067E+03  0.36609876597E+04  0.36552018174E+04 0.  0.
        3    1    3    3  502    0 -0.20917132130E+03  0.16965615078E+04 -0.75046412977E+03  0.18668877877E+04  0.10100000352E+00 0.  1.
       -3    1    3    3    0  502  0.20917132130E+03 -0.16965615078E+04  0.54472079909E+03  0.17940998720E+04  0.10100000352E+00 0. -1.
</event>
<event>
 5   0  0.1070988E-07  0.3663769E+04  0.7818609E-02  0.8076039E-01
       -1   -1    0    0    0  501  0.00000000000E+00  0.00000000000E+00  0.15267962786E+04  0.15267962786E+04  0.50400001928E-02 0. -1.
        1   -1    0    0  501    0  0.00000000000E+00  0.00000000000E+00 -0.21979362829E+04  0.21979362829E+04  0.50400001928E-02 0.  1.
    10030    2    1    2    0    0  0.00000000000E+00  0.00000000000E+00 -0.67114000423E+03  0.37247325615E+04  0.36637690633E+04 0.  0.
        3    1    3    3  502    0  0.51905959241E+03 -0.13179857457E+04  0.84534847905E+03  0.16495827798E+04  0.10100000352E+00 0. -1.
       -3    1    3    3    0  502 -0.51905959241E+03  0.13179857457E+04 -0.15164884833E+04  0.20751497817E+04  0.10100000352E+00 0.  1.
</event>
<event>
 5   0  0.3442126E-07  0.3879455E+04  0.7818609E-02  0.8029316E-01
        2   -1    0    0  501    0  0.00000000000E+00  0.00000000000E+00  0.19138626974E+04  0.19138626974E+04  0.25500000920E-02 0.  1.
       -2   -1    0    0    0  501  0.00000000000E+00  0.00000000000E+00 -0.19659422058E+04  0.19659422058E+04  0.25500000920E-02 0. -1.
    10030    2    1    2    0    0  0.00000000000E+00  0.00000000000E+00 -0.52079508332E+02  0.38798049032E+04  0.38794553499E+04 0.  0.
        2    1    3    3  502    0 -0.54273218897E+03  0.97017395333E+03 -0.16157576799E+04  0.19612415988E+04  0.25500000920E-02 0. -1.
       -2    1    3    3    0  502  0.54273218897E+03 -0.97017395333E+03  0.15636781716E+04  0.19185633044E+04  0.25500000920E-02 0.  1.
</event>
<event>
 5   0  0.1085771E-07  0.3794858E+04  0.7818609E-02  0.8047259E-01
       -1   -1    0    0    0  501  0.00000000000E+00  0.00000000000E+00  0.13825220286E+04  0.13825220287E+04  0.50400001928E-02 0. -1.
        1   -1    0    0  501    0  0.00000000000E+00  0.00000000000E+00 -0.26041085664E+04  0.26041085664E+04  0.50400001928E-02 0.  1.
    10030    2    1    2    0    0  0.00000000000E+00  0.00000000000E+00 -0.12215865377E+04  0.39866305950E+04  0.37948583415E+04 0.  0.
        1    1    3    3  502    0  0.96247029291E+03  0.34623721805E+03 -0.22896806651E+04  0.25077613172E+04  0.50400001928E-02 0.  1.
       -1    1    3    3    0  502 -0.96247029291E+03 -0.34623721805E+03  0.10680941274E+04  0.14788692778E+04  0.50400001928E-02 0. -1.
</event>
<event>
 5   0  0.1070988E-07  0.3785900E+04  0.7818609E-02  0.8049187E-01
       -1   -1    0    0    0  501  0.00000000000E+00  0.00000000000E+00  0.15013229139E+04  0.15013229140E+04  0.50400001928E-02 0. -1.
        1   -1    0    0  501    0  0.00000000000E+00  0.00000000000E+00 -0.23867349265E+04  0.23867349265E+04  0.50400001928E-02 0.  1.
    10030    2    1    2    0    0  0.00000000000E+00  0.00000000000E+00 -0.88541201254E+03  0.38880578404E+04  0.37859000698E+04 0.  0.
        2    1    3    3  502    0 -0.39246146169E+03 -0.16826813312E+04 -0.12367559817E+04  0.21248547761E+04  0.25500000920E-02 0.  1.
       -2    1    3    3    0  502  0.39246146169E+03  0.16826813312E+04  0.35134396913E+03  0.17632030643E+04  0.25500000920E-02 0. -1.
</event>
<event>
 5   0  0.3377396E-07  0.3821137E+04  0.7818609E-02  0.8041634E-01
        2   -1    0    0  501    0  0.00000000000E+00  0.00000000000E+00  0.19369066427E+04  0.19369066427E+04  0.25500000920E-02 0. -1.
       -2   -1    0    0    0  501  0.00000000000E+00  0.00000000000E+00 -0.18845880575E+04  0.18845880575E+04  0.25500000920E-02 0.  1.
    10030    2    1    2    0    0  0.00000000000E+00  0.00000000000E+00  0.52318585203E+02  0.38214947003E+04  0.38211365469E+04 0.  0.
        5    1    3    3  502    0  0.53813005635E+03  0.15664439758E+04  0.97857116186E+03  0.19237864475E+04  0.46999998093E+01 0. -1.
       -5    1    3    3    0  502 -0.53813005635E+03 -0.15664439758E+04 -0.92625257666E+03  0.18977082527E+04  0.46999998093E+01 0.  1.
</event>
<event>
 5   0  0.1085771E-07  0.3788317E+04  0.7818609E-02  0.8048667E-01
       -1   -1    0    0    0  501  0.00000000000E+00  0.00000000000E+00  0.14665392611E+04  0.14665392611E+04  0.50400001928E-02 0. -1.
        1   -1    0    0  501    0  0.00000000000E+00  0.00000000000E+00 -0.24464650793E+04  0.24464650793E+04  0.50400001928E-02 0.  1.
    10030    2    1    2    0    0  0.00000000000E+00  0.00000000000E+00 -0.97992581818E+03  0.39130043403E+04  0.37883173519E+04 0.  0.
        1    1    3    3  502    0 -0.68532996995E+03 -0.10860758769E+04  0.94819965953E+03  0.15963460065E+04  0.50400001928E-02 0.  1.
       -1    1    3    3    0  502  0.68532996995E+03  0.10860758769E+04 -0.19281254777E+04  0.23166583339E+04  0.50400001928E-02 0. -1.
</event>
<event>
 5   0  0.3509843E-07  0.3452259E+04  0.7818609E-02  0.8125198E-01
       -2   -1    0    0    0  501  0.00000000000E+00  0.00000000000E+00  0.13164086849E+04  0.13164086849E+04  0.25500000920E-02 0. -1.
        2   -1    0    0  501    0  0.00000000000E+00  0.00000000000E+00 -0.22633723591E+04  0.22633723591E+04  0.25500000920E-02 0.  1.
    10030    2    1    2    0    0  0.00000000000E+00  0.00000000000E+00 -0.94696367421E+03  0.35797810441E+04  0.34522589884E+04 0.  0.
        4    1    3    3  502    0  0.12746453590E+04 -0.21086380355E+03 -0.16604651429E+04  0.21038846068E+04  0.12699999809E+01 0.  1.
       -4    1    3    3    0  502 -0.12746453590E+04  0.21086380355E+03  0.71350146867E+03  0.14758964373E+04  0.12699999809E+01 0. -1.
</event>
<event>
 5   0  0.3327241E-07  0.3851658E+04  0.7818609E-02  0.8035159E-01
        2   -1    0    0  501    0  0.00000000000E+00  0.00000000000E+00  0.16419464318E+04  0.16419464318E+04  0.25500000920E-02 0.  1.
       -2   -1    0    0    0  501  0.00000000000E+00  0.00000000000E+00 -0.22587936042E+04  0.22587936042E+04  0.25500000920E-02 0. -1.
    10030    2    1    2    0    0  0.00000000000E+00  0.00000000000E+00 -0.61684717248E+03  0.39007400360E+04  0.38516583953E+04 0.  0.
        3    1    3    3  502    0  0.15883204174E+04 -0.98645354440E+03  0.15893919266E+03  0.18764631680E+04  0.10100000352E+00 0.  1.
       -3    1    3    3    0  502 -0.15883204174E+04  0.98645354440E+03 -0.77578636514E+03  0.20242768680E+04  0.10100000352E+00 0. -1.
</event>
<event>
 5   0  0.3377396E-07  0.3838798E+04  0.7818609E-02  0.8037880E-01
       -2   -1    0    0    0  501  0.00000000000E+00  0.00000000000E+00  0.24250478039E+04  0.24250478039E+04  0.25500000920E-02 0.  1.
        2   -1    0    0  501    0  0.00000000000E+00  0.00000000000E+00 -0.15191834910E+04  0.15191834910E+04  0.25500000920E-02 0. -1.
    10030    2    1    2    0    0  0.00000000000E+00  0.00000000000E+00  0.90586431291E+03  0.39442312949E+04  0.38387980351E+04 0.  0.
        5    1    3    3  502    0  0.56302007198E+03 -0.16771257733E+04  0.12179129538E+04  0.21478073735E+04  0.46999998093E+01 0.  1.
       -5    1    3    3    0  502 -0.56302007198E+03  0.16771257733E+04 -0.31204864086E+03  0.17964239213E+04  0.46999998093E+01 0. -1.
</event>
<event>
 5   0  0.1070988E-07  0.3196098E+04  0.7818609E-02  0.8189848E-01
       -1   -1    0    0    0  501  0.00000000000E+00  0.00000000000E+00  0.12242320281E+04  0.12242320281E+04  0.50400001928E-02 0. -1.
        1   -1    0    0  501    0  0.00000000000E+00  0.00000000000E+00 -0.20860106065E+04  0.20860106065E+04  0.50400001928E-02 0.  1.
    10030    2    1    2    0    0  0.00000000000E+00  0.00000000000E+00 -0.86177857844E+03  0.33102426347E+04  0.31960982435E+04 0.  0.
        5    1    3    3  502    0  0.30419302292E+03  0.14173776201E+04 -0.11273989860E+04  0.18364485500E+04  0.46999998093E+01 0. -1.
       -5    1    3    3    0  502 -0.30419302292E+03 -0.14173776201E+04  0.26562040755E+03  0.14737940847E+04  0.46999998093E+01 0.  1.
</event>
<event>
 5   0  0.3442126E-07  0.3483360E+04  0.7818609E-02  0.8117745E-01
       -2   -1    0    0    0  501  0.00000000000E+00  0.00000000000E+00  0.14516395569E+04  0.14516395569E+04  0.25500000920E-02 0.  1.
        2   -1    0    0  501    0  0.00000000000E+00  0.00000000000E+00 -0.20896709087E+04  0.20896709087E+04  0.25500000920E-02 0. -1.
    10030    2    1    2    0    0  0.00000000000E+00  0.00000000000E+00 -0.63803135181E+03  0.35413104656E+04  0.34833598447E+04 0.  0.
        2    1    3    3  502    0  0.13965083286E+04 -0.10054933690E+04 -0.59217989360E+03  0.18198707243E+04  0.25500000920E-02 0. -1.
       -2    1    3    3    0  502 -0.13965083286E+04  0.10054933690E+04 -0.45851458203E+02  0.17214397413E+04  0.25500000920E-02 0.  1.
</event>
<event>
 5   0  0.3509843E-07  0.3788073E+04  0.7818609E-02  0.8048719E-01
        2   -1    0    0  501    0  0.00000000000E+00  0.00000000000E+00  0.18423508609E+04  0.18423508609E+04  0.25500000920E-02 0.  1.
       -2   -1    0    0    0  501  0.00000000000E+00  0.00000000000E+00 -0.19471720768E+04  0.19471720768E+04  0.25500000920E-02 0. -1.
    10030    2    1    2    0    0  0.00000000000E+00  0.00000000000E+00 -0.10482121587E+03  0.37895229377E+04  0.37880729412E+04 0.  0.
        4    1    3    3  502    0 -0.11360950001E+03  0.10804288650E+04 -0.16045001825E+04  0.19376934999E+04  0.12699999809E+01 0. -1.
       -4    1    3    3    0  502  0.11360950001E+03 -0.10804288650E+04  0.14996789667E+04  0.18518294378E+04  0.12699999809E+01 0.  1.
</event>
<event>
 5   0  0.3509843E-07  0.3891267E+04  0.7818609E-02  0.8026848E-01
        2   -1    0    0  501    0  0.00000000000E+00  0.00000000000E+00  0.18238109732E+04  0.18238109732E+04  0.25500000920E-02 0.  1.
       -2   -1    0    0    0  501  0.00000000000E+00  0.00000000000E+00 -0.20755934052E+04  0.20755934052E+04  0.25500000920E-02 0. -1.
    10030    2    1    2    0    0  0.00000000000E+00  0.00000000000E+00 -0.25178243200E+03  0.38994043785E+04  0.38912671604E+04 0.  0.
        4    1    3    3  502    0  0.45568840702E+03  0.17274687946E+03  0.17616599202E+04  0.18278240331E+04  0.12699999809E+01 0.  1.
       -4    1    3    3    0  502 -0.45568840702E+03 -0.17274687946E+03 -0.20134423522E+04  0.20715803454E+04  0.12699999809E+01 0. -1.
</event>
<event>
 5   0  0.1084315E-07  0.3790636E+04  0.7818609E-02  0.8048167E-01
       -1   -1    0    0    0  501  0.00000000000E+00  0.00000000000E+00  0.23386717914E+04  0.23386717914E+04  0.50400001928E-02 0.  1.
        1   -1    0    0  501    0  0.00000000000E+00  0.00000000000E+00 -0.15360133789E+04  0.15360133789E+04  0.50400001928E-02 0. -1.
    10030    2    1    2    0    0  0.00000000000E+00  0.00000000000E+00  0.80265841247E+03  0.38746851703E+04  0.37906364429E+04 0.  0.
        4    1    3    3  502    0 -0.57363678602E+03 -0.15547952652E+03  0.22409551534E+04  0.23184293515E+04  0.12699999809E+01 0.  1.
       -4    1    3    3    0  502  0.57363678602E+03  0.15547952652E+03 -0.14382967410E+04  0.15562558188E+04  0.12699999809E+01 0. -1.
</event>
<event>
 5   0  0.1070988E-07  0.3779104E+04  0.7818609E-02  0.8050654E-01
       -1   -1    0    0    0  501  0.00000000000E+00  0.00000000000E+00  0.17617557926E+04  0.17617557926E+04  0.50400001928E-02 0.  1.
        1   -1    0    0  501    0  0.00000000000E+00  0.00000000000E+00 -0.20266184478E+04  0.20266184478E+04  0.50400001928E-02 0. -1.
    10030    2    1    2    0    0  0.00000000000E+00  0.00000000000E+00 -0.26486265519E+03  0.37883742404E+04  0.37791040154E+04 0.  0.
        5    1    3    3  502    0 -0.51821405544E+02  0.58417393326E+03  0.16682042625E+04  0.17682964101E+04  0.46999998093E+01 0.  1.
       -5    1    3    3    0  502  0.51821405544E+02 -0.58417393326E+03 -0.19330669177E+04  0.20200778304E+04  0.46999998093E+01 0. -1.
</event>
<event>
 5   0  0.1085771E-07  0.3797216E+04  0.7818609E-02  0.8046753E-01
        1   -1    0    0  501    0  0.00000000000E+00  0.00000000000E+00  0.21227244438E+04  0.21227244438E+04  0.50400001928E-02 0. -1.
       -1   -1    0    0    0  501  0.00000000000E+00  0.00000000000E+00 -0.16981533977E+04  0.16981533978E+04  0.50400001928E-02 0.  1.
    10030    2    1    2    0    0  0.00000000000E+00  0.00000000000E+00  0.42457104609E+03  0.38208778416E+04  0.37972156783E+04 0.  0.
        1    1    3    3  502    0  0.12686399664E+04  0.10738652239E+03  0.16295126012E+04  0.20679193764E+04  0.50400001928E-02 0. -1.
       -1    1    3    3    0  502 -0.12686399664E+04 -0.10738652239E+03 -0.12049415551E+04  0.17529584652E+04  0.50400001928E-02 0.  1.
</event>
<event>
 5   0  0.1084315E-07  0.3801961E+04  0.7818609E-02  0.8045734E-01
        1   -1    0    0  501    0  0.00000000000E+00  0.00000000000E+00  0.24402777360E+04  0.24402777361E+04  0.50400001928E-02 0.  1.
       -1   -1    0    0    0  501  0.00000000000E+00  0.00000000000E+00 -0.14808671289E+04  0.14808671289E+04  0.50400001928E-02 0. -1.
    10030    2    1    2    0    0  0.00000000000E+00  0.00000000000E+00  0.95941060717E+03  0.39211448649E+04  0.38019611175E+04 0.  0.
        4    1    3    3  502    0 -0.22420846885E+02  0.14984098107E+04  0.16859816373E+04  0.22557194749E+04  0.12699999809E+01 0.  1.
       -4    1    3    3    0  502  0.22420846885E+02 -0.14984098107E+04 -0.72657103017E+03  0.16654253901E+04  0.12699999809E+01 0. -1.
</event>
<event>
 5   0  0.1085771E-07  0.3854062E+04  0.7818609E-02  0.8034652E-01
       -1   -1    0    0    0  501  0.00000000000E+00  0.00000000000E+00  0.29204274593E+04  0.29204274593E+04  0.50400001928E-02 0.  1.
        1   -1    0    0  501    0  0.00000000000E+00  0.00000000000E+00 -0.12715425265E+04  0.12715425265E+04  0.50400001928E-02 0. -1.
    10030    2    1    2    0    0  0.00000000000E+00  0.00000000000E+00  0.16488849328E+04  0.41919699858E+04  0.38540616031E+04 0.  0.
        1    1    3    3  502    0 -0.17773924585E+04  0.42005332002E+03  0.15582784134E+03  0.18329896507E+04  0.50400001928E-02 0. -1.
       -1    1    3    3    0  502  0.17773924585E+04 -0.42005332002E+03  0.14930570915E+04  0.23589803352E+04  0.50400001928E-02 0.  1.
</event>
<event>
 5   0  0.3442126E-07  0.3467392E+04  0.7818609E-02  0.8121561E-01
       -2   -1    0    0    0  501  0.00000000000E+00  0.00000000000E+00  0.21335552091E+04  0.21335552091E+04  0.25500000920E-02 0. -1.
        2   -1    0    0  501    0  0.00000000000E+00  0.00000000000E+00 -0.14087759564E+04  0.14087759564E+04  0.25500000920E-02 0.  1.
    10030    2    1    2    0    0  0.00000000000E+00  0.00000000000E+00  0.72477925267E+03  0.35423311655E+04  0.34673916884E+04 0.  0.
        2    1    3    3  502    0 -0.51420364375E+03  0.15896511031E+04  0.83532595428E+03  0.18679307982E+04  0.25500000920E-02 0.  1.
       -2    1    3    3    0  502  0.51420364375E+03 -0.15896511031E+04 -0.11054670161E+03  0.16744003673E+04  0.25500000920E-02 0. -1.
</event>
<event>
 5   0  0.1084315E-07  0.3050339E+04  0.7818609E-02  0.8229501E-01
        1   -1    0    0  501    0  0.00000000000E+00  0.00000000000E+00  0.13141968175E+04  0.13141968175E+04  0.50400001928E-02 0. -1.
       -1   -1    0    0    0  501  0.00000000000E+00  0.00000000000E+00 -0.17700101068E+04  0.17700101068E+04  0.50400001928E-02 0.  1.
    10030    2    1    2    0    0  0.00000000000E+00  0.00000000000E+00 -0.45581328933E+03  0.30842069243E+04  0.30503387676E+04 0.  0.
        4    1    3    3  502    0  0.88420624331E+03  0.40264257130E+03 -0.14166295009E+04  0.17177841764E+04  0.12699999809E+01 0.  1.
       -4    1    3    3    0  502 -0.88420624331E+03 -0.40264257130E+03  0.96081621153E+03  0.13664227480E+04  0.12699999809E+01 0. -1.
</event>
<event>
 5   0  0.3509843E-07  0.3831777E+04  0.7818609E-02  0.8039370E-01
        2   -1    0    0  501    0  0.00000000000E+00  0.00000000000E+00  0.15780357061E+04  0.15780357061E+04  0.25500000920E-02 0.  1.
       -2   -1    0    0    0  501  0.00000000000E+00  0.00000000000E+00 -0.23260748252E+04  0.23260748252E+04  0.25500000920E-02 0. -1.
    10030    2    1    2    0    0  0.00000000000E+00  0.00000000000E+00 -0.74803911910E+03  0.39041105313E+04  0.38317772008E+04 0.  0.
        4    1    3    3  502    0 -0.17042388660E+02 -0.27741066894E+03  0.15573858908E+04  0.15819922717E+04  0.12699999809E+01 0.  1.
       -4    1    3    3    0  502  0.17042388660E+02  0.27741066894E+03 -0.23054250098E+04  0.23221182595E+04  0.12699999809E+01 0. -1.
</event>
<event>
 5   0  0.1085771E-07  0.3753048E+04  0.7818609E-02  0.8056306E-01
       -1   -1    0    0    0  501  0.00000000000E+00  0.00000000000E+00  0.17015912145E+04  0.17015912145E+04  0.50400001928E-02 0.  1.
        1   -1    0    0  501    0  0.00000000000E+00  0.00000000000E+00 -0.20694408724E+04  0.20694408724E+04  0.50400001928E-02 0. -1.
    10030    2    1    2    0    0  0.00000000000E+00  0.00000000000E+00 -0.36784965789E+03  0.37710320869E+04  0.37530480452E+04 0.  0.
        1    1    3    3  502    0 -0.72099925437E+03 -0.18189619850E+03 -0.19150899927E+04  0.20543845385E+04  0.50400001928E-02 0. -1.
       -1    1    3    3    0  502  0.72099925437E+03  0.18189619850E+03  0.15472403348E+04  0.17166475484E+04  0.50400001928E-02 0.  1.
</event>
<event>
 5   0  0.1070988E-07  0.3779940E+04  0.7818609E-02  0.8050473E-01
        1   -1    0    0  501    0  0.00000000000E+00  0.00000000000E+00  0.27704320564E+04  0.27704320564E+04  0.50400001928E-02 0.  1.
       -1   -1    0    0    0  501  0.00000000000E+00  0.00000000000E+00 -0.12893250496E+04  0.12893250496E+04  0.50400001928E-02 0. -1.
    10030    2    1    2    0    0  0.00000000000E+00  0.00000000000E+00  0.14811070068E+04  0.40597571059E+04  0.37799404484E+04 0.  0.
        5    1    3    3  502    0 -0.38434721566E+01  0.10270378064E+04  0.24445516479E+04  0.26515422450E+04  0.46999998093E+01 0.  1.
       -5    1    3    3    0  502  0.38434721566E+01 -0.10270378064E+04 -0.96344464109E+03  0.14082148609E+04  0.46999998093E+01 0. -1.
</event>
<event>
 5   0  0.3442126E-07  0.3807852E+04  0.7818609E-02  0.8044472E-01
       -2   -1    0    0    0  501  0.00000000000E+00  0.00000000000E+00  0.22767616619E+04  0.22767616619E+04  0.25500000920E-02 0.  1.
        2   -1    0    0  501    0  0.00000000000E+00  0.00000000000E+00 -0.15921448365E+04  0.15921448365E+04  0.25500000920E-02 0. -1.
    10030    2    1    2    0    0  0.00000000000E+00  0.00000000000E+00  0.68461682544E+03  0.38689064984E+04  0.38078520580E+04 0.  0.
        2    1    3    3  502    0  0.18414870076E+04 -0.32865295594E+03  0.70274583568E+03  0.19982339388E+04  0.25500000920E-02 0.  1.
       -2    1    3    3    0  502 -0.18414870076E+04  0.32865295594E+03 -0.18129010236E+02  0.18706725597E+04  0.25500000920E-02 0. -1.
</event>
<event>
 5   0  0.3327241E-07  0.3791784E+04  0.7818609E-02  0.8047920E-01
       -2   -1    0    0    0  501  0.00000000000E+00  0.00000000000E+00  0.14298089915E+04  0.14298089915E+04  0.25500000920E-02 0.  1.
        2   -1    0    0  501    0  0.00000000000E+00  0.00000000000E+00 -0.25139062951E+04  0.25139062951E+04  0.25500000920E-02 0. -1.
    10030    2    1    2    0    0  0.00000000000E+00  0.00000000000E+00 -0.10840973037E+04  0.39437152866E+04  0.37917836566E+04 0.  0.
        3    1    3    3  502    0 -0.14623615063E+04  0.95870049496E+03 -0.13040705435E+04  0.21813316591E+04  0.10100000352E+00 0. -1.
       -3    1    3    3    0  502  0.14623615063E+04 -0.95870049496E+03  0.21997323987E+03  0.17623836276E+04  0.10100000352E+00 0.  1.
</event>
<event>
 5   0  0.3377396E-07  0.3823162E+04  0.7818609E-02  0.8041203E-01
        2   -1    0    0  501    0  0.00000000000E+00  0.00000000000E+00  0.16158403026E+04  0.16158403026E+04  0.25500000920E-02 0.  1.
       -2   -1    0    0    0  501  0.00000000000E+00  0.00000000000E+00 -0.22614493850E+04  0.22614493850E+04  0.25500000920E-02 0. -1.
    10030    2    1    2    0    0  0.00000000000E+00  0.00000000000E+00 -0.64560908241E+03  0.38772896876E+04  0.38231615496E+04 0.  0.
        5    1    3    3  502    0  0.71806120042E+03  0.13749692721E+04  0.81013589669E+03  0.17499984709E+04  0.46999998093E+01 0.  1.
       -5    1    3    3    0  502 -0.71806120042E+03 -0.13749692721E+04 -0.14557449791E+04  0.21272912168E+04  0.46999998093E+01 0. -1.
</event>
<event>
 5   0  0.1084315E-07  0.3732449E+04  0.7818609E-02  0.8060809E-01
        1   -1    0    0  501    0  0.00000000000E+00  0.00000000000E+00  0.11879622681E+04  0.11879622682E+04  0.50400001928E-02 0. -1.
       -1   -1    0    0    0  501  0.00000000000E+00  0.00000000000E+00 -0.29317370922E+04  0.29317370922E+04  0.50400001928E-02 0.  1.
    10030    2    1    2    0    0  0.00000000000E+00  0.00000000000E+00 -0.17437748241E+04  0.41196993604E+04  0.37324485506E+04 0.  0.
        4    1    3    3  502    0 -0.16937049406E+04 -0.34749564186E+03 -0.96583361871E+02  0.17316811501E+04  0.12699999809E+01 0.  1.
       -4    1    3    3    0  502  0.16937049406E+04  0.34749564186E+03 -0.16471914622E+04  0.23880182103E+04  0.12699999809E+01 0. -1.
</event>
<event>
 5   0  0.1085771E-07  0.3789039E+04  0.7818609E-02  0.8048511E-01
        1   -1    0    0  501    0  0.00000000000E+00  0.00000000000E+00  0.10939554418E+04  0.10939554418E+04  0.50400001928E-02 0. -1.
       -1   -1    0    0    0  501  0.00000000000E+00  0.00000000000E+00 -0.32809422737E+04  0.32809422737E+04  0.50400001928E-02 0.  1.
    10030    2    1    2    0    0  0.00000000000E+00  0.00000000000E+00 -0.21869868319E+04  0.43748977155E+04  0.37890392738E+04 0.  0.
        1    1    3    3  502    0  0.14205568694E+04 -0.11512819998E+04 -0.52108564346E+03  0.19013054226E+04  0.50400001928E-02 0. -1.
       -1    1    3    3    0  502 -0.14205568694E+04  0.11512819998E+04 -0.16659011884E+04  0.24735922929E+04  0.50400001928E-02 0.  1.
</event>
<event>
 5   0  0.1070988E-07  0.3753114E+04  0.7818609E-02  0.8056292E-01
        1   -1    0    0  501    0  0.00000000000E+00  0.00000000000E+00  0.20687359895E+04  0.20687359895E+04  0.50400001928E-02 0.  1.
       -1   -1    0    0    0  501  0.00000000000E+00  0.00000000000E+00 -0.17022310478E+04  0.17022310478E+04  0.50400001928E-02 0. -1.
    10030    2    1    2    0    0  0.00000000000E+00  0.00000000000E+00  0.36650494167E+03  0.37709670374E+04  0.37531142435E+04 0.  0.
        5    1    3    3  502    0 -0.10401674898E+04  0.24227901060E+03  0.17335752795E+04  0.20361613063E+04  0.46999998093E+01 0.  1.
       -5    1    3    3    0  502  0.10401674898E+04 -0.24227901060E+03 -0.13670703378E+04  0.17348057310E+04  0.46999998093E+01 0. -1.
</event>
<event>
 5   0  0.3327241E-07  0.3804180E+04  0.7818609E-02  0.8045258E-01
        2   -1    0    0  501    0  0.00000000000E+00  0.00000000000E+00  0.22861255653E+04  0.22861255653E+04  0.25500000920E-02 0.  1.
       -2   -1    0    0    0  501  0.00000000000E+00  0.00000000000E+00 -0.15825671735E+04  0.15825671735E+04  0.25500000920E-02 0. -1.
    10030    2    1    2    0    0  0.00000000000E+00  0.00000000000E+00  0.70355839186E+03  0.38686927388E+04  0.38041804763E+04 0.  0.
        3    1    3    3  502    0  0.73364646150E+03 -0.11721860728E+04  0.16799476795E+04  0.21758863793E+04  0.10100000352E+00 0.  1.
       -3    1    3    3    0  502 -0.73364646150E+03  0.11721860728E+04 -0.97638928761E+03  0.16928063595E+04  0.10100000352E+00 0. -1.
</event>
<event>
 5   0  0.3442126E-07  0.3775880E+04  0.7818609E-02  0.8051351E-01
        2   -1    0    0  501    0  0.00000000000E+00  0.00000000000E+00  0.21050971694E+04  0.21050971694E+04  0.25500000920E-02 0. -1.
       -2   -1    0    0    0  501  0.00000000000E+00  0.00000000000E+00 -0.16931843765E+04  0.16931843765E+04  0.25500000920E-02 0.  1.
    10030    2    1    2    0    0  0.00000000000E+00  0.00000000000E+00  0.41191279288E+03  0.37982815460E+04  0.37758801032E+04 0.  0.
        2    1    3    3  502    0  0.11711867731E+04 -0.14801520622E+04  0.16340824967E+03  0.18945265479E+04  0.25500000920E-02 0.  1.
       -2    1    3    3    0  502 -0.11711867731E+04  0.14801520622E+04  0.24850454321E+03  0.19037549981E+04  0.25500000920E-02 0. -1.
</event>
<event>
 5   0  0.1070988E-07  0.3896973E+04  0.7818609E-02  0.8025659E-01
       -1   -1    0    0    0  501  0.00000000000E+00  0.00000000000E+00  0.19160334864E+04  0.19160334864E+04  0.50400001928E-02 0.  1.
        1   -1    0    0  501    0  0.00000000000E+00  0.00000000000E+00 -0.19814893929E+04  0.19814893929E+04  0.50400001928E-02 0. -1.
    10030    2    1    2    0    0  0.00000000000E+00  0.00000000000E+00 -0.65455906471E+02  0.38975228793E+04  0.38969731997E+04 0.  0.
        2    1    3    3  502    0 -0.11025951989E+04 -0.95975025254E+03  0.12557717837E+04  0.19271220751E+04  0.25500000920E-02 0.  1.
       -2    1    3    3    0  502  0.11025951989E+04  0.95975025254E+03 -0.13212276901E+04  0.19704008042E+04  0.25500000920E-02 0. -1.
</event>
<event>
 5   0  0.1070988E-07  0.3747532E+04  0.7818609E-02  0.8057509E-01
       -1   -1    0    0    0  501  0.00000000000E+00  0.00000000000E+00  0.15262459964E+04  0.15262459964E+04  0.50400001928E-02 0.  1.
        1   -1    0    0  501    0  0.00000000000E+00  0.00000000000E+00 -0.23004143117E+04  0.23004143117E+04  0.50400001928E-02 0. -1.
    10030    2    1    2    0    0  0.00000000000E+00  0.00000000000E+00 -0.77416831532E+03  0.38266603081E+04  0.37475315253E+04 0.  0.
        2    1    3    3  502    0  0.81796982621E+03 -0.12333089210E+04  0.78647525942E+03  0.16759083701E+04  0.25500000920E-02 0.  1.
       -2    1    3    3    0  502 -0.81796982621E+03  0.12333089210E+04 -0.15606435747E+04  0.21507519380E+04  0.25500000920E-02 0. -1.
</event>
<event>
 5   0  0.3539010E-07  0.3779464E+04  0.7818609E-02  0.8050576E-01
        2   -1    0    0  501    0  0.00000000000E+00  0.00000000000E+00  0.19523818078E+04  0.19523818078E+04  0.25500000920E-02 0. -1.
       -2   -1    0    0    0  501  0.00000000000E+00  0.00000000000E+00 -0.18290925975E+04  0.18290925975E+04  0.25500000920E-02 0.  1.
    10030    2    1    2    0    0  0.00000000000E+00  0.00000000000E+00  0.12328921026E+03  0.37814744053E+04  0.37794640425E+04 0.  0.
        1    1    3    3  502    0  0.23071062015E+03 -0.27033217532E+03 -0.17953545572E+04  0.18301925749E+04  0.50400001928E-02 0.  1.
       -1    1    3    3    0  502 -0.23071062015E+03  0.27033217532E+03  0.19186437674E+04  0.19512818304E+04  0.50400001928E-02 0. -1.
</event>
<event>
 5   0  0.1070988E-07  0.3751442E+04  0.7818609E-02  0.8056656E-01
        1   -1    0    0  501    0  0.00000000000E+00  0.00000000000E+00  0.11324576073E+04  0.11324576073E+04  0.50400001928E-02 0. -1.
       -1   -1    0    0    0  501  0.00000000000E+00  0.00000000000E+00 -0.31068089498E+04  0.31068089498E+04  0.50400001928E-02 0.  1.
    10030    2    1    2    0    0  0.00000000000E+00  0.00000000000E+00 -0.19743513425E+04  0.42392665571E+04  0.37514420852E+04 0.  0.
        3    1    3    3  502    0 -0.15553231213E+04 -0.65401218138E+03 -0.61119551954E+02  0.16883416582E+04  0.10100000352E+00 0. -1.
       -3    1    3    3    0  502  0.15553231213E+04  0.65401218138E+03 -0.19132317905E+04  0.25509248988E+04  0.10100000352E+00 0.  1.
</event>
<event>
 5   0  0.3539010E-07  0.3795886E+04  0.7818609E-02  0.8047038E-01
        2   -1    0    0  501    0  0.00000000000E+00  0.00000000000E+00  0.22013317595E+04  0.22013317595E+04  0.25500000920E-02 0. -1.
       -2   -1    0    0    0  501  0.00000000000E+00  0.00000000000E+00 -0.16363672176E+04  0.16363672176E+04  0.25500000920E-02 0.  1.
    10030    2    1    2    0    0  0.00000000000E+00  0.00000000000E+00  0.56496454192E+03  0.38376989771E+04  0.37958857339E+04 0.  0.
        1    1    3    3  502    0  0.92444964851E+03 -0.15396060291E+04 -0.33844356580E+03  0.18274402657E+04  0.50400001928E-02 0.  1.
       -1    1    3    3    0  502 -0.92444964851E+03  0.15396060291E+04  0.90340810772E+03  0.20102587114E+04  0.50400001928E-02 0. -1.
</event>
<event>
 5   0  0.1070988E-07  0.3795180E+04  0.7818609E-02  0.8047190E-01
       -1   -1    0    0    0  501  0.00000000000E+00  0.00000000000E+00  0.27499597309E+04  0.27499597309E+04  0.50400001928E-02 0. -1.
        1   -1    0    0  501    0  0.00000000000E+00  0.00000000000E+00 -0.13094186014E+04  0.13094186014E+04  0.50400001928E-02 0.  1.
    10030    2    1    2    0    0  0.00000000000E+00  0.00000000000E+00  0.14405411295E+04  0.40593783323E+04  0.37951803250E+04 0.  0.
        2    1    3    3  502    0  0.43339181084E+02  0.10238000337E+03  0.27464732719E+04  0.27487225002E+04  0.25500000920E-02 0. -1.
       -2    1    3    3    0  502 -0.43339181084E+02 -0.10238000337E+03 -0.13059321424E+04  0.13106558321E+04  0.25500000920E-02 0.  1.
</event>
<event>
 5   0  0.1084315E-07  0.3125407E+04  0.7818609E-02  0.8208800E-01
        1   -1    0    0  501    0  0.00000000000E+00  0.00000000000E+00  0.21111948223E+04  0.21111948223E+04  0.50400001928E-02 0. -1.
       -1   -1    0    0    0  501  0.00000000000E+00  0.00000000000E+00 -0.11567111383E+04  0.11567111383E+04  0.50400001928E-02 0.  1.
    10030    2    1    2    0    0  0.00000000000E+00  0.00000000000E+00  0.95448368402E+03  0.32679059607E+04  0.31254072158E+04 0.  0.
        4    1    3    3  502    0 -0.12965079512E+04  0.45040297042E+03 -0.30398194466E+03  0.14057746402E+04  0.12699999809E+01 0.  1.
       -4    1    3    3    0  502  0.12965079512E+04 -0.45040297042E+03  0.12584656287E+04  0.18621313205E+04  0.12699999809E+01 0. -1.
</event>
<event>
 5   0  0.3509843E-07  0.3790035E+04  0.7818609E-02  0.8048297E-01
        2   -1    0    0  501    0  0.00000000000E+00  0.00000000000E+00  0.28337631153E+04  0.28337631153E+04  0.25500000920E-02 0. -1.
       -2   -1    0    0    0  501  0.00000000000E+00  0.00000000000E+00 -0.12672520818E+04  0.12672520818E+04  0.25500000920E-02 0.  1.
    10030    2    1    2    0    0  0.00000000000E+00  0.00000000000E+00  0.15665110335E+04  0.41010151972E+04  0.37900354654E+04 0.  0.
        4    1    3    3  502    0 -0.10624085829E+04  0.36883959821E+03  0.24336369174E+04  0.26809223982E+04  0.12699999809E+01 0. -1.
       -4    1    3    3    0  502  0.10624085829E+04 -0.36883959821E+03 -0.86712588393E+03  0.14200927990E+04  0.12699999809E+01 0.  1.
</event>
<event>
 5   0  0.3442126E-07  0.3791217E+04  0.7818609E-02  0.8048042E-01
       -2   -1    0    0    0  501  0.00000000000E+00  0.00000000000E+00  0.13570142475E+04  0.13570142475E+04  0.25500000920E-02 0.  1.
        2   -1    0    0  501    0  0.00000000000E+00  0.00000000000E+00 -0.26479687406E+04  0.26479687406E+04  0.25500000920E-02 0. -1.
    10030    2    1    2    0    0  0.00000000000E+00  0.00000000000E+00 -0.12909544931E+04  0.40049829881E+04  0.37912168537E+04 0.  0.
        2    1    3    3  502    0 -0.46662170744E+03 -0.17043781607E+04 -0.13702298774E+04  0.22361061356E+04  0.25500000920E-02 0. -1.
       -2    1    3    3    0  502  0.46662170744E+03  0.17043781607E+04  0.79275384346E+02  0.17688768525E+04  0.25500000920E-02 0.  1.
</event>
<event>
 5   0  0.1070988E-07  0.3831525E+04  0.7818609E-02  0.8039423E-01
       -1   -1    0    0    0  501  0.00000000000E+00  0.00000000000E+00  0.23826187762E+04  0.23826187762E+04  0.50400001928E-02 0.  1.
        1   -1    0    0  501    0  0.00000000000E+00  0.00000000000E+00 -0.15403829695E+04  0.15403829695E+04  0.50400001928E-02 0. -1.
    10030    2    1    2    0    0  0.00000000000E+00  0.00000000000E+00  0.84223580675E+03  0.39230017457E+04  0.38315247021E+04 0.  0.
        5    1    3    3  502    0  0.85448777232E+03  0.30508128973E+03  0.21486770613E+04  0.23323934381E+04  0.46999998093E+01 0.  1.
       -5    1    3    3    0  502 -0.85448777232E+03 -0.30508128973E+03 -0.13064412546E+04  0.15906083076E+04  0.46999998093E+01 0. -1.
</event>
<event>
 5   0  0.3377396E-07  0.3779737E+04  0.7818609E-02  0.8050517E-01
       -2   -1    0    0    0  501  0.00000000000E+00  0.00000000000E+00  0.20280842851E+04  0.20280842851E+04  0.25500000920E-02 0. -1.
        2   -1    0    0  501    0  0.00000000000E+00  0.00000000000E+00 -0.17610719443E+04  0.17610719443E+04  0.25500000920E-02 0.  1.
    10030    2    1    2    0    0  0.00000000000E+00  0.00000000000E+00  0.26701234082E+03  0.37891562294E+04  0.37797366761E+04 0.  0.
        5    1    3    3  502    0  0.29594232227E+03 -0.12685055410E+04  0.15061855328E+04  0.19913073883E+04  0.46999998093E+01 0. -1.
       -5    1    3    3    0  502 -0.29594232227E+03  0.12685055410E+04 -0.12391731920E+04  0.17978488411E+04  0.46999998093E+01 0.  1.
</event>
<event>
 5   0  0.3442126E-07  0.3760948E+04  0.7818609E-02  0.8054588E-01
       -2   -1    0    0    0  501  0.00000000000E+00  0.00000000000E+00  0.29906579502E+04  0.29906579502E+04  0.25500000920E-02 0. -1.
        2   -1    0    0  501    0  0.00000000000E+00  0.00000000000E+00 -0.11824096959E+04  0.11824096959E+04  0.25500000920E-02 0.  1.
    10030    2    1    2    0    0  0.00000000000E+00  0.00000000000E+00  0.18082482543E+04  0.41730676461E+04  0.37609482620E+04 0.  0.
        2    1    3    3  502    0 -0.15608924902E+04 -0.54622597287E+03 -0.89202684587E+02  0.16561114993E+04  0.25500000920E-02 0.  1.
       -2    1    3    3    0  502  0.15608924902E+04  0.54622597287E+03  0.18974509388E+04  0.25169561467E+04  0.25500000920E-02 0. -1.
</event>
<event>
 5   0  0.1070988E-07  0.3799325E+04  0.7818609E-02  0.8046300E-01
        1   -1    0    0  501    0  0.00000000000E+00  0.00000000000E+00  0.19625141624E+04  0.19625141624E+04  0.50400001928E-02 0. -1.
       -1   -1    0    0    0  501  0.00000000000E+00  0.00000000000E+00 -0.18388233889E+04  0.18388233889E+04  0.50400001928E-02 0.  1.
    10030    2    1    2    0    0  0.00000000000E+00  0.00000000000E+00  0.12369077352E+03  0.38013375513E+04  0.37993246468E+04 0.  0.
        2    1    3    3  502    0  0.43058728034E+03  0.17219194101E+04  0.73918639097E+03  0.19227086055E+04  0.25500000920E-02 0. -1.
       -2    1    3    3    0  502 -0.43058728034E+03 -0.17219194101E+04 -0.61549561745E+03  0.18786289458E+04  0.25500000920E-02 0.  1.
</event>
<event>
 5   0  0.1070988E-07  0.3821328E+04  0.7818609E-02  0.8041593E-01
        1   -1    0    0  501    0  0.00000000000E+00  0.00000000000E+00  0.19146952810E+04  0.19146952810E+04  0.50400001928E-02 0. -1.
       -1   -1    0    0    0  501  0.00000000000E+00  0.00000000000E+00 -0.19066415472E+04  0.19066415472E+04  0.50400001928E-02 0.  1.
    10030    2    1    2    0    0  0.00000000000E+00  0.00000000000E+00  0.80537337324E+01  0.38213368282E+04  0.38213283413E+04 0.  0.
        3    1    3    3  502    0 -0.13066208416E+04  0.60047875607E+03  0.12621253659E+04  0.19133199444E+04  0.10100000352E+00 0. -1.
       -3    1    3    3    0  502  0.13066208416E+04 -0.60047875607E+03 -0.12540716322E+04  0.19080168838E+04  0.10100000352E+00 0.  1.
</event>
<event>
 5   0  0.3539010E-07  0.3786307E+04  0.7818609E-02  0.8049100E-01
       -2   -1    0    0    0  501  0.00000000000E+00  0.00000000000E+00  0.16954183158E+04  0.16954183158E+04  0.25500000920E-02 0. -1.
        2   -1    0    0  501    0  0.00000000000E+00  0.00000000000E+00 -0.21139498937E+04  0.21139498937E+04  0.25500000920E-02 0.  1.
    10030    2    1    2    0    0  0.00000000000E+00  0.00000000000E+00 -0.41853157786E+03  0.38093682095E+04  0.37863065742E+04 0.  0.
        1    1    3    3  502    0 -0.17593503732E+04 -0.66371220194E+03 -0.43015197761E+03  0.19289526553E+04  0.50400001928E-02 0.  1.
       -1    1    3    3    0  502  0.17593503732E+04  0.66371220194E+03  0.11620399757E+02  0.18804155542E+04  0.50400001928E-02 0. -1.
</event>
<event>
 5   0  0.1070988E-07  0.3751243E+04  0.7818609E-02  0.8056700E-01
       -1   -1    0    0    0  501  0.00000000000E+00  0.00000000000E+00  0.14180221894E+04  0.14180221894E+04  0.50400001928E-02 0.  1.
        1   -1    0    0  501    0  0.00000000000E+00  0.00000000000E+00 -0.24808890978E+04  0.24808890978E+04  0.50400001928E-02 0. -1.
    10030    2    1    2    0    0  0.00000000000E+00  0.00000000000E+00 -0.10628669084E+04  0.38989112873E+04  0.37512428821E+04 0.  0.
        3    1    3    3  502    0  0.13305450991E+04  0.11821960350E+04  0.83479146047E+02  0.17818267323E+04  0.10100000352E+00 0. -1.
       -3    1    3    3    0  502 -0.13305450991E+04 -0.11821960350E+04 -0.11463460545E+04  0.21170845549E+04  0.10100000352E+00 0.  1.
</event>
<event>
 5   0  0.3442126E-07  0.3729732E+04  0.7818609E-02  0.8061405E-01
       -2   -1    0    0    0  501  0.00000000000E+00  0.00000000000E+00  0.13978301156E+04  0.13978301157E+04  0.25500000920E-02 0. -1.
        2   -1    0    0  501    0  0.00000000000E+00  0.00000000000E+00 -0.24879452368E+04  0.24879452368E+04  0.25500000920E-02 0.  1.
    10030    2    1    2    0    0  0.00000000000E+00  0.00000000000E+00 -0.10901151212E+04  0.38857753525E+04  0.37297317749E+04 0.  0.
        2    1    3    3  502    0 -0.33647333531E+03 -0.10224744513E+04 -0.21316148204E+04  0.23879803289E+04  0.25500000920E-02 0.  1.
       -2    1    3    3    0  502  0.33647333531E+03  0.10224744513E+04  0.10414996992E+04  0.14977950235E+04  0.25500000920E-02 0. -1.
</event>
<event>
 5   0  0.3327241E-07  0.3722127E+04  0.7818609E-02  0.8063076E-01
       -2   -1    0    0    0  501  0.00000000000E+00  0.00000000000E+00  0.16020411661E+04  0.16020411661E+04  0.25500000920E-02 0. -1.
        2   -1    0    0  501    0  0.00000000000E+00  0.00000000000E+00 -0.21619649342E+04  0.21619649342E+04  0.25500000920E-02 0.  1.
    10030    2    1    2    0    0  0.00000000000E+00  0.00000000000E+00 -0.55992376815E+03  0.37640061003E+04  0.37221267170E+04 0.  0.
        3    1    3    3  502    0 -0.70709465750E+03  0.17007354712E+04 -0.54955632148E+03  0.19221072182E+04  0.10100000352E+00 0. -1.
       -3    1    3    3    0  502  0.70709465750E+03 -0.17007354712E+04 -0.10367446670E+02  0.18418988821E+04  0.10100000352E+00 0.  1.
</event>
<event>
 5   0  0.3539010E-07  0.3804539E+04  0.7818609E-02  0.8045182E-01
       -2   -1    0    0    0  501  0.00000000000E+00  0.00000000000E+00  0.15549881196E+04  0.15549881196E+04  0.25500000920E-02 0.  1.
        2   -1    0    0  501    0  0.00000000000E+00  0.00000000000E+00 -0.23271104246E+04  0.23271104246E+04  0.25500000920E-02 0. -1.
    10030    2    1    2    0    0  0.00000000000E+00  0.00000000000E+00 -0.77212230491E+03  0.38820985442E+04  0.38045389015E+04 0.  0.
        1    1    3    3  502    0  0.18648909604E+04  0.32673572483E+03 -0.19776042160E+03  0.19035975710E+04  0.50400001928E-02 0. -1.
       -1    1    3    3    0  502 -0.18648909604E+04 -0.32673572483E+03 -0.57436188331E+03  0.19785009732E+04  0.50400001928E-02 0.  1.
</event>
<event>
 5   0  0.3377396E-07  0.3739991E+04  0.7818609E-02  0.8059157E-01
       -2   -1    0    0    0  501  0.00000000000E+00  0.00000000000E+00  0.15863712380E+04  0.15863712380E+04  0.25500000920E-02 0.  1.
        2   -1    0    0  501    0  0.00000000000E+00  0.00000000000E+00 -0.22043285099E+04  0.22043285099E+04  0.25500000920E-02 0. -1.
    10030    2    1    2    0    0  0.00000000000E+00  0.00000000000E+00 -0.61795727187E+03  0.37906997479E+04  0.37399910947E+04 0.  0.
        5    1    3    3  502    0  0.10222546582E+04  0.95912085842E+03 -0.15634774122E+04  0.20998574037E+04  0.46999998093E+01 0. -1.
       -5    1    3    3    0  502 -0.10222546582E+04 -0.95912085842E+03  0.94552014036E+03  0.16908423442E+04  0.46999998093E+01 0.  1.
</event>
<event>
 5   0  0.1084315E-07  0.3758486E+04  0.7818609E-02  0.8055123E-01
        1   -1    0    0  501    0  0.00000000000E+00  0.00000000000E+00  0.21349810874E+04  0.21349810874E+04  0.50400001928E-02 0.  1.
       -1   -1    0    0    0  501  0.00000000000E+00  0.00000000000E+00 -0.16541382256E+04  0.16541382256E+04  0.50400001928E-02 0. -1.
    10030    2    1    2    0    0  0.00000000000E+00  0.00000000000E+00  0.48084286174E+03  0.37891193130E+04  0.37584857736E+04 0.  0.
        4    1    3    3  502    0 -0.78682580550E+03  0.16730220090E+04 -0.99154313636E+02  0.18514671700E+04  0.12699999809E+01 0. -1.
       -4    1    3    3    0  502  0.78682580550E+03 -0.16730220090E+04  0.57999717537E+03  0.19376521430E+04  0.12699999809E+01 0.  1.
</event>
<event>
 5   0  0.1070988E-07  0.3699854E+04  0.7818609E-02  0.8067994E-01
        1   -1    0    0  501    0  0.00000000000E+00  0.00000000000E+00  0.12535644687E+04  0.12535644687E+04  0.50400001928E-02 0.  1.
       -1   -1    0    0    0  501  0.00000000000E+00  0.00000000000E+00 -0.27299984657E+04  0.27299984657E+04  0.50400001928E-02 0. -1.
    10030    2    1    2    0    0  0.00000000000E+00  0.00000000000E+00 -0.14764339969E+04  0.39835629344E+04  0.36998535518E+04 0.  0.
        5    1    3    3  502    0 -0.46002313604E+03 -0.15083047418E+04  0.30321960298E+03  0.16057922336E+04  0.46999998093E+01 0.  1.
       -5    1    3    3    0  502  0.46002313604E+03  0.15083047418E+04 -0.17796535999E+04  0.23777707008E+04  0.46999998093E+01 0. -1.
</event>
<event>
 5   0  0.3509843E-07  0.3789315E+04  0.7818609E-02  0.8048452E-01
       -2   -1    0    0    0  501  0.00000000000E+00  0.00000000000E+00  0.15836288041E+04  0.15836288041E+04  0.25500000920E-02 0.  1.
        2   -1    0    0  501    0  0.00000000000E+00  0.00000000000E+00 -0.22667734369E+04  0.22667734369E+04  0.25500000920E-02 0. -1.
    10030    2    1    2    0    0  0.00000000000E+00  0.00000000000E+00 -0.68314463277E+03  0.38504022410E+04  0.37893153508E+04 0.  0.
        4    1    3    3  502    0  0.13268926366E+04 -0.52800599232E+02  0.10316179389E+04  0.16815674703E+04  0.12699999809E+01 0.  1.
       -4    1    3    3    0  502 -0.13268926366E+04  0.52800599232E+02 -0.17147625717E+04  0.21688347707E+04  0.12699999809E+01 0. -1.
</event>
<event>
 5   0  0.1084315E-07  0.3845145E+04  0.7818609E-02  0.8036536E-01
        1   -1    0    0  501    0  0.00000000000E+00  0.00000000000E+00  0.22476509524E+04  0.22476509524E+04  0.50400001928E-02 0.  1.
       -1   -1    0    0    0  501  0.00000000000E+00  0.00000000000E+00 -0.16445098739E+04  0.16445098739E+04  0.50400001928E-02 0. -1.
    10030    2    1    2    0    0  0.00000000000E+00  0.00000000000E+00  0.60314107857E+03  0.38921608263E+04  0.38451445665E+04 0.  0.
        4    1    3    3  502    0  0.15911945191E+04  0.75312407748E+03  0.10837981966E+04  0.20672967899E+04  0.12699999809E+01 0.  1.
       -4    1    3    3    0  502 -0.15911945191E+04 -0.75312407748E+03 -0.48065711803E+03  0.18248640365E+04  0.12699999809E+01 0. -1.
</event>
<event>
 5   0  0.1070988E-07  0.3783719E+04  0.7818609E-02  0.8049658E-01
       -1   -1    0    0    0  501  0.00000000000E+00  0.00000000000E+00  0.12826671397E+04  0.12826671397E+04  0.50400001928E-02 0.  1.
        1   -1    0    0  501    0  0.00000000000E+00  0.00000000000E+00 -0.27903825803E+04  0.27903825803E+04  0.50400001928E-02 0. -1.
    10030    2    1    2    0    0  0.00000000000E+00  0.00000000000E+00 -0.15077154407E+04  0.40730497200E+04  0.37837188283E+04 0.  0.
        3    1    3    3  502    0 -0.11056155319E+04  0.14543603255E+04 -0.22476294140E+03  0.18406705438E+04  0.10100000352E+00 0.  1.
       -3    1    3    3    0  502  0.11056155319E+04 -0.14543603255E+04 -0.12829524993E+04  0.22323791762E+04  0.10100000352E+00 0. -1.
</event>
<event>
 5   0  0.3539010E-07  0.3828316E+04  0.7818609E-02  0.8040106E-01
       -2   -1    0    0    0  501  0.00000000000E+00  0.00000000000E+00  0.14956860310E+04  0.14956860310E+04  0.25500000920E-02 0. -1.
        2   -1    0    0  501    0  0.00000000000E+00  0.00000000000E+00 -0.24497123021E+04  0.24497123021E+04  0.25500000920E-02 0.  1.
    10030    2    1    2    0    0  0.00000000000E+00  0.00000000000E+00 -0.95402627111E+03  0.39453983332E+04  0.38283158022E+04 0.  0.
        1    1    3    3  502    0 -0.54000530940E+03  0.15077582282E+04 -0.15574360200E+04  0.22339533490E+04  0.50400001928E-02 0.  1.
       -1    1    3    3    0  502  0.54000530940E+03 -0.15077582282E+04  0.60340974887E+03  0.17114449842E+04  0.50400001928E-02 0. -1.
</event>
<event>
 5   0  0.1070988E-07  0.3769369E+04  0.7818609E-02  0.8052760E-01
       -1   -1    0    0    0  501  0.00000000000E+00  0.00000000000E+00  0.15143906140E+04  0.15143906140E+04  0.50400001928E-02 0.  1.
        1   -1    0    0  501    0  0.00000000000E+00  0.00000000000E+00 -0.23455215779E+04  0.23455215779E+04  0.50400001928E-02 0. -1.
    10030    2    1    2    0    0  0.00000000000E+00  0.00000000000E+00 -0.83113096387E+03  0.38599121919E+04  0.37693691050E+04 0.  0.
        5    1    3    3  502    0  0.57673920643E+03 -0.17012082641E+03  0.14135215052E+04  0.15361101339E+04  0.46999998093E+01 0.  1.
       -5    1    3    3    0  502 -0.57673920643E+03  0.17012082641E+03 -0.22446524691E+04  0.23238020580E+04  0.46999998093E+01 0. -1.
</event>
<event>
 5   0  0.3509843E-07  0.3815133E+04  0.7818609E-02  0.8042915E-01
        2   -1    0    0  501    0  0.00000000000E+00  0.00000000000E+00  0.26274674453E+04  0.26274674453E+04  0.25500000920E-02 0.  1.
       -2   -1    0    0    0  501  0.00000000000E+00  0.00000000000E+00 -0.13849115275E+04  0.13849115275E+04  0.25500000920E-02 0. -1.
    10030    2    1    2    0    0  0.00000000000E+00  0.00000000000E+00  0.12425559178E+04  0.40123789728E+04  0.38151330006E+04 0.  0.
        4    1    3    3  502    0 -0.36146464004E+03  0.67749828160E+03 -0.12151821387E+04  0.14374734261E+04  0.12699999809E+01 0. -1.
       -4    1    3    3    0  502  0.36146464004E+03 -0.67749828160E+03  0.24577380565E+04  0.25749055468E+04  0.12699999809E+01 0.  1.
</event>
<event>
 5   0  0.3539010E-07  0.3787009E+04  0.7818609E-02  0.8048948E-01
       -2   -1    0    0    0  501  0.00000000000E+00  0.00000000000E+00  0.24050009615E+04  0.24050009615E+04  0.25500000920E-02 0. -1.
        2   -1    0    0  501    0  0.00000000000E+00  0.00000000000E+00 -0.14907932780E+04  0.14907932780E+04  0.25500000920E-02 0.  1.
    10030    2    1    2    0    0  0.00000000000E+00  0.00000000000E+00  0.91420768352E+03  0.38957942395E+04  0.37870089870E+04 0.  0.
        1    1    3    3  502    0 -0.17135739919E+04  0.53505737217E+02  0.12840360435E+04  0.21419494044E+04  0.50400001928E-02 0. -1.
       -1    1    3    3    0  502  0.17135739919E+04 -0.53505737217E+02 -0.36982836000E+03  0.17538448351E+04  0.50400001928E-02 0.  1.
</event>
<event>
 5   0  0.3327241E-07  0.3881683E+04  0.7818609E-02  0.8028850E-01
        2   -1    0    0  501    0  0.00000000000E+00  0.00000000000E+00  0.20988090283E+04  0.20988090283E+04  0.25500000920E-02 0.  1.
       -2   -1    0    0    0  501  0.00000000000E+00  0.00000000000E+00 -0.17947638947E+04  0.17947638947E+04  0.25500000920E-02 0. -1.
    10030    2    1    2    0    0  0.00000000000E+00  0.00000000000E+00  0.30404513364E+03  0.38935729230E+04  0.38816834832E+04 0.  0.
        3    1    3    3  502    0 -0.33985199938E+03  0.42093814094E+03 -0.17176013220E+04  0.18007894412E+04  0.10100000352E+00 0. -1.
       -3    1    3    3    0  502  0.33985199938E+03 -0.42093814094E+03  0.20216464557E+04  0.20927834818E+04  0.10100000352E+00 0.  1.
</event>
<event>
 5   0  0.3442126E-07  0.3797060E+04  0.7818609E-02  0.8046786E-01
       -2   -1    0    0    0  501  0.00000000000E+00  0.00000000000E+00  0.15290296064E+04  0.15290296064E+04  0.25500000920E-02 0.  1.
        2   -1    0    0  501    0  0.00000000000E+00  0.00000000000E+00 -0.23573221659E+04  0.23573221659E+04  0.25500000920E-02 0. -1.
    10030    2    1    2    0    0  0.00000000000E+00  0.00000000000E+00 -0.82829255950E+03  0.38863517722E+04  0.37970595905E+04 0.  0.
        2    1    3    3  502    0  0.89021837716E+03  0.10302025188E+04  0.94007402926E+03  0.16545528608E+04  0.25500000920E-02 0.  1.
       -2    1    3    3    0  502 -0.89021837716E+03 -0.10302025188E+04 -0.17683665888E+04  0.22317989114E+04  0.25500000920E-02 0. -1.
</event>
<event>
 5   0  0.3539010E-07  0.3819194E+04  0.7818609E-02  0.8042048E-01
        2   -1    0    0  501    0  0.00000000000E+00  0.00000000000E+00  0.23234045089E+04  0.23234045089E+04  0.25500000920E-02 0. -1.
       -2   -1    0    0    0  501  0.00000000000E+00  0.00000000000E+00 -0.15694902849E+04  0.15694902849E+04  0.25500000920E-02 0.  1.
    10030    2    1    2    0    0  0.00000000000E+00  0.00000000000E+00  0.75391422408E+03  0.38928947938E+04  0.38191940535E+04 0.  0.
        1    1    3    3  502    0 -0.94579501979E+03  0.71551825922E+03  0.19025244031E+04  0.22418951142E+04  0.50400001928E-02 0. -1.
       -1    1    3    3    0  502  0.94579501979E+03 -0.71551825922E+03 -0.11486101790E+04  0.16509996796E+04  0.50400001928E-02 0.  1.
</event>
<event>
 5   0  0.3377396E-07  0.3798119E+04  0.7818609E-02  0.8046559E-01
        2   -1    0    0  501    0  0.00000000000E+00  0.00000000000E+00  0.26352535987E+04  0.26352535987E+04  0.25500000920E-02 0.  1.
       -2   -1    0    0    0  501  0.00000000000E+00  0.00000000000E+00 -0.13685314777E+04  0.13685314777E+04  0.25500000920E-02 0. -1.
    10030    2    1    2    0    0  0.00000000000E+00  0.00000000000E+00  0.12667221209E+04  0.40037850764E+04  0.37981192723E+04 0.  0.
        5    1    3    3  502    0 -0.82207700517E+03  0.12473479962E+04 -0.60261179662E+03  0.16108540261E+04  0.46999998093E+01 0.  1.
       -5    1    3    3    0  502  0.82207700517E+03 -0.12473479962E+04  0.18693339176E+04  0.23929310503E+04  0.46999998093E+01 0. -1.
</event>
<event>
 5   0  0.3442126E-07  0.3086432E+04  0.7818609E-02  0.8219472E-01
        2   -1    0    0  501    0  0.00000000000E+00  0.00000000000E+00  0.18811088854E+04  0.18811088854E+04  0.25500000920E-02 0.  1.
       -2   -1    0    0    0  501  0.00000000000E+00  0.00000000000E+00 -0.12660165735E+04  0.12660165735E+04  0.25500000920E-02 0. -1.
    10030    2    1    2    0    0  0.00000000000E+00  0.00000000000E+00  0.61509231185E+03  0.31471254589E+04  0.30864316130E+04 0.  0.
        2    1    3    3  502    0  0.40616561416E+03 -0.14504281925E+04  0.65001172108E+03  0.16404961704E+04  0.25500000920E-02 0.  1.
       -2    1    3    3    0  502 -0.40616561416E+03  0.14504281925E+04 -0.34919409224E+02  0.15066292885E+04  0.25500000920E-02 0. -1.
</event>
<event>
 5   0  0.1070988E-07  0.4114311E+04  0.7818609E-02  0.7981875E-01
        1   -1    0    0  501    0  0.00000000000E+00  0.00000000000E+00  0.16582044423E+04  0.16582044423E+04  0.50400001928E-02 0. -1.
       -1   -1    0    0    0  501  0.00000000000E+00  0.00000000000E+00 -0.25520913650E+04  0.25520913650E+04  0.50400001928E-02 0.  1.
    10030    2    1    2    0    0  0.00000000000E+00  0.00000000000E+00 -0.89388692269E+03  0.42102958074E+04  0.41143112370E+04 0.  0.
        3    1    3    3  502    0  0.11725972136E+04  0.10297562915E+04 -0.18185511870E+04  0.23963536206E+04  0.10100000352E+00 0.  1.
       -3    1    3    3    0  502 -0.11725972136E+04 -0.10297562915E+04  0.92466426427E+03  0.18139421868E+04  0.10100000352E+00 0. -1.
</event>
<event>
 5   0  0.1085771E-07  0.3794423E+04  0.7818609E-02  0.8047353E-01
        1   -1    0    0  501    0  0.00000000000E+00  0.00000000000E+00  0.18305175047E+04  0.18305175047E+04  0.50400001928E-02 0.  1.
       -1   -1    0    0    0  501  0.00000000000E+00  0.00000000000E+00 -0.19663359596E+04  0.19663359596E+04  0.50400001928E-02 0. -1.
    10030    2    1    2    0    0  0.00000000000E+00  0.00000000000E+00 -0.13581845486E+03  0.37968534643E+04  0.37944234841E+04 0.  0.
        1    1    3    3  502    0 -0.72739067997E+03  0.67207568942E+03 -0.16871635368E+04  0.19563495939E+04  0.50400001928E-02 0. -1.
       -1    1    3    3    0  502  0.72739067997E+03 -0.67207568942E+03  0.15513450820E+04  0.18405038704E+04  0.50400001928E-02 0.  1.
</event>
<event>
 5   0  0.3442126E-07  0.3821826E+04  0.7818609E-02  0.8041487E-01
       -2   -1    0    0    0  501  0.00000000000E+00  0.00000000000E+00  0.14113051344E+04  0.14113051344E+04  0.25500000920E-02 0.  1.
        2   -1    0    0  501    0  0.00000000000E+00  0.00000000000E+00 -0.25873840905E+04  0.25873840905E+04  0.25500000920E-02 0. -1.
    10030    2    1    2    0    0  0.00000000000E+00  0.00000000000E+00 -0.11760789561E+04  0.39986892248E+04  0.38218259780E+04 0.  0.
        2    1    3    3  502    0  0.67014400078E+02  0.38537371369E+03  0.13689700304E+04  0.14237565708E+04  0.25500000920E-02 0.  1.
       -2    1    3    3    0  502 -0.67014400078E+02 -0.38537371369E+03 -0.25450489865E+04  0.25749326540E+04  0.25500000920E-02 0. -1.
</event>
<event>
 5   0  0.3377396E-07  0.3823851E+04  0.7818609E-02  0.8041056E-01
        2   -1    0    0  501    0  0.00000000000E+00  0.00000000000E+00  0.21592312353E+04  0.21592312353E+04  0.25500000920E-02 0. -1.
       -2   -1    0    0    0  501  0.00000000000E+00  0.00000000000E+00 -0.16929449314E+04  0.16929449314E+04  0.25500000920E-02 0.  1.
    10030    2    1    2    0    0  0.00000000000E+00  0.00000000000E+00  0.46628630396E+03  0.38521761667E+04  0.38238512395E+04 0.  0.
        5    1    3    3  502    0  0.73814584973E+03 -0.13690070530E+04 -0.88702772454E+03  0.17904971043E+04  0.46999998093E+01 0.  1.
       -5    1    3    3    0  502 -0.73814584973E+03  0.13690070530E+04  0.13533140285E+04  0.20616790624E+04  0.46999998093E+01 0. -1.
</event>
<event>
 5   0  0.3377396E-07  0.3811271E+04  0.7818609E-02  0.8043740E-01
        2   -1    0    0  501    0  0.00000000000E+00  0.00000000000E+00  0.14319942075E+04  0.14319942075E+04  0.25500000920E-02 0. -1.
       -2   -1    0    0    0  501  0.00000000000E+00  0.00000000000E+00 -0.25359369764E+04  0.25359369764E+04  0.25500000920E-02 0.  1.
    10030    2    1    2    0    0  0.00000000000E+00  0.00000000000E+00 -0.11039427690E+04  0.39679311839E+04  0.38112712109E+04 0.  0.
        5    1    3    3  502    0 -0.94164501439E+03 -0.88452009718E+03 -0.20103924760E+04  0.23897219782E+04  0.46999998093E+01 0.  1.
       -5    1    3    3    0  502  0.94164501439E+03  0.88452009718E+03  0.90644970707E+03  0.15782092057E+04  0.46999998093E+01 0. -1.
</event>
<event>
 5   0  0.1084315E-07  0.3822564E+04  0.7818609E-02  0.8041330E-01
       -1   -1    0    0    0  501  0.00000000000E+00  0.00000000000E+00  0.21894881751E+04  0.21894881751E+04  0.50400001928E-02 0. -1.
        1   -1    0    0  501    0  0.00000000000E+00  0.00000000000E+00 -0.16684262237E+04  0.16684262237E+04  0.50400001928E-02 0.  1.
    10030    2    1    2    0    0  0.00000000000E+00  0.00000000000E+00  0.52106195141E+03  0.38579143989E+04  0.38225643162E+04 0.  0.
        4    1    3    3  502    0  0.16081964973E+04 -0.10236578299E+04  0.12205222397E+03  0.19102538273E+04  0.12699999809E+01 0. -1.
       -4    1    3    3    0  502 -0.16081964973E+04  0.10236578299E+04  0.39900972744E+03  0.19476605716E+04  0.12699999809E+01 0.  1.
</event>
<event>
 5   0  0.1070988E-07  0.3798821E+04  0.7818609E-02  0.8046408E-01
       -3   -1    0    0    0  501  0.00000000000E+00  0.00000000000E+00  0.28140276568E+04  0.28140276586E+04  0.10100000352E+00 0.  1.
        3   -1    0    0  501    0  0.00000000000E+00  0.00000000000E+00 -0.12820626660E+04  0.12820626699E+04  0.10100000352E+00 0. -1.
    10030    2    1    2    0    0  0.00000000000E+00  0.00000000000E+00  0.15319649908E+04  0.40960903285E+04  0.37988207705E+04 0.  0.
        3    1    3    3  502    0  0.18194555275E+03 -0.98151295257E+03 -0.97641846983E+03  0.13963756295E+04  0.10100000352E+00 0. -1.
       -3    1    3    3    0  502 -0.18194555275E+03  0.98151295257E+03  0.25083834607E+04  0.26997146990E+04  0.10100000352E+00 0.  1.
</event>
<event>
 5   0  0.3539010E-07  0.4045542E+04  0.7818609E-02  0.7995422E-01
       -2   -1    0    0    0  501  0.00000000000E+00  0.00000000000E+00  0.17572050075E+04  0.17572050075E+04  0.25500000920E-02 0.  1.
        2   -1    0    0  501    0  0.00000000000E+00  0.00000000000E+00 -0.23284724425E+04  0.23284724425E+04  0.25500000920E-02 0. -1.
    10030    2    1    2    0    0  0.00000000000E+00  0.00000000000E+00 -0.57126743499E+03  0.40856774500E+04  0.40455424535E+04 0.  0.
        1    1    3    3  502    0  0.12455362406E+03  0.17009285675E+04 -0.13840505388E+04  0.21964215194E+04  0.50400001928E-02 0. -1.
       -1    1    3    3    0  502 -0.12455362406E+03 -0.17009285675E+04  0.81278310381E+03  0.18892559305E+04  0.50400001928E-02 0.  1.
</event>
<event>
 5   0  0.3509843E-07  0.3850623E+04  0.7818609E-02  0.8035378E-01
       -2   -1    0    0    0  501  0.00000000000E+00  0.00000000000E+00  0.24780095533E+04  0.24780095533E+04  0.25500000920E-02 0. -1.
        2   -1    0    0  501    0  0.00000000000E+00  0.00000000000E+00 -0.14958881603E+04  0.14958881603E+04  0.25500000920E-02 0.  1.
    10030    2    1    2    0    0  0.00000000000E+00  0.00000000000E+00  0.98212139301E+03  0.39738977135E+04  0.38506234050E+04 0.  0.
        4    1    3    3  502    0  0.80960252641E+02  0.17513626686E+04  0.13121430742E+04  0.21898736995E+04  0.12699999809E+01 0. -1.
       -4    1    3    3    0  502 -0.80960252641E+02 -0.17513626686E+04 -0.33002168122E+03  0.17840240140E+04  0.12699999809E+01 0.  1.
</event>
<event>
 5   0  0.3442126E-07  0.3779372E+04  0.7818609E-02  0.8050596E-01
       -2   -1    0    0    0  501  0.00000000000E+00  0.00000000000E+00  0.21147008265E+04  0.21147008265E+04  0.25500000920E-02 0. -1.
        2   -1    0    0  501    0  0.00000000000E+00  0.00000000000E+00 -0.16886135813E+04  0.16886135813E+04  0.25500000920E-02 0.  1.
    10030    2    1    2    0    0  0.00000000000E+00  0.00000000000E+00  0.42608724522E+03  0.38033144079E+04  0.37793716600E+04 0.  0.
        2    1    3    3  502    0  0.94833494677E+03  0.11805126744E+04  0.13506756207E+04  0.20291066946E+04  0.25500000920E-02 0. -1.
       -2    1    3    3    0  502 -0.94833494677E+03 -0.11805126744E+04 -0.92458837551E+03  0.17742077133E+04  0.25500000920E-02 0.  1.
</event>
<event>
 5   0  0.3442126E-07  0.3661892E+04  0.7818609E-02  0.8076460E-01
        2   -1    0    0  501    0  0.00000000000E+00  0.00000000000E+00  0.30712333178E+04  0.30712333178E+04  0.25500000920E-02 0. -1.
       -2   -1    0    0    0  501  0.00000000000E+00  0.00000000000E+00 -0.10915362792E+04  0.10915362792E+04  0.25500000920E-02 0.  1.
    10030    2    1    2    0    0  0.00000000000E+00  0.00000000000E+00  0.19796970385E+04  0.41627695970E+04  0.36618916359E+04 0.  0.
        2    1    3    3  502    0 -0.15708449593E+04 -0.89914702668E+03  0.13039445334E+04  0.22307600965E+04  0.25500000920E-02 0.  1.
       -2    1    3    3    0  502  0.15708449593E+04  0.89914702668E+03  0.67575250511E+03  0.19320095005E+04  0.25500000920E-02 0. -1.
</event>
<event>
 5   0  0.1070988E-07  0.3780911E+04  0.7818609E-02  0.8050264E-01
        1   -1    0    0  501    0  0.00000000000E+00  0.00000000000E+00  0.20970079659E+04  0.20970079659E+04  0.50400001928E-02 0. -1.
       -1   -1    0    0    0  501  0.00000000000E+00  0.00000000000E+00 -0.17042477982E+04  0.17042477982E+04  0.50400001928E-02 0.  1.
    10030    2    1    2    0    0  0.00000000000E+00  0.00000000000E+00  0.39276016774E+03  0.38012557641E+04  0.37809105828E+04 0.  0.
        2    1    3    3  502    0  0.11475123454E+04 -0.48155623032E+03  0.16271119000E+04  0.20484565216E+04  0.25500000920E-02 0. -1.
       -2    1    3    3    0  502 -0.11475123454E+04  0.48155623032E+03 -0.12343517322E+04  0.17527992425E+04  0.25500000920E-02 0.  1.
</event>
<event>
 5   0  0.1070988E-07  0.3809989E+04  0.7818609E-02  0.8044015E-01
        1   -1    0    0  501    0  0.00000000000E+00  0.00000000000E+00  0.26512100201E+04  0.26512100201E+04  0.50400001928E-02 0.  1.
       -1   -1    0    0    0  501  0.00000000000E+00  0.00000000000E+00 -0.13688105537E+04  0.13688105537E+04  0.50400001928E-02 0. -1.
    10030    2    1    2    0    0  0.00000000000E+00  0.00000000000E+00  0.12823994664E+04  0.40200205738E+04  0.38099891105E+04 0.  0.
        3    1    3    3  502    0 -0.14366173367E+04 -0.10658046066E+04 -0.50045385571E+02  0.17895008752E+04  0.10100000352E+00 0. -1.
       -3    1    3    3    0  502  0.14366173367E+04  0.10658046066E+04  0.13324448520E+04  0.22305196985E+04  0.10100000352E+00 0.  1.
</event>
<event>
 5   0  0.3377396E-07  0.3777574E+04  0.7818609E-02  0.8050985E-01
       -2   -1    0    0    0  501  0.00000000000E+00  0.00000000000E+00  0.25951941203E+04  0.25951941203E+04  0.25500000920E-02 0. -1.
        2   -1    0    0  501    0  0.00000000000E+00  0.00000000000E+00 -0.13746624056E+04  0.13746624056E+04  0.25500000920E-02 0.  1.
    10030    2    1    2    0    0  0.00000000000E+00  0.00000000000E+00  0.12205317148E+04  0.39698565259E+04  0.37775737146E+04 0.  0.
        5    1    3    3  502    0 -0.35883140186E+03  0.18130616077E+04  0.20116780080E+03  0.18591511349E+04  0.46999998093E+01 0.  1.
       -5    1    3    3    0  502  0.35883140186E+03 -0.18130616077E+04  0.10193639140E+04  0.21107053910E+04  0.46999998093E+01 0. -1.
</event>
<event>
 5   0  0.3539010E-07  0.3807865E+04  0.7818609E-02  0.8044469E-01
       -2   -1    0    0    0  501  0.00000000000E+00  0.00000000000E+00  0.15286999869E+04  0.15286999869E+04  0.25500000920E-02 0.  1.
        2   -1    0    0  501    0  0.00000000000E+00  0.00000000000E+00 -0.23712695333E+04  0.23712695333E+04  0.25500000920E-02 0. -1.
    10030    2    1    2    0    0  0.00000000000E+00  0.00000000000E+00 -0.84256954644E+03  0.38999695202E+04  0.38078653886E+04 0.  0.
        1    1    3    3  502    0  0.73749953581E+03  0.13339029842E+04  0.74725791164E+03  0.16975267665E+04  0.50400001928E-02 0.  1.
       -1    1    3    3    0  502 -0.73749953581E+03 -0.13339029842E+04 -0.15898274581E+04  0.22024427536E+04  0.50400001928E-02 0. -1.
</event>
<event>
 5   0  0.1084315E-07  0.3702630E+04  0.7818609E-02  0.8067379E-01
       -1   -1    0    0    0  501  0.00000000000E+00  0.00000000000E+00  0.15534647271E+04  0.15534647271E+04  0.50400001928E-02 0.  1.
        1   -1    0    0  501    0  0.00000000000E+00  0.00000000000E+00 -0.22062728684E+04  0.22062728684E+04  0.50400001928E-02 0. -1.
    10030    2    1    2    0    0  0.00000000000E+00  0.00000000000E+00 -0.65280814129E+03  0.37597375954E+04  0.37026299190E+04 0.  0.
        4    1    3    3  502    0  0.33996626405E+02  0.83112813743E+03  0.13530204331E+04  0.15882681312E+04  0.12699999809E+01 0.  1.
       -4    1    3    3    0  502 -0.33996626405E+02 -0.83112813743E+03 -0.20058285744E+04  0.21714694642E+04  0.12699999809E+01 0. -1.
</event>
<event>
 5   0  0.1070988E-07  0.3794535E+04  0.7818609E-02  0.8047329E-01
       -1   -1    0    0    0  501  0.00000000000E+00  0.00000000000E+00  0.14377303314E+04  0.14377303314E+04  0.50400001928E-02 0. -1.
        1   -1    0    0  501    0  0.00000000000E+00  0.00000000000E+00 -0.25036847017E+04  0.25036847017E+04  0.50400001928E-02 0.  1.
    10030    2    1    2    0    0  0.00000000000E+00  0.00000000000E+00 -0.10659543702E+04  0.39414150331E+04  0.37945347203E+04 0.  0.
        3    1    3    3  502    0 -0.87144234305E+03 -0.16747124959E+04 -0.72882185600E+03  0.20236736419E+04  0.10100000352E+00 0. -1.
       -3    1    3    3    0  502  0.87144234305E+03  0.16747124959E+04 -0.33713251424E+03  0.19177413912E+04  0.10100000352E+00 0.  1.
</event>
<event>
 5   0  0.3377396E-07  0.3773256E+04  0.7818609E-02  0.8051919E-01
        2   -1    0    0  501    0  0.00000000000E+00  0.00000000000E+00  0.16733306662E+04  0.16733306662E+04  0.25500000920E-02 0. -1.
       -2   -1    0    0    0  501  0.00000000000E+00  0.00000000000E+00 -0.21271136533E+04  0.21271136533E+04  0.25500000920E-02 0.  1.
    10030    2    1    2    0    0  0.00000000000E+00  0.00000000000E+00 -0.45378298708E+03  0.38004443195E+04  0.37732556270E+04 0.  0.
        5    1    3    3  502    0 -0.14812740723E+04  0.36611596467E+03 -0.13444489560E+04  0.20336614424E+04  0.46999998093E+01 0. -1.
       -5    1    3    3    0  502  0.14812740723E+04 -0.36611596467E+03  0.89066596887E+03  0.17667828772E+04  0.46999998093E+01 0.  1.
</event>
<event>
 5   0  0.1070988E-07  0.3785799E+04  0.7818609E-02  0.8049209E-01
        4   -1    0    0  501    0  0.00000000000E+00  0.00000000000E+00  0.15330948029E+04  0.15330953289E+04  0.12699999809E+01 0.  1.
       -4   -1    0    0    0  501  0.00000000000E+00  0.00000000000E+00 -0.23371460745E+04  0.23371464195E+04  0.12699999809E+01 0. -1.
    10030    2    1    2    0    0  0.00000000000E+00  0.00000000000E+00 -0.80405127158E+03  0.38702417484E+04  0.37857988251E+04 0.  0.
        3    1    3    3  502    0 -0.15949788393E+03  0.67125626230E+03  0.13999720846E+04  0.15607518677E+04  0.10100000352E+00 0.  1.
       -3    1    3    3    0  502  0.15949788393E+03 -0.67125626230E+03 -0.22040233562E+04  0.23094898808E+04  0.10100000352E+00 0. -1.
</event>
<event>
 5   0  0.3442126E-07  0.3822686E+04  0.7818609E-02  0.8041304E-01
       -2   -1    0    0    0  501  0.00000000000E+00  0.00000000000E+00  0.30688077944E+04  0.30688077944E+04  0.25500000920E-02 0.  1.
        2   -1    0    0  501    0  0.00000000000E+00  0.00000000000E+00 -0.11904401209E+04  0.11904401209E+04  0.25500000920E-02 0. -1.
    10030    2    1    2    0    0  0.00000000000E+00  0.00000000000E+00  0.18783676735E+04  0.42592479153E+04  0.38226859257E+04 0.  0.
        2    1    3    3  502    0  0.11320660726E+04  0.80684782324E+03 -0.52235779986E+03  0.14850705956E+04  0.25500000920E-02 0. -1.
       -2    1    3    3    0  502 -0.11320660726E+04 -0.80684782324E+03  0.24007254734E+04  0.27741773197E+04  0.25500000920E-02 0.  1.
</event>
<event>
 5   0  0.3509843E-07  0.3764896E+04  0.7818609E-02  0.8053730E-01
        2   -1    0    0  501    0  0.00000000000E+00  0.00000000000E+00  0.35427167888E+04  0.35427167888E+04  0.25500000920E-02 0.  1.
       -2   -1    0    0    0  501  0.00000000000E+00  0.00000000000E+00 -0.10002520126E+04  0.10002520126E+04  0.25500000920E-02 0. -1.
    10030    2    1    2    0    0  0.00000000000E+00  0.00000000000E+00  0.25424647762E+04  0.45429688015E+04  0.37648955355E+04 0.  0.
        4    1    3    3  502    0  0.52170942807E+03  0.80860052559E+03  0.32234932082E+04  0.33640638539E+04  0.12699999809E+01 0.  1.
       -4    1    3    3    0  502 -0.52170942807E+03 -0.80860052559E+03 -0.68102843196E+03  0.11789049475E+04  0.12699999809E+01 0. -1.
</event>
<event>
 5   0  0.1085771E-07  0.3799132E+04  0.7818609E-02  0.8046341E-01
       -1   -1    0    0    0  501  0.00000000000E+00  0.00000000000E+00  0.13817037969E+04  0.13817037969E+04  0.50400001928E-02 0. -1.
        1   -1    0    0  501    0  0.00000000000E+00  0.00000000000E+00 -0.26115221892E+04  0.26115221892E+04  0.50400001928E-02 0.  1.
    10030    2    1    2    0    0  0.00000000000E+00  0.00000000000E+00 -0.12298183923E+04  0.39932259861E+04  0.37991315453E+04 0.  0.
        1    1    3    3  502    0 -0.90702417758E+03  0.16528133808E+04 -0.85885517999E+03  0.20717425396E+04  0.50400001928E-02 0.  1.
       -1    1    3    3    0  502  0.90702417758E+03 -0.16528133808E+04 -0.37096321226E+03  0.19214834465E+04  0.50400001928E-02 0. -1.
</event>
<event>
 5   0  0.1085771E-07  0.3871560E+04  0.7818609E-02  0.8030970E-01
       -1   -1    0    0    0  501  0.00000000000E+00  0.00000000000E+00  0.18577218156E+04  0.18577218156E+04  0.50400001928E-02 0. -1.
        1   -1    0    0  501    0  0.00000000000E+00  0.00000000000E+00 -0.20171183882E+04  0.20171183882E+04  0.50400001928E-02 0.  1.
    10030    2    1    2    0    0  0.00000000000E+00  0.00000000000E+00 -0.15939657263E+03  0.38748402039E+04  0.38715603234E+04 0.  0.
        1    1    3    3  502    0  0.22433783638E+03  0.78246138311E+03  0.16781129285E+04  0.18651102599E+04  0.50400001928E-02 0. -1.
       -1    1    3    3    0  502 -0.22433783638E+03 -0.78246138311E+03 -0.18375095011E+04  0.20097299439E+04  0.50400001928E-02 0.  1.
</event>
<event>
 5   0  0.1070988E-07  0.3847608E+04  0.7818609E-02  0.8036015E-01
        1   -1    0    0  501    0  0.00000000000E+00  0.00000000000E+00  0.25423393212E+04  0.25423393212E+04  0.50400001928E-02 0. -1.
       -1   -1    0    0    0  501  0.00000000000E+00  0.00000000000E+00 -0.14557548184E+04  0.14557548184E+04  0.50400001928E-02 0.  1.
    10030    2    1    2    0    0  0.00000000000E+00  0.00000000000E+00  0.10865845028E+04  0.39980941396E+04  0.38476084608E+04 0.  0.
        5    1    3    3  502    0 -0.24646777180E+03 -0.15999554457E+04  0.16233669601E+04  0.22925850405E+04  0.46999998093E+01 0. -1.
       -5    1    3    3    0  502  0.24646777180E+03  0.15999554457E+04 -0.53678245730E+03  0.17055090991E+04  0.46999998093E+01 0.  1.
</event>
<event>
 5   0  0.3539010E-07  0.3805954E+04  0.7818609E-02  0.8044878E-01
       -2   -1    0    0    0  501  0.00000000000E+00  0.00000000000E+00  0.16509988223E+04  0.16509988223E+04  0.25500000920E-02 0.  1.
        2   -1    0    0  501    0  0.00000000000E+00  0.00000000000E+00 -0.21934120935E+04  0.21934120935E+04  0.25500000920E-02 0. -1.
    10030    2    1    2    0    0  0.00000000000E+00  0.00000000000E+00 -0.54241327114E+03  0.38444109158E+04  0.38059536430E+04 0.  0.
        1    1    3    3  502    0  0.17104566508E+04  0.39020153534E+03 -0.10158130277E+04  0.20272630071E+04  0.50400001928E-02 0. -1.
       -1    1    3    3    0  502 -0.17104566508E+04 -0.39020153534E+03  0.47339975657E+03  0.18171479087E+04  0.50400001928E-02 0.  1.
</event>
<event>
 5   0  0.3509843E-07  0.3834642E+04  0.7818609E-02  0.8038761E-01
       -2   -1    0    0    0  501  0.00000000000E+00  0.00000000000E+00  0.14733657435E+04  0.14733657435E+04  0.25500000920E-02 0. -1.
        2   -1    0    0  501    0  0.00000000000E+00  0.00000000000E+00 -0.24950490499E+04  0.24950490499E+04  0.25500000920E-02 0.  1.
    10030    2    1    2    0    0  0.00000000000E+00  0.00000000000E+00 -0.10216833065E+04  0.39684147934E+04  0.38346419903E+04 0.  0.
        4    1    3    3  502    0  0.67392600848E+03 -0.12959751940E+04 -0.17960968464E+04  0.23151011777E+04  0.12699999809E+01 0.  1.
       -4    1    3    3    0  502 -0.67392600848E+03  0.12959751940E+04  0.77441353987E+03  0.16533136157E+04  0.12699999809E+01 0. -1.
</event>
<event>
 5   0  0.1084315E-07  0.3811187E+04  0.7818609E-02  0.8043759E-01
        1   -1    0    0  501    0  0.00000000000E+00  0.00000000000E+00  0.23704623962E+04  0.23704623962E+04  0.50400001928E-02 0. -1.
       -1   -1    0    0    0  501  0.00000000000E+00  0.00000000000E+00 -0.15318891787E+04  0.15318891787E+04  0.50400001928E-02 0.  1.
    10030    2    1    2    0    0  0.00000000000E+00  0.00000000000E+00  0.83857321750E+03  0.39023515749E+04  0.38111865309E+04 0.  0.
        4    1    3    3  502    0  0.66065494477E+03  0.14598217780E+04 -0.63676181352E+03  0.17242423843E+04  0.12699999809E+01 0.  1.
       -4    1    3    3    0  502 -0.66065494477E+03 -0.14598217780E+04  0.14753350310E+04  0.21781091906E+04  0.12699999809E+01 0. -1.
</event>
<event>
 5   0  0.1070988E-07  0.3777271E+04  0.7818609E-02  0.8051050E-01
       -3   -1    0    0    0  501  0.00000000000E+00  0.00000000000E+00  0.21855970074E+04  0.21855970098E+04  0.10100000352E+00 0. -1.
        3   -1    0    0  501    0  0.00000000000E+00  0.00000000000E+00 -0.16320227448E+04  0.16320227480E+04  0.10100000352E+00 0.  1.
    10030    2    1    2    0    0  0.00000000000E+00  0.00000000000E+00  0.55357426261E+03  0.38176197577E+04  0.37772709925E+04 0.  0.
        1    1    3    3  502    0 -0.78545436336E+03  0.91896687250E+03  0.17433230445E+04  0.21214650379E+04  0.50400001928E-02 0. -1.
       -1    1    3    3    0  502  0.78545436336E+03 -0.91896687250E+03 -0.11897487818E+04  0.16961547198E+04  0.50400001928E-02 0.  1.
</event>
<event>
 5   0  0.3539010E-07  0.3541275E+04  0.7818609E-02  0.8104077E-01
        2   -1    0    0  501    0  0.00000000000E+00  0.00000000000E+00  0.25580767832E+04  0.25580767832E+04  0.25500000920E-02 0. -1.
       -2   -1    0    0    0  501  0.00000000000E+00  0.00000000000E+00 -0.12255917098E+04  0.12255917098E+04  0.25500000920E-02 0.  1.
    10030    2    1    2    0    0  0.00000000000E+00  0.00000000000E+00  0.13324850735E+04  0.37836684930E+04  0.35412753062E+04 0.  0.
        1    1    3    3  502    0 -0.56018832573E+03 -0.16209513264E+04  0.19580555819E+03  0.17261616319E+04  0.50400001928E-02 0. -1.
       -1    1    3    3    0  502  0.56018832573E+03  0.16209513264E+04  0.11366795153E+04  0.20575068611E+04  0.50400001928E-02 0.  1.
</event>
<event>
 5   0  0.1070988E-07  0.3807275E+04  0.7818609E-02  0.8044595E-01
       -1   -1    0    0    0  501  0.00000000000E+00  0.00000000000E+00  0.13856474083E+04  0.13856474083E+04  0.50400001928E-02 0.  1.
        1   -1    0    0  501    0  0.00000000000E+00  0.00000000000E+00 -0.26152656935E+04  0.26152656935E+04  0.50400001928E-02 0. -1.
    10030    2    1    2    0    0  0.00000000000E+00  0.00000000000E+00 -0.12296182853E+04  0.40009131018E+04  0.38072752095E+04 0.  0.
        5    1    3    3  502    0 -0.73672999488E+03  0.10744245637E+04  0.84382643920E+03  0.15521676385E+04  0.46999998093E+01 0.  1.
       -5    1    3    3    0  502  0.73672999488E+03 -0.10744245637E+04 -0.20734447245E+04  0.24487454633E+04  0.46999998093E+01 0. -1.
</event>
<event>
 5   0  0.3442126E-07  0.3792423E+04  0.7818609E-02  0.8047783E-01
        2   -1    0    0  501    0  0.00000000000E+00  0.00000000000E+00  0.22908020573E+04  0.22908020573E+04  0.25500000920E-02 0. -1.
       -2   -1    0    0    0  501  0.00000000000E+00  0.00000000000E+00 -0.15695890308E+04  0.15695890308E+04  0.25500000920E-02 0.  1.
    10030    2    1    2    0    0  0.00000000000E+00  0.00000000000E+00  0.72121302649E+03  0.38603910881E+04  0.37924228566E+04 0.  0.
        2    1    3    3  502    0  0.90452646700E+03 -0.12302562568E+04 -0.78378388038E+03  0.17163961542E+04  0.25500000920E-02 0.  1.
       -2    1    3    3    0  502 -0.90452646700E+03  0.12302562568E+04  0.15049969069E+04  0.21439949339E+04  0.25500000920E-02 0. -1.
</event>
<event>
 5   0  0.3442126E-07  0.3669590E+04  0.7818609E-02  0.8074735E-01
       -2   -1    0    0    0  501  0.00000000000E+00  0.00000000000E+00  0.17316065186E+04  0.17316065186E+04  0.25500000920E-02 0.  1.
        2   -1    0    0  501    0  0.00000000000E+00  0.00000000000E+00 -0.19441328465E+04  0.19441328465E+04  0.25500000920E-02 0. -1.
    10030    2    1    2    0    0  0.00000000000E+00  0.00000000000E+00 -0.21252632787E+03  0.36757393652E+04  0.36695902279E+04 0.  0.
        2    1    3    3  502    0  0.38133532559E+03 -0.31508931929E+03 -0.18760784911E+04  0.19401980348E+04  0.25500000920E-02 0. -1.
       -2    1    3    3    0  502 -0.38133532559E+03  0.31508931929E+03  0.16635521632E+04  0.17355413303E+04  0.25500000920E-02 0.  1.
</event>
<event>
 5   0  0.3509843E-07  0.3771959E+04  0.7818609E-02  0.8052199E-01
        2   -1    0    0  501    0  0.00000000000E+00  0.00000000000E+00  0.19092084447E+04  0.19092084447E+04  0.25500000920E-02 0. -1.
       -2   -1    0    0    0  501  0.00000000000E+00  0.00000000000E+00 -0.18630333236E+04  0.18630333236E+04  0.25500000920E-02 0.  1.
    10030    2    1    2    0    0  0.00000000000E+00  0.00000000000E+00  0.46175121093E+02  0.37722417683E+04  0.37719591483E+04 0.  0.
        4    1    3    3  502    0  0.16961552865E+04  0.37956011881E+03 -0.70902514398E+03  0.18771592653E+04  0.12699999809E+01 0.  1.
       -4    1    3    3    0  502 -0.16961552865E+04 -0.37956011881E+03  0.75520026507E+03  0.18950825030E+04  0.12699999809E+01 0. -1.
</event>
<event>
 5   0  0.3377396E-07  0.3780170E+04  0.7818609E-02  0.8050424E-01
       -2   -1    0    0    0  501  0.00000000000E+00  0.00000000000E+00  0.15825488705E+04  0.15825488705E+04  0.25500000920E-02 0.  1.
        2   -1    0    0  501    0  0.00000000000E+00  0.00000000000E+00 -0.22573849683E+04  0.22573849683E+04  0.25500000920E-02 0. -1.
    10030    2    1    2    0    0  0.00000000000E+00  0.00000000000E+00 -0.67483609774E+03  0.38399338388E+04  0.37801703834E+04 0.  0.
        5    1    3    3  502    0  0.41821698724E+03  0.81601106453E+02  0.15331165398E+04  0.15912361872E+04  0.46999998093E+01 0.  1.
       -5    1    3    3    0  502 -0.41821698724E+03 -0.81601106453E+02 -0.22079526375E+04  0.22486976516E+04  0.46999998093E+01 0. -1.
</event>
<event>
 5   0  0.3539010E-07  0.3781024E+04  0.7818609E-02  0.8050239E-01
       -2   -1    0    0    0  501  0.00000000000E+00  0.00000000000E+00  0.15720033938E+04  0.15720033938E+04  0.25500000920E-02 0. -1.
        2   -1    0    0  501    0  0.00000000000E+00  0.00000000000E+00 -0.22735550714E+04  0.22735550714E+04  0.25500000920E-02 0.  1.
    10030    2    1    2    0    0  0.00000000000E+00  0.00000000000E+00 -0.70155167766E+03  0.38455584652E+04  0.37810243523E+04 0.  0.
        1    1    3    3  502    0  0.14401391931E+04 -0.72857075809E+03 -0.13520687401E+04  0.21054467752E+04  0.50400001928E-02 0.  1.
       -1    1    3    3    0  502 -0.14401391931E+04  0.72857075809E+03  0.65051706247E+03  0.17401116900E+04  0.50400001928E-02 0. -1.
</event>
<event>
 5   0  0.3377396E-07  0.3806267E+04  0.7818609E-02  0.8044811E-01
       -2   -1    0    0    0  501  0.00000000000E+00  0.00000000000E+00  0.26909268326E+04  0.26909268326E+04  0.25500000920E-02 0.  1.
        2   -1    0    0  501    0  0.00000000000E+00  0.00000000000E+00 -0.13459737634E+04  0.13459737634E+04  0.25500000920E-02 0. -1.
    10030    2    1    2    0    0  0.00000000000E+00  0.00000000000E+00  0.13449530692E+04  0.40369005959E+04  0.38062668933E+04 0.  0.
        5    1    3    3  502    0  0.17875615223E+04 -0.57686046000E+03  0.99721664725E+03  0.21266422638E+04  0.46999998093E+01 0.  1.
       -5    1    3    3    0  502 -0.17875615223E+04  0.57686046000E+03  0.34773642194E+03  0.19102583322E+04  0.46999998093E+01 0. -1.
</event>
<event>
 5   0  0.1084315E-07  0.3859006E+04  0.7818609E-02  0.8033610E-01
       -1   -1    0    0    0  501  0.00000000000E+00  0.00000000000E+00  0.18074592356E+04  0.18074592356E+04  0.50400001928E-02 0.  1.
        1   -1    0    0  501    0  0.00000000000E+00  0.00000000000E+00 -0.20597875430E+04  0.20597875430E+04  0.50400001928E-02 0. -1.
    10030    2    1    2    0    0  0.00000000000E+00  0.00000000000E+00 -0.25232830740E+03  0.38672467787E+04  0.38590060990E+04 0.  0.
        4    1    3    3  502    0  0.89093299237E+03  0.34312470483E+03  0.15541645591E+04  0.18239860881E+04  0.12699999809E+01 0.  1.
       -4    1    3    3    0  502 -0.89093299237E+03 -0.34312470483E+03 -0.18064928665E+04  0.20432606906E+04  0.12699999809E+01 0. -1.
</event>
<event>
 5   0  0.1070988E-07  0.3792322E+04  0.7818609E-02  0.8047805E-01
        1   -1    0    0  501    0  0.00000000000E+00  0.00000000000E+00  0.13686406124E+04  0.13686406124E+04  0.50400001928E-02 0. -1.
       -1   -1    0    0    0  501  0.00000000000E+00  0.00000000000E+00 -0.26270059503E+04  0.26270059503E+04  0.50400001928E-02 0.  1.
    10030    2    1    2    0    0  0.00000000000E+00  0.00000000000E+00 -0.12583653379E+04  0.39956465627E+04  0.37923222609E+04 0.  0.
        5    1    3    3  502    0  0.78987239435E+03 -0.11529672425E+03 -0.24413427779E+04  0.25685342870E+04  0.46999998093E+01 0.  1.
       -5    1    3    3    0  502 -0.78987239435E+03  0.11529672425E+03  0.11829774401E+04  0.14271122758E+04  0.46999998093E+01 0. -1.
</event>
<event>
 5   0  0.3509843E-07  0.3941553E+04  0.7818609E-02  0.8016442E-01
       -2   -1    0    0    0  501  0.00000000000E+00  0.00000000000E+00  0.14796905367E+04  0.14796905367E+04  0.25500000920E-02 0. -1.
        2   -1    0    0  501    0  0.00000000000E+00  0.00000000000E+00 -0.26248467487E+04  0.26248467487E+04  0.25500000920E-02 0.  1.
    10030    2    1    2    0    0  0.00000000000E+00  0.00000000000E+00 -0.11451562120E+04  0.41045372855E+04  0.39415534473E+04 0.  0.
        4    1    3    3  502    0  0.13829415923E+04  0.74132107931E+03  0.66915276313E+03  0.17058286619E+04  0.12699999809E+01 0. -1.
       -4    1    3    3    0  502 -0.13829415923E+04 -0.74132107931E+03 -0.18143089752E+04  0.23987086236E+04  0.12699999809E+01 0.  1.
</event>
<event>
 5   0  0.3442126E-07  0.3659629E+04  0.7818609E-02  0.8076968E-01
        2   -1    0    0  501    0  0.00000000000E+00  0.00000000000E+00  0.22785252666E+04  0.22785252666E+04  0.25500000920E-02 0. -1.
       -2   -1    0    0    0  501  0.00000000000E+00  0.00000000000E+00 -0.14694681823E+04  0.14694681823E+04  0.25500000920E-02 0.  1.
    10030    2    1    2    0    0  0.00000000000E+00  0.00000000000E+00  0.80905708425E+03  0.37479934489E+04  0.36596286051E+04 0.  0.
        2    1    3    3  502    0  0.10393095520E+04 -0.48113097503E+03 -0.10570137143E+04  0.15585022785E+04  0.25500000920E-02 0.  1.
       -2    1    3    3    0  502 -0.10393095520E+04  0.48113097503E+03  0.18660707985E+04  0.21894911704E+04  0.25500000920E-02 0. -1.
</event>
<event>
 5   0  0.1070988E-07  0.3819559E+04  0.7818609E-02  0.8041971E-01
       -1   -1    0    0    0  501  0.00000000000E+00  0.00000000000E+00  0.17316962325E+04  0.17316962325E+04  0.50400001928E-02 0. -1.
        1   -1    0    0  501    0  0.00000000000E+00  0.00000000000E+00 -0.21061762081E+04  0.21061762081E+04  0.50400001928E-02 0.  1.
    10030    2    1    2    0    0  0.00000000000E+00  0.00000000000E+00 -0.37447997565E+03  0.38378724406E+04  0.38195588250E+04 0.  0.
        5    1    3    3  502    0 -0.20863749978E+03 -0.45013792335E+03  0.16658045438E+04  0.17381256066E+04  0.46999998093E+01 0. -1.
       -5    1    3    3    0  502  0.20863749978E+03  0.45013792335E+03 -0.20402845194E+04  0.20997468339E+04  0.46999998093E+01 0.  1.
</event>
<event>
 5   0  0.1084315E-07  0.3864213E+04  0.7818609E-02  0.8032514E-01
        1   -1    0    0  501    0  0.00000000000E+00  0.00000000000E+00  0.23939320429E+04  0.23939320429E+04  0.50400001928E-02 0. -1.
       -1   -1    0    0    0  501  0.00000000000E+00  0.00000000000E+00 -0.15593737218E+04  0.15593737218E+04  0.50400001928E-02 0.  1.
    10030    2    1    2    0    0  0.00000000000E+00  0.00000000000E+00  0.83455832106E+03  0.39533057647E+04  0.38642125819E+04 0.  0.
        4    1    3    3  502    0 -0.15611085726E+04 -0.74513371989E+03  0.12977903807E+04  0.21625322475E+04  0.12699999809E+01 0. -1.
       -4    1    3    3    0  502  0.15611085726E+04  0.74513371989E+03 -0.46323205968E+03  0.17907735173E+04  0.12699999809E+01 0.  1.
</event>
<event>
 5   0  0.3377396E-07  0.3742213E+04  0.7818609E-02  0.8058671E-01
        2   -1    0    0  501    0  0.00000000000E+00  0.00000000000E+00  0.13934848129E+04  0.13934848129E+04  0.25500000920E-02 0.  1.
       -2   -1    0    0    0  501  0.00000000000E+00  0.00000000000E+00 -0.25124340010E+04  0.25124340010E+04  0.25500000920E-02 0. -1.
    10030    2    1    2    0    0  0.00000000000E+00  0.00000000000E+00 -0.11189491881E+04  0.39059188139E+04  0.37422125134E+04 0.  0.
        5    1    3    3  502    0  0.17747155103E+04  0.33878881376E+03 -0.10671939618E+04  0.20984084553E+04  0.46999998093E+01 0. -1.
       -5    1    3    3    0  502 -0.17747155103E+04 -0.33878881376E+03 -0.51755226217E+02  0.18075103586E+04  0.46999998093E+01 0.  1.
</event>
<event>
 5   0  0.1070988E-07  0.3748102E+04  0.7818609E-02  0.8057385E-01
       -1   -1    0    0    0  501  0.00000000000E+00  0.00000000000E+00  0.14226522584E+04  0.14226522584E+04  0.50400001928E-02 0.  1.
        1   -1    0    0  501    0  0.00000000000E+00  0.00000000000E+00 -0.24686761889E+04  0.24686761889E+04  0.50400001928E-02 0. -1.
    10030    2    1    2    0    0  0.00000000000E+00  0.00000000000E+00 -0.10460239305E+04  0.38913284474E+04  0.37481023228E+04 0.  0.
        2    1    3    3  502    0 -0.51157179103E+03  0.14752466638E+04 -0.15989579751E+04  0.22348881454E+04  0.25500000920E-02 0. -1.
       -2    1    3    3    0  502  0.51157179103E+03 -0.14752466638E+04  0.55293404461E+03  0.16564403020E+04  0.25500000920E-02 0.  1.
</event>
<event>
 5   0  0.1070988E-07  0.3348014E+04  0.7818609E-02  0.8150784E-01
       -1   -1    0    0    0  501  0.00000000000E+00  0.00000000000E+00  0.21843643812E+04  0.21843643812E+04  0.50400001928E-02 0. -1.
        1   -1    0    0  501    0  0.00000000000E+00  0.00000000000E+00 -0.12828904611E+04  0.12828904611E+04  0.50400001928E-02 0.  1.
    10030    2    1    2    0    0  0.00000000000E+00  0.00000000000E+00  0.90147392014E+03  0.34672548423E+04  0.33480144732E+04 0.  0.
        3    1    3    3  502    0 -0.78011040458E+03 -0.12551676523E+04  0.12650507456E+04  0.19453461075E+04  0.10100000352E+00 0. -1.
       -3    1    3    3    0  502  0.78011040458E+03  0.12551676523E+04 -0.36357682548E+03  0.15219087348E+04  0.10100000352E+00 0.  1.
</event>
<event>
 5   0  0.1085771E-07  0.3891594E+04  0.7818609E-02  0.8026780E-01
       -1   -1    0    0    0  501  0.00000000000E+00  0.00000000000E+00  0.19705719782E+04  0.19705719782E+04  0.50400001928E-02 0.  1.
        1   -1    0    0  501    0  0.00000000000E+00  0.00000000000E+00 -0.19213339264E+04  0.19213339264E+04  0.50400001928E-02 0. -1.
    10030    2    1    2    0    0  0.00000000000E+00  0.00000000000E+00  0.49238051849E+02  0.38919059046E+04  0.38915944270E+04 0.  0.
        1    1    3    3  502    0 -0.18399518031E+04  0.13462943513E+03  0.64319829981E+03  0.19537788451E+04  0.50400001928E-02 0.  1.
       -1    1    3    3    0  502  0.18399518031E+04 -0.13462943513E+03 -0.59396024796E+03  0.19381270595E+04  0.50400001928E-02 0. -1.
</event>
<event>
 5   0  0.3539010E-07  0.3841865E+04  0.7818609E-02  0.8037230E-01
       -2   -1    0    0    0  501  0.00000000000E+00  0.00000000000E+00  0.25482688905E+04  0.25482688905E+04  0.25500000920E-02 0. -1.
        2   -1    0    0  501    0  0.00000000000E+00  0.00000000000E+00 -0.14480348309E+04  0.14480348309E+04  0.25500000920E-02 0.  1.
    10030    2    1    2    0    0  0.00000000000E+00  0.00000000000E+00  0.11002340596E+04  0.39963037214E+04  0.38418652303E+04 0.  0.
        1    1    3    3  502    0 -0.48442964841E+03  0.17001143426E+04 -0.23170934446E+03  0.17829049561E+04  0.50400001928E-02 0. -1.
       -1    1    3    3    0  502  0.48442964841E+03 -0.17001143426E+04  0.13319434040E+04  0.22133987652E+04  0.50400001928E-02 0.  1.
</event>
<event>
 5   0  0.3327241E-07  0.3768627E+04  0.7818609E-02  0.8052921E-01
        2   -1    0    0  501    0  0.00000000000E+00  0.00000000000E+00  0.12017119319E+04  0.12017119319E+04  0.25500000920E-02 0. -1.
       -2   -1    0    0    0  501  0.00000000000E+00  0.00000000000E+00 -0.29546500591E+04  0.29546500591E+04  0.25500000920E-02 0.  1.
    10030    2    1    2    0    0  0.00000000000E+00  0.00000000000E+00 -0.17529381272E+04  0.41563619910E+04  0.37686274587E+04 0.  0.
        3    1    3    3  502    0 -0.70089438054E+02 -0.44146647486E+03  0.11423925534E+04  0.12267297722E+04  0.10100000352E+00 0. -1.
       -3    1    3    3    0  502  0.70089438054E+02  0.44146647486E+03 -0.28953306805E+04  0.29296322188E+04  0.10100000352E+00 0.  1.
</event>
<event>
 5   0  0.3377396E-07  0.3824553E+04  0.7818609E-02  0.8040906E-01
       -2   -1    0    0    0  501  0.00000000000E+00  0.00000000000E+00  0.16227826680E+04  0.16227826680E+04  0.25500000920E-02 0. -1.
        2   -1    0    0  501    0  0.00000000000E+00  0.00000000000E+00 -0.22534145646E+04  0.22534145646E+04  0.25500000920E-02 0.  1.
    10030    2    1    2    0    0  0.00000000000E+00  0.00000000000E+00 -0.63063189654E+03  0.38761972326E+04  0.38245533592E+04 0.  0.
        5    1    3    3  502    0 -0.50464731592E+03  0.10930388411E+04  0.11904706159E+04  0.16931170068E+04  0.46999998093E+01 0. -1.
       -5    1    3    3    0  502  0.50464731592E+03 -0.10930388411E+04 -0.18211025124E+04  0.21830802258E+04  0.46999998093E+01 0.  1.
</event>
<event>
 5   0  0.3509843E-07  0.3820987E+04  0.7818609E-02  0.8041666E-01
        2   -1    0    0  501    0  0.00000000000E+00  0.00000000000E+00  0.20357660879E+04  0.20357660879E+04  0.25500000920E-02 0.  1.
       -2   -1    0    0    0  501  0.00000000000E+00  0.00000000000E+00 -0.17929294505E+04  0.17929294505E+04  0.25500000920E-02 0. -1.
    10030    2    1    2    0    0  0.00000000000E+00  0.00000000000E+00  0.24283663741E+03  0.38286955384E+04  0.38209867695E+04 0.  0.
        4    1    3    3  502    0  0.92563564390E+03  0.15975179672E+04 -0.37061038424E+03  0.18831406401E+04  0.12699999809E+01 0.  1.
       -4    1    3    3    0  502 -0.92563564390E+03 -0.15975179672E+04  0.61344702165E+03  0.19455548982E+04  0.12699999809E+01 0. -1.
</event>
<event>
 5   0  0.3539010E-07  0.3699601E+04  0.7818609E-02  0.8068050E-01
       -2   -1    0    0    0  501  0.00000000000E+00  0.00000000000E+00  0.14557918855E+04  0.14557918855E+04  0.25500000920E-02 0. -1.
        2   -1    0    0  501    0  0.00000000000E+00  0.00000000000E+00 -0.23504474277E+04  0.23504474277E+04  0.25500000920E-02 0.  1.
    10030    2    1    2    0    0  0.00000000000E+00  0.00000000000E+00 -0.89465554221E+03  0.38062393133E+04  0.36996012178E+04 0.  0.
        1    1    3    3  502    0 -0.24829721684E+03 -0.15645241887E+04  0.53538778080E+03  0.16721326265E+04  0.50400001928E-02 0. -1.
       -1    1    3    3    0  502  0.24829721684E+03  0.15645241887E+04 -0.14300433230E+04  0.21341066868E+04  0.50400001928E-02 0.  1.
</event>
<event>
 5   0  0.1084315E-07  0.3799881E+04  0.7818609E-02  0.8046181E-01
       -1   -1    0    0    0  501  0.00000000000E+00  0.00000000000E+00  0.13043905056E+04  0.13043905056E+04  0.50400001928E-02 0.  1.
        1   -1    0    0  501    0  0.00000000000E+00  0.00000000000E+00 -0.27674020852E+04  0.27674020852E+04  0.50400001928E-02 0. -1.
    10030    2    1    2    0    0  0.00000000000E+00  0.00000000000E+00 -0.14630115796E+04  0.40717925908E+04  0.37998805271E+04 0.  0.
        4    1    3    3  502    0 -0.18263565795E+04  0.50389722751E+03 -0.57890515874E+03  0.19810662702E+04  0.12699999809E+01 0. -1.
       -4    1    3    3    0  502  0.18263565795E+04 -0.50389722751E+03 -0.88410642083E+03  0.20907263206E+04  0.12699999809E+01 0.  1.
</event>
<event>
 5   0  0.1070988E-07  0.3266559E+04  0.7818609E-02  0.8171457E-01
        1   -1    0    0  501    0  0.00000000000E+00  0.00000000000E+00  0.15983067945E+04  0.15983067945E+04  0.50400001928E-02 0.  1.
       -1   -1    0    0    0  501  0.00000000000E+00  0.00000000000E+00 -0.16690178306E+04  0.16690178306E+04  0.50400001928E-02 0. -1.
    10030    2    1    2    0    0  0.00000000000E+00  0.00000000000E+00 -0.70711036133E+02  0.32673246251E+04  0.32665593757E+04 0.  0.
        3    1    3    3  502    0  0.46649216807E+03 -0.87934528503E+03  0.12598375792E+04  0.16056319034E+04  0.10100000352E+00 0.  1.
       -3    1    3    3    0  502 -0.46649216807E+03  0.87934528503E+03 -0.13305486153E+04  0.16616927216E+04  0.10100000352E+00 0. -1.
</event>
<event>
 5   0  0.3327241E-07  0.3784003E+04  0.7818609E-02  0.8049596E-01
        2   -1    0    0  501    0  0.00000000000E+00  0.00000000000E+00  0.19104104122E+04  0.19104104122E+04  0.25500000920E-02 0. -1.
       -2   -1    0    0    0  501  0.00000000000E+00  0.00000000000E+00 -0.18737701384E+04  0.18737701384E+04  0.25500000920E-02 0.  1.
    10030    2    1    2    0    0  0.00000000000E+00  0.00000000000E+00  0.36640273827E+02  0.37841805506E+04  0.37840031620E+04 0.  0.
        3    1    3    3  502    0  0.95835243968E+03  0.20867336608E+02  0.16495909919E+04  0.19078850319E+04  0.10100000352E+00 0. -1.
       -3    1    3    3    0  502 -0.95835243968E+03 -0.20867336608E+02 -0.16129507181E+04  0.18762955187E+04  0.10100000352E+00 0.  1.
</event>
<event>
 5   0  0.3327241E-07  0.3737584E+04  0.7818609E-02  0.8059683E-01
       -2   -1    0    0    0  501  0.00000000000E+00  0.00000000000E+00  0.30831356873E+04  0.30831356873E+04  0.25500000920E-02 0. -1.
        2   -1    0    0  501    0  0.00000000000E+00  0.00000000000E+00 -0.11327374817E+04  0.11327374817E+04  0.25500000920E-02 0.  1.
    10030    2    1    2    0    0  0.00000000000E+00  0.00000000000E+00  0.19503982056E+04  0.42158731689E+04  0.37375839009E+04 0.  0.
        3    1    3    3  502    0  0.12027079751E+04  0.13324673227E+04  0.38864764695E+03  0.18365790599E+04  0.10100000352E+00 0.  1.
       -3    1    3    3    0  502 -0.12027079751E+04 -0.13324673227E+04  0.15617505586E+04  0.23792941090E+04  0.10100000352E+00 0. -1.
</event>
<event>
 5   0  0.1084315E-07  0.3830473E+04  0.7818609E-02  0.8039647E-01
        1   -1    0    0  501    0  0.00000000000E+00  0.00000000000E+00  0.17210209691E+04  0.17210209691E+04  0.50400001928E-02 0. -1.
       -1   -1    0    0    0  501  0.00000000000E+00  0.00000000000E+00 -0.21313687739E+04  0.21313687739E+04  0.50400001928E-02 0.  1.
    10030    2    1    2    0    0  0.00000000000E+00  0.00000000000E+00 -0.41034780479E+03  0.38523897430E+04  0.38304727399E+04 0.  0.
        4    1    3    3  502    0  0.17084111436E+04 -0.83026091803E+03  0.41437011774E+02  0.18999264371E+04  0.12699999809E+01 0. -1.
       -4    1    3    3    0  502 -0.17084111436E+04  0.83026091803E+03 -0.45178481656E+03  0.19524633059E+04  0.12699999809E+01 0.  1.
</event>
<event>
 5   0  0.1085771E-07  0.3768707E+04  0.7818609E-02  0.8052904E-01
       -1   -1    0    0    0  501  0.00000000000E+00  0.00000000000E+00  0.15859425841E+04  0.15859425841E+04  0.50400001928E-02 0.  1.
        1   -1    0    0  501    0  0.00000000000E+00  0.00000000000E+00 -0.22389133372E+04  0.22389133372E+04  0.50400001928E-02 0. -1.
    10030    2    1    2    0    0  0.00000000000E+00  0.00000000000E+00 -0.65297075317E+03  0.38248559213E+04  0.37687069419E+04 0.  0.
        1    1    3    3  502    0  0.34544761277E+03  0.78479954100E+03  0.13764722567E+04  0.16217028847E+04  0.50400001928E-02 0.  1.
       -1    1    3    3    0  502 -0.34544761277E+03 -0.78479954100E+03 -0.20294430098E+04  0.22031530366E+04  0.50400001928E-02 0. -1.
</event>
<event>
 5   0  0.3377396E-07  0.3720877E+04  0.7818609E-02  0.8063351E-01
        2   -1    0    0  501    0  0.00000000000E+00  0.00000000000E+00  0.19220830750E+04  0.19220830750E+04  0.25500000920E-02 0. -1.
       -2   -1    0    0    0  501  0.00000000000E+00  0.00000000000E+00 -0.18007705160E+04  0.18007705160E+04  0.25500000920E-02 0.  1.
    10030    2    1    2    0    0  0.00000000000E+00  0.00000000000E+00  0.12131255900E+03  0.37228535911E+04  0.37208765262E+04 0.  0.
        5    1    3    3  502    0  0.13008043179E+04  0.11128440355E+04  0.78953132555E+03  0.18851778496E+04  0.46999998093E+01 0. -1.
       -5    1    3    3    0  502 -0.13008043179E+04 -0.11128440355E+04 -0.66821876655E+03  0.18376757414E+04  0.46999998093E+01 0.  1.
</event>
<event>
 5   0  0.1085771E-07  0.3792416E+04  0.7818609E-02  0.8047784E-01
        1   -1    0    0  501    0  0.00000000000E+00  0.00000000000E+00  0.17572601627E+04  0.17572601628E+04  0.50400001928E-02 0. -1.
       -1   -1    0    0    0  501  0.00000000000E+00  0.00000000000E+00 -0.20461424904E+04  0.20461424904E+04  0.50400001928E-02 0.  1.
    10030    2    1    2    0    0  0.00000000000E+00  0.00000000000E+00 -0.28888232766E+03  0.38034026532E+04  0.37924159507E+04 0.  0.
        1    1    3    3  502    0  0.17758260455E+04  0.41283107718E+03 -0.66711992078E+03  0.19414006878E+04  0.50400001928E-02 0.  1.
       -1    1    3    3    0  502 -0.17758260455E+04 -0.41283107718E+03  0.37823759312E+03  0.18620019653E+04  0.50400001928E-02 0. -1.
</event>
<event>
 5   0  0.1085771E-07  0.3426111E+04  0.7818609E-02  0.8131527E-01
        1   -1    0    0  501    0  0.00000000000E+00  0.00000000000E+00  0.22025275235E+04  0.22025275235E+04  0.50400001928E-02 0.  1.
       -1   -1    0    0    0  501  0.00000000000E+00  0.00000000000E+00 -0.13323596849E+04  0.13323596849E+04  0.50400001928E-02 0. -1.
    10030    2    1    2    0    0  0.00000000000E+00  0.00000000000E+00  0.87016783867E+03  0.35348872084E+04  0.34261108431E+04 0.  0.
        1    1    3    3  502    0  0.99342019722E+03  0.12483892005E+04  0.10787495799E+04  0.19258919856E+04  0.50400001928E-02 0.  1.
       -1    1    3    3    0  502 -0.99342019722E+03 -0.12483892005E+04 -0.20858174119E+03  0.16089952228E+04  0.50400001928E-02 0. -1.
</event>
<event>
 5   0  0.3509843E-07  0.3836543E+04  0.7818609E-02  0.8038358E-01
        2   -1    0    0  501    0  0.00000000000E+00  0.00000000000E+00  0.26257352897E+04  0.26257352897E+04  0.25500000920E-02 0. -1.
       -2   -1    0    0    0  501  0.00000000000E+00  0.00000000000E+00 -0.14014227471E+04  0.14014227471E+04  0.25500000920E-02 0.  1.
    10030    2    1    2    0    0  0.00000000000E+00  0.00000000000E+00  0.12243125426E+04  0.40271580368E+04  0.38365427994E+04 0.  0.
        4    1    3    3  502    0  0.12046958454E+04  0.14829582009E+04  0.43245953420E+03  0.19589486893E+04  0.12699999809E+01 0. -1.
       -4    1    3    3    0  502 -0.12046958454E+04 -0.14829582009E+04  0.79185300840E+03  0.20682093476E+04  0.12699999809E+01 0.  1.
</event>
<event>
 5   0  0.1070988E-07  0.3563607E+04  0.7818609E-02  0.8098879E-01
        1   -1    0    0  501    0  0.00000000000E+00  0.00000000000E+00  0.25939720946E+04  0.25939720946E+04  0.50400001928E-02 0.  1.
       -1   -1    0    0    0  501  0.00000000000E+00  0.00000000000E+00 -0.12239235986E+04  0.12239235986E+04  0.50400001928E-02 0. -1.
    10030    2    1    2    0    0  0.00000000000E+00  0.00000000000E+00  0.13700484960E+04  0.38178956932E+04  0.35636069709E+04 0.  0.
        3    1    3    3  502    0  0.17761737505E+04  0.13598591837E+02  0.83595081300E+03  0.19631077111E+04  0.10100000352E+00 0.  1.
       -3    1    3    3    0  502 -0.17761737505E+04 -0.13598591837E+02  0.53409768296E+03  0.18547879821E+04  0.10100000352E+00 0. -1.
</event>
<event>
 5   0  0.1070988E-07  0.3828168E+04  0.7818609E-02  0.8040137E-01
       -1   -1    0    0    0  501  0.00000000000E+00  0.00000000000E+00  0.28797016106E+04  0.28797016106E+04  0.50400001928E-02 0. -1.
        1   -1    0    0  501    0  0.00000000000E+00  0.00000000000E+00 -0.12722562672E+04  0.12722562672E+04  0.50400001928E-02 0.  1.
    10030    2    1    2    0    0  0.00000000000E+00  0.00000000000E+00  0.16074453435E+04  0.41519578778E+04  0.38281684507E+04 0.  0.
        3    1    3    3  502    0  0.75274263446E+03 -0.14655392224E+04  0.18604470992E+04  0.24850935808E+04  0.10100000352E+00 0. -1.
       -3    1    3    3    0  502 -0.75274263446E+03  0.14655392224E+04 -0.25300175576E+03  0.16668642970E+04  0.10100000352E+00 0.  1.
</event>
<event>
 5   0  0.1070988E-07  0.3700184E+04  0.7818609E-02  0.8067921E-01
       -1   -1    0    0    0  501  0.00000000000E+00  0.00000000000E+00  0.20612627022E+04  0.20612627022E+04  0.50400001928E-02 0.  1.
        1   -1    0    0  501    0  0.00000000000E+00  0.00000000000E+00 -0.16605552230E+04  0.16605552230E+04  0.50400001928E-02 0. -1.
    10030    2    1    2    0    0  0.00000000000E+00  0.00000000000E+00  0.40070747917E+03  0.37218179252E+04  0.37001840744E+04 0.  0.
        3    1    3    3  502    0  0.58978991248E+03  0.87533004841E+03 -0.13279990208E+04  0.16963597036E+04  0.10100000352E+00 0. -1.
       -3    1    3    3    0  502 -0.58978991248E+03 -0.87533004841E+03  0.17287065000E+04  0.20254582217E+04  0.10100000352E+00 0.  1.
</event>
<event>
 5   0  0.1070988E-07  0.3786215E+04  0.7818609E-02  0.8049120E-01
        1   -1    0    0  501    0  0.00000000000E+00  0.00000000000E+00  0.14337909260E+04  0.14337909260E+04  0.50400001928E-02 0.  1.
       -1   -1    0    0    0  501  0.00000000000E+00  0.00000000000E+00 -0.24995665563E+04  0.24995665563E+04  0.50400001928E-02 0. -1.
    10030    2    1    2    0    0  0.00000000000E+00  0.00000000000E+00 -0.10657756303E+04  0.39333574823E+04  0.37862149159E+04 0.  0.
        5    1    3    3  502    0  0.77530154768E+03 -0.16710957278E+04 -0.79843211051E+02  0.18439225715E+04  0.46999998093E+01 0. -1.
       -5    1    3    3    0  502 -0.77530154768E+03  0.16710957278E+04 -0.98593241928E+03  0.20894349108E+04  0.46999998093E+01 0.  1.
</event>
<event>
 5   0  0.1070988E-07  0.3687725E+04  0.7818609E-02  0.8070688E-01
        1   -1    0    0  501    0  0.00000000000E+00  0.00000000000E+00  0.18745298428E+04  0.18745298428E+04  0.50400001928E-02 0.  1.
       -1   -1    0    0    0  501  0.00000000000E+00  0.00000000000E+00 -0.18136969283E+04  0.18136969283E+04  0.50400001928E-02 0. -1.
    10030    2    1    2    0    0  0.00000000000E+00  0.00000000000E+00  0.60832914505E+02  0.36882267711E+04  0.36877250537E+04 0.  0.
        5    1    3    3  502    0  0.16235275190E+04  0.22838116400E+03 -0.81338509752E+03  0.18301958824E+04  0.46999998093E+01 0. -1.
       -5    1    3    3    0  502 -0.16235275190E+04 -0.22838116400E+03  0.87421801203E+03  0.18580308888E+04  0.46999998093E+01 0.  1.
</event>
<event>
 5   0  0.1070988E-07  0.3813070E+04  0.7818609E-02  0.8043356E-01
       -1   -1    0    0    0  501  0.00000000000E+00  0.00000000000E+00  0.28102167395E+04  0.28102167395E+04  0.50400001928E-02 0.  1.
        1   -1    0    0  501    0  0.00000000000E+00  0.00000000000E+00 -0.12934504393E+04  0.12934504393E+04  0.50400001928E-02 0. -1.
    10030    2    1    2    0    0  0.00000000000E+00  0.00000000000E+00  0.15167663001E+04  0.41036671788E+04  0.38130701941E+04 0.  0.
        2    1    3    3  502    0  0.14177789086E+04  0.91791034330E+03  0.17102181929E+04  0.24036436299E+04  0.25500000920E-02 0.  1.
       -2    1    3    3    0  502 -0.14177789086E+04 -0.91791034330E+03 -0.19345189274E+03  0.17000235489E+04  0.25500000920E-02 0. -1.
</event>
<event>
 5   0  0.1070988E-07  0.3878664E+04  0.7818609E-02  0.8029481E-01
        1   -1    0    0  501    0  0.00000000000E+00  0.00000000000E+00  0.13173244889E+04  0.13173244889E+04  0.50400001928E-02 0. -1.
       -1   -1    0    0    0  501  0.00000000000E+00  0.00000000000E+00 -0.28550364479E+04  0.28550364479E+04  0.50400001928E-02 0.  1.
    10030    2    1    2    0    0  0.00000000000E+00  0.00000000000E+00 -0.15377119590E+04  0.41723609367E+04  0.38786644244E+04 0.  0.
        2    1    3    3  502    0 -0.94587770730E+03 -0.21358931378E+03  0.10378124339E+04  0.14203378753E+04  0.25500000920E-02 0. -1.
       -2    1    3    3    0  502  0.94587770730E+03  0.21358931378E+03 -0.25755243929E+04  0.27520230614E+04  0.25500000920E-02 0.  1.
</event>
<event>
 5   0  0.1070988E-07  0.3791446E+04  0.7818609E-02  0.8047993E-01
       -1   -1    0    0    0  501  0.00000000000E+00  0.00000000000E+00  0.15243273239E+04  0.15243273239E+04  0.50400001928E-02 0. -1.
        1   -1    0    0  501    0  0.00000000000E+00  0.00000000000E+00 -0.23576072964E+04  0.23576072965E+04  0.50400001928E-02 0.  1.
    10030    2    1    2    0    0  0.00000000000E+00  0.00000000000E+00 -0.83327997256E+03  0.38819346204E+04  0.37914457512E+04 0.  0.
        2    1    3    3  502    0  0.25622990657E+03 -0.16742629525E+04  0.45512395559E+03  0.17538380809E+04  0.25500000920E-02 0. -1.
       -2    1    3    3    0  502 -0.25622990657E+03  0.16742629525E+04 -0.12884039281E+04  0.21280965394E+04  0.25500000920E-02 0.  1.
</event>
<event>
 5   0  0.3377396E-07  0.3557354E+04  0.7818609E-02  0.8100331E-01
        2   -1    0    0  501    0  0.00000000000E+00  0.00000000000E+00  0.20768947754E+04  0.20768947754E+04  0.25500000920E-02 0. -1.
       -2   -1    0    0    0  501  0.00000000000E+00  0.00000000000E+00 -0.15232797458E+04  0.15232797458E+04  0.25500000920E-02 0.  1.
    10030    2    1    2    0    0  0.00000000000E+00  0.00000000000E+00  0.55361502955E+03  0.36001745212E+04  0.35573539298E+04 0.  0.
        5    1    3    3  502    0  0.13912353649E+04  0.81529115580E+02  0.13953200869E+04  0.19720859698E+04  0.46999998093E+01 0. -1.
       -5    1    3    3    0  502 -0.13912353649E+04 -0.81529115580E+02 -0.84170505740E+03  0.16280885513E+04  0.46999998093E+01 0.  1.
</event>
<event>
 5   0  0.1070988E-07  0.3806109E+04  0.7818609E-02  0.8044845E-01
        1   -1    0    0  501    0  0.00000000000E+00  0.00000000000E+00  0.15564146136E+04  0.15564146136E+04  0.50400001928E-02 0. -1.
       -1   -1    0    0    0  501  0.00000000000E+00  0.00000000000E+00 -0.23268972654E+04  0.23268972654E+04  0.50400001928E-02 0.  1.
    10030    2    1    2    0    0  0.00000000000E+00  0.00000000000E+00 -0.77048265180E+03  0.38833118789E+04  0.38061092512E+04 0.  0.
        3    1    3    3  502    0  0.10538881594E+04 -0.71257658725E+03 -0.18292841097E+04  0.22281665129E+04  0.10100000352E+00 0.  1.
       -3    1    3    3    0  502 -0.10538881594E+04  0.71257658725E+03  0.10588014579E+04  0.16551453660E+04  0.10100000352E+00 0. -1.
</event>
<event>
 5   0  0.3377396E-07  0.3720271E+04  0.7818609E-02  0.8063484E-01
       -2   -1    0    0    0  501  0.00000000000E+00  0.00000000000E+00  0.36532729628E+04  0.36532729628E+04  0.25500000920E-02 0. -1.
        2   -1    0    0  501    0  0.00000000000E+00  0.00000000000E+00 -0.94712431838E+03  0.94712431838E+03  0.25500000920E-02 0.  1.
    10030    2    1    2    0    0  0.00000000000E+00  0.00000000000E+00  0.27061486444E+04  0.46003972812E+04  0.37202707777E+04 0.  0.
        5    1    3    3  502    0 -0.13240707278E+04  0.12812085802E+04  0.10367842661E+04  0.21141434253E+04  0.46999998093E+01 0.  1.
       -5    1    3    3    0  502  0.13240707278E+04 -0.12812085802E+04  0.16693643783E+04  0.24862538559E+04  0.46999998093E+01 0. -1.
</event>
<event>
 5   0  0.1084315E-07  0.3804209E+04  0.7818609E-02  0.8045252E-01
        1   -1    0    0  501    0  0.00000000000E+00  0.00000000000E+00  0.26324632899E+04  0.26324632899E+04  0.50400001928E-02 0. -1.
       -1   -1    0    0    0  501  0.00000000000E+00  0.00000000000E+00 -0.13743786938E+04  0.13743786938E+04  0.50400001928E-02 0.  1.
    10030    2    1    2    0    0  0.00000000000E+00  0.00000000000E+00  0.12580845961E+04  0.40068419837E+04  0.38042089626E+04 0.  0.
        4    1    3    3  502    0 -0.39595702588E+03  0.13799715311E+04  0.19432612196E+04  0.24160648115E+04  0.12699999809E+01 0.  1.
       -4    1    3    3    0  502  0.39595702588E+03 -0.13799715311E+04 -0.68517662350E+03  0.15907771721E+04  0.12699999809E+01 0. -1.
</event>
<event>
 5   0  0.3509843E-07  0.3793892E+04  0.7818609E-02  0.8047467E-01
       -2   -1    0    0    0  501  0.00000000000E+00  0.00000000000E+00  0.11947274793E+04  0.11947274793E+04  0.25500000920E-02 0.  1.
        2   -1    0    0  501    0  0.00000000000E+00  0.00000000000E+00 -0.30119044096E+04  0.30119044096E+04  0.25500000920E-02 0. -1.
    10030    2    1    2    0    0  0.00000000000E+00  0.00000000000E+00 -0.18171769304E+04  0.42066318889E+04  0.37938924408E+04 0.  0.
        4    1    3    3  502    0  0.10279289531E+04 -0.41774269833E+03  0.79738452256E+03  0.13663713201E+04  0.12699999809E+01 0.  1.
       -4    1    3    3    0  502 -0.10279289531E+04  0.41774269833E+03 -0.26145614529E+04  0.28402605688E+04  0.12699999809E+01 0. -1.
</event>
<event>
 5   0  0.3539010E-07  0.3835069E+04  0.7818609E-02  0.8038671E-01
        2   -1    0    0  501    0  0.00000000000E+00  0.00000000000E+00  0.23654571524E+04  0.23654571524E+04  0.25500000920E-02 0. -1.
       -2   -1    0    0    0  501  0.00000000000E+00  0.00000000000E+00 -0.15544303086E+04  0.15544303086E+04  0.25500000920E-02 0.  1.
    10030    2    1    2    0    0  0.00000000000E+00  0.00000000000E+00  0.81102684388E+03  0.39198874610E+04  0.38350688606E+04 0.  0.
        1    1    3    3  502    0  0.50362696597E+03  0.38706053047E+02  0.22962357116E+04  0.23511351988E+04  0.50400001928E-02 0. -1.
       -1    1    3    3    0  502 -0.50362696597E+03 -0.38706053047E+02 -0.14852088678E+04  0.15687522622E+04  0.50400001928E-02 0.  1.
</event>
<event>
 5   0  0.1070988E-07  0.3747087E+04  0.7818609E-02  0.8057606E-01
        1   -1    0    0  501    0  0.00000000000E+00  0.00000000000E+00  0.17140293704E+04  0.17140293705E+04  0.50400001928E-02 0. -1.
       -1   -1    0    0    0  501  0.00000000000E+00  0.00000000000E+00 -0.20479021865E+04  0.20479021865E+04  0.50400001928E-02 0.  1.
    10030    2    1    2    0    0  0.00000000000E+00  0.00000000000E+00 -0.33387281601E+03  0.37619315569E+04  0.37470865992E+04 0.  0.
        3    1    3    3  502    0 -0.53236291230E+03 -0.96429757206E+03 -0.16884881635E+04  0.20160040591E+04  0.10100000352E+00 0.  1.
       -3    1    3    3    0  502  0.53236291230E+03  0.96429757206E+03  0.13546153475E+04  0.17459274978E+04  0.10100000352E+00 0. -1.
</event>
<event>
 5   0  0.3327241E-07  0.3782713E+04  0.7818609E-02  0.8049875E-01
        2   -1    0    0  501    0  0.00000000000E+00  0.00000000000E+00  0.23181087287E+04  0.23181087287E+04  0.25500000920E-02 0. -1.
       -2   -1    0    0    0  501  0.00000000000E+00  0.00000000000E+00 -0.15431673712E+04  0.15431673712E+04  0.25500000920E-02 0.  1.
    10030    2    1    2    0    0  0.00000000000E+00  0.00000000000E+00  0.77494135750E+03  0.38612761000E+04  0.37827131814E+04 0.  0.
        3    1    3    3  502    0 -0.12895767580E+04 -0.98345283409E+02 -0.10212458264E+04  0.16479147604E+04  0.10100000352E+00 0.  1.
       -3    1    3    3    0  502  0.12895767580E+04  0.98345283409E+02  0.17961871839E+04  0.22133613395E+04  0.10100000352E+00 0. -1.
</event>
<event>
 5   0  0.1085771E-07  0.3808038E+04  0.7818609E-02  0.8044432E-01
       -1   -1    0    0    0  501  0.00000000000E+00  0.00000000000E+00  0.18573572383E+04  0.18573572383E+04  0.50400001928E-02 0.  1.
        1   -1    0    0  501    0  0.00000000000E+00  0.00000000000E+00 -0.19518534664E+04  0.19518534664E+04  0.50400001928E-02 0. -1.
    10030    2    1    2    0    0  0.00000000000E+00  0.00000000000E+00 -0.94496228137E+02  0.38092107048E+04  0.38080384263E+04 0.  0.
        1    1    3    3  502    0  0.16252584698E+04 -0.98963383997E+03 -0.11396897134E+03  0.19062605166E+04  0.50400001928E-02 0.  1.
       -1    1    3    3    0  502 -0.16252584698E+04  0.98963383997E+03  0.19472743198E+02  0.19029501881E+04  0.50400001928E-02 0. -1.
</event>
<event>
 5   0  0.3442126E-07  0.3635257E+04  0.7818609E-02  0.8082463E-01
        2   -1    0    0  501    0  0.00000000000E+00  0.00000000000E+00  0.25706339651E+04  0.25706339651E+04  0.25500000920E-02 0. -1.
       -2   -1    0    0    0  501  0.00000000000E+00  0.00000000000E+00 -0.12851982207E+04  0.12851982207E+04  0.25500000920E-02 0.  1.
    10030    2    1    2    0    0  0.00000000000E+00  0.00000000000E+00  0.12854357444E+04  0.38558321859E+04  0.36352574589E+04 0.  0.
        2    1    3    3  502    0  0.16293743495E+04 -0.68300887284E+03  0.10957301971E+04  0.20789388053E+04  0.25500000920E-02 0. -1.
       -2    1    3    3    0  502 -0.16293743495E+04  0.68300887284E+03  0.18970554728E+03  0.17768933806E+04  0.25500000920E-02 0.  1.
</event>
<event>
 5   0  0.1084315E-07  0.3347920E+04  0.7818609E-02  0.8150808E-01
       -1   -1    0    0    0  501  0.00000000000E+00  0.00000000000E+00  0.14651647589E+04  0.14651647589E+04  0.50400001928E-02 0. -1.
        1   -1    0    0  501    0  0.00000000000E+00  0.00000000000E+00 -0.19125097901E+04  0.19125097901E+04  0.50400001928E-02 0.  1.
    10030    2    1    2    0    0  0.00000000000E+00  0.00000000000E+00 -0.44734503117E+03  0.33776745490E+04  0.33479199187E+04 0.  0.
        4    1    3    3  502    0  0.14536382957E+04 -0.76448299822E+03  0.10268626852E+03  0.16456137554E+04  0.12699999809E+01 0. -1.
       -4    1    3    3    0  502 -0.14536382957E+04  0.76448299822E+03 -0.55003129968E+03  0.17320607936E+04  0.12699999809E+01 0.  1.
</event>
<event>
 5   0  0.1085771E-07  0.3727649E+04  0.7818609E-02  0.8061862E-01
        1   -1    0    0  501    0  0.00000000000E+00  0.00000000000E+00  0.20818577749E+04  0.20818577749E+04  0.50400001928E-02 0.  1.
       -1   -1    0    0    0  501  0.00000000000E+00  0.00000000000E+00 -0.16686255049E+04  0.16686255049E+04  0.50400001928E-02 0. -1.
    10030    2    1    2    0    0  0.00000000000E+00  0.00000000000E+00  0.41323227000E+03  0.37504832798E+04  0.37276485783E+04 0.  0.
        1    1    3    3  502    0  0.95228491035E+03 -0.15205274010E+04 -0.30144335968E+03  0.18192630999E+04  0.50400001928E-02 0. -1.
       -1    1    3    3    0  502 -0.95228491035E+03  0.15205274010E+04  0.71467562968E+03  0.19312201799E+04  0.50400001928E-02 0.  1.
</event>
<event>
 5   0  0.1070988E-07  0.4127201E+04  0.7818609E-02  0.7979366E-01
       -1   -1    0    0    0  501  0.00000000000E+00  0.00000000000E+00  0.26693406644E+04  0.26693406644E+04  0.50400001928E-02 0.  1.
        1   -1    0    0  501    0  0.00000000000E+00  0.00000000000E+00 -0.15953175557E+04  0.15953175557E+04  0.50400001928E-02 0. -1.
    10030    2    1    2    0    0  0.00000000000E+00  0.00000000000E+00  0.10740231087E+04  0.42646582201E+04  0.41272005156E+04 0.  0.
        2    1    3    3  502    0  0.13152646875E+04  0.10721693463E+04 -0.67639765530E+03  0.18267408391E+04  0.25500000920E-02 0. -1.
       -2    1    3    3    0  502 -0.13152646875E+04 -0.10721693463E+04  0.17504207640E+04  0.24379173809E+04  0.25500000920E-02 0.  1.
</event>
<event>
 5   0  0.3442126E-07  0.3830491E+04  0.7818609E-02  0.8039643E-01
        2   -1    0    0  501    0  0.00000000000E+00  0.00000000000E+00  0.13583078730E+04  0.13583078730E+04  0.25500000920E-02 0.  1.
       -2   -1    0    0    0  501  0.00000000000E+00  0.00000000000E+00 -0.27005405405E+04  0.27005405405E+04  0.25500000920E-02 0. -1.
    10030    2    1    2    0    0  0.00000000000E+00  0.00000000000E+00 -0.13422326675E+04  0.40588484136E+04  0.38304910795E+04 0.  0.
        2    1    3    3  502    0 -0.17096013576E+04 -0.60903457253E+03 -0.13195678567E+04  0.22438625717E+04  0.25500000920E-02 0. -1.
       -2    1    3    3    0  502  0.17096013576E+04  0.60903457253E+03 -0.22664810858E+02  0.18149858418E+04  0.25500000920E-02 0.  1.
</event>
<event>
 5   0  0.3539010E-07  0.3844298E+04  0.7818609E-02  0.8036715E-01
        2   -1    0    0  501    0  0.00000000000E+00  0.00000000000E+00  0.23064338989E+04  0.23064338989E+04  0.25500000920E-02 0. -1.
       -2   -1    0    0    0  501  0.00000000000E+00  0.00000000000E+00 -0.16018918662E+04  0.16018918662E+04  0.25500000920E-02 0.  1.
    10030    2    1    2    0    0  0.00000000000E+00  0.00000000000E+00  0.70454203262E+03  0.39083257651E+04  0.38442984809E+04 0.  0.
        1    1    3    3  502    0  0.52127936270E+03  0.67585816009E+03 -0.13986621607E+04  0.16385274689E+04  0.50400001928E-02 0.  1.
       -1    1    3    3    0  502 -0.52127936270E+03 -0.67585816009E+03  0.21032041933E+04  0.22697982962E+04  0.50400001928E-02 0. -1.
</event>
<event>
 5   0  0.1070988E-07  0.3090942E+04  0.7818609E-02  0.8218228E-01
        1   -1    0    0  501    0  0.00000000000E+00  0.00000000000E+00  0.20442015098E+04  0.20442015098E+04  0.50400001928E-02 0. -1.
       -1   -1    0    0    0  501  0.00000000000E+00  0.00000000000E+00 -0.11684175013E+04  0.11684175013E+04  0.50400001928E-02 0.  1.
    10030    2    1    2    0    0  0.00000000000E+00  0.00000000000E+00  0.87578400846E+03  0.32126190111E+04  0.30909421348E+04 0.  0.
        2    1    3    3  502    0  0.19699184913E+03 -0.30232129946E+03 -0.11240213670E+04  0.11805202201E+04  0.25500000920E-02 0.  1.
       -2    1    3    3    0  502 -0.19699184913E+03  0.30232129946E+03  0.19998053754E+04  0.20320987910E+04  0.25500000920E-02 0. -1.
</event>
<event>
 5   0  0.3539010E-07  0.3794230E+04  0.7818609E-02  0.8047394E-01
       -2   -1    0    0    0  501  0.00000000000E+00  0.00000000000E+00  0.13310589548E+04  0.13310589548E+04  0.25500000920E-02 0.  1.
        2   -1    0    0  501    0  0.00000000000E+00  0.00000000000E+00 -0.27038969278E+04  0.27038969278E+04  0.25500000920E-02 0. -1.
    10030    2    1    2    0    0  0.00000000000E+00  0.00000000000E+00 -0.13728379730E+04  0.40349558826E+04  0.37942304720E+04 0.  0.
        1    1    3    3  502    0 -0.17340934309E+04 -0.21555616078E+03  0.99021258844E+02  0.17502427532E+04  0.50400001928E-02 0. -1.
       -1    1    3    3    0  502  0.17340934309E+04  0.21555616078E+03 -0.14718592319E+04  0.22847131295E+04  0.50400001928E-02 0.  1.
</event>
<event>
 5   0  0.1085771E-07  0.3917877E+04  0.7818609E-02  0.8021321E-01
        1   -1    0    0  501    0  0.00000000000E+00  0.00000000000E+00  0.18928570403E+04  0.18928570403E+04  0.50400001928E-02 0.  1.
       -1   -1    0    0    0  501  0.00000000000E+00  0.00000000000E+00 -0.20273266305E+04  0.20273266305E+04  0.50400001928E-02 0. -1.
    10030    2    1    2    0    0  0.00000000000E+00  0.00000000000E+00 -0.13446959015E+03  0.39201836708E+04  0.39178767135E+04 0.  0.
        1    1    3    3  502    0  0.55822053972E+03 -0.15716262884E+04 -0.10953709164E+04  0.19953588164E+04  0.50400001928E-02 0. -1.
       -1    1    3    3    0  502 -0.55822053972E+03  0.15716262884E+04  0.96090132628E+03  0.19248248545E+04  0.50400001928E-02 0.  1.
</event>
<event>
 5   0  0.3377396E-07  0.3731956E+04  0.7818609E-02  0.8060917E-01
        2   -1    0    0  501    0  0.00000000000E+00  0.00000000000E+00  0.19700327202E+04  0.19700327202E+04  0.25500000920E-02 0. -1.
       -2   -1    0    0    0  501  0.00000000000E+00  0.00000000000E+00 -0.17674196083E+04  0.17674196083E+04  0.25500000920E-02 0.  1.
    10030    2    1    2    0    0  0.00000000000E+00  0.00000000000E+00  0.20261311194E+03  0.37374523285E+04  0.37319563013E+04 0.  0.
        5    1    3    3  502    0  0.80420465190E+03  0.11396307501E+04  0.13426274145E+04  0.19360201014E+04  0.46999998093E+01 0. -1.
       -5    1    3    3    0  502 -0.80420465190E+03 -0.11396307501E+04 -0.11400143026E+04  0.18014322271E+04  0.46999998093E+01 0.  1.
</event>
<event>
 5   0  0.3509843E-07  0.3843568E+04  0.7818609E-02  0.8036870E-01
        2   -1    0    0  501    0  0.00000000000E+00  0.00000000000E+00  0.23188210911E+04  0.23188210911E+04  0.25500000920E-02 0.  1.
       -2   -1    0    0    0  501  0.00000000000E+00  0.00000000000E+00 -0.15927287553E+04  0.15927287553E+04  0.25500000920E-02 0. -1.
    10030    2    1    2    0    0  0.00000000000E+00  0.00000000000E+00  0.72609233574E+03  0.39115498464E+04  0.38435676293E+04 0.  0.
        4    1    3    3  502    0  0.84614674115E+03 -0.25521752786E+03 -0.13736398036E+04  0.16333977523E+04  0.12699999809E+01 0. -1.
       -4    1    3    3    0  502 -0.84614674115E+03  0.25521752786E+03  0.20997321394E+04  0.22781520941E+04  0.12699999809E+01 0.  1.
</event>
<event>
 5   0  0.3509843E-07  0.3620822E+04  0.7818609E-02  0.8085739E-01
        2   -1    0    0  501    0  0.00000000000E+00  0.00000000000E+00  0.13155041823E+04  0.13155041823E+04  0.25500000920E-02 0. -1.
       -2   -1    0    0    0  501  0.00000000000E+00  0.00000000000E+00 -0.24915077256E+04  0.24915077256E+04  0.25500000920E-02 0.  1.
    10030    2    1    2    0    0  0.00000000000E+00  0.00000000000E+00 -0.11760035433E+04  0.38070119079E+04  0.36208224664E+04 0.  0.
        4    1    3    3  502    0  0.11181789004E+04 -0.57443884917E+03 -0.19577922943E+04  0.23266405664E+04  0.12699999809E+01 0.  1.
       -4    1    3    3    0  502 -0.11181789004E+04  0.57443884917E+03  0.78178875097E+03  0.14803713415E+04  0.12699999809E+01 0. -1.
</event>
<event>
 5   0  0.1070988E-07  0.3805589E+04  0.7818609E-02  0.8044957E-01
       -1   -1    0    0    0  501  0.00000000000E+00  0.00000000000E+00  0.11969572413E+04  0.11969572414E+04  0.50400001928E-02 0. -1.
        1   -1    0    0  501    0  0.00000000000E+00  0.00000000000E+00 -0.30248594735E+04  0.30248594735E+04  0.50400001928E-02 0.  1.
    10030    2    1    2    0    0  0.00000000000E+00  0.00000000000E+00 -0.18279022321E+04  0.42218167148E+04  0.38055892846E+04 0.  0.
        2    1    3    3  502    0  0.14979550082E+04  0.10127526810E+04 -0.15712862488E+04  0.23955119860E+04  0.25500000920E-02 0.  1.
       -2    1    3    3    0  502 -0.14979550082E+04 -0.10127526810E+04 -0.25661598330E+03  0.18263047288E+04  0.25500000920E-02 0. -1.
</event>
<event>
 5   0  0.1070988E-07  0.3836611E+04  0.7818609E-02  0.8038344E-01
       -1   -1    0    0    0  501  0.00000000000E+00  0.00000000000E+00  0.22759808255E+04  0.22759808255E+04  0.50400001928E-02 0. -1.
        1   -1    0    0  501    0  0.00000000000E+00  0.00000000000E+00 -0.16168399286E+04  0.16168399286E+04  0.50400001928E-02 0.  1.
    10030    2    1    2    0    0  0.00000000000E+00  0.00000000000E+00  0.65914089688E+03  0.38928207542E+04  0.38366113567E+04 0.  0.
        3    1    3    3  502    0 -0.82827887272E+03 -0.28086530294E+03 -0.14027702368E+04  0.16530866756E+04  0.10100000352E+00 0.  1.
       -3    1    3    3    0  502  0.82827887272E+03  0.28086530294E+03  0.20619111337E+04  0.22397340786E+04  0.10100000352E+00 0. -1.
</event>
<event>
 5   0  0.1070988E-07  0.3120666E+04  0.7818609E-02  0.8210089E-01
       -1   -1    0    0    0  501  0.00000000000E+00  0.00000000000E+00  0.13943489935E+04  0.13943489935E+04  0.50400001928E-02 0. -1.
        1   -1    0    0  501    0  0.00000000000E+00  0.00000000000E+00 -0.17460753159E+04  0.17460753159E+04  0.50400001928E-02 0.  1.
    10030    2    1    2    0    0  0.00000000000E+00  0.00000000000E+00 -0.35172632241E+03  0.31404243095E+04  0.31206655440E+04 0.  0.
        5    1    3    3  502    0  0.10597660387E+03  0.15429528019E+04 -0.38376717554E+03  0.15934973249E+04  0.46999998093E+01 0.  1.
       -5    1    3    3    0  502 -0.10597660387E+03 -0.15429528019E+04  0.32040853124E+02  0.15469269846E+04  0.46999998093E+01 0. -1.
</event>
<event>
 5   0  0.3509843E-07  0.3737685E+04  0.7818609E-02  0.8059661E-01
       -2   -1    0    0    0  501  0.00000000000E+00  0.00000000000E+00  0.13490778540E+04  0.13490778540E+04  0.25500000920E-02 0. -1.
        2   -1    0    0  501    0  0.00000000000E+00  0.00000000000E+00 -0.25888586742E+04  0.25888586742E+04  0.25500000920E-02 0.  1.
    10030    2    1    2    0    0  0.00000000000E+00  0.00000000000E+00 -0.12397808202E+04  0.39379365282E+04  0.37376847939E+04 0.  0.
        4    1    3    3  502    0 -0.47630718451E+03 -0.65143190163E+03 -0.23958272077E+04  0.25280865647E+04  0.12699999809E+01 0.  1.
       -4    1    3    3    0  502  0.47630718451E+03  0.65143190163E+03  0.11560463876E+04  0.14098499635E+04  0.12699999809E+01 0. -1.
</event>
<event>
 5   0  0.3377396E-07  0.3775408E+04  0.7818609E-02  0.8051453E-01
       -2   -1    0    0    0  501  0.00000000000E+00  0.00000000000E+00  0.25886235877E+04  0.25886235877E+04  0.25500000920E-02 0.  1.
        2   -1    0    0  501    0  0.00000000000E+00  0.00000000000E+00 -0.13765721699E+04  0.13765721699E+04  0.25500000920E-02 0. -1.
    10030    2    1    2    0    0  0.00000000000E+00  0.00000000000E+00  0.12120514178E+04  0.39651957576E+04  0.37754084226E+04 0.  0.
        5    1    3    3  502    0 -0.16175575250E+04 -0.89604851573E+03  0.10045884815E+04  0.21044275697E+04  0.46999998093E+01 0. -1.
       -5    1    3    3    0  502  0.16175575250E+04  0.89604851573E+03  0.20746293627E+03  0.18607681879E+04  0.46999998093E+01 0.  1.
</event>
<event>
 5   0  0.3539010E-07  0.3803939E+04  0.7818609E-02  0.8045310E-01
        2   -1    0    0  501    0  0.00000000000E+00  0.00000000000E+00  0.23702585136E+04  0.23702585136E+04  0.25500000920E-02 0. -1.
       -2   -1    0    0    0  501  0.00000000000E+00  0.00000000000E+00 -0.15261996774E+04  0.15261996774E+04  0.25500000920E-02 0.  1.
    10030    2    1    2    0    0  0.00000000000E+00  0.00000000000E+00  0.84405883619E+03  0.38964581909E+04  0.38039388947E+04 0.  0.
        1    1    3    3  502    0  0.10727674429E+04  0.15544093526E+04  0.65214730226E+03  0.19980777077E+04  0.50400001928E-02 0.  1.
       -1    1    3    3    0  502 -0.10727674429E+04 -0.15544093526E+04  0.19191153393E+03  0.18983804832E+04  0.50400001928E-02 0. -1.
</event>
<event>
 5   0  0.3539010E-07  0.3772661E+04  0.7818609E-02  0.8052047E-01
        2   -1    0    0  501    0  0.00000000000E+00  0.00000000000E+00  0.19823876084E+04  0.19823876084E+04  0.25500000920E-02 0.  1.
       -2   -1    0    0    0  501  0.00000000000E+00  0.00000000000E+00 -0.17949280718E+04  0.17949280718E+04  0.25500000920E-02 0. -1.
    10030    2    1    2    0    0  0.00000000000E+00  0.00000000000E+00  0.18745953663E+03  0.37773156802E+04  0.37726612186E+04 0.  0.
        1    1    3    3  502    0  0.93429788271E+03 -0.53178399366E+03  0.16456538187E+04  0.19656762807E+04  0.50400001928E-02 0. -1.
       -1    1    3    3    0  502 -0.93429788271E+03  0.53178399366E+03 -0.14581942821E+04  0.18116393995E+04  0.50400001928E-02 0.  1.
</event>
<event>
 5   0  0.3509843E-07  0.3797104E+04  0.7818609E-02  0.8046777E-01
       -2   -1    0    0    0  501  0.00000000000E+00  0.00000000000E+00  0.14869697524E+04  0.14869697524E+04  0.25500000920E-02 0.  1.
        2   -1    0    0  501    0  0.00000000000E+00  0.00000000000E+00 -0.24240573716E+04  0.24240573716E+04  0.25500000920E-02 0. -1.
    10030    2    1    2    0    0  0.00000000000E+00  0.00000000000E+00 -0.93708761920E+03  0.39110271240E+04  0.37971041543E+04 0.  0.
        4    1    3    3  502    0 -0.39579238918E+03 -0.18492503268E+04 -0.64126511021E+03  0.19968978294E+04  0.12699999809E+01 0. -1.
       -4    1    3    3    0  502  0.39579238918E+03  0.18492503268E+04 -0.29582250899E+03  0.19141292946E+04  0.12699999809E+01 0.  1.
</event>
<event>
 5   0  0.1084315E-07  0.3864927E+04  0.7818609E-02  0.8032364E-01
        1   -1    0    0  501    0  0.00000000000E+00  0.00000000000E+00  0.19844937296E+04  0.19844937296E+04  0.50400001928E-02 0.  1.
       -1   -1    0    0    0  501  0.00000000000E+00  0.00000000000E+00 -0.18817974267E+04  0.18817974267E+04  0.50400001928E-02 0. -1.
    10030    2    1    2    0    0  0.00000000000E+00  0.00000000000E+00  0.10269630291E+03  0.38662911564E+04  0.38649270077E+04 0.  0.
        4    1    3    3  502    0 -0.11258650197E+04  0.13995847953E+04  0.76434366920E+03  0.19520841425E+04  0.12699999809E+01 0.  1.
       -4    1    3    3    0  502  0.11258650197E+04 -0.13995847953E+04 -0.66164736629E+03  0.19142070139E+04  0.12699999809E+01 0. -1.
</event>
<event>
 5   0  0.3509843E-07  0.3817501E+04  0.7818609E-02  0.8042410E-01
        2   -1    0    0  501    0  0.00000000000E+00  0.00000000000E+00  0.21912619817E+04  0.21912619817E+04  0.25500000920E-02 0. -1.
       -2   -1    0    0    0  501  0.00000000000E+00  0.00000000000E+00 -0.16626620562E+04  0.16626620562E+04  0.25500000920E-02 0.  1.
    10030    2    1    2    0    0  0.00000000000E+00  0.00000000000E+00  0.52859992551E+03  0.38539240379E+04  0.38175008328E+04 0.  0.
        4    1    3    3  502    0 -0.10224055028E+04  0.15030422368E+04  0.85198605952E+03  0.20075683889E+04  0.12699999809E+01 0. -1.
       -4    1    3    3    0  502  0.10224055028E+04 -0.15030422368E+04 -0.32338613401E+03  0.18463556489E+04  0.12699999809E+01 0.  1.
</event>
<event>
 5   0  0.1070988E-07  0.3810955E+04  0.7818609E-02  0.8043808E-01
        1   -1    0    0  501    0  0.00000000000E+00  0.00000000000E+00  0.22391668558E+04  0.22391668558E+04  0.50400001928E-02 0. -1.
       -1   -1    0    0    0  501  0.00000000000E+00  0.00000000000E+00 -0.16215159717E+04  0.16215159718E+04  0.50400001928E-02 0.  1.
    10030    2    1    2    0    0  0.00000000000E+00  0.00000000000E+00  0.61765088410E+03  0.38606828276E+04  0.38109551665E+04 0.  0.
        3    1    3    3  502    0 -0.43506472983E+03 -0.13047374356E+04  0.16448302115E+04  0.21440819783E+04  0.10100000352E+00 0. -1.
       -3    1    3    3    0  502  0.43506472983E+03  0.13047374356E+04 -0.10271793274E+04  0.17166008493E+04  0.10100000352E+00 0.  1.
</event>
<event>
 5   0  0.1084315E-07  0.3769932E+04  0.7818609E-02  0.8052638E-01
       -1   -1    0    0    0  501  0.00000000000E+00  0.00000000000E+00  0.18517621602E+04  0.18517621602E+04  0.50400001928E-02 0. -1.
        1   -1    0    0  501    0  0.00000000000E+00  0.00000000000E+00 -0.19187653465E+04  0.19187653465E+04  0.50400001928E-02 0.  1.
    10030    2    1    2    0    0  0.00000000000E+00  0.00000000000E+00 -0.67003186228E+02  0.37705275067E+04  0.37699321283E+04 0.  0.
        4    1    3    3  502    0  0.10861901103E+04  0.95627320270E+03 -0.12415118881E+04  0.19067303886E+04  0.12699999809E+01 0.  1.
       -4    1    3    3    0  502 -0.10861901103E+04 -0.95627320270E+03  0.11745087018E+04  0.18637971181E+04  0.12699999809E+01 0. -1.
</event>
<event>
 5   0  0.1070988E-07  0.3909011E+04  0.7818609E-02  0.8023158E-01
       -1   -1    0    0    0  501  0.00000000000E+00  0.00000000000E+00  0.13594286325E+04  0.13594286325E+04  0.50400001928E-02 0. -1.
        1   -1    0    0  501    0  0.00000000000E+00  0.00000000000E+00 -0.28100722422E+04  0.28100722422E+04  0.50400001928E-02 0.  1.
    10030    2    1    2    0    0  0.00000000000E+00  0.00000000000E+00 -0.14506436097E+04  0.41695008748E+04  0.39090114687E+04 0.  0.
        2    1    3    3  502    0  0.43959511561E+03  0.14545704729E+04  0.58585097609E+03  0.16285700760E+04  0.25500000920E-02 0. -1.
       -2    1    3    3    0  502 -0.43959511561E+03 -0.14545704729E+04 -0.20364945858E+04  0.25409307988E+04  0.25500000920E-02 0.  1.
</event>
<event>
 5   0  0.3539010E-07  0.3795062E+04  0.7818609E-02  0.8047215E-01
        2   -1    0    0  501    0  0.00000000000E+00  0.00000000000E+00  0.18800700447E+04  0.18800700447E+04  0.25500000920E-02 0.  1.
       -2   -1    0    0    0  501  0.00000000000E+00  0.00000000000E+00 -0.19151542727E+04  0.19151542727E+04  0.25500000920E-02 0. -1.
    10030    2    1    2    0    0  0.00000000000E+00  0.00000000000E+00 -0.35084227997E+02  0.37952243173E+04  0.37950621491E+04 0.  0.
        1    1    3    3  502    0 -0.28995752784E+03 -0.84133165607E+03 -0.16935343278E+04  0.19131055493E+04  0.50400001928E-02 0. -1.
       -1    1    3    3    0  502  0.28995752784E+03  0.84133165607E+03  0.16584500998E+04  0.18821187680E+04  0.50400001928E-02 0.  1.
</event>
<event>
 5   0  0.1070988E-07  0.3619821E+04  0.7818609E-02  0.8085966E-01
        1   -1    0    0  501    0  0.00000000000E+00  0.00000000000E+00  0.21047838503E+04  0.21047838503E+04  0.50400001928E-02 0.  1.
       -1   -1    0    0    0  501  0.00000000000E+00  0.00000000000E+00 -0.15563480232E+04  0.15563480232E+04  0.50400001928E-02 0. -1.
    10030    2    1    2    0    0  0.00000000000E+00  0.00000000000E+00  0.54843582704E+03  0.36611318735E+04  0.36198210921E+04 0.  0.
        3    1    3    3  502    0  0.90812036346E+03 -0.15125837648E+04  0.68278837615E+03  0.18917695993E+04  0.10100000352E+00 0. -1.
       -3    1    3    3    0  502 -0.90812036346E+03  0.15125837648E+04 -0.13435254910E+03  0.17693622743E+04  0.10100000352E+00 0.  1.
</event>
<event>
 5   0  0.3327241E-07  0.3818493E+04  0.7818609E-02  0.8042198E-01
       -2   -1    0    0    0  501  0.00000000000E+00  0.00000000000E+00  0.33962162673E+04  0.33962162673E+04  0.25500000920E-02 0.  1.
        2   -1    0    0  501    0  0.00000000000E+00  0.00000000000E+00 -0.10733186672E+04  0.10733186672E+04  0.25500000920E-02 0. -1.
    10030    2    1    2    0    0  0.00000000000E+00  0.00000000000E+00  0.23228976001E+04  0.44695349345E+04  0.38184930627E+04 0.  0.
        3    1    3    3  502    0 -0.70086981619E+03 -0.76775295962E+03 -0.71301343316E+03  0.12605757702E+04  0.10100000352E+00 0. -1.
       -3    1    3    3    0  502  0.70086981619E+03  0.76775295962E+03  0.30359110333E+04  0.32089591644E+04  0.10100000352E+00 0.  1.
</event>
<event>
 5   0  0.3442126E-07  0.3807025E+04  0.7818609E-02  0.8044649E-01
       -2   -1    0    0    0  501  0.00000000000E+00  0.00000000000E+00  0.16436088888E+04  0.16436088888E+04  0.25500000920E-02 0. -1.
        2   -1    0    0  501    0  0.00000000000E+00  0.00000000000E+00 -0.22045143911E+04  0.22045143911E+04  0.25500000920E-02 0.  1.
    10030    2    1    2    0    0  0.00000000000E+00  0.00000000000E+00 -0.56090550233E+03  0.38481232799E+04  0.38070247957E+04 0.  0.
        2    1    3    3  502    0 -0.15099040019E+04  0.49153930732E+03  0.78061213476E+03  0.17693999803E+04  0.25500000920E-02 0. -1.
       -2    1    3    3    0  502  0.15099040019E+04 -0.49153930732E+03 -0.13415176371E+04  0.20787232996E+04  0.25500000920E-02 0.  1.
</event>
<event>
 5   0  0.3509843E-07  0.3809365E+04  0.7818609E-02  0.8044148E-01
       -2   -1    0    0    0  501  0.00000000000E+00  0.00000000000E+00  0.14631943775E+04  0.14631943775E+04  0.25500000920E-02 0.  1.
        2   -1    0    0  501    0  0.00000000000E+00  0.00000000000E+00 -0.24793806536E+04  0.24793806536E+04  0.25500000920E-02 0. -1.
    10030    2    1    2    0    0  0.00000000000E+00  0.00000000000E+00 -0.10161862761E+04  0.39425750311E+04  0.38093652133E+04 0.  0.
        4    1    3    3  502    0 -0.16163647842E+04 -0.32805680839E+03 -0.14940649762E+04  0.22254186463E+04  0.12699999809E+01 0. -1.
       -4    1    3    3    0  502  0.16163647842E+04  0.32805680839E+03  0.47787870003E+03  0.17171563849E+04  0.12699999809E+01 0.  1.
</event>
<event>
 5   0  0.1084315E-07  0.3875410E+04  0.7818609E-02  0.8030163E-01
        1   -1    0    0  501    0  0.00000000000E+00  0.00000000000E+00  0.22890291306E+04  0.22890291306E+04  0.50400001928E-02 0.  1.
       -1   -1    0    0    0  501  0.00000000000E+00  0.00000000000E+00 -0.16403027164E+04  0.16403027164E+04  0.50400001928E-02 0. -1.
    10030    2    1    2    0    0  0.00000000000E+00  0.00000000000E+00  0.64872641426E+03  0.39293318470E+04  0.38754100174E+04 0.  0.
        4    1    3    3  502    0  0.36574949165E+03  0.65663457215E+03 -0.14864759622E+04  0.16656992679E+04  0.12699999809E+01 0. -1.
       -4    1    3    3    0  502 -0.36574949165E+03 -0.65663457215E+03  0.21352023764E+04  0.22636325791E+04  0.12699999809E+01 0.  1.
</event>
<event>
 5   0  0.1085771E-07  0.3654233E+04  0.7818609E-02  0.8078181E-01
        1   -1    0    0  501    0  0.00000000000E+00  0.00000000000E+00  0.13745975646E+04  0.13745975646E+04  0.50400001928E-02 0.  1.
       -1   -1    0    0    0  501  0.00000000000E+00  0.00000000000E+00 -0.24286048173E+04  0.24286048173E+04  0.50400001928E-02 0. -1.
    10030    2    1    2    0    0  0.00000000000E+00  0.00000000000E+00 -0.10540072527E+04  0.38032023819E+04  0.36542327606E+04 0.  0.
        1    1    3    3  502    0  0.12361881627E+04 -0.78048076092E+03 -0.16676013099E+04  0.22177027575E+04  0.50400001928E-02 0. -1.
       -1    1    3    3    0  502 -0.12361881627E+04  0.78048076092E+03  0.61359405724E+03  0.15854996244E+04  0.50400001928E-02 0.  1.
</event>
<event>
 5   0  0.3509843E-07  0.3805875E+04  0.7818609E-02  0.8044895E-01
       -2   -1    0    0    0  501  0.00000000000E+00  0.00000000000E+00  0.16235683189E+04  0.16235683189E+04  0.25500000920E-02 0.  1.
        2   -1    0    0  501    0  0.00000000000E+00  0.00000000000E+00 -0.22303776530E+04  0.22303776530E+04  0.25500000920E-02 0. -1.
    10030    2    1    2    0    0  0.00000000000E+00  0.00000000000E+00 -0.60680933416E+03  0.38539459719E+04  0.38058746677E+04 0.  0.
        4    1    3    3  502    0  0.43201324296E+03 -0.15045893712E+04 -0.13990806935E+04  0.20994887516E+04  0.12699999809E+01 0. -1.
       -4    1    3    3    0  502 -0.43201324296E+03  0.15045893712E+04  0.79227135937E+03  0.17544572203E+04  0.12699999809E+01 0.  1.
</event>
<event>
 5   0  0.3377396E-07  0.3359276E+04  0.7818609E-02  0.8147974E-01
       -2   -1    0    0    0  501  0.00000000000E+00  0.00000000000E+00  0.11360109771E+04  0.11360109771E+04  0.25500000920E-02 0. -1.
        2   -1    0    0  501    0  0.00000000000E+00  0.00000000000E+00 -0.24834121831E+04  0.24834121831E+04  0.25500000920E-02 0.  1.
    10030    2    1    2    0    0  0.00000000000E+00  0.00000000000E+00 -0.13474012060E+04  0.36194231602E+04  0.33592758153E+04 0.  0.
        5    1    3    3  502    0  0.15371156762E+04  0.38035092970E+03 -0.70169867208E+02  0.15850354355E+04  0.46999998093E+01 0. -1.
       -5    1    3    3    0  502 -0.15371156762E+04 -0.38035092970E+03 -0.12772313388E+04  0.20343877247E+04  0.46999998093E+01 0.  1.
</event>
<event>
 5   0  0.1070988E-07  0.3461233E+04  0.7818609E-02  0.8123039E-01
        1   -1    0    0  501    0  0.00000000000E+00  0.00000000000E+00  0.18477485131E+04  0.18477485131E+04  0.50400001928E-02 0.  1.
       -1   -1    0    0    0  501  0.00000000000E+00  0.00000000000E+00 -0.16209094161E+04  0.16209094161E+04  0.50400001928E-02 0. -1.
    10030    2    1    2    0    0  0.00000000000E+00  0.00000000000E+00  0.22683909700E+03  0.34686579292E+04  0.34612327073E+04 0.  0.
        2    1    3    3  502    0 -0.11060545041E+04  0.20174525956E+03 -0.12050682124E+04  0.16481040963E+04  0.25500000920E-02 0. -1.
       -2    1    3    3    0  502  0.11060545041E+04 -0.20174525956E+03  0.14319073094E+04  0.18205538329E+04  0.25500000920E-02 0.  1.
</event>
<event>
 5   0  0.1070988E-07  0.3797198E+04  0.7818609E-02  0.8046756E-01
        1   -1    0    0  501    0  0.00000000000E+00  0.00000000000E+00  0.28455620365E+04  0.28455620365E+04  0.50400001928E-02 0.  1.
       -1   -1    0    0    0  501  0.00000000000E+00  0.00000000000E+00 -0.12667718724E+04  0.12667718724E+04  0.50400001928E-02 0. -1.
    10030    2    1    2    0    0  0.00000000000E+00  0.00000000000E+00  0.15787901641E+04  0.41123339089E+04  0.37971978874E+04 0.  0.
        3    1    3    3  502    0  0.12787467483E+04 -0.75396960937E+02 -0.72826239913E+03  0.14735141941E+04  0.10100000352E+00 0. -1.
       -3    1    3    3    0  502 -0.12787467483E+04  0.75396960937E+02  0.23070525632E+04  0.26388197149E+04  0.10100000352E+00 0.  1.
</event>
<event>
 5   0  0.3442126E-07  0.3823115E+04  0.7818609E-02  0.8041213E-01
        2   -1    0    0  501    0  0.00000000000E+00  0.00000000000E+00  0.16494631070E+04  0.16494631070E+04  0.25500000920E-02 0. -1.
       -2   -1    0    0    0  501  0.00000000000E+00  0.00000000000E+00 -0.22152978260E+04  0.22152978260E+04  0.25500000920E-02 0.  1.
    10030    2    1    2    0    0  0.00000000000E+00  0.00000000000E+00 -0.56583471903E+03  0.38647609330E+04  0.38231149787E+04 0.  0.
        2    1    3    3  502    0  0.16650186220E+04  0.92189285060E+03 -0.10242664502E+03  0.19059550512E+04  0.25500000920E-02 0. -1.
       -2    1    3    3    0  502 -0.16650186220E+04 -0.92189285060E+03 -0.46340807402E+03  0.19588058818E+04  0.25500000920E-02 0.  1.
</event>
<event>
 5   0  0.3509843E-07  0.3789738E+04  0.7818609E-02  0.8048361E-01
        2   -1    0    0  501    0  0.00000000000E+00  0.00000000000E+00  0.12728860765E+04  0.12728860765E+04  0.25500000920E-02 0. -1.
       -2   -1    0    0    0  501  0.00000000000E+00  0.00000000000E+00 -0.28207777276E+04  0.28207777276E+04  0.25500000920E-02 0.  1.
    10030    2    1    2    0    0  0.00000000000E+00  0.00000000000E+00 -0.15478916511E+04  0.40936638042E+04  0.37897380883E+04 0.  0.
        4    1    3    3  502    0 -0.64805115495E+03  0.62502398381E+03 -0.25749623764E+04  0.27278302976E+04  0.12699999809E+01 0.  1.
       -4    1    3    3    0  502  0.64805115495E+03 -0.62502398381E+03  0.10270707253E+04  0.13658335065E+04  0.12699999809E+01 0. -1.
</event>
<event>
 5   0  0.1085771E-07  0.3772025E+04  0.7818609E-02  0.8052185E-01
        1   -1    0    0  501    0  0.00000000000E+00  0.00000000000E+00  0.10328370973E+04  0.10328370973E+04  0.50400001928E-02 0. -1.
       -1   -1    0    0    0  501  0.00000000000E+00  0.00000000000E+00 -0.34439534315E+04  0.34439534315E+04  0.50400001928E-02 0.  1.
    10030    2    1    2    0    0  0.00000000000E+00  0.00000000000E+00 -0.24111163342E+04  0.44767905287E+04  0.37720248490E+04 0.  0.
        1    1    3    3  502    0 -0.18017643115E+04 -0.53302801553E+03 -0.10121018910E+04  0.21342033027E+04  0.50400001928E-02 0. -1.
       -1    1    3    3    0  502  0.18017643115E+04  0.53302801553E+03 -0.13990144432E+04  0.23425872261E+04  0.50400001928E-02 0.  1.
</event>
<event>
 5   0  0.1085771E-07  0.3771912E+04  0.7818609E-02  0.8052209E-01
       -1   -1    0    0    0  501  0.00000000000E+00  0.00000000000E+00  0.27200457007E+04  0.27200457007E+04  0.50400001928E-02 0.  1.
        1   -1    0    0  501    0  0.00000000000E+00  0.00000000000E+00 -0.13076362940E+04  0.13076362940E+04  0.50400001928E-02 0. -1.
    10030    2    1    2    0    0  0.00000000000E+00  0.00000000000E+00  0.14124094067E+04  0.40276819946E+04  0.37719122362E+04 0.  0.
        1    1    3    3  502    0  0.88918163753E+03 -0.16505535608E+04  0.92467393903E+03  0.20904528063E+04  0.50400001928E-02 0. -1.
       -1    1    3    3    0  502 -0.88918163753E+03  0.16505535608E+04  0.48773546767E+03  0.19372291883E+04  0.50400001928E-02 0.  1.
</event>
<event>
 5   0  0.3327241E-07  0.3771969E+04  0.7818609E-02  0.8052197E-01
        2   -1    0    0  501    0  0.00000000000E+00  0.00000000000E+00  0.15691552692E+04  0.15691552692E+04  0.25500000920E-02 0. -1.
       -2   -1    0    0    0  501  0.00000000000E+00  0.00000000000E+00 -0.22667846836E+04  0.22667846836E+04  0.25500000920E-02 0.  1.
    10030    2    1    2    0    0  0.00000000000E+00  0.00000000000E+00 -0.69762941440E+03  0.38359399528E+04  0.37719687858E+04 0.  0.
        3    1    3    3  502    0 -0.15536735355E+04  0.10213650368E+04 -0.27466526610E+02  0.18595274706E+04  0.10100000352E+00 0. -1.
       -3    1    3    3    0  502  0.15536735355E+04 -0.10213650368E+04 -0.67016288779E+03  0.19764124822E+04  0.10100000352E+00 0.  1.
</event>
<event>
 5   0  0.1085771E-07  0.3775644E+04  0.7818609E-02  0.8051402E-01
       -1   -1    0    0    0  501  0.00000000000E+00  0.00000000000E+00  0.13203939660E+04  0.13203939660E+04  0.50400001928E-02 0. -1.
        1   -1    0    0  501    0  0.00000000000E+00  0.00000000000E+00 -0.26990974838E+04  0.26990974838E+04  0.50400001928E-02 0.  1.
    10030    2    1    2    0    0  0.00000000000E+00  0.00000000000E+00 -0.13787035178E+04  0.40194914498E+04  0.37756440676E+04 0.  0.
        1    1    3    3  502    0 -0.20725967425E+03 -0.72033374221E+03  0.11551875760E+04  0.13770604956E+04  0.50400001928E-02 0. -1.
       -1    1    3    3    0  502  0.20725967425E+03  0.72033374221E+03 -0.25338910937E+04  0.26424309542E+04  0.50400001928E-02 0.  1.
</event>
<event>
 5   0  0.1070988E-07  0.3773311E+04  0.7818609E-02  0.8051907E-01
       -1   -1    0    0    0  501  0.00000000000E+00  0.00000000000E+00  0.22336771671E+04  0.22336771671E+04  0.50400001928E-02 0. -1.
        1   -1    0    0  501    0  0.00000000000E+00  0.00000000000E+00 -0.15935471461E+04  0.15935471461E+04  0.50400001928E-02 0.  1.
    10030    2    1    2    0    0  0.00000000000E+00  0.00000000000E+00  0.64013002103E+03  0.38272243133E+04  0.37733114767E+04 0.  0.
        3    1    3    3  502    0  0.17950767882E+04  0.31103682775E+03 -0.17727262659E+03  0.18304289601E+04  0.10100000352E+00 0.  1.
       -3    1    3    3    0  502 -0.17950767882E+04 -0.31103682775E+03  0.81740264761E+03  0.19967953531E+04  0.10100000352E+00 0. -1.
</event>
<event>
 5   0  0.1085771E-07  0.3821646E+04  0.7818609E-02  0.8041526E-01
       -1   -1    0    0    0  501  0.00000000000E+00  0.00000000000E+00  0.14378593812E+04  0.14378593812E+04  0.50400001928E-02 0.  1.
        1   -1    0    0  501    0  0.00000000000E+00  0.00000000000E+00 -0.25393610230E+04  0.25393610230E+04  0.50400001928E-02 0. -1.
    10030    2    1    2    0    0  0.00000000000E+00  0.00000000000E+00 -0.11015016419E+04  0.39772204042E+04  0.38216457550E+04 0.  0.
        1    1    3    3  502    0 -0.11665336087E+04  0.13223518219E+04  0.21530493662E+03  0.17764490471E+04  0.50400001928E-02 0.  1.
       -1    1    3    3    0  502  0.11665336087E+04 -0.13223518219E+04 -0.13168065785E+04  0.22007713571E+04  0.50400001928E-02 0. -1.
</event>
<event>
 5   0  0.1070988E-07  0.3779396E+04  0.7818609E-02  0.8050591E-01
       -1   -1    0    0    0  501  0.00000000000E+00  0.00000000000E+00  0.18203245374E+04  0.18203245374E+04  0.50400001928E-02 0. -1.
        1   -1    0    0  501    0  0.00000000000E+00  0.00000000000E+00 -0.19617148783E+04  0.19617148783E+04  0.50400001928E-02 0.  1.
    10030    2    1    2    0    0  0.00000000000E+00  0.00000000000E+00 -0.14139034091E+03  0.37820394157E+04  0.37793955751E+04 0.  0.
        3    1    3    3  502    0 -0.36935651006E+03  0.15017223253E+04 -0.11574399181E+04  0.19316473147E+04  0.10100000352E+00 0.  1.
       -3    1    3    3    0  502  0.36935651006E+03 -0.15017223253E+04  0.10160495772E+04  0.18503921010E+04  0.10100000352E+00 0. -1.
</event>
<event>
 5   0  0.3377396E-07  0.3745186E+04  0.7818609E-02  0.8058021E-01
       -2   -1    0    0    0  501  0.00000000000E+00  0.00000000000E+00  0.16749292651E+04  0.16749292651E+04  0.25500000920E-02 0. -1.
        2   -1    0    0  501    0  0.00000000000E+00  0.00000000000E+00 -0.20935837047E+04  0.20935837047E+04  0.25500000920E-02 0.  1.
    10030    2    1    2    0    0  0.00000000000E+00  0.00000000000E+00 -0.41865443956E+03  0.37685129698E+04  0.37451860386E+04 0.  0.
        5    1    3    3  502    0 -0.44613858926E+03  0.16909190981E+04 -0.88307628758E+03  0.19591051163E+04  0.46999998093E+01 0. -1.
       -5    1    3    3    0  502  0.44613858926E+03 -0.16909190981E+04  0.46442184802E+03  0.18094078534E+04  0.46999998093E+01 0.  1.
</event>
<event>
 5   0  0.1084315E-07  0.3779958E+04  0.7818609E-02  0.8050469E-01
        1   -1    0    0  501    0  0.00000000000E+00  0.00000000000E+00  0.14326948552E+04  0.14326948552E+04  0.50400001928E-02 0.  1.
       -1   -1    0    0    0  501  0.00000000000E+00  0.00000000000E+00 -0.24932183776E+04  0.24932183776E+04  0.50400001928E-02 0. -1.
    10030    2    1    2    0    0  0.00000000000E+00  0.00000000000E+00 -0.10605235224E+04  0.39259132328E+04  0.37799582763E+04 0.  0.
        4    1    3    3  502    0  0.10639697932E+04  0.70648368629E+03 -0.19772058801E+04  0.23538257423E+04  0.12699999809E+01 0. -1.
       -4    1    3    3    0  502 -0.10639697932E+04 -0.70648368629E+03  0.91668235776E+03  0.15720874905E+04  0.12699999809E+01 0.  1.
</event>
<event>
 5   0  0.1085771E-07  0.3793998E+04  0.7818609E-02  0.8047444E-01
        1   -1    0    0  501    0  0.00000000000E+00  0.00000000000E+00  0.18225854921E+04  0.18225854921E+04  0.50400001928E-02 0. -1.
       -1   -1    0    0    0  501  0.00000000000E+00  0.00000000000E+00 -0.19744506561E+04  0.19744506561E+04  0.50400001928E-02 0.  1.
    10030    2    1    2    0    0  0.00000000000E+00  0.00000000000E+00 -0.15186516404E+03  0.37970361482E+04  0.37939979550E+04 0.  0.
        1    1    3    3  502    0  0.49621170197E+03  0.10108079695E+04 -0.16038005490E+04  0.19596262412E+04  0.50400001928E-02 0.  1.
       -1    1    3    3    0  502 -0.49621170197E+03 -0.10108079695E+04  0.14519353849E+04  0.18374099070E+04  0.50400001928E-02 0. -1.
</event>
<event>
 5   0  0.1070988E-07  0.3815943E+04  0.7818609E-02  0.8042742E-01
       -1   -1    0    0    0  501  0.00000000000E+00  0.00000000000E+00  0.24284908298E+04  0.24284908298E+04  0.50400001928E-02 0. -1.
        1   -1    0    0  501    0  0.00000000000E+00  0.00000000000E+00 -0.14990194054E+04  0.14990194054E+04  0.50400001928E-02 0.  1.
    10030    2    1    2    0    0  0.00000000000E+00  0.00000000000E+00  0.92947142436E+03  0.39275102352E+04  0.38159428086E+04 0.  0.
        3    1    3    3  502    0 -0.18957756098E+03 -0.68758962032E+03 -0.13566464889E+04  0.15327129032E+04  0.10100000352E+00 0.  1.
       -3    1    3    3    0  502  0.18957756098E+03  0.68758962032E+03  0.22861179133E+04  0.23947973320E+04  0.10100000352E+00 0. -1.
</event>
<event>
 5   0  0.3377396E-07  0.3866331E+04  0.7818609E-02  0.8032068E-01
        2   -1    0    0  501    0  0.00000000000E+00  0.00000000000E+00  0.18557952027E+04  0.18557952027E+04  0.25500000920E-02 0. -1.
       -2   -1    0    0    0  501  0.00000000000E+00  0.00000000000E+00 -0.20137619045E+04  0.20137619045E+04  0.25500000920E-02 0.  1.
    10030    2    1    2    0    0  0.00000000000E+00  0.00000000000E+00 -0.15796670172E+03  0.38695571072E+04  0.38663314301E+04 0.  0.
        5    1    3    3  502    0 -0.16323590087E+04  0.18454137914E+03  0.94091351978E+03  0.18931433638E+04  0.46999998093E+01 0. -1.
       -5    1    3    3    0  502  0.16323590087E+04 -0.18454137914E+03 -0.10988802215E+04  0.19764137434E+04  0.46999998093E+01 0.  1.
</event>
<event>
 5   0  0.3509843E-07  0.3824767E+04  0.7818609E-02  0.8040861E-01
       -2   -1    0    0    0  501  0.00000000000E+00  0.00000000000E+00  0.13398141927E+04  0.13398141927E+04  0.25500000920E-02 0. -1.
        2   -1    0    0  501    0  0.00000000000E+00  0.00000000000E+00 -0.27296408683E+04  0.27296408683E+04  0.25500000920E-02 0.  1.
    10030    2    1    2    0    0  0.00000000000E+00  0.00000000000E+00 -0.13898266756E+04  0.40694550611E+04  0.38247674839E+04 0.  0.
        4    1    3    3  502    0  0.96430418653E+03 -0.70327011847E+03 -0.22847413793E+04  0.25776959105E+04  0.12699999809E+01 0.  1.
       -4    1    3    3    0  502 -0.96430418653E+03  0.70327011847E+03  0.89491470366E+03  0.14917591506E+04  0.12699999809E+01 0. -1.
</event>
<event>
 5   0  0.1070988E-07  0.3720437E+04  0.7818609E-02  0.8063448E-01
       -3   -1    0    0    0  501  0.00000000000E+00  0.00000000000E+00  0.13844266151E+04  0.13844266188E+04  0.10100000352E+00 0. -1.
        3   -1    0    0  501    0  0.00000000000E+00  0.00000000000E+00 -0.24995275308E+04  0.24995275328E+04  0.10100000352E+00 0.  1.
    10030    2    1    2    0    0  0.00000000000E+00  0.00000000000E+00 -0.11151009156E+04  0.38839541516E+04  0.37204367754E+04 0.  0.
        4    1    3    3  502    0  0.17228771609E+04  0.17000292921E+03  0.15295329681E+03  0.17379882139E+04  0.12699999809E+01 0. -1.
       -4    1    3    3    0  502 -0.17228771609E+04 -0.17000292921E+03 -0.12680542124E+04  0.21459659378E+04  0.12699999809E+01 0.  1.
</event>
<event>
 5   0  0.3509843E-07  0.3393015E+04  0.7818609E-02  0.8139623E-01
       -2   -1    0    0    0  501  0.00000000000E+00  0.00000000000E+00  0.15765926400E+04  0.15765926400E+04  0.25500000920E-02 0. -1.
        2   -1    0    0  501    0  0.00000000000E+00  0.00000000000E+00 -0.18255430661E+04  0.18255430661E+04  0.25500000920E-02 0.  1.
    10030    2    1    2    0    0  0.00000000000E+00  0.00000000000E+00 -0.24895042611E+03  0.34021357061E+04  0.33930150380E+04 0.  0.
        4    1    3    3  502    0  0.16651943854E+04  0.19937536798E+03 -0.38111884312E+03  0.17198476862E+04  0.12699999809E+01 0.  1.
       -4    1    3    3    0  502 -0.16651943854E+04 -0.19937536798E+03  0.13216841701E+03  0.16822880198E+04  0.12699999809E+01 0. -1.
</event>
<event>
 5   0  0.1070988E-07  0.3814847E+04  0.7818609E-02  0.8042976E-01
        1   -1    0    0  501    0  0.00000000000E+00  0.00000000000E+00  0.17892469199E+04  0.17892469199E+04  0.50400001928E-02 0. -1.
       -1   -1    0    0    0  501  0.00000000000E+00  0.00000000000E+00 -0.20334059148E+04  0.20334059148E+04  0.50400001928E-02 0.  1.
    10030    2    1    2    0    0  0.00000000000E+00  0.00000000000E+00 -0.24415899482E+03  0.38226528347E+04  0.38148474517E+04 0.  0.
        5    1    3    3  502    0 -0.12093848125E+04  0.12674876736E+04 -0.87801453455E+03  0.19596092060E+04  0.46999998093E+01 0.  1.
       -5    1    3    3    0  502  0.12093848125E+04 -0.12674876736E+04  0.63385553972E+03  0.18630436287E+04  0.46999998093E+01 0. -1.
</event>
<event>
 5   0  0.3442126E-07  0.3665535E+04  0.7818609E-02  0.8075643E-01
       -2   -1    0    0    0  501  0.00000000000E+00  0.00000000000E+00  0.14100225350E+04  0.14100225350E+04  0.25500000920E-02 0. -1.
        2   -1    0    0  501    0  0.00000000000E+00  0.00000000000E+00 -0.23822578094E+04  0.23822578094E+04  0.25500000920E-02 0.  1.
    10030    2    1    2    0    0  0.00000000000E+00  0.00000000000E+00 -0.97223527441E+03  0.37922803444E+04  0.36655352654E+04 0.  0.
        2    1    3    3  502    0  0.70627308678E+03  0.16886589868E+04 -0.58231859659E+03  0.19208034243E+04  0.25500000920E-02 0. -1.
       -2    1    3    3    0  502 -0.70627308678E+03 -0.16886589868E+04 -0.38991667782E+03  0.18714769201E+04  0.25500000920E-02 0.  1.
</event>
<event>
 5   0  0.3539010E-07  0.3745527E+04  0.7818609E-02  0.8057947E-01
       -2   -1    0    0    0  501  0.00000000000E+00  0.00000000000E+00  0.22617038833E+04  0.22617038833E+04  0.25500000920E-02 0. -1.
        2   -1    0    0  501    0  0.00000000000E+00  0.00000000000E+00 -0.15507085501E+04  0.15507085501E+04  0.25500000920E-02 0.  1.
    10030    2    1    2    0    0  0.00000000000E+00  0.00000000000E+00  0.71099533324E+03  0.38124124334E+04  0.37455272257E+04 0.  0.
        1    1    3    3  502    0 -0.88255274996E+03 -0.14312539193E+04  0.11947557209E+04  0.20627235323E+04  0.50400001928E-02 0. -1.
       -1    1    3    3    0  502  0.88255274996E+03  0.14312539193E+04 -0.48376038766E+03  0.17496889011E+04  0.50400001928E-02 0.  1.
</event>
<event>
 5   0  0.1084315E-07  0.3627231E+04  0.7818609E-02  0.8084282E-01
       -1   -1    0    0    0  501  0.00000000000E+00  0.00000000000E+00  0.15919058654E+04  0.15919058654E+04  0.50400001928E-02 0.  1.
        1   -1    0    0  501    0  0.00000000000E+00  0.00000000000E+00 -0.20662031115E+04  0.20662031115E+04  0.50400001928E-02 0. -1.
    10030    2    1    2    0    0  0.00000000000E+00  0.00000000000E+00 -0.47429724607E+03  0.36581089770E+04  0.36272308184E+04 0.  0.
        4    1    3    3  502    0 -0.54917507864E+03 -0.16388458822E+04  0.31688226088E+03  0.17572208378E+04  0.12699999809E+01 0.  1.
       -4    1    3    3    0  502  0.54917507864E+03  0.16388458822E+04 -0.79117950695E+03  0.19008881392E+04  0.12699999809E+01 0. -1.
</event>
<event>
 5   0  0.3539010E-07  0.3619203E+04  0.7818609E-02  0.8086107E-01
       -2   -1    0    0    0  501  0.00000000000E+00  0.00000000000E+00  0.21064728337E+04  0.21064728337E+04  0.25500000920E-02 0. -1.
        2   -1    0    0  501    0  0.00000000000E+00  0.00000000000E+00 -0.15545687862E+04  0.15545687862E+04  0.25500000920E-02 0.  1.
    10030    2    1    2    0    0  0.00000000000E+00  0.00000000000E+00  0.55190404758E+03  0.36610416199E+04  0.36192026283E+04 0.  0.
        1    1    3    3  502    0  0.91192442398E+03  0.38169705732E+03  0.18091778185E+04  0.20616554459E+04  0.50400001928E-02 0. -1.
       -1    1    3    3    0  502 -0.91192442398E+03 -0.38169705732E+03 -0.12572737709E+04  0.15993861740E+04  0.50400001928E-02 0.  1.
</event>
<event>
 5   0  0.1070988E-07  0.3491599E+04  0.7818609E-02  0.8115784E-01
       -1   -1    0    0    0  501  0.00000000000E+00  0.00000000000E+00  0.22319170005E+04  0.22319170005E+04  0.50400001928E-02 0.  1.
        1   -1    0    0  501    0  0.00000000000E+00  0.00000000000E+00 -0.13655598778E+04  0.13655598778E+04  0.50400001928E-02 0. -1.
    10030    2    1    2    0    0  0.00000000000E+00  0.00000000000E+00  0.86635712272E+03  0.35974768784E+04  0.34915992362E+04 0.  0.
        2    1    3    3  502    0 -0.31339701961E+03  0.16335823493E+04 -0.11299722182E+03  0.16672064527E+04  0.25500000920E-02 0.  1.
       -2    1    3    3    0  502  0.31339701961E+03 -0.16335823493E+04  0.97935434454E+03  0.19302704256E+04  0.25500000920E-02 0. -1.
</event>
<event>
 5   0  0.3509843E-07  0.3776291E+04  0.7818609E-02  0.8051262E-01
        2   -1    0    0  501    0  0.00000000000E+00  0.00000000000E+00  0.19597889091E+04  0.19597889091E+04  0.25500000920E-02 0. -1.
       -2   -1    0    0    0  501  0.00000000000E+00  0.00000000000E+00 -0.18191214081E+04  0.18191214081E+04  0.25500000920E-02 0.  1.
    10030    2    1    2    0    0  0.00000000000E+00  0.00000000000E+00  0.14066750102E+03  0.37789103171E+04  0.37762912810E+04 0.  0.
        4    1    3    3  502    0 -0.63412606269E+03 -0.80562562236E+03  0.16569755269E+04  0.19485168761E+04  0.12699999809E+01 0. -1.
       -4    1    3    3    0  502  0.63412606269E+03  0.80562562236E+03 -0.15163080259E+04  0.18303934410E+04  0.12699999809E+01 0.  1.
</event>
<event>
 5   0  0.3327241E-07  0.3965756E+04  0.7818609E-02  0.8011491E-01
        2   -1    0    0  501    0  0.00000000000E+00  0.00000000000E+00  0.25117904311E+04  0.25117904311E+04  0.25500000920E-02 0. -1.
       -2   -1    0    0    0  501  0.00000000000E+00  0.00000000000E+00 -0.15653395580E+04  0.15653395580E+04  0.25500000920E-02 0.  1.
    10030    2    1    2    0    0  0.00000000000E+00  0.00000000000E+00  0.94645087309E+03  0.40771299891E+04  0.39657558791E+04 0.  0.
        3    1    3    3  502    0  0.92430082448E+03  0.16849530444E+04 -0.28755583339E+02  0.19220368544E+04  0.10100000352E+00 0.  1.
       -3    1    3    3    0  502 -0.92430082448E+03 -0.16849530444E+04  0.97520645643E+03  0.21550931346E+04  0.10100000352E+00 0. -1.
</event>
<event>
 5   0  0.1070988E-07  0.3833189E+04  0.7818609E-02  0.8039070E-01
        1   -1    0    0  501    0  0.00000000000E+00  0.00000000000E+00  0.14949627352E+04  0.14949627352E+04  0.50400001928E-02 0.  1.
       -1   -1    0    0    0  501  0.00000000000E+00  0.00000000000E+00 -0.24571408377E+04  0.24571408377E+04  0.50400001928E-02 0. -1.
    10030    2    1    2    0    0  0.00000000000E+00  0.00000000000E+00 -0.96217810252E+03  0.39521035729E+04  0.38331887444E+04 0.  0.
        2    1    3    3  502    0  0.17240104993E+04 -0.48029805406E+03  0.22607176255E+03  0.18038865996E+04  0.25500000920E-02 0.  1.
       -2    1    3    3    0  502 -0.17240104993E+04  0.48029805406E+03 -0.11882498651E+04  0.21482169733E+04  0.25500000920E-02 0. -1.
</event>
<event>
 5   0  0.1085771E-07  0.3213018E+04  0.7818609E-02  0.8185387E-01
        1   -1    0    0  501    0  0.00000000000E+00  0.00000000000E+00  0.15998897499E+04  0.15998897499E+04  0.50400001928E-02 0. -1.
       -1   -1    0    0    0  501  0.00000000000E+00  0.00000000000E+00 -0.16131560293E+04  0.16131560294E+04  0.50400001928E-02 0.  1.
    10030    2    1    2    0    0  0.00000000000E+00  0.00000000000E+00 -0.13266279469E+02  0.32130457792E+04  0.32130183917E+04 0.  0.
        1    1    3    3  502    0 -0.56918514714E+02 -0.10653273471E+04 -0.12077718985E+04  0.16114822470E+04  0.50400001928E-02 0.  1.
       -1    1    3    3    0  502  0.56918514714E+02  0.10653273471E+04  0.11945056190E+04  0.16015635322E+04  0.50400001928E-02 0. -1.
</event>
<event>
 5   0  0.1070988E-07  0.3655118E+04  0.7818609E-02  0.8077982E-01
        1   -1    0    0  501    0  0.00000000000E+00  0.00000000000E+00  0.26165648297E+04  0.26165648297E+04  0.50400001928E-02 0.  1.
       -1   -1    0    0    0  501  0.00000000000E+00  0.00000000000E+00 -0.12764721218E+04  0.12764721218E+04  0.50400001928E-02 0. -1.
    10030    2    1    2    0    0  0.00000000000E+00  0.00000000000E+00  0.13400927078E+04  0.38930369515E+04  0.36551180884E+04 0.  0.
        5    1    3    3  502    0 -0.11473320443E+04  0.13020336649E+04  0.12803054721E+04  0.21565868117E+04  0.46999998093E+01 0.  1.
       -5    1    3    3    0  502  0.11473320443E+04 -0.13020336649E+04  0.59787235739E+02  0.17364501398E+04  0.46999998093E+01 0. -1.
</event>
<event>
 5   0  0.1070988E-07  0.3833961E+04  0.7818609E-02  0.8038906E-01
        1   -1    0    0  501    0  0.00000000000E+00  0.00000000000E+00  0.17527524636E+04  0.17527524636E+04  0.50400001928E-02 0.  1.
       -1   -1    0    0    0  501  0.00000000000E+00  0.00000000000E+00 -0.20965962156E+04  0.20965962156E+04  0.50400001928E-02 0. -1.
    10030    2    1    2    0    0  0.00000000000E+00  0.00000000000E+00 -0.34384375203E+03  0.38493486792E+04  0.38339609712E+04 0.  0.
        3    1    3    3  502    0 -0.55543420813E+03 -0.10366493315E+04 -0.16918223377E+04  0.20604397173E+04  0.10100000352E+00 0. -1.
       -3    1    3    3    0  502  0.55543420813E+03  0.10366493315E+04  0.13479785857E+04  0.17889089619E+04  0.10100000352E+00 0.  1.
</event>
<event>
 5   0  0.3327241E-07  0.3765889E+04  0.7818609E-02  0.8053515E-01
       -2   -1    0    0    0  501  0.00000000000E+00  0.00000000000E+00  0.21691839746E+04  0.21691839746E+04  0.25500000920E-02 0. -1.
        2   -1    0    0  501    0  0.00000000000E+00  0.00000000000E+00 -0.16344763282E+04  0.16344763282E+04  0.25500000920E-02 0.  1.
    10030    2    1    2    0    0  0.00000000000E+00  0.00000000000E+00  0.53470764645E+03  0.38036603028E+04  0.37658889298E+04 0.  0.
        3    1    3    3  502    0  0.49131602298E+03  0.13435606858E+04  0.15039427171E+04  0.20756662683E+04  0.10100000352E+00 0. -1.
       -3    1    3    3    0  502 -0.49131602298E+03 -0.13435606858E+04 -0.96923507064E+03  0.17279940345E+04  0.10100000352E+00 0.  1.
</event>
<event>
 5   0  0.3377396E-07  0.3778417E+04  0.7818609E-02  0.8050802E-01
       -2   -1    0    0    0  501  0.00000000000E+00  0.00000000000E+00  0.11502903964E+04  0.11502903964E+04  0.25500000920E-02 0.  1.
        2   -1    0    0  501    0  0.00000000000E+00  0.00000000000E+00 -0.31027895609E+04  0.31027895609E+04  0.25500000920E-02 0. -1.
    10030    2    1    2    0    0  0.00000000000E+00  0.00000000000E+00 -0.19524991645E+04  0.42530799573E+04  0.37784171469E+04 0.  0.
        5    1    3    3  502    0  0.14857095233E+04 -0.11656003572E+04 -0.91327528977E+03  0.20976298113E+04  0.46999998093E+01 0. -1.
       -5    1    3    3    0  502 -0.14857095233E+04  0.11656003572E+04 -0.10392238747E+04  0.21554501460E+04  0.46999998093E+01 0.  1.
</event>
<event>
 5   0  0.3442126E-07  0.3729525E+04  0.7818609E-02  0.8061450E-01
        2   -1    0    0  501    0  0.00000000000E+00  0.00000000000E+00  0.13344717442E+04  0.13344717442E+04  0.25500000920E-02 0. -1.
       -2   -1    0    0    0  501  0.00000000000E+00  0.00000000000E+00 -0.26057801539E+04  0.26057801539E+04  0.25500000920E-02 0.  1.
    10030    2    1    2    0    0  0.00000000000E+00  0.00000000000E+00 -0.12713084097E+04  0.39402518981E+04  0.37295254320E+04 0.  0.
        2    1    3    3  502    0 -0.57695612967E+03 -0.77868047340E+03  0.10475094583E+04  0.14270591159E+04  0.25500000920E-02 0. -1.
       -2    1    3    3    0  502  0.57695612967E+03  0.77868047340E+03 -0.23188178680E+04  0.25131927821E+04  0.25500000920E-02 0.  1.
</event>
<event>
 5   0  0.1070988E-07  0.3816235E+04  0.7818609E-02  0.8042680E-01
       -1   -1    0    0    0  501  0.00000000000E+00  0.00000000000E+00  0.18307780558E+04  0.18307780558E+04  0.50400001928E-02 0. -1.
        1   -1    0    0  501    0  0.00000000000E+00  0.00000000000E+00 -0.19887235865E+04  0.19887235865E+04  0.50400001928E-02 0.  1.
    10030    2    1    2    0    0  0.00000000000E+00  0.00000000000E+00 -0.15794553072E+03  0.38195016423E+04  0.38162345322E+04 0.  0.
        3    1    3    3  502    0  0.18207719622E+03  0.61376648531E+02 -0.19790163832E+04  0.19883221704E+04  0.10100000352E+00 0.  1.
       -3    1    3    3    0  502 -0.18207719622E+03 -0.61376648531E+02  0.18210708524E+04  0.18311794719E+04  0.10100000352E+00 0. -1.
</event>
<event>
 5   0  0.3442126E-07  0.3812348E+04  0.7818609E-02  0.8043510E-01
       -2   -1    0    0    0  501  0.00000000000E+00  0.00000000000E+00  0.15447081207E+04  0.15447081207E+04  0.25500000920E-02 0.  1.
        2   -1    0    0  501    0  0.00000000000E+00  0.00000000000E+00 -0.23522243703E+04  0.23522243703E+04  0.25500000920E-02 0. -1.
    10030    2    1    2    0    0  0.00000000000E+00  0.00000000000E+00 -0.80751624960E+03  0.38969324910E+04  0.38123484031E+04 0.  0.
        2    1    3    3  502    0 -0.13110319658E+04  0.50116594571E+02  0.10097395342E+04  0.16555634736E+04  0.25500000920E-02 0.  1.
       -2    1    3    3    0  502  0.13110319658E+04 -0.50116594571E+02 -0.18172557838E+04  0.22413690174E+04  0.25500000920E-02 0. -1.
</event>
<event>
 5   0  0.1085771E-07  0.3730571E+04  0.7818609E-02  0.8061221E-01
        1   -1    0    0  501    0  0.00000000000E+00  0.00000000000E+00  0.14362877120E+04  0.14362877120E+04  0.50400001928E-02 0. -1.
       -1   -1    0    0    0  501  0.00000000000E+00  0.00000000000E+00 -0.24224183121E+04  0.24224183121E+04  0.50400001928E-02 0.  1.
    10030    2    1    2    0    0  0.00000000000E+00  0.00000000000E+00 -0.98613060012E+03  0.38587060241E+04  0.37305708169E+04 0.  0.
        1    1    3    3  502    0  0.97786144228E+03  0.89605226222E+03 -0.18496649797E+04  0.22760455167E+04  0.50400001928E-02 0.  1.
       -1    1    3    3    0  502 -0.97786144228E+03 -0.89605226222E+03  0.86353437959E+03  0.15826605074E+04  0.50400001928E-02 0. -1.
</event>
<event>
 5   0  0.1070988E-07  0.3816268E+04  0.7818609E-02  0.8042673E-01
        3   -1    0    0  501    0  0.00000000000E+00  0.00000000000E+00  0.21752556442E+04  0.21752556465E+04  0.10100000352E+00 0. -1.
       -3   -1    0    0    0  501  0.00000000000E+00  0.00000000000E+00 -0.16738146850E+04  0.16738146880E+04  0.10100000352E+00 0.  1.
    10030    2    1    2    0    0  0.00000000000E+00  0.00000000000E+00  0.50144095920E+03  0.38490703345E+04  0.38162677323E+04 0.  0.
        1    1    3    3  502    0  0.89897982356E+03  0.25276292184E+03 -0.14275899636E+04  0.17058918260E+04  0.50400001928E-02 0.  1.
       -1    1    3    3    0  502 -0.89897982356E+03 -0.25276292184E+03  0.19290309228E+04  0.21431785085E+04  0.50400001928E-02 0. -1.
</event>
<event>
 5   0  0.3509843E-07  0.3438414E+04  0.7818609E-02  0.8128542E-01
        2   -1    0    0  501    0  0.00000000000E+00  0.00000000000E+00  0.97643260065E+03  0.97643260065E+03  0.25500000920E-02 0.  1.
       -2   -1    0    0    0  501  0.00000000000E+00  0.00000000000E+00 -0.30270108408E+04  0.30270108408E+04  0.25500000920E-02 0. -1.
    10030    2    1    2    0    0  0.00000000000E+00  0.00000000000E+00 -0.20505782402E+04  0.40034434415E+04  0.34384136269E+04 0.  0.
        4    1    3    3  502    0  0.41854213040E+03 -0.15711267120E+04 -0.37487447437E+03  0.16685769819E+04  0.12699999809E+01 0.  1.
       -4    1    3    3    0  502 -0.41854213040E+03  0.15711267120E+04 -0.16757037658E+04  0.23348664595E+04  0.12699999809E+01 0. -1.
</event>
<event>
 5   0  0.1070988E-07  0.3787556E+04  0.7818609E-02  0.8048831E-01
       -1   -1    0    0    0  501  0.00000000000E+00  0.00000000000E+00  0.33239702287E+04  0.33239702287E+04  0.50400001928E-02 0. -1.
        1   -1    0    0  501    0  0.00000000000E+00  0.00000000000E+00 -0.10789494634E+04  0.10789494634E+04  0.50400001928E-02 0.  1.
    10030    2    1    2    0    0  0.00000000000E+00  0.00000000000E+00  0.22450207654E+04  0.44029196921E+04  0.37875564125E+04 0.  0.
        3    1    3    3  502    0 -0.14497649113E+04  0.74524204543E+02  0.25362493378E+04  0.29223163533E+04  0.10100000352E+00 0.  1.
       -3    1    3    3    0  502  0.14497649113E+04 -0.74524204543E+02 -0.29122857246E+03  0.14806033388E+04  0.10100000352E+00 0. -1.
</event>
<event>
 5   0  0.1085771E-07  0.3368449E+04  0.7818609E-02  0.8145694E-01
        1   -1    0    0  501    0  0.00000000000E+00  0.00000000000E+00  0.15444203443E+04  0.15444203443E+04  0.50400001928E-02 0. -1.
       -1   -1    0    0    0  501  0.00000000000E+00  0.00000000000E+00 -0.18366841285E+04  0.18366841286E+04  0.50400001928E-02 0.  1.
    10030    2    1    2    0    0  0.00000000000E+00  0.00000000000E+00 -0.29226378422E+03  0.33811044729E+04  0.33684490997E+04 0.  0.
        1    1    3    3  502    0  0.11809722453E+04  0.11982771576E+04 -0.68066024030E+02  0.16838041971E+04  0.50400001928E-02 0. -1.
       -1    1    3    3    0  502 -0.11809722453E+04 -0.11982771576E+04 -0.22419776019E+03  0.16973002758E+04  0.50400001928E-02 0.  1.
</event>
<event>
 5   0  0.1070988E-07  0.3824276E+04  0.7818609E-02  0.8040965E-01
        1   -1    0    0  501    0  0.00000000000E+00  0.00000000000E+00  0.17354395037E+04  0.17354395037E+04  0.50400001928E-02 0.  1.
       -1   -1    0    0    0  501  0.00000000000E+00  0.00000000000E+00 -0.21068276335E+04  0.21068276335E+04  0.50400001928E-02 0. -1.
    10030    2    1    2    0    0  0.00000000000E+00  0.00000000000E+00 -0.37138812984E+03  0.38422671372E+04  0.38242760897E+04 0.  0.
        2    1    3    3  502    0 -0.17913571669E+04  0.66881276071E+03 -0.18474387678E+03  0.19210417247E+04  0.25500000920E-02 0.  1.
       -2    1    3    3    0  502  0.17913571669E+04 -0.66881276071E+03 -0.18664425305E+03  0.19212254124E+04  0.25500000920E-02 0. -1.
</event>
<event>
 5   0  0.1084315E-07  0.3801993E+04  0.7818609E-02  0.8045727E-01
       -1   -1    0    0    0  501  0.00000000000E+00  0.00000000000E+00  0.19319627450E+04  0.19319627450E+04  0.50400001928E-02 0. -1.
        1   -1    0    0  501    0  0.00000000000E+00  0.00000000000E+00 -0.18705267953E+04  0.18705267953E+04  0.50400001928E-02 0.  1.
    10030    2    1    2    0    0  0.00000000000E+00  0.00000000000E+00  0.61435949709E+02  0.38024895402E+04  0.38019932046E+04 0.  0.
        4    1    3    3  502    0  0.10197997669E+04 -0.13371072720E+04 -0.85592979267E+03  0.18869194059E+04  0.12699999809E+01 0.  1.
       -4    1    3    3    0  502 -0.10197997669E+04  0.13371072720E+04  0.91736574238E+03  0.19155701344E+04  0.12699999809E+01 0. -1.
</event>
<event>
 5   0  0.3539010E-07  0.3895761E+04  0.7818609E-02  0.8025911E-01
        2   -1    0    0  501    0  0.00000000000E+00  0.00000000000E+00  0.29278614176E+04  0.29278614176E+04  0.25500000920E-02 0.  1.
       -2   -1    0    0    0  501  0.00000000000E+00  0.00000000000E+00 -0.12959076601E+04  0.12959076601E+04  0.25500000920E-02 0. -1.
    10030    2    1    2    0    0  0.00000000000E+00  0.00000000000E+00  0.16319537574E+04  0.42237690777E+04  0.38957607929E+04 0.  0.
        1    1    3    3  502    0 -0.10980382784E+04  0.10122158122E+04  0.21718591177E+04  0.26357619275E+04  0.50400001928E-02 0.  1.
       -1    1    3    3    0  502  0.10980382784E+04 -0.10122158122E+04 -0.53990536024E+03  0.15880071502E+04  0.50400001928E-02 0. -1.
</event>
<event>
 5   0  0.1070988E-07  0.3803599E+04  0.7818609E-02  0.8045383E-01
       -1   -1    0    0    0  501  0.00000000000E+00  0.00000000000E+00  0.18742016877E+04  0.18742016877E+04  0.50400001928E-02 0.  1.
        1   -1    0    0  501    0  0.00000000000E+00  0.00000000000E+00 -0.19298039709E+04  0.19298039709E+04  0.50400001928E-02 0. -1.
    10030    2    1    2    0    0  0.00000000000E+00  0.00000000000E+00 -0.55602283190E+02  0.38040056587E+04  0.38035992740E+04 0.  0.
        2    1    3    3  502    0  0.73467247039E+03  0.10015000599E+04  0.14125248895E+04  0.18809499122E+04  0.25500000920E-02 0.  1.
       -2    1    3    3    0  502 -0.73467247039E+03 -0.10015000599E+04 -0.14681271727E+04  0.19230557465E+04  0.25500000920E-02 0. -1.
</event>
<event>
 5   0  0.3327241E-07  0.3770387E+04  0.7818609E-02  0.8052540E-01
       -2   -1    0    0    0  501  0.00000000000E+00  0.00000000000E+00  0.16831687517E+04  0.16831687517E+04  0.25500000920E-02 0.  1.
        2   -1    0    0  501    0  0.00000000000E+00  0.00000000000E+00 -0.21114668913E+04  0.21114668913E+04  0.25500000920E-02 0. -1.
    10030    2    1    2    0    0  0.00000000000E+00  0.00000000000E+00 -0.42829813965E+03  0.37946356430E+04  0.37703872966E+04 0.  0.
        3    1    3    3  502    0  0.99954723297E+03  0.42331845808E+03  0.13370817831E+04  0.17222313703E+04  0.10100000352E+00 0.  1.
       -3    1    3    3    0  502 -0.99954723297E+03 -0.42331845808E+03 -0.17653799227E+04  0.20724042727E+04  0.10100000352E+00 0. -1.
</event>
<event>
 5   0  0.1085771E-07  0.3801963E+04  0.7818609E-02  0.8045734E-01
       -1   -1    0    0    0  501  0.00000000000E+00  0.00000000000E+00  0.17421004901E+04  0.17421004901E+04  0.50400001928E-02 0.  1.
        1   -1    0    0  501    0  0.00000000000E+00  0.00000000000E+00 -0.20743526932E+04  0.20743526932E+04  0.50400001928E-02 0. -1.
    10030    2    1    2    0    0  0.00000000000E+00  0.00000000000E+00 -0.33225220312E+03  0.38164531834E+04  0.38019630948E+04 0.  0.
        1    1    3    3  502    0 -0.16108011446E+04 -0.10088555212E+04 -0.20177275525E+03  0.19113299127E+04  0.50400001928E-02 0.  1.
       -1    1    3    3    0  502  0.16108011446E+04  0.10088555212E+04 -0.13047944787E+03  0.19051232707E+04  0.50400001928E-02 0. -1.
</event>
<event>
 5   0  0.3539010E-07  0.3591753E+04  0.7818609E-02  0.8092383E-01
       -2   -1    0    0    0  501  0.00000000000E+00  0.00000000000E+00  0.21178727253E+04  0.21178727253E+04  0.25500000920E-02 0.  1.
        2   -1    0    0  501    0  0.00000000000E+00  0.00000000000E+00 -0.15228357844E+04  0.15228357844E+04  0.25500000920E-02 0. -1.
    10030    2    1    2    0    0  0.00000000000E+00  0.00000000000E+00  0.59503694091E+03  0.36407085097E+04  0.35917529831E+04 0.  0.
        1    1    3    3  502    0  0.47584789940E+03 -0.17312133598E+04  0.33858552757E+03  0.18270662495E+04  0.50400001928E-02 0. -1.
       -1    1    3    3    0  502 -0.47584789940E+03  0.17312133598E+04  0.25645141334E+03  0.18136422602E+04  0.50400001928E-02 0.  1.
</event>
<event>
 5   0  0.1070988E-07  0.3809085E+04  0.7818609E-02  0.8044208E-01
       -1   -1    0    0    0  501  0.00000000000E+00  0.00000000000E+00  0.17427993817E+04  0.17427993817E+04  0.50400001928E-02 0. -1.
        1   -1    0    0  501    0  0.00000000000E+00  0.00000000000E+00 -0.20812966309E+04  0.20812966309E+04  0.50400001928E-02 0.  1.
    10030    2    1    2    0    0  0.00000000000E+00  0.00000000000E+00 -0.33849724926E+03  0.38240960126E+04  0.38090851823E+04 0.  0.
        3    1    3    3  502    0 -0.16565688302E+04  0.32921203559E+02  0.77358936165E+03  0.18285908798E+04  0.10100000352E+00 0. -1.
       -3    1    3    3    0  502  0.16565688302E+04 -0.32921203559E+02 -0.11120866109E+04  0.19955051329E+04  0.10100000352E+00 0.  1.
</event>
<event>
 5   0  0.3509843E-07  0.3127908E+04  0.7818609E-02  0.8208120E-01
        2   -1    0    0  501    0  0.00000000000E+00  0.00000000000E+00  0.12621323043E+04  0.12621323043E+04  0.25500000920E-02 0.  1.
       -2   -1    0    0    0  501  0.00000000000E+00  0.00000000000E+00 -0.19379516299E+04  0.19379516299E+04  0.25500000920E-02 0. -1.
    10030    2    1    2    0    0  0.00000000000E+00  0.00000000000E+00 -0.67581932554E+03  0.32000839342E+04  0.31279075155E+04 0.  0.
        4    1    3    3  502    0 -0.15203581389E+04  0.72396374572E+02  0.29856463709E+02  0.15223741744E+04  0.12699999809E+01 0.  1.
       -4    1    3    3    0  502  0.15203581389E+04 -0.72396374572E+02 -0.70567578925E+03  0.16777097598E+04  0.12699999809E+01 0. -1.
</event>
<event>
 5   0  0.3509843E-07  0.3828245E+04  0.7818609E-02  0.8040121E-01
        2   -1    0    0  501    0  0.00000000000E+00  0.00000000000E+00  0.22719694507E+04  0.22719694507E+04  0.25500000920E-02 0. -1.
       -2   -1    0    0    0  501  0.00000000000E+00  0.00000000000E+00 -0.16126381265E+04  0.16126381265E+04  0.25500000920E-02 0.  1.
    10030    2    1    2    0    0  0.00000000000E+00  0.00000000000E+00  0.65933132423E+03  0.38846075772E+04  0.38282447980E+04 0.  0.
        4    1    3    3  502    0 -0.80280024978E+03  0.13907227291E+04 -0.72743257734E+03  0.17628833534E+04  0.12699999809E+01 0.  1.
       -4    1    3    3    0  502  0.80280024978E+03 -0.13907227291E+04  0.13867639016E+04  0.21217242238E+04  0.12699999809E+01 0. -1.
</event>
<event>
 5   0  0.3377396E-07  0.3777977E+04  0.7818609E-02  0.8050897E-01
        2   -1    0    0  501    0  0.00000000000E+00  0.00000000000E+00  0.24512270594E+04  0.24512270594E+04  0.25500000920E-02 0.  1.
       -2   -1    0    0    0  501  0.00000000000E+00  0.00000000000E+00 -0.14557109525E+04  0.14557109525E+04  0.25500000920E-02 0. -1.
    10030    2    1    2    0    0  0.00000000000E+00  0.00000000000E+00  0.99551610686E+03  0.39069380118E+04  0.37779772775E+04 0.  0.
        5    1    3    3  502    0 -0.24546790766E+03  0.13157537772E+04  0.18762227769E+04  0.23047118029E+04  0.46999998093E+01 0.  1.
       -5    1    3    3    0  502  0.24546790766E+03 -0.13157537772E+04 -0.88070667009E+03  0.16022262089E+04  0.46999998093E+01 0. -1.
</event>
<event>
 5   0  0.3442126E-07  0.3585524E+04  0.7818609E-02  0.8093816E-01
       -2   -1    0    0    0  501  0.00000000000E+00  0.00000000000E+00  0.18410261894E+04  0.18410261894E+04  0.25500000920E-02 0.  1.
        2   -1    0    0  501    0  0.00000000000E+00  0.00000000000E+00 -0.17457632566E+04  0.17457632567E+04  0.25500000920E-02 0. -1.
    10030    2    1    2    0    0  0.00000000000E+00  0.00000000000E+00  0.95262932766E+02  0.35867894461E+04  0.35855241603E+04 0.  0.
        2    1    3    3  502    0  0.78187154370E+03 -0.95925341158E+03 -0.12499406267E+04  0.17589320023E+04  0.25500000920E-02 0. -1.
       -2    1    3    3    0  502 -0.78187154370E+03  0.95925341158E+03  0.13452035594E+04  0.18278574438E+04  0.25500000920E-02 0.  1.
</event>
<event>
 5   0  0.3327241E-07  0.3766327E+04  0.7818609E-02  0.8053420E-01
       -2   -1    0    0    0  501  0.00000000000E+00  0.00000000000E+00  0.19268098787E+04  0.19268098787E+04  0.25500000920E-02 0.  1.
        2   -1    0    0  501    0  0.00000000000E+00  0.00000000000E+00 -0.18405061823E+04  0.18405061823E+04  0.25500000920E-02 0. -1.
    10030    2    1    2    0    0  0.00000000000E+00  0.00000000000E+00  0.86303696431E+02  0.37673160610E+04  0.37663273856E+04 0.  0.
        3    1    3    3  502    0  0.12945917139E+04  0.28238144934E+03 -0.12953318821E+04  0.18529953275E+04  0.10100000352E+00 0. -1.
       -3    1    3    3    0  502 -0.12945917139E+04 -0.28238144934E+03  0.13816355785E+04  0.19143207335E+04  0.10100000352E+00 0.  1.
</event>
<event>
 5   0  0.3327241E-07  0.3792905E+04  0.7818609E-02  0.8047679E-01
        2   -1    0    0  501    0  0.00000000000E+00  0.00000000000E+00  0.31432862570E+04  0.31432862570E+04  0.25500000920E-02 0.  1.
       -2   -1    0    0    0  501  0.00000000000E+00  0.00000000000E+00 -0.11441949528E+04  0.11441949528E+04  0.25500000920E-02 0. -1.
    10030    2    1    2    0    0  0.00000000000E+00  0.00000000000E+00  0.19990913041E+04  0.42874812098E+04  0.37929050979E+04 0.  0.
        3    1    3    3  502    0  0.87733088642E+03  0.16781658963E+04  0.88326321134E+03  0.20895224743E+04  0.10100000352E+00 0. -1.
       -3    1    3    3    0  502 -0.87733088642E+03 -0.16781658963E+04  0.11158280928E+04  0.21979587355E+04  0.10100000352E+00 0.  1.
</event>
<event>
 5   0  0.3442126E-07  0.3839070E+04  0.7818609E-02  0.8037822E-01
        2   -1    0    0  501    0  0.00000000000E+00  0.00000000000E+00  0.13089065306E+04  0.13089065306E+04  0.25500000920E-02 0.  1.
       -2   -1    0    0    0  501  0.00000000000E+00  0.00000000000E+00 -0.28150333098E+04  0.28150333098E+04  0.25500000920E-02 0. -1.
    10030    2    1    2    0    0  0.00000000000E+00  0.00000000000E+00 -0.15061267793E+04  0.41239398404E+04  0.38390704515E+04 0.  0.
        2    1    3    3  502    0  0.13015820872E+04 -0.11806627290E+04 -0.15827311815E+04  0.23649774634E+04  0.25500000920E-02 0. -1.
       -2    1    3    3    0  502 -0.13015820872E+04  0.11806627290E+04  0.76604402287E+02  0.17589623770E+04  0.25500000920E-02 0.  1.
</event>
<event>
 5   0  0.1070988E-07  0.4361220E+04  0.7818609E-02  0.7935394E-01
       -1   -1    0    0    0  501  0.00000000000E+00  0.00000000000E+00  0.34801098433E+04  0.34801098433E+04  0.50400001928E-02 0. -1.
        1   -1    0    0  501    0  0.00000000000E+00  0.00000000000E+00 -0.13663535311E+04  0.13663535311E+04  0.50400001928E-02 0.  1.
    10030    2    1    2    0    0  0.00000000000E+00  0.00000000000E+00  0.21137563121E+04  0.48464633744E+04  0.43612201839E+04 0.  0.
        2    1    3    3  502    0  0.29224434562E+03 -0.16609226090E+04  0.25930722642E+04  0.30932336539E+04  0.25500000920E-02 0. -1.
       -2    1    3    3    0  502 -0.29224434562E+03  0.16609226090E+04 -0.47931595203E+03  0.17532297204E+04  0.25500000920E-02 0.  1.
</event>
<event>
 5   0  0.3327241E-07  0.3791071E+04  0.7818609E-02  0.8048074E-01
        2   -1    0    0  501    0  0.00000000000E+00  0.00000000000E+00  0.22205442053E+04  0.22205442053E+04  0.25500000920E-02 0.  1.
       -2   -1    0    0    0  501  0.00000000000E+00  0.00000000000E+00 -0.16180961999E+04  0.16180961999E+04  0.25500000920E-02 0. -1.
    10030    2    1    2    0    0  0.00000000000E+00  0.00000000000E+00  0.60244800540E+03  0.38386404051E+04  0.37910706352E+04 0.  0.
        3    1    3    3  502    0  0.13171480092E+04  0.22211907232E+03  0.16630306036E+04  0.21330463097E+04  0.10100000352E+00 0.  1.
       -3    1    3    3    0  502 -0.13171480092E+04 -0.22211907232E+03 -0.10605825982E+04  0.17055940954E+04  0.10100000352E+00 0. -1.
</event>
<event>
 5   0  0.1085771E-07  0.3670860E+04  0.7818609E-02  0.8074451E-01
        1   -1    0    0  501    0  0.00000000000E+00  0.00000000000E+00  0.16432685467E+04  0.16432685467E+04  0.50400001928E-02 0. -1.
       -1   -1    0    0    0  501  0.00000000000E+00  0.00000000000E+00 -0.20500619985E+04  0.20500619985E+04  0.50400001928E-02 0.  1.
    10030    2    1    2    0    0  0.00000000000E+00  0.00000000000E+00 -0.40679345181E+03  0.36933305451E+04  0.36708595183E+04 0.  0.
        1    1    3    3  502    0 -0.91413438053E+03 -0.10368068151E+04 -0.14183450965E+04  0.19804829841E+04  0.50400001928E-02 0.  1.
       -1    1    3    3    0  502  0.91413438053E+03  0.10368068151E+04  0.10115516447E+04  0.17128475611E+04  0.50400001928E-02 0. -1.
</event>
<event>
 5   0  0.3539010E-07  0.3803092E+04  0.7818609E-02  0.8045492E-01
       -2   -1    0    0    0  501  0.00000000000E+00  0.00000000000E+00  0.17848380006E+04  0.17848380006E+04  0.25500000920E-02 0. -1.
        2   -1    0    0  501    0  0.00000000000E+00  0.00000000000E+00 -0.20258855115E+04  0.20258855115E+04  0.25500000920E-02 0.  1.
    10030    2    1    2    0    0  0.00000000000E+00  0.00000000000E+00 -0.24104751083E+03  0.38107235121E+04  0.38030921345E+04 0.  0.
        1    1    3    3  502    0  0.73379605330E+03  0.75848850987E+02 -0.18766580000E+04  0.20164461176E+04  0.50400001928E-02 0.  1.
       -1    1    3    3    0  502 -0.73379605330E+03 -0.75848850987E+02  0.16356104892E+04  0.17942773945E+04  0.50400001928E-02 0. -1.
</event>
<event>
 5   0  0.3442126E-07  0.3346729E+04  0.7818609E-02  0.8151106E-01
        2   -1    0    0  501    0  0.00000000000E+00  0.00000000000E+00  0.21788876518E+04  0.21788876518E+04  0.25500000920E-02 0.  1.
       -2   -1    0    0    0  501  0.00000000000E+00  0.00000000000E+00 -0.12851276880E+04  0.12851276880E+04  0.25500000920E-02 0. -1.
    10030    2    1    2    0    0  0.00000000000E+00  0.00000000000E+00  0.89375996373E+03  0.34640153398E+04  0.33467290601E+04 0.  0.
        2    1    3    3  502    0 -0.24167886710E+03  0.23760180554E+03  0.21429918375E+04  0.21696260757E+04  0.25500000920E-02 0.  1.
       -2    1    3    3    0  502  0.24167886710E+03 -0.23760180554E+03 -0.12492318737E+04  0.12943892642E+04  0.25500000920E-02 0. -1.
</event>
<event>
 5   0  0.1084315E-07  0.3801206E+04  0.7818609E-02  0.8045896E-01
       -1   -1    0    0    0  501  0.00000000000E+00  0.00000000000E+00  0.21072658234E+04  0.21072658234E+04  0.50400001928E-02 0. -1.
        1   -1    0    0  501    0  0.00000000000E+00  0.00000000000E+00 -0.17142083245E+04  0.17142083245E+04  0.50400001928E-02 0.  1.
    10030    2    1    2    0    0  0.00000000000E+00  0.00000000000E+00  0.39305749891E+03  0.38214741478E+04  0.38012064486E+04 0.  0.
        4    1    3    3  502    0 -0.15694039953E+04 -0.76580840218E+03  0.95072845132E+03  0.19883102399E+04  0.12699999809E+01 0. -1.
       -4    1    3    3    0  502  0.15694039953E+04  0.76580840218E+03 -0.55767095240E+03  0.18331639079E+04  0.12699999809E+01 0.  1.
</event>
<event>
 5   0  0.3377396E-07  0.3833180E+04  0.7818609E-02  0.8039072E-01
       -2   -1    0    0    0  501  0.00000000000E+00  0.00000000000E+00  0.19376978520E+04  0.19376978520E+04  0.25500000920E-02 0.  1.
        2   -1    0    0  501    0  0.00000000000E+00  0.00000000000E+00 -0.18957121989E+04  0.18957121989E+04  0.25500000920E-02 0. -1.
    10030    2    1    2    0    0  0.00000000000E+00  0.00000000000E+00  0.41985653163E+02  0.38334100509E+04  0.38331801188E+04 0.  0.
        5    1    3    3  502    0  0.33237661323E+03  0.10529747064E+04  0.15876324923E+04  0.19338637402E+04  0.46999998093E+01 0.  1.
       -5    1    3    3    0  502 -0.33237661323E+03 -0.10529747064E+04 -0.15456468391E+04  0.18995463107E+04  0.46999998093E+01 0. -1.
</event>
<event>
 5   0  0.1070988E-07  0.3799587E+04  0.7818609E-02  0.8046244E-01
        1   -1    0    0  501    0  0.00000000000E+00  0.00000000000E+00  0.24732559715E+04  0.24732559715E+04  0.50400001928E-02 0. -1.
       -1   -1    0    0    0  501  0.00000000000E+00  0.00000000000E+00 -0.14592970116E+04  0.14592970116E+04  0.50400001928E-02 0.  1.
    10030    2    1    2    0    0  0.00000000000E+00  0.00000000000E+00  0.10139589599E+04  0.39325529832E+04  0.37995868450E+04 0.  0.
        3    1    3    3  502    0 -0.11691794564E+03  0.91009339494E+03 -0.12147479010E+04  0.15223509013E+04  0.10100000352E+00 0.  1.
       -3    1    3    3    0  502  0.11691794564E+03 -0.91009339494E+03  0.22287068609E+04  0.24102020819E+04  0.10100000352E+00 0. -1.
</event>
<event>
 5   0  0.1070988E-07  0.3783295E+04  0.7818609E-02  0.8049749E-01
       -1   -1    0    0    0  501  0.00000000000E+00  0.00000000000E+00  0.16049319459E+04  0.16049319459E+04  0.50400001928E-02 0. -1.
        1   -1    0    0  501    0  0.00000000000E+00  0.00000000000E+00 -0.22295839463E+04  0.22295839464E+04  0.50400001928E-02 0.  1.
    10030    2    1    2    0    0  0.00000000000E+00  0.00000000000E+00 -0.62465200044E+03  0.38345158923E+04  0.37832951255E+04 0.  0.
        5    1    3    3  502    0 -0.14265510230E+04 -0.83845960532E+03  0.61673358614E+03  0.17659118713E+04  0.46999998093E+01 0. -1.
       -5    1    3    3    0  502  0.14265510230E+04  0.83845960532E+03 -0.12413855866E+04  0.20686040210E+04  0.46999998093E+01 0.  1.
</event>
<event>
 5   0  0.1084315E-07  0.3674380E+04  0.7818609E-02  0.8073663E-01
       -1   -1    0    0    0  501  0.00000000000E+00  0.00000000000E+00  0.29983727191E+04  0.29983727191E+04  0.50400001928E-02 0. -1.
        1   -1    0    0  501    0  0.00000000000E+00  0.00000000000E+00 -0.11256995242E+04  0.11256995242E+04  0.50400001928E-02 0.  1.
    10030    2    1    2    0    0  0.00000000000E+00  0.00000000000E+00  0.18726731949E+04  0.41240722433E+04  0.36743798080E+04 0.  0.
        4    1    3    3  502    0 -0.16242729892E+04 -0.75496548752E+03  0.13950472320E+04  0.22703290561E+04  0.12699999809E+01 0. -1.
       -4    1    3    3    0  502  0.16242729892E+04  0.75496548752E+03  0.47762596293E+03  0.18537431872E+04  0.12699999809E+01 0.  1.
</event>
<event>
 5   0  0.3509843E-07  0.3770453E+04  0.7818609E-02  0.8052525E-01
       -2   -1    0    0    0  501  0.00000000000E+00  0.00000000000E+00  0.18042931674E+04  0.18042931675E+04  0.25500000920E-02 0.  1.
        2   -1    0    0  501    0  0.00000000000E+00  0.00000000000E+00 -0.19697903123E+04  0.19697903123E+04  0.25500000920E-02 0. -1.
    10030    2    1    2    0    0  0.00000000000E+00  0.00000000000E+00 -0.16549714490E+03  0.37740834798E+04  0.37704531303E+04 0.  0.
        4    1    3    3  502    0 -0.16823734433E+04 -0.34240839321E+03 -0.86224974539E+03  0.19212236066E+04  0.12699999809E+01 0. -1.
       -4    1    3    3    0  502  0.16823734433E+04  0.34240839321E+03  0.69675260050E+03  0.18528598732E+04  0.12699999809E+01 0.  1.
</event>
<event>
 5   0  0.3442126E-07  0.3849541E+04  0.7818609E-02  0.8035606E-01
       -2   -1    0    0    0  501  0.00000000000E+00  0.00000000000E+00  0.28277863430E+04  0.28277863430E+04  0.25500000920E-02 0.  1.
        2   -1    0    0  501    0  0.00000000000E+00  0.00000000000E+00 -0.13101208419E+04  0.13101208419E+04  0.25500000920E-02 0. -1.
    10030    2    1    2    0    0  0.00000000000E+00  0.00000000000E+00  0.15176655012E+04  0.41379071849E+04  0.38495411801E+04 0.  0.
        2    1    3    3  502    0  0.63441873543E+03 -0.98397106348E+03 -0.88337227718E+03  0.14666399578E+04  0.25500000920E-02 0. -1.
       -2    1    3    3    0  502 -0.63441873543E+03  0.98397106348E+03  0.24010377783E+04  0.26712672271E+04  0.25500000920E-02 0.  1.
</event>
<event>
 5   0  0.3509843E-07  0.3815689E+04  0.7818609E-02  0.8042796E-01
        2   -1    0    0  501    0  0.00000000000E+00  0.00000000000E+00  0.18134660271E+04  0.18134660271E+04  0.25500000920E-02 0. -1.
       -2   -1    0    0    0  501  0.00000000000E+00  0.00000000000E+00 -0.20071348313E+04  0.20071348313E+04  0.25500000920E-02 0.  1.
    10030    2    1    2    0    0  0.00000000000E+00  0.00000000000E+00 -0.19366880416E+03  0.38206008584E+04  0.38156891008E+04 0.  0.
        4    1    3    3  502    0 -0.11191418344E+04 -0.14250843430E+04  0.50103168085E+03  0.18799941990E+04  0.12699999809E+01 0. -1.
       -4    1    3    3    0  502  0.11191418344E+04  0.14250843430E+04 -0.69470048501E+03  0.19406066595E+04  0.12699999809E+01 0.  1.
</event>
<event>
 5   0  0.3539010E-07  0.3766848E+04  0.7818609E-02  0.8053307E-01
        2   -1    0    0  501    0  0.00000000000E+00  0.00000000000E+00  0.11457856281E+04  0.11457856281E+04  0.25500000920E-02 0.  1.
       -2   -1    0    0    0  501  0.00000000000E+00  0.00000000000E+00 -0.30959426188E+04  0.30959426188E+04  0.25500000920E-02 0. -1.
    10030    2    1    2    0    0  0.00000000000E+00  0.00000000000E+00 -0.19501569906E+04  0.42417282469E+04  0.37668483155E+04 0.  0.
        1    1    3    3  502    0  0.13015443854E+04  0.12437562210E+04 -0.35182313884E+03  0.18343191777E+04  0.50400001928E-02 0.  1.
       -1    1    3    3    0  502 -0.13015443854E+04 -0.12437562210E+04 -0.15983338518E+04  0.24074090692E+04  0.50400001928E-02 0. -1.
</event>
<event>
 5   0  0.3327241E-07  0.3793228E+04  0.7818609E-02  0.8047610E-01
       -2   -1    0    0    0  501  0.00000000000E+00  0.00000000000E+00  0.21320206294E+04  0.21320206294E+04  0.25500000920E-02 0.  1.
        2   -1    0    0  501    0  0.00000000000E+00  0.00000000000E+00 -0.16871996384E+04  0.16871996384E+04  0.25500000920E-02 0. -1.
    10030    2    1    2    0    0  0.00000000000E+00  0.00000000000E+00  0.44482099100E+03  0.38192202677E+04  0.37932278787E+04 0.  0.
        3    1    3    3  502    0  0.13357046289E+04  0.36791767677E+03 -0.10817155823E+04  0.17577197967E+04  0.10100000352E+00 0. -1.
       -3    1    3    3    0  502 -0.13357046289E+04 -0.36791767677E+03  0.15265365733E+04  0.20615004711E+04  0.10100000352E+00 0.  1.
</event>
<event>
 5   0  0.1085771E-07  0.3865546E+04  0.7818609E-02  0.8032233E-01
       -1   -1    0    0    0  501  0.00000000000E+00  0.00000000000E+00  0.16005864649E+04  0.16005864649E+04  0.50400001928E-02 0.  1.
        1   -1    0    0  501    0  0.00000000000E+00  0.00000000000E+00 -0.23339022886E+04  0.23339022886E+04  0.50400001928E-02 0. -1.
    10030    2    1    2    0    0  0.00000000000E+00  0.00000000000E+00 -0.73331582374E+03  0.39344887535E+04  0.38655464884E+04 0.  0.
        1    1    3    3  502    0 -0.35455556260E+02 -0.19003386182E+04 -0.72372578648E+03  0.20337952145E+04  0.50400001928E-02 0. -1.
       -1    1    3    3    0  502  0.35455556260E+02  0.19003386182E+04 -0.95900372592E+01  0.19006935390E+04  0.50400001928E-02 0.  1.
</event>
<event>
 5   0  0.3442126E-07  0.3756198E+04  0.7818609E-02  0.8055621E-01
        2   -1    0    0  501    0  0.00000000000E+00  0.00000000000E+00  0.21314947932E+04  0.21314947932E+04  0.25500000920E-02 0.  1.
       -2   -1    0    0    0  501  0.00000000000E+00  0.00000000000E+00 -0.16548272991E+04  0.16548272991E+04  0.25500000920E-02 0. -1.
    10030    2    1    2    0    0  0.00000000000E+00  0.00000000000E+00  0.47666749410E+03  0.37863220923E+04  0.37561979563E+04 0.  0.
        2    1    3    3  502    0  0.87946504685E+03  0.31039495419E+03  0.18815767657E+04  0.21000321239E+04  0.25500000920E-02 0.  1.
       -2    1    3    3    0  502 -0.87946504685E+03 -0.31039495419E+03 -0.14049092716E+04  0.16862899684E+04  0.25500000920E-02 0. -1.
</event>
<event>
 5   0  0.1084315E-07  0.3787500E+04  0.7818609E-02  0.8048843E-01
       -1   -1    0    0    0  501  0.00000000000E+00  0.00000000000E+00  0.17847126318E+04  0.17847126318E+04  0.50400001928E-02 0.  1.
        1   -1    0    0  501    0  0.00000000000E+00  0.00000000000E+00 -0.20094485154E+04  0.20094485154E+04  0.50400001928E-02 0. -1.
    10030    2    1    2    0    0  0.00000000000E+00  0.00000000000E+00 -0.22473588362E+03  0.37941611471E+04  0.37874995172E+04 0.  0.
        4    1    3    3  502    0  0.15336818946E+04 -0.68623915534E+03 -0.98750747619E+03  0.19489168686E+04  0.12699999809E+01 0. -1.
       -4    1    3    3    0  502 -0.15336818946E+04  0.68623915534E+03  0.76277159257E+03  0.18452442786E+04  0.12699999809E+01 0.  1.
</event>
<event>
 5   0  0.3509843E-07  0.3823843E+04  0.7818609E-02  0.8041058E-01
       -2   -1    0    0    0  501  0.00000000000E+00  0.00000000000E+00  0.16316502416E+04  0.16316502416E+04  0.25500000920E-02 0. -1.
        2   -1    0    0  501    0  0.00000000000E+00  0.00000000000E+00 -0.22403353531E+04  0.22403353531E+04  0.25500000920E-02 0.  1.
    10030    2    1    2    0    0  0.00000000000E+00  0.00000000000E+00 -0.60868511148E+03  0.38719855947E+04  0.38238429466E+04 0.  0.
        4    1    3    3  502    0  0.91340758164E+03 -0.16425242243E+04 -0.65982207754E+03  0.19918750022E+04  0.12699999809E+01 0. -1.
       -4    1    3    3    0  502 -0.91340758164E+03  0.16425242243E+04  0.51136966060E+02  0.18801105924E+04  0.12699999809E+01 0.  1.
</event>
<event>
 5   0  0.3509843E-07  0.3804188E+04  0.7818609E-02  0.8045257E-01
       -2   -1    0    0    0  501  0.00000000000E+00  0.00000000000E+00  0.25715503233E+04  0.25715503233E+04  0.25500000920E-02 0. -1.
        2   -1    0    0  501    0  0.00000000000E+00  0.00000000000E+00 -0.14069184065E+04  0.14069184065E+04  0.25500000920E-02 0.  1.
    10030    2    1    2    0    0  0.00000000000E+00  0.00000000000E+00  0.11646319168E+04  0.39784687298E+04  0.38041879465E+04 0.  0.
        4    1    3    3  502    0 -0.46515373547E+03 -0.62063061767E+03 -0.12340323523E+04  0.14575279828E+04  0.12699999809E+01 0.  1.
       -4    1    3    3    0  502  0.46515373547E+03  0.62063061767E+03  0.23986642691E+04  0.25209407470E+04  0.12699999809E+01 0. -1.
</event>
<event>
 5   0  0.1085771E-07  0.3838537E+04  0.7818609E-02  0.8037935E-01
        1   -1    0    0  501    0  0.00000000000E+00  0.00000000000E+00  0.28325897484E+04  0.28325897484E+04  0.50400001928E-02 0.  1.
       -1   -1    0    0    0  501  0.00000000000E+00  0.00000000000E+00 -0.13004325745E+04  0.13004325745E+04  0.50400001928E-02 0. -1.
    10030    2    1    2    0    0  0.00000000000E+00  0.00000000000E+00  0.15321571739E+04  0.41330223229E+04  0.38385372105E+04 0.  0.
        1    1    3    3  502    0  0.32931795933E+02 -0.16812751962E+04 -0.22999979308E+03  0.16972538682E+04  0.50400001928E-02 0. -1.
       -1    1    3    3    0  502 -0.32931795933E+02  0.16812751962E+04  0.17621569670E+04  0.24357684547E+04  0.50400001928E-02 0.  1.
</event>
<event>
 5   0  0.1070988E-07  0.3793234E+04  0.7818609E-02  0.8047608E-01
       -1   -1    0    0    0  501  0.00000000000E+00  0.00000000000E+00  0.13534241888E+04  0.13534241888E+04  0.50400001928E-02 0. -1.
        1   -1    0    0  501    0  0.00000000000E+00  0.00000000000E+00 -0.26578188272E+04  0.26578188272E+04  0.50400001928E-02 0.  1.
    10030    2    1    2    0    0  0.00000000000E+00  0.00000000000E+00 -0.13043946384E+04  0.40112430160E+04  0.37932341294E+04 0.  0.
        5    1    3    3  502    0 -0.17471153172E+04 -0.65615299157E+03 -0.10095317316E+04  0.21218211722E+04  0.46999998093E+01 0.  1.
       -5    1    3    3    0  502  0.17471153172E+04  0.65615299157E+03 -0.29486290686E+03  0.18894218438E+04  0.46999998093E+01 0. -1.
</event>
<event>
 5   0  0.3327241E-07  0.3805813E+04  0.7818609E-02  0.8044909E-01
       -2   -1    0    0    0  501  0.00000000000E+00  0.00000000000E+00  0.12893301734E+04  0.12893301735E+04  0.25500000920E-02 0.  1.
        2   -1    0    0  501    0  0.00000000000E+00  0.00000000000E+00 -0.28084760758E+04  0.28084760758E+04  0.25500000920E-02 0. -1.
    10030    2    1    2    0    0  0.00000000000E+00  0.00000000000E+00 -0.15191459024E+04  0.40978062493E+04  0.38058128940E+04 0.  0.
        3    1    3    3  502    0  0.18589066087E+04  0.37239667034E+03 -0.93597118674E+03  0.21142977871E+04  0.10100000352E+00 0. -1.
       -3    1    3    3    0  502 -0.18589066087E+04 -0.37239667034E+03 -0.58317471561E+03  0.19835084621E+04  0.10100000352E+00 0.  1.
</event>
<event>
 5   0  0.1070988E-07  0.3818743E+04  0.7818609E-02  0.8042145E-01
       -3   -1    0    0    0  501  0.00000000000E+00  0.00000000000E+00  0.23885863480E+04  0.23885863502E+04  0.10100000352E+00 0. -1.
        3   -1    0    0  501    0  0.00000000000E+00  0.00000000000E+00 -0.15263002586E+04  0.15263002620E+04  0.10100000352E+00 0.  1.
    10030    2    1    2    0    0  0.00000000000E+00  0.00000000000E+00  0.86228608941E+03  0.39148866121E+04  0.38187432338E+04 0.  0.
        4    1    3    3  502    0 -0.69088639389E+03 -0.17581594253E+04  0.71607907435E+03  0.20202028184E+04  0.12699999809E+01 0.  1.
       -4    1    3    3    0  502  0.69088639389E+03  0.17581594253E+04  0.14620701506E+03  0.18946837937E+04  0.12699999809E+01 0. -1.
</event>
<event>
 5   0  0.1084315E-07  0.3849096E+04  0.7818609E-02  0.8035700E-01
       -1   -1    0    0    0  501  0.00000000000E+00  0.00000000000E+00  0.21158626366E+04  0.21158626366E+04  0.50400001928E-02 0. -1.
        1   -1    0    0  501    0  0.00000000000E+00  0.00000000000E+00 -0.17505320081E+04  0.17505320082E+04  0.50400001928E-02 0.  1.
    10030    2    1    2    0    0  0.00000000000E+00  0.00000000000E+00  0.36533062847E+03  0.38663946448E+04  0.38490961382E+04 0.  0.
        4    1    3    3  502    0  0.13739044250E+03 -0.12336840546E+04  0.16599997181E+04  0.20727887391E+04  0.12699999809E+01 0. -1.
       -4    1    3    3    0  502 -0.13739044250E+03  0.12336840546E+04 -0.12946690896E+04  0.17936059056E+04  0.12699999809E+01 0.  1.
</event>
<event>
 5   0  0.3509843E-07  0.3826199E+04  0.7818609E-02  0.8040556E-01
       -2   -1    0    0    0  501  0.00000000000E+00  0.00000000000E+00  0.18488231203E+04  0.18488231203E+04  0.25500000920E-02 0. -1.
        2   -1    0    0  501    0  0.00000000000E+00  0.00000000000E+00 -0.19796107020E+04  0.19796107020E+04  0.25500000920E-02 0.  1.
    10030    2    1    2    0    0  0.00000000000E+00  0.00000000000E+00 -0.13078758174E+03  0.38284338223E+04  0.38261991767E+04 0.  0.
        4    1    3    3  502    0  0.12825702623E+04  0.95273449353E+02  0.13517260432E+04  0.18658050318E+04  0.12699999809E+01 0. -1.
       -4    1    3    3    0  502 -0.12825702623E+04 -0.95273449353E+02 -0.14825136250E+04  0.19626287904E+04  0.12699999809E+01 0.  1.
</event>
<event>
 5   0  0.3539010E-07  0.3588588E+04  0.7818609E-02  0.8093111E-01
       -2   -1    0    0    0  501  0.00000000000E+00  0.00000000000E+00  0.14870536610E+04  0.14870536610E+04  0.25500000920E-02 0. -1.
        2   -1    0    0  501    0  0.00000000000E+00  0.00000000000E+00 -0.21650131033E+04  0.21650131033E+04  0.25500000920E-02 0.  1.
    10030    2    1    2    0    0  0.00000000000E+00  0.00000000000E+00 -0.67795944228E+03  0.36520667643E+04  0.35885878344E+04 0.  0.
        1    1    3    3  502    0 -0.16121077314E+04 -0.68346401792E+03  0.59710635615E+02  0.17520216213E+04  0.50400001928E-02 0. -1.
       -1    1    3    3    0  502  0.16121077314E+04  0.68346401792E+03 -0.73767007790E+03  0.19000451430E+04  0.50400001928E-02 0.  1.
</event>
<event>
 5   0  0.1070988E-07  0.3842216E+04  0.7818609E-02  0.8037156E-01
       -1   -1    0    0    0  501  0.00000000000E+00  0.00000000000E+00  0.16882251131E+04  0.16882251131E+04  0.50400001928E-02 0. -1.
        1   -1    0    0  501    0  0.00000000000E+00  0.00000000000E+00 -0.21861159874E+04  0.21861159874E+04  0.50400001928E-02 0.  1.
    10030    2    1    2    0    0  0.00000000000E+00  0.00000000000E+00 -0.49789087432E+03  0.38743411005E+04  0.38422159805E+04 0.  0.
        2    1    3    3  502    0  0.13861159538E+04  0.11158038892E+04 -0.97909924658E+03  0.20310024843E+04  0.25500000920E-02 0. -1.
       -2    1    3    3    0  502 -0.13861159538E+04 -0.11158038892E+04  0.48120837226E+03  0.18433386162E+04  0.25500000920E-02 0.  1.
</event>
<event>
 5   0  0.3442126E-07  0.3790032E+04  0.7818609E-02  0.8048297E-01
        2   -1    0    0  501    0  0.00000000000E+00  0.00000000000E+00  0.18237773556E+04  0.18237773556E+04  0.25500000920E-02 0.  1.
       -2   -1    0    0    0  501  0.00000000000E+00  0.00000000000E+00 -0.19690373762E+04  0.19690373763E+04  0.25500000920E-02 0. -1.
    10030    2    1    2    0    0  0.00000000000E+00  0.00000000000E+00 -0.14526002069E+03  0.37928147318E+04  0.37900320732E+04 0.  0.
        2    1    3    3  502    0  0.36047103545E+03 -0.15112648418E+04 -0.11584266175E+04  0.19379920065E+04  0.25500000920E-02 0. -1.
       -2    1    3    3    0  502 -0.36047103545E+03  0.15112648418E+04  0.10131665968E+04  0.18548227253E+04  0.25500000920E-02 0.  1.
</event>
<event>
 5   0  0.3539010E-07  0.3806061E+04  0.7818609E-02  0.8044855E-01
        2   -1    0    0  501    0  0.00000000000E+00  0.00000000000E+00  0.21525899016E+04  0.21525899016E+04  0.25500000920E-02 0.  1.
       -2   -1    0    0    0  501  0.00000000000E+00  0.00000000000E+00 -0.16824036950E+04  0.16824036950E+04  0.25500000920E-02 0. -1.
    10030    2    1    2    0    0  0.00000000000E+00  0.00000000000E+00  0.47018620663E+03  0.38349935966E+04  0.38060610632E+04 0.  0.
        1    1    3    3  502    0  0.15061554522E+04  0.63049312990E+03 -0.74983401277E+03  0.17967406268E+04  0.50400001928E-02 0. -1.
       -1    1    3    3    0  502 -0.15061554522E+04 -0.63049312990E+03  0.12200202194E+04  0.20382529698E+04  0.50400001928E-02 0.  1.
</event>
<event>
 5   0  0.3327241E-07  0.3826335E+04  0.7818609E-02  0.8040527E-01
       -2   -1    0    0    0  501  0.00000000000E+00  0.00000000000E+00  0.10662608282E+04  0.10662608282E+04  0.25500000920E-02 0.  1.
        2   -1    0    0  501    0  0.00000000000E+00  0.00000000000E+00 -0.34327533650E+04  0.34327533650E+04  0.25500000920E-02 0. -1.
    10030    2    1    2    0    0  0.00000000000E+00  0.00000000000E+00 -0.23664925368E+04  0.44990141932E+04  0.38263352943E+04 0.  0.
        3    1    3    3  502    0  0.10155984728E+03  0.80387237819E+03 -0.32210462277E+04  0.33213948898E+04  0.10100000352E+00 0. -1.
       -3    1    3    3    0  502 -0.10155984728E+03 -0.80387237819E+03  0.85455369087E+03  0.11776193034E+04  0.10100000352E+00 0.  1.
</event>
<event>
 5   0  0.3442126E-07  0.3801990E+04  0.7818609E-02  0.8045728E-01
       -2   -1    0    0    0  501  0.00000000000E+00  0.00000000000E+00  0.13742835530E+04  0.13742835530E+04  0.25500000920E-02 0. -1.
        2   -1    0    0  501    0  0.00000000000E+00  0.00000000000E+00 -0.26295758957E+04  0.26295758957E+04  0.25500000920E-02 0.  1.
    10030    2    1    2    0    0  0.00000000000E+00  0.00000000000E+00 -0.12552923428E+04  0.40038594487E+04  0.38019904812E+04 0.  0.
        2    1    3    3  502    0 -0.10052948708E+04 -0.68108200358E+03  0.91264517611E+03  0.15190166854E+04  0.25500000920E-02 0. -1.
       -2    1    3    3    0  502  0.10052948708E+04  0.68108200358E+03 -0.21679375189E+04  0.24848427634E+04  0.25500000920E-02 0.  1.
</event>
<event>
 5   0  0.1070988E-07  0.3847502E+04  0.7818609E-02  0.8036037E-01
        1   -1    0    0  501    0  0.00000000000E+00  0.00000000000E+00  0.18604456330E+04  0.18604456330E+04  0.50400001928E-02 0.  1.
       -1   -1    0    0    0  501  0.00000000000E+00  0.00000000000E+00 -0.19892107966E+04  0.19892107966E+04  0.50400001928E-02 0. -1.
    10030    2    1    2    0    0  0.00000000000E+00  0.00000000000E+00 -0.12876516363E+03  0.38496564296E+04  0.38475023273E+04 0.  0.
        5    1    3    3  502    0  0.40820953524E+03  0.14167254748E+04  0.11720480604E+04  0.18834714868E+04  0.46999998093E+01 0.  1.
       -5    1    3    3    0  502 -0.40820953524E+03 -0.14167254748E+04 -0.13008132240E+04  0.19661849428E+04  0.46999998093E+01 0. -1.
</event>
<event>
 5   0  0.3509843E-07  0.4021408E+04  0.7818609E-02  0.8000242E-01
        2   -1    0    0  501    0  0.00000000000E+00  0.00000000000E+00  0.19504591595E+04  0.19504591595E+04  0.25500000920E-02 0.  1.
       -2   -1    0    0    0  501  0.00000000000E+00  0.00000000000E+00 -0.20728098829E+04  0.20728098829E+04  0.25500000920E-02 0. -1.
    10030    2    1    2    0    0  0.00000000000E+00  0.00000000000E+00 -0.12235072341E+03  0.40232690424E+04  0.40214082220E+04 0.  0.
        4    1    3    3  502    0 -0.14806725410E+04 -0.12668956659E+03  0.12938840916E+04  0.19704261151E+04  0.12699999809E+01 0.  1.
       -4    1    3    3    0  502  0.14806725410E+04  0.12668956659E+03 -0.14162348150E+04  0.20528429272E+04  0.12699999809E+01 0. -1.
</event>
<event>
 5   0  0.1070988E-07  0.3787847E+04  0.7818609E-02  0.8048768E-01
        1   -1    0    0  501    0  0.00000000000E+00  0.00000000000E+00  0.26080915256E+04  0.26080915256E+04  0.50400001928E-02 0. -1.
       -1   -1    0    0    0  501  0.00000000000E+00  0.00000000000E+00 -0.13753146671E+04  0.13753146672E+04  0.50400001928E-02 0.  1.
    10030    2    1    2    0    0  0.00000000000E+00  0.00000000000E+00  0.12327768585E+04  0.39834061928E+04  0.37878471609E+04 0.  0.
        3    1    3    3  502    0 -0.88858499919E+03  0.12603580512E+04  0.17726345661E+04  0.23495359187E+04  0.10100000352E+00 0. -1.
       -3    1    3    3    0  502  0.88858499919E+03 -0.12603580512E+04 -0.53985770761E+03  0.16338702741E+04  0.10100000352E+00 0.  1.
</event>
<event>
 5   0  0.1070988E-07  0.3801775E+04  0.7818609E-02  0.8045774E-01
       -1   -1    0    0    0  501  0.00000000000E+00  0.00000000000E+00  0.32079710082E+04  0.32079710082E+04  0.50400001928E-02 0. -1.
        1   -1    0    0  501    0  0.00000000000E+00  0.00000000000E+00 -0.11263734918E+04  0.11263734918E+04  0.50400001928E-02 0.  1.
    10030    2    1    2    0    0  0.00000000000E+00  0.00000000000E+00  0.20815975164E+04  0.43343445000E+04  0.38017751149E+04 0.  0.
        3    1    3    3  502    0  0.13290395424E+04 -0.11252168445E+04  0.17185215396E+03  0.17498549155E+04  0.10100000352E+00 0.  1.
       -3    1    3    3    0  502 -0.13290395424E+04  0.11252168445E+04  0.19097453624E+04  0.25844895844E+04  0.10100000352E+00 0. -1.
</event>
<event>
 5   0  0.3327241E-07  0.3780673E+04  0.7818609E-02  0.8050315E-01
        2   -1    0    0  501    0  0.00000000000E+00  0.00000000000E+00  0.25325782356E+04  0.25325782356E+04  0.25500000920E-02 0.  1.
       -2   -1    0    0    0  501  0.00000000000E+00  0.00000000000E+00 -0.14109622472E+04  0.14109622472E+04  0.25500000920E-02 0. -1.
    10030    2    1    2    0    0  0.00000000000E+00  0.00000000000E+00  0.11216159884E+04  0.39435404829E+04  0.37806731034E+04 0.  0.
        3    1    3    3  502    0  0.86475411475E+03 -0.29387650804E+02 -0.11922812664E+04  0.14731591704E+04  0.10100000352E+00 0. -1.
       -3    1    3    3    0  502 -0.86475411475E+03  0.29387650804E+02  0.23138972548E+04  0.24703813125E+04  0.10100000352E+00 0.  1.
</event>
<event>
 5   0  0.1070988E-07  0.3765044E+04  0.7818609E-02  0.8053698E-01
       -1   -1    0    0    0  501  0.00000000000E+00  0.00000000000E+00  0.18736367357E+04  0.18736367357E+04  0.50400001928E-02 0.  1.
        1   -1    0    0  501    0  0.00000000000E+00  0.00000000000E+00 -0.18914491207E+04  0.18914491207E+04  0.50400001928E-02 0. -1.
    10030    2    1    2    0    0  0.00000000000E+00  0.00000000000E+00 -0.17812384970E+02  0.37650858564E+04  0.37650437215E+04 0.  0.
        3    1    3    3  502    0 -0.11301081944E+03  0.25185164975E+03 -0.18710999155E+04  0.18913528499E+04  0.10100000352E+00 0. -1.
       -3    1    3    3    0  502  0.11301081944E+03 -0.25185164975E+03  0.18532875305E+04  0.18737330065E+04  0.10100000352E+00 0.  1.
</event>
<event>
 5   0  0.1084315E-07  0.3767859E+04  0.7818609E-02  0.8053088E-01
       -1   -1    0    0    0  501  0.00000000000E+00  0.00000000000E+00  0.17382474330E+04  0.17382474330E+04  0.50400001928E-02 0. -1.
        1   -1    0    0  501    0  0.00000000000E+00  0.00000000000E+00 -0.20418214118E+04  0.20418214118E+04  0.50400001928E-02 0.  1.
    10030    2    1    2    0    0  0.00000000000E+00  0.00000000000E+00 -0.30357397883E+03  0.37800688448E+04  0.37678592477E+04 0.  0.
        4    1    3    3  502    0 -0.11283041456E+04 -0.14732934981E+04 -0.47768612530E+03  0.19162070932E+04  0.12699999809E+01 0.  1.
       -4    1    3    3    0  502  0.11283041456E+04  0.14732934981E+04  0.17411214646E+03  0.18638617516E+04  0.12699999809E+01 0. -1.
</event>
<event>
 5   0  0.1070988E-07  0.3794290E+04  0.7818609E-02  0.8047381E-01
       -3   -1    0    0    0  501  0.00000000000E+00  0.00000000000E+00  0.24825620082E+04  0.24825620103E+04  0.10100000352E+00 0. -1.
        3   -1    0    0  501    0  0.00000000000E+00  0.00000000000E+00 -0.14497760532E+04  0.14497760567E+04  0.10100000352E+00 0.  1.
    10030    2    1    2    0    0  0.00000000000E+00  0.00000000000E+00  0.10327859550E+04  0.39323380670E+04  0.37942898998E+04 0.  0.
        2    1    3    3  502    0 -0.18263057689E+04  0.37389561786E+02 -0.14462071542E+02  0.18267457109E+04  0.25500000920E-02 0.  1.
       -2    1    3    3    0  502  0.18263057689E+04 -0.37389561786E+02  0.10472480266E+04  0.21055923561E+04  0.25500000920E-02 0. -1.
</event>
<event>
 5   0  0.1084315E-07  0.3799070E+04  0.7818609E-02  0.8046355E-01
        1   -1    0    0  501    0  0.00000000000E+00  0.00000000000E+00  0.22873678781E+04  0.22873678781E+04  0.50400001928E-02 0. -1.
       -1   -1    0    0    0  501  0.00000000000E+00  0.00000000000E+00 -0.15774604391E+04  0.15774604391E+04  0.50400001928E-02 0.  1.
    10030    2    1    2    0    0  0.00000000000E+00  0.00000000000E+00  0.70990743904E+03  0.38648283172E+04  0.37990695374E+04 0.  0.
        4    1    3    3  502    0  0.11533875815E+04 -0.13894159105E+04  0.95460656107E+03  0.20425608399E+04  0.12699999809E+01 0. -1.
       -4    1    3    3    0  502 -0.11533875815E+04  0.13894159105E+04 -0.24469912203E+03  0.18222674773E+04  0.12699999809E+01 0.  1.
</event>
<event>
 5   0  0.3327241E-07  0.3754541E+04  0.7818609E-02  0.8055981E-01
        2   -1    0    0  501    0  0.00000000000E+00  0.00000000000E+00  0.22302581490E+04  0.22302581490E+04  0.25500000920E-02 0.  1.
       -2   -1    0    0    0  501  0.00000000000E+00  0.00000000000E+00 -0.15801509879E+04  0.15801509879E+04  0.25500000920E-02 0. -1.
    10030    2    1    2    0    0  0.00000000000E+00  0.00000000000E+00  0.65010716111E+03  0.38104091369E+04  0.37545410465E+04 0.  0.
        3    1    3    3  502    0  0.16093757745E+04  0.16724379808E+03 -0.64099489760E+03  0.17403836762E+04  0.10100000352E+00 0. -1.
       -3    1    3    3    0  502 -0.16093757745E+04 -0.16724379808E+03  0.12911020587E+04  0.20700254607E+04  0.10100000352E+00 0.  1.
</event>
<event>
 5   0  0.1085771E-07  0.3716297E+04  0.7818609E-02  0.8064360E-01
        1   -1    0    0  501    0  0.00000000000E+00  0.00000000000E+00  0.14366576162E+04  0.14366576162E+04  0.50400001928E-02 0. -1.
       -1   -1    0    0    0  501  0.00000000000E+00  0.00000000000E+00 -0.24032978475E+04  0.24032978475E+04  0.50400001928E-02 0.  1.
    10030    2    1    2    0    0  0.00000000000E+00  0.00000000000E+00 -0.96664023128E+03  0.38399554637E+04  0.37162971661E+04 0.  0.
        1    1    3    3  502    0 -0.19284194586E+03 -0.99146406037E+03 -0.20948731492E+04  0.23256574362E+04  0.50400001928E-02 0.  1.
       -1    1    3    3    0  502  0.19284194586E+03  0.99146406037E+03  0.11282329180E+04  0.15142980276E+04  0.50400001928E-02 0. -1.
</event>
<event>
 5   0  0.3327241E-07  0.3820361E+04  0.7818609E-02  0.8041800E-01
        2   -1    0    0  501    0  0.00000000000E+00  0.00000000000E+00  0.25670520501E+04  0.25670520501E+04  0.25500000920E-02 0.  1.
       -2   -1    0    0    0  501  0.00000000000E+00  0.00000000000E+00 -0.14213926409E+04  0.14213926409E+04  0.25500000920E-02 0. -1.
    10030    2    1    2    0    0  0.00000000000E+00  0.00000000000E+00  0.11456594092E+04  0.39884446910E+04  0.38203606599E+04 0.  0.
        3    1    3    3  502    0 -0.16576764777E+04 -0.75527882351E+03  0.11729703738E+04  0.21666095435E+04  0.10100000352E+00 0.  1.
       -3    1    3    3    0  502  0.16576764777E+04  0.75527882351E+03 -0.27310964615E+02  0.18218351475E+04  0.10100000352E+00 0. -1.
</event>
<event>
 5   0  0.3509843E-07  0.3835626E+04  0.7818609E-02  0.8038553E-01
       -2   -1    0    0    0  501  0.00000000000E+00  0.00000000000E+00  0.15970441886E+04  0.15970441886E+04  0.25500000920E-02 0.  1.
        2   -1    0    0  501    0  0.00000000000E+00  0.00000000000E+00 -0.23030088462E+04  0.23030088462E+04  0.25500000920E-02 0. -1.
    10030    2    1    2    0    0  0.00000000000E+00  0.00000000000E+00 -0.70596465752E+03  0.39000530348E+04  0.38356260997E+04 0.  0.
        4    1    3    3  502    0 -0.12650859828E+04 -0.14411460531E+04 -0.37911996517E+03  0.19547577986E+04  0.12699999809E+01 0. -1.
       -4    1    3    3    0  502  0.12650859828E+04  0.14411460531E+04 -0.32684469235E+03  0.19452952362E+04  0.12699999809E+01 0.  1.
</event>
<event>
 5   0  0.1085771E-07  0.3812686E+04  0.7818609E-02  0.8043438E-01
        1   -1    0    0  501    0  0.00000000000E+00  0.00000000000E+00  0.13434240667E+04  0.13434240667E+04  0.50400001928E-02 0.  1.
       -1   -1    0    0    0  501  0.00000000000E+00  0.00000000000E+00 -0.27051345315E+04  0.27051345316E+04  0.50400001928E-02 0. -1.
    10030    2    1    2    0    0  0.00000000000E+00  0.00000000000E+00 -0.13617104648E+04  0.40485585983E+04  0.38126855802E+04 0.  0.
        1    1    3    3  502    0  0.18395213316E+04  0.47983868084E+03 -0.83124679526E+03  0.20748626759E+04  0.50400001928E-02 0. -1.
       -1    1    3    3    0  502 -0.18395213316E+04 -0.47983868084E+03 -0.53046366958E+03  0.19736959224E+04  0.50400001928E-02 0.  1.
</event>
<event>
 5   0  0.1070988E-07  0.3819371E+04  0.7818609E-02  0.8042011E-01
        1   -1    0    0  501    0  0.00000000000E+00  0.00000000000E+00  0.19288644731E+04  0.19288644731E+04  0.50400001928E-02 0. -1.
       -1   -1    0    0    0  501  0.00000000000E+00  0.00000000000E+00 -0.18906972558E+04  0.18906972558E+04  0.50400001928E-02 0.  1.
    10030    2    1    2    0    0  0.00000000000E+00  0.00000000000E+00  0.38167217269E+02  0.38195617289E+04  0.38193710300E+04 0.  0.
        3    1    3    3  502    0 -0.16251506063E+04  0.55626797296E+03 -0.81543406249E+03  0.19014418927E+04  0.10100000352E+00 0.  1.
       -3    1    3    3    0  502  0.16251506063E+04 -0.55626797296E+03  0.85360127976E+03  0.19181198362E+04  0.10100000352E+00 0. -1.
</event>
<event>
 5   0  0.3442126E-07  0.3797779E+04  0.7818609E-02  0.8046632E-01
        2   -1    0    0  501    0  0.00000000000E+00  0.00000000000E+00  0.21722437214E+04  0.21722437214E+04  0.25500000920E-02 0. -1.
       -2   -1    0    0    0  501  0.00000000000E+00  0.00000000000E+00 -0.16599343328E+04  0.16599343328E+04  0.25500000920E-02 0.  1.
    10030    2    1    2    0    0  0.00000000000E+00  0.00000000000E+00  0.51230938863E+03  0.38321780542E+04  0.37977793155E+04 0.  0.
        2    1    3    3  502    0  0.44738687726E+02  0.11583505918E+04  0.17737733852E+04  0.21189737294E+04  0.25500000920E-02 0. -1.
       -2    1    3    3    0  502 -0.44738687726E+02 -0.11583505918E+04 -0.12614639966E+04  0.17132043248E+04  0.25500000920E-02 0.  1.
</event>
<event>
 5   0  0.3327241E-07  0.3796502E+04  0.7818609E-02  0.8046906E-01
        2   -1    0    0  501    0  0.00000000000E+00  0.00000000000E+00  0.25895842043E+04  0.25895842043E+04  0.25500000920E-02 0. -1.
       -2   -1    0    0    0  501  0.00000000000E+00  0.00000000000E+00 -0.13914808037E+04  0.13914808037E+04  0.25500000920E-02 0.  1.
    10030    2    1    2    0    0  0.00000000000E+00  0.00000000000E+00  0.11981034006E+04  0.39810650080E+04  0.37965019214E+04 0.  0.
        3    1    3    3  502    0  0.53344348750E+03  0.18167394256E+04  0.45738164289E+03  0.19478968331E+04  0.10100000352E+00 0.  1.
       -3    1    3    3    0  502 -0.53344348750E+03 -0.18167394256E+04  0.74072175770E+03  0.20331681749E+04  0.10100000352E+00 0. -1.
</event>
<event>
 5   0  0.1084315E-07  0.3586288E+04  0.7818609E-02  0.8093640E-01
        1   -1    0    0  501    0  0.00000000000E+00  0.00000000000E+00  0.89562664033E+03  0.89562664034E+03  0.50400001928E-02 0. -1.
       -1   -1    0    0    0  501  0.00000000000E+00  0.00000000000E+00 -0.35900725756E+04  0.35900725756E+04  0.50400001928E-02 0.  1.
    10030    2    1    2    0    0  0.00000000000E+00  0.00000000000E+00 -0.26944459353E+04  0.44856992159E+04  0.35862875732E+04 0.  0.
        4    1    3    3  502    0 -0.59103660684E+03 -0.16183696922E+04 -0.19687523620E+04  0.26161865772E+04  0.12699999809E+01 0.  1.
       -4    1    3    3    0  502  0.59103660684E+03  0.16183696922E+04 -0.72569357330E+03  0.18695126387E+04  0.12699999809E+01 0. -1.
</event>
<event>
 5   0  0.1070988E-07  0.3763715E+04  0.7818609E-02  0.8053987E-01
       -1   -1    0    0    0  501  0.00000000000E+00  0.00000000000E+00  0.15808584499E+04  0.15808584499E+04  0.50400001928E-02 0. -1.
        1   -1    0    0  501    0  0.00000000000E+00  0.00000000000E+00 -0.22401675228E+04  0.22401675228E+04  0.50400001928E-02 0.  1.
    10030    2    1    2    0    0  0.00000000000E+00  0.00000000000E+00 -0.65930907292E+03  0.38210259727E+04  0.37637150570E+04 0.  0.
        2    1    3    3  502    0  0.10330341526E+04  0.23561691692E+03  0.12492483206E+04  0.16380770002E+04  0.25500000920E-02 0. -1.
       -2    1    3    3    0  502 -0.10330341526E+04 -0.23561691692E+03 -0.19085573935E+04  0.21829489725E+04  0.25500000920E-02 0.  1.
</event>
<event>
 5   0  0.1085771E-07  0.3833266E+04  0.7818609E-02  0.8039054E-01
        1   -1    0    0  501    0  0.00000000000E+00  0.00000000000E+00  0.17288645977E+04  0.17288645977E+04  0.50400001928E-02 0. -1.
       -1   -1    0    0    0  501  0.00000000000E+00  0.00000000000E+00 -0.21247944586E+04  0.21247944586E+04  0.50400001928E-02 0.  1.
    10030    2    1    2    0    0  0.00000000000E+00  0.00000000000E+00 -0.39592986084E+03  0.38536590563E+04  0.38332659270E+04 0.  0.
        1    1    3    3  502    0  0.18507251699E+04 -0.48378483276E+03 -0.31797546244E+03  0.19391595637E+04  0.50400001928E-02 0. -1.
       -1    1    3    3    0  502 -0.18507251699E+04  0.48378483276E+03 -0.77954398407E+02  0.19144994926E+04  0.50400001928E-02 0.  1.
</event>
<event>
 5   0  0.3442126E-07  0.3783105E+04  0.7818609E-02  0.8049790E-01
       -2   -1    0    0    0  501  0.00000000000E+00  0.00000000000E+00  0.12557554712E+04  0.12557554712E+04  0.25500000920E-02 0.  1.
        2   -1    0    0  501    0  0.00000000000E+00  0.00000000000E+00 -0.28492575053E+04  0.28492575053E+04  0.25500000920E-02 0. -1.
    10030    2    1    2    0    0  0.00000000000E+00  0.00000000000E+00 -0.15935020341E+04  0.41050129765E+04  0.37831049158E+04 0.  0.
        2    1    3    3  502    0 -0.58727184442E+03 -0.13294230283E+04  0.51693384501E+03  0.15425545071E+04  0.25500000920E-02 0.  1.
       -2    1    3    3    0  502  0.58727184442E+03  0.13294230283E+04 -0.21104358791E+04  0.25624584694E+04  0.25500000920E-02 0. -1.
</event>
<event>
 5   0  0.1070988E-07  0.3814138E+04  0.7818609E-02  0.8043128E-01
        1   -1    0    0  501    0  0.00000000000E+00  0.00000000000E+00  0.14552449807E+04  0.14552449807E+04  0.50400001928E-02 0. -1.
       -1   -1    0    0    0  501  0.00000000000E+00  0.00000000000E+00 -0.24991746647E+04  0.24991746647E+04  0.50400001928E-02 0.  1.
    10030    2    1    2    0    0  0.00000000000E+00  0.00000000000E+00 -0.10439296840E+04  0.39544196454E+04  0.38141375888E+04 0.  0.
        5    1    3    3  502    0 -0.87352910630E+02  0.17133420411E+04 -0.13854956246E+04  0.22051738472E+04  0.46999998093E+01 0.  1.
       -5    1    3    3    0  502  0.87352910630E+02 -0.17133420411E+04  0.34156594057E+03  0.17492457982E+04  0.46999998093E+01 0. -1.
</event>
<event>
 5   0  0.1070988E-07  0.3803498E+04  0.7818609E-02  0.8045405E-01
       -1   -1    0    0    0  501  0.00000000000E+00  0.00000000000E+00  0.26183098220E+04  0.26183098220E+04  0.50400001928E-02 0.  1.
        1   -1    0    0  501    0  0.00000000000E+00  0.00000000000E+00 -0.13812916267E+04  0.13812916267E+04  0.50400001928E-02 0. -1.
    10030    2    1    2    0    0  0.00000000000E+00  0.00000000000E+00  0.12370181954E+04  0.39996014487E+04  0.38034980916E+04 0.  0.
        3    1    3    3  502    0  0.16062849440E+03 -0.13942499737E+04 -0.73097911781E+03  0.15824237686E+04  0.10100000352E+00 0. -1.
       -3    1    3    3    0  502 -0.16062849440E+03  0.13942499737E+04  0.19679973132E+04  0.24171776801E+04  0.10100000352E+00 0.  1.
</event>
<event>
 5   0  0.3327241E-07  0.3748167E+04  0.7818609E-02  0.8057370E-01
        2   -1    0    0  501    0  0.00000000000E+00  0.00000000000E+00  0.12814668372E+04  0.12814668372E+04  0.25500000920E-02 0.  1.
       -2   -1    0    0    0  501  0.00000000000E+00  0.00000000000E+00 -0.27407567739E+04  0.27407567739E+04  0.25500000920E-02 0. -1.
    10030    2    1    2    0    0  0.00000000000E+00  0.00000000000E+00 -0.14592899367E+04  0.40222236111E+04  0.37481669731E+04 0.  0.
        3    1    3    3  502    0 -0.47143035972E+03 -0.16113352228E+03 -0.26683909622E+04  0.27145019679E+04  0.10100000352E+00 0. -1.
       -3    1    3    3    0  502  0.47143035972E+03  0.16113352228E+03  0.12091010255E+04  0.13077216432E+04  0.10100000352E+00 0.  1.
</event>
<event>
 5   0  0.3327241E-07  0.3795016E+04  0.7818609E-02  0.8047225E-01
        2   -1    0    0  501    0  0.00000000000E+00  0.00000000000E+00  0.13685945514E+04  0.13685945514E+04  0.25500000920E-02 0. -1.
       -2   -1    0    0    0  501  0.00000000000E+00  0.00000000000E+00 -0.26308276915E+04  0.26308276915E+04  0.25500000920E-02 0.  1.
    10030    2    1    2    0    0  0.00000000000E+00  0.00000000000E+00 -0.12622331401E+04  0.39994222429E+04  0.37950159126E+04 0.  0.
        3    1    3    3  502    0  0.15383076386E+04 -0.43181520270E+03 -0.17098107363E+04  0.23401511755E+04  0.10100000352E+00 0.  1.
       -3    1    3    3    0  502 -0.15383076386E+04  0.43181520270E+03  0.44757759619E+03  0.16592710673E+04  0.10100000352E+00 0. -1.
</event>
<event>
 5   0  0.1085771E-07  0.3772332E+04  0.7818609E-02  0.8052118E-01
        1   -1    0    0  501    0  0.00000000000E+00  0.00000000000E+00  0.15368553944E+04  0.15368553944E+04  0.50400001928E-02 0. -1.
       -1   -1    0    0    0  501  0.00000000000E+00  0.00000000000E+00 -0.23148716817E+04  0.23148716817E+04  0.50400001928E-02 0.  1.
    10030    2    1    2    0    0  0.00000000000E+00  0.00000000000E+00 -0.77801628733E+03  0.38517270761E+04  0.37723324516E+04 0.  0.
        1    1    3    3  502    0 -0.16334049293E+04  0.94244207015E+03 -0.42740699575E+03  0.19336197813E+04  0.50400001928E-02 0. -1.
       -1    1    3    3    0  502  0.16334049293E+04 -0.94244207015E+03 -0.35060929158E+03  0.19181072947E+04  0.50400001928E-02 0.  1.
</event>
<event>
 5   0  0.3539010E-07  0.3804818E+04  0.7818609E-02  0.8045122E-01
        2   -1    0    0  501    0  0.00000000000E+00  0.00000000000E+00  0.16860175278E+04  0.16860175278E+04  0.25500000920E-02 0.  1.
       -2   -1    0    0    0  501  0.00000000000E+00  0.00000000000E+00 -0.21465728220E+04  0.21465728220E+04  0.25500000920E-02 0. -1.
    10030    2    1    2    0    0  0.00000000000E+00  0.00000000000E+00 -0.46055529417E+03  0.38325903498E+04  0.38048176842E+04 0.  0.
        1    1    3    3  502    0 -0.16739555062E+04  0.34063032402E+02  0.67957190315E+03  0.18069602371E+04  0.50400001928E-02 0.  1.
       -1    1    3    3    0  502  0.16739555062E+04 -0.34063032402E+02 -0.11401271973E+04  0.20256301126E+04  0.50400001928E-02 0. -1.
</event>
<event>
 5   0  0.1084315E-07  0.3806066E+04  0.7818609E-02  0.8044854E-01
        1   -1    0    0  501    0  0.00000000000E+00  0.00000000000E+00  0.19278044994E+04  0.19278044994E+04  0.50400001928E-02 0.  1.
       -1   -1    0    0    0  501  0.00000000000E+00  0.00000000000E+00 -0.18785796828E+04  0.18785796828E+04  0.50400001928E-02 0. -1.
    10030    2    1    2    0    0  0.00000000000E+00  0.00000000000E+00  0.49224816609E+02  0.38063841822E+04  0.38060658770E+04 0.  0.
        4    1    3    3  502    0 -0.77890886382E+03 -0.14525344337E+03 -0.17057736557E+04  0.18808144402E+04  0.12699999809E+01 0. -1.
       -4    1    3    3    0  502  0.77890886382E+03  0.14525344337E+03  0.17549984723E+04  0.19255697421E+04  0.12699999809E+01 0.  1.
</event>
<event>
 5   0  0.1085771E-07  0.3808604E+04  0.7818609E-02  0.8044311E-01
       -1   -1    0    0    0  501  0.00000000000E+00  0.00000000000E+00  0.21624625268E+04  0.21624625268E+04  0.50400001928E-02 0. -1.
        1   -1    0    0  501    0  0.00000000000E+00  0.00000000000E+00 -0.16769609529E+04  0.16769609529E+04  0.50400001928E-02 0.  1.
    10030    2    1    2    0    0  0.00000000000E+00  0.00000000000E+00  0.48550157388E+03  0.38394234797E+04  0.38086035338E+04 0.  0.
        1    1    3    3  502    0 -0.18811727544E+04  0.16256713332E+03 -0.64870662527E+01  0.18881951930E+04  0.50400001928E-02 0.  1.
       -1    1    3    3    0  502  0.18811727544E+04 -0.16256713332E+03  0.49198864013E+03  0.19512282867E+04  0.50400001928E-02 0. -1.
</event>
<event>
 5   0  0.1070988E-07  0.3704764E+04  0.7818609E-02  0.8066907E-01
       -1   -1    0    0    0  501  0.00000000000E+00  0.00000000000E+00  0.28681925825E+04  0.28681925825E+04  0.50400001928E-02 0. -1.
        1   -1    0    0  501    0  0.00000000000E+00  0.00000000000E+00 -0.11963347104E+04  0.11963347104E+04  0.50400001928E-02 0.  1.
    10030    2    1    2    0    0  0.00000000000E+00  0.00000000000E+00  0.16718578721E+04  0.40645272929E+04  0.37047636052E+04 0.  0.
        2    1    3    3  502    0  0.39247734974E+03  0.17832024184E+04  0.49341139763E+03  0.18913762562E+04  0.25500000920E-02 0.  1.
       -2    1    3    3    0  502 -0.39247734974E+03 -0.17832024184E+04  0.11784464745E+04  0.21731510367E+04  0.25500000920E-02 0. -1.
</event>
<event>
 5   0  0.3327241E-07  0.3795154E+04  0.7818609E-02  0.8047196E-01
       -2   -1    0    0    0  501  0.00000000000E+00  0.00000000000E+00  0.14030363674E+04  0.14030363674E+04  0.25500000920E-02 0.  1.
        2   -1    0    0  501    0  0.00000000000E+00  0.00000000000E+00 -0.25664328953E+04  0.25664328953E+04  0.25500000920E-02 0. -1.
    10030    2    1    2    0    0  0.00000000000E+00  0.00000000000E+00 -0.11633965279E+04  0.39694692627E+04  0.37951541137E+04 0.  0.
        3    1    3    3  502    0  0.44968434023E+02  0.18731914338E+04 -0.26804037604E+03  0.18928058435E+04  0.10100000352E+00 0.  1.
       -3    1    3    3    0  502 -0.44968434023E+02 -0.18731914338E+04 -0.89535615181E+03  0.20766634192E+04  0.10100000352E+00 0. -1.
</event>
<event>
 5   0  0.1084315E-07  0.3808195E+04  0.7818609E-02  0.8044399E-01
        1   -1    0    0  501    0  0.00000000000E+00  0.00000000000E+00  0.15314416720E+04  0.15314416720E+04  0.50400001928E-02 0.  1.
       -1   -1    0    0    0  501  0.00000000000E+00  0.00000000000E+00 -0.23674335484E+04  0.23674335484E+04  0.50400001928E-02 0. -1.
    10030    2    1    2    0    0  0.00000000000E+00  0.00000000000E+00 -0.83599187639E+03  0.38988752205E+04  0.38081945286E+04 0.  0.
        4    1    3    3  502    0 -0.16120347819E+04  0.47210886321E+03 -0.13360315786E+04  0.21462816471E+04  0.12699999809E+01 0. -1.
       -4    1    3    3    0  502  0.16120347819E+04 -0.47210886321E+03  0.50003970221E+03  0.17525935734E+04  0.12699999809E+01 0.  1.
</event>
<event>
 5   0  0.1070988E-07  0.3362015E+04  0.7818609E-02  0.8147293E-01
        1   -1    0    0  501    0  0.00000000000E+00  0.00000000000E+00  0.16864562775E+04  0.16864562775E+04  0.50400001928E-02 0.  1.
       -1   -1    0    0    0  501  0.00000000000E+00  0.00000000000E+00 -0.16755758567E+04  0.16755758568E+04  0.50400001928E-02 0. -1.
    10030    2    1    2    0    0  0.00000000000E+00  0.00000000000E+00  0.10880420769E+02  0.33620321343E+04  0.33620145283E+04 0.  0.
        2    1    3    3  502    0  0.11246836120E+04 -0.82148055627E+03 -0.93586270076E+03  0.16779697632E+04  0.25500000920E-02 0. -1.
       -2    1    3    3    0  502 -0.11246836120E+04  0.82148055627E+03  0.94674312153E+03  0.16840623711E+04  0.25500000920E-02 0.  1.
</event>
<event>
 5   0  0.3442126E-07  0.3764579E+04  0.7818609E-02  0.8053799E-01
       -2   -1    0    0    0  501  0.00000000000E+00  0.00000000000E+00  0.12768256056E+04  0.12768256056E+04  0.25500000920E-02 0.  1.
        2   -1    0    0  501    0  0.00000000000E+00  0.00000000000E+00 -0.27748612857E+04  0.27748612857E+04  0.25500000920E-02 0. -1.
    10030    2    1    2    0    0  0.00000000000E+00  0.00000000000E+00 -0.14980356801E+04  0.40516868912E+04  0.37645790954E+04 0.  0.
        2    1    3    3  502    0  0.32913017072E+03 -0.42903849399E+03  0.11914305672E+04  0.13083988287E+04  0.25500000920E-02 0.  1.
       -2    1    3    3    0  502 -0.32913017072E+03  0.42903849399E+03 -0.26894662473E+04  0.27432880625E+04  0.25500000920E-02 0. -1.
</event>
<event>
 5   0  0.1070988E-07  0.3779903E+04  0.7818609E-02  0.8050481E-01
       -1   -1    0    0    0  501  0.00000000000E+00  0.00000000000E+00  0.17577226598E+04  0.17577226598E+04  0.50400001928E-02 0.  1.
        1   -1    0    0  501    0  0.00000000000E+00  0.00000000000E+00 -0.20321278121E+04  0.20321278121E+04  0.50400001928E-02 0. -1.
    10030    2    1    2    0    0  0.00000000000E+00  0.00000000000E+00 -0.27440515222E+03  0.37898504719E+04  0.37799032278E+04 0.  0.
        3    1    3    3  502    0 -0.70455818573E+03 -0.59690644216E+03 -0.17905471395E+04  0.20146360979E+04  0.10100000352E+00 0. -1.
       -3    1    3    3    0  502  0.70455818573E+03  0.59690644216E+03  0.15161419873E+04  0.17752143740E+04  0.10100000352E+00 0.  1.
</event>
<event>
 5   0  0.3377396E-07  0.3771736E+04  0.7818609E-02  0.8052248E-01
       -2   -1    0    0    0  501  0.00000000000E+00  0.00000000000E+00  0.19312672456E+04  0.19312672456E+04  0.25500000920E-02 0.  1.
        2   -1    0    0  501    0  0.00000000000E+00  0.00000000000E+00 -0.18415356863E+04  0.18415356863E+04  0.25500000920E-02 0. -1.
    10030    2    1    2    0    0  0.00000000000E+00  0.00000000000E+00  0.89731559263E+02  0.37728029319E+04  0.37717357026E+04 0.  0.
        5    1    3    3  502    0  0.32881997431E+03 -0.81183664022E+03 -0.16257188051E+04  0.18466686301E+04  0.46999998093E+01 0. -1.
       -5    1    3    3    0  502 -0.32881997431E+03  0.81183664022E+03  0.17154503644E+04  0.19261343018E+04  0.46999998093E+01 0.  1.
</event>
<event>
 5   0  0.1070988E-07  0.3788565E+04  0.7818609E-02  0.8048613E-01
       -1   -1    0    0    0  501  0.00000000000E+00  0.00000000000E+00  0.14188280914E+04  0.14188280914E+04  0.50400001928E-02 0. -1.
        1   -1    0    0  501    0  0.00000000000E+00  0.00000000000E+00 -0.25290634052E+04  0.25290634052E+04  0.50400001928E-02 0.  1.
    10030    2    1    2    0    0  0.00000000000E+00  0.00000000000E+00 -0.11102353138E+04  0.39478914966E+04  0.37885650076E+04 0.  0.
        3    1    3    3  502    0 -0.84444017328E+02  0.18647130398E+04 -0.89120357152E+03  0.20684606181E+04  0.10100000352E+00 0.  1.
       -3    1    3    3    0  502  0.84444017328E+02 -0.18647130398E+04 -0.21903174233E+03  0.18794308785E+04  0.10100000352E+00 0. -1.
</event>
<event>
 5   0  0.3442126E-07  0.3835734E+04  0.7818609E-02  0.8038530E-01
        2   -1    0    0  501    0  0.00000000000E+00  0.00000000000E+00  0.24093794998E+04  0.24093794998E+04  0.25500000920E-02 0.  1.
       -2   -1    0    0    0  501  0.00000000000E+00  0.00000000000E+00 -0.15266226924E+04  0.15266226924E+04  0.25500000920E-02 0. -1.
    10030    2    1    2    0    0  0.00000000000E+00  0.00000000000E+00  0.88275680737E+03  0.39360021922E+04  0.38357337859E+04 0.  0.
        2    1    3    3  502    0 -0.67725004430E+03 -0.14501019475E+04  0.15257668487E+04  0.22112050465E+04  0.25500000920E-02 0.  1.
       -2    1    3    3    0  502  0.67725004430E+03  0.14501019475E+04 -0.64301004137E+03  0.17247971458E+04  0.25500000920E-02 0. -1.
</event>
<event>
 5   0  0.3442126E-07  0.3772889E+04  0.7818609E-02  0.8051998E-01
       -2   -1    0    0    0  501  0.00000000000E+00  0.00000000000E+00  0.15211763380E+04  0.15211763380E+04  0.25500000920E-02 0.  1.
        2   -1    0    0  501    0  0.00000000000E+00  0.00000000000E+00 -0.23394220958E+04  0.23394220958E+04  0.25500000920E-02 0. -1.
    10030    2    1    2    0    0  0.00000000000E+00  0.00000000000E+00 -0.81824575773E+03  0.38605984338E+04  0.37728893632E+04 0.  0.
        2    1    3    3  502    0  0.11788880321E+04 -0.13559938291E+04 -0.99709150502E+03  0.20549179366E+04  0.25500000920E-02 0.  1.
       -2    1    3    3    0  502 -0.11788880321E+04  0.13559938291E+04  0.17884574729E+03  0.18056804972E+04  0.25500000920E-02 0. -1.
</event>
<event>
 5   0  0.1085771E-07  0.3752242E+04  0.7818609E-02  0.8056482E-01
       -1   -1    0    0    0  501  0.00000000000E+00  0.00000000000E+00  0.14729859828E+04  0.14729859828E+04  0.50400001928E-02 0.  1.
        1   -1    0    0  501    0  0.00000000000E+00  0.00000000000E+00 -0.23895877579E+04  0.23895877579E+04  0.50400001928E-02 0. -1.
    10030    2    1    2    0    0  0.00000000000E+00  0.00000000000E+00 -0.91660177513E+03  0.38625737407E+04  0.37522416084E+04 0.  0.
        1    1    3    3  502    0  0.14955443506E+04 -0.11327481424E+04 -0.46614150099E+03  0.19331474743E+04  0.50400001928E-02 0.  1.
       -1    1    3    3    0  502 -0.14955443506E+04  0.11327481424E+04 -0.45046027414E+03  0.19294262663E+04  0.50400001928E-02 0. -1.
</event>
<event>
 5   0  0.3327241E-07  0.3846479E+04  0.7818609E-02  0.8036254E-01
       -2   -1    0    0    0  501  0.00000000000E+00  0.00000000000E+00  0.32142763732E+04  0.32142763732E+04  0.25500000920E-02 0. -1.
        2   -1    0    0  501    0  0.00000000000E+00  0.00000000000E+00 -0.11507566178E+04  0.11507566178E+04  0.25500000920E-02 0.  1.
    10030    2    1    2    0    0  0.00000000000E+00  0.00000000000E+00  0.20635197553E+04  0.43650329910E+04  0.38464788095E+04 0.  0.
        3    1    3    3  502    0  0.12775521262E+03 -0.16255528006E+04 -0.12558579089E+03  0.16353944793E+04  0.10100000352E+00 0.  1.
       -3    1    3    3    0  502 -0.12775521262E+03  0.16255528006E+04  0.21891055462E+04  0.27296385117E+04  0.10100000352E+00 0. -1.
</event>
<event>
 5   0  0.3442126E-07  0.3820656E+04  0.7818609E-02  0.8041737E-01
        2   -1    0    0  501    0  0.00000000000E+00  0.00000000000E+00  0.15394831432E+04  0.15394831432E+04  0.25500000920E-02 0.  1.
       -2   -1    0    0    0  501  0.00000000000E+00  0.00000000000E+00 -0.23705050490E+04  0.23705050490E+04  0.25500000920E-02 0. -1.
    10030    2    1    2    0    0  0.00000000000E+00  0.00000000000E+00 -0.83102190580E+03  0.39099881922E+04  0.38206557363E+04 0.  0.
        2    1    3    3  502    0 -0.12313753497E+04  0.10421203863E+04 -0.14626919432E+04  0.21775600731E+04  0.25500000920E-02 0. -1.
       -2    1    3    3    0  502  0.12313753497E+04 -0.10421203863E+04  0.63167003739E+03  0.17324281190E+04  0.25500000920E-02 0.  1.
</event>
<event>
 5   0  0.1070988E-07  0.3801147E+04  0.7818609E-02  0.8045909E-01
       -1   -1    0    0    0  501  0.00000000000E+00  0.00000000000E+00  0.26674728656E+04  0.26674728656E+04  0.50400001928E-02 0. -1.
        1   -1    0    0  501    0  0.00000000000E+00  0.00000000000E+00 -0.13541580038E+04  0.13541580038E+04  0.50400001928E-02 0.  1.
    10030    2    1    2    0    0  0.00000000000E+00  0.00000000000E+00  0.13133148619E+04  0.40216308694E+04  0.38011470536E+04 0.  0.
        3    1    3    3  502    0 -0.17576107337E+04 -0.71621171581E+03  0.55072476825E+03  0.19762217724E+04  0.10100000352E+00 0.  1.
       -3    1    3    3    0  502  0.17576107337E+04  0.71621171581E+03  0.76259009361E+03  0.20454090970E+04  0.10100000352E+00 0. -1.
</event>
<event>
 5   0  0.1070988E-07  0.3809902E+04  0.7818609E-02  0.8044033E-01
        1   -1    0    0  501    0  0.00000000000E+00  0.00000000000E+00  0.13598798459E+04  0.13598798459E+04  0.50400001928E-02 0. -1.
       -1   -1    0    0    0  501  0.00000000000E+00  0.00000000000E+00 -0.26684994424E+04  0.26684994424E+04  0.50400001928E-02 0.  1.
    10030    2    1    2    0    0  0.00000000000E+00  0.00000000000E+00 -0.13086195965E+04  0.40283792884E+04  0.38099021566E+04 0.  0.
        5    1    3    3  502    0  0.10061807891E+04 -0.13250314653E+04 -0.16352545354E+04  0.23328496844E+04  0.46999998093E+01 0.  1.
       -5    1    3    3    0  502 -0.10061807891E+04  0.13250314653E+04  0.32663493894E+03  0.16955296039E+04  0.46999998093E+01 0. -1.
</event>
<event>
 5   0  0.1084315E-07  0.3803610E+04  0.7818609E-02  0.8045381E-01
        1   -1    0    0  501    0  0.00000000000E+00  0.00000000000E+00  0.12990484701E+04  0.12990484701E+04  0.50400001928E-02 0. -1.
       -1   -1    0    0    0  501  0.00000000000E+00  0.00000000000E+00 -0.27842395592E+04  0.27842395593E+04  0.50400001928E-02 0.  1.
    10030    2    1    2    0    0  0.00000000000E+00  0.00000000000E+00 -0.14851910891E+04  0.40832880294E+04  0.38036099379E+04 0.  0.
        4    1    3    3  502    0 -0.17990902281E+04  0.16462140810E+03 -0.10473943311E+03  0.18096402457E+04  0.12699999809E+01 0. -1.
       -4    1    3    3    0  502  0.17990902281E+04 -0.16462140810E+03 -0.13804516560E+04  0.22736477837E+04  0.12699999809E+01 0.  1.
</event>
<event>
 5   0  0.3327241E-07  0.4137128E+04  0.7818609E-02  0.7977441E-01
       -2   -1    0    0    0  501  0.00000000000E+00  0.00000000000E+00  0.21960461435E+04  0.21960461435E+04  0.25500000920E-02 0.  1.
        2   -1    0    0  501    0  0.00000000000E+00  0.00000000000E+00 -0.19484819423E+04  0.19484819423E+04  0.25500000920E-02 0. -1.
    10030    2    1    2    0    0  0.00000000000E+00  0.00000000000E+00  0.24756420125E+03  0.41445280858E+04  0.41371276292E+04 0.  0.
        3    1    3    3  502    0 -0.10371251764E+04 -0.13271504944E+04  0.13267628415E+04  0.21441214318E+04  0.10100000352E+00 0.  1.
       -3    1    3    3    0  502  0.10371251764E+04  0.13271504944E+04 -0.10791986403E+04  0.20004066541E+04  0.10100000352E+00 0. -1.
</event>
<event>
 5   0  0.3442126E-07  0.3706930E+04  0.7818609E-02  0.8066428E-01
        2   -1    0    0  501    0  0.00000000000E+00  0.00000000000E+00  0.21259680428E+04  0.21259680428E+04  0.25500000920E-02 0.  1.
       -2   -1    0    0    0  501  0.00000000000E+00  0.00000000000E+00 -0.16158907375E+04  0.16158907376E+04  0.25500000920E-02 0. -1.
    10030    2    1    2    0    0  0.00000000000E+00  0.00000000000E+00  0.51007730530E+03  0.37418587804E+04  0.37069297640E+04 0.  0.
        2    1    3    3  502    0 -0.15876327800E+04  0.22888894634E+03  0.11924244380E+04  0.19987105929E+04  0.25500000920E-02 0.  1.
       -2    1    3    3    0  502  0.15876327800E+04 -0.22888894634E+03 -0.68234713275E+03  0.17431481875E+04  0.25500000920E-02 0. -1.
</event>
<event>
 5   0  0.3509843E-07  0.3785526E+04  0.7818609E-02  0.8049268E-01
       -2   -1    0    0    0  501  0.00000000000E+00  0.00000000000E+00  0.17406836352E+04  0.17406836352E+04  0.25500000920E-02 0. -1.
        2   -1    0    0  501    0  0.00000000000E+00  0.00000000000E+00 -0.20581286589E+04  0.20581286589E+04  0.25500000920E-02 0.  1.
    10030    2    1    2    0    0  0.00000000000E+00  0.00000000000E+00 -0.31744502369E+03  0.37988122940E+04  0.37855255252E+04 0.  0.
        4    1    3    3  502    0  0.20409862069E+03  0.15802157817E+03  0.17229380561E+04  0.17421665318E+04  0.12699999809E+01 0. -1.
       -4    1    3    3    0  502 -0.20409862069E+03 -0.15802157817E+03 -0.20403830798E+04  0.20566457623E+04  0.12699999809E+01 0.  1.
</event>
<event>
 5   0  0.1070988E-07  0.3803564E+04  0.7818609E-02  0.8045390E-01
       -1   -1    0    0    0  501  0.00000000000E+00  0.00000000000E+00  0.24044670842E+04  0.24044670842E+04  0.50400001928E-02 0.  1.
        1   -1    0    0  501    0  0.00000000000E+00  0.00000000000E+00 -0.15041900006E+04  0.15041900006E+04  0.50400001928E-02 0. -1.
    10030    2    1    2    0    0  0.00000000000E+00  0.00000000000E+00  0.90027708361E+03  0.39086570848E+04  0.38035642993E+04 0.  0.
        2    1    3    3  502    0  0.15996132946E+04 -0.67589623250E+03  0.12469176958E+04  0.21378498894E+04  0.25500000920E-02 0.  1.
       -2    1    3    3    0  502 -0.15996132946E+04  0.67589623250E+03 -0.34664061219E+03  0.17708071954E+04  0.25500000920E-02 0. -1.
</event>
<event>
 5   0  0.3327241E-07  0.3905966E+04  0.7818609E-02  0.8023790E-01
       -2   -1    0    0    0  501  0.00000000000E+00  0.00000000000E+00  0.14084215054E+04  0.14084215054E+04  0.25500000920E-02 0. -1.
        2   -1    0    0  501    0  0.00000000000E+00  0.00000000000E+00 -0.27080970769E+04  0.27080970769E+04  0.25500000920E-02 0.  1.
    10030    2    1    2    0    0  0.00000000000E+00  0.00000000000E+00 -0.12996755715E+04  0.41165185823E+04  0.39059657765E+04 0.  0.
        3    1    3    3  502    0 -0.13089188785E+04 -0.12510182762E+04 -0.14212985792E+04  0.23018264530E+04  0.10100000352E+00 0.  1.
       -3    1    3    3    0  502  0.13089188785E+04  0.12510182762E+04  0.12162300768E+03  0.18146921293E+04  0.10100000352E+00 0. -1.
</event>
<event>
 5   0  0.3442126E-07  0.3805222E+04  0.7818609E-02  0.8045035E-01
        2   -1    0    0  501    0  0.00000000000E+00  0.00000000000E+00  0.24438836158E+04  0.24438836158E+04  0.25500000920E-02 0.  1.
       -2   -1    0    0    0  501  0.00000000000E+00  0.00000000000E+00 -0.14812195822E+04  0.14812195822E+04  0.25500000920E-02 0. -1.
    10030    2    1    2    0    0  0.00000000000E+00  0.00000000000E+00  0.96266403360E+03  0.39251031979E+04  0.38052218165E+04 0.  0.
        2    1    3    3  502    0  0.81907084189E+03  0.18584787848E+03  0.22423103392E+04  0.23944461020E+04  0.25500000920E-02 0.  1.
       -2    1    3    3    0  502 -0.81907084189E+03 -0.18584787848E+03 -0.12796463056E+04  0.15306570959E+04  0.25500000920E-02 0. -1.
</event>
<event>
 5   0  0.1085771E-07  0.3772145E+04  0.7818609E-02  0.8052159E-01
       -1   -1    0    0    0  501  0.00000000000E+00  0.00000000000E+00  0.14784360734E+04  0.14784360734E+04  0.50400001928E-02 0. -1.
        1   -1    0    0  501    0  0.00000000000E+00  0.00000000000E+00 -0.24061036307E+04  0.24061036307E+04  0.50400001928E-02 0.  1.
    10030    2    1    2    0    0  0.00000000000E+00  0.00000000000E+00 -0.92766755732E+03  0.38845397042E+04  0.37721454925E+04 0.  0.
        1    1    3    3  502    0  0.83913994103E+03  0.10876275326E+04 -0.17946953585E+04  0.22600931220E+04  0.50400001928E-02 0.  1.
       -1    1    3    3    0  502 -0.83913994103E+03 -0.10876275326E+04  0.86702780120E+03  0.16244465822E+04  0.50400001928E-02 0. -1.
</event>
<event>
 5   0  0.1070988E-07  0.3903189E+04  0.7818609E-02  0.8024366E-01
        1   -1    0    0  501    0  0.00000000000E+00  0.00000000000E+00  0.18764092364E+04  0.18764092364E+04  0.50400001928E-02 0.  1.
       -1   -1    0    0    0  501  0.00000000000E+00  0.00000000000E+00 -0.20297926398E+04  0.20297926399E+04  0.50400001928E-02 0. -1.
    10030    2    1    2    0    0  0.00000000000E+00  0.00000000000E+00 -0.15338340342E+03  0.39062018763E+04  0.39031892895E+04 0.  0.
        5    1    3    3  502    0  0.99790712782E+03 -0.10504764654E+04  0.12317500574E+04  0.19017228331E+04  0.46999998093E+01 0.  1.
       -5    1    3    3    0  502 -0.99790712782E+03  0.10504764654E+04 -0.13851334608E+04  0.20044790432E+04  0.46999998093E+01 0. -1.
</event>
<event>
 5   0  0.1084315E-07  0.3718740E+04  0.7818609E-02  0.8063822E-01
        1   -1    0    0  501    0  0.00000000000E+00  0.00000000000E+00  0.22128168635E+04  0.22128168635E+04  0.50400001928E-02 0. -1.
       -1   -1    0    0    0  501  0.00000000000E+00  0.00000000000E+00 -0.15623778089E+04  0.15623778089E+04  0.50400001928E-02 0.  1.
    10030    2    1    2    0    0  0.00000000000E+00  0.00000000000E+00  0.65043905466E+03  0.37751946724E+04  0.37187395514E+04 0.  0.
        4    1    3    3  502    0  0.12992683294E+04  0.35196015603E+03 -0.97693799802E+03  0.16632449032E+04  0.12699999809E+01 0.  1.
       -4    1    3    3    0  502 -0.12992683294E+04 -0.35196015603E+03  0.16273770527E+04  0.21119497692E+04  0.12699999809E+01 0. -1.
</event>
<event>
 5   0  0.1070988E-07  0.3800374E+04  0.7818609E-02  0.8046075E-01
        1   -1    0    0  501    0  0.00000000000E+00  0.00000000000E+00  0.29242088258E+04  0.29242088258E+04  0.50400001928E-02 0. -1.
       -1   -1    0    0    0  501  0.00000000000E+00  0.00000000000E+00 -0.12347648911E+04  0.12347648911E+04  0.50400001928E-02 0.  1.
    10030    2    1    2    0    0  0.00000000000E+00  0.00000000000E+00  0.16894439347E+04  0.41589737170E+04  0.38003738724E+04 0.  0.
        3    1    3    3  502    0  0.97005488352E+03  0.11357606900E+04 -0.44074315911E+03  0.15573096559E+04  0.10100000352E+00 0.  1.
       -3    1    3    3    0  502 -0.97005488352E+03 -0.11357606900E+04  0.21301870938E+04  0.26016640611E+04  0.10100000352E+00 0. -1.
</event>
<event>
 5   0  0.3327241E-07  0.3137827E+04  0.7818609E-02  0.8205433E-01
       -2   -1    0    0    0  501  0.00000000000E+00  0.00000000000E+00  0.17382398190E+04  0.17382398190E+04  0.25500000920E-02 0. -1.
        2   -1    0    0  501    0  0.00000000000E+00  0.00000000000E+00 -0.14160820656E+04  0.14160820656E+04  0.25500000920E-02 0.  1.
    10030    2    1    2    0    0  0.00000000000E+00  0.00000000000E+00  0.32215775340E+03  0.31543218846E+04  0.31378274225E+04 0.  0.
        3    1    3    3  502    0  0.48877395976E+02 -0.15671410572E+04  0.21767875582E+03  0.15829416110E+04  0.10100000352E+00 0.  1.
       -3    1    3    3    0  502 -0.48877395976E+02  0.15671410572E+04  0.10447899758E+03  0.15713802735E+04  0.10100000352E+00 0. -1.
</event>
<event>
 5   0  0.1084315E-07  0.3756538E+04  0.7818609E-02  0.8055547E-01
        1   -1    0    0  501    0  0.00000000000E+00  0.00000000000E+00  0.22169715486E+04  0.22169715486E+04  0.50400001928E-02 0. -1.
       -1   -1    0    0    0  501  0.00000000000E+00  0.00000000000E+00 -0.15913123398E+04  0.15913123398E+04  0.50400001928E-02 0.  1.
    10030    2    1    2    0    0  0.00000000000E+00  0.00000000000E+00  0.62565920880E+03  0.38082838885E+04  0.37565378648E+04 0.  0.
        4    1    3    3  502    0 -0.17442318364E+04  0.22865330218E+03  0.98012575242E+03  0.20137713711E+04  0.12699999809E+01 0. -1.
       -4    1    3    3    0  502  0.17442318364E+04 -0.22865330218E+03 -0.35446654363E+03  0.17945125174E+04  0.12699999809E+01 0.  1.
</event>
<event>
 5   0  0.3539010E-07  0.3814191E+04  0.7818609E-02  0.8043116E-01
       -2   -1    0    0    0  501  0.00000000000E+00  0.00000000000E+00  0.16834152317E+04  0.16834152317E+04  0.25500000920E-02 0.  1.
        2   -1    0    0  501    0  0.00000000000E+00  0.00000000000E+00 -0.21604966862E+04  0.21604966862E+04  0.25500000920E-02 0. -1.
    10030    2    1    2    0    0  0.00000000000E+00  0.00000000000E+00 -0.47708145449E+03  0.38439119178E+04  0.38141908864E+04 0.  0.
        1    1    3    3  502    0 -0.81192470097E+03 -0.68665036783E+02  0.14991562259E+04  0.17062842662E+04  0.50400001928E-02 0.  1.
       -1    1    3    3    0  502  0.81192470097E+03  0.68665036783E+02 -0.19762376804E+04  0.21376276516E+04  0.50400001928E-02 0. -1.
</event>
<event>
 5   0  0.1070988E-07  0.3741106E+04  0.7818609E-02  0.8058913E-01
       -1   -1    0    0    0  501  0.00000000000E+00  0.00000000000E+00  0.15626226862E+04  0.15626226862E+04  0.50400001928E-02 0.  1.
        1   -1    0    0  501    0  0.00000000000E+00  0.00000000000E+00 -0.22391643821E+04  0.22391643821E+04  0.50400001928E-02 0. -1.
    10030    2    1    2    0    0  0.00000000000E+00  0.00000000000E+00 -0.67654169583E+03  0.38017870683E+04  0.37411062865E+04 0.  0.
        2    1    3    3  502    0  0.15451495819E+04  0.46785708698E+03  0.62182398965E+03  0.17300412013E+04  0.25500000920E-02 0.  1.
       -2    1    3    3    0  502 -0.15451495819E+04 -0.46785708698E+03 -0.12983656855E+04  0.20717458670E+04  0.25500000920E-02 0. -1.
</event>
<event>
 5   0  0.1070988E-07  0.3639253E+04  0.7818609E-02  0.8081559E-01
        1   -1    0    0  501    0  0.00000000000E+00  0.00000000000E+00  0.18325988301E+04  0.18325988301E+04  0.50400001928E-02 0.  1.
       -1   -1    0    0    0  501  0.00000000000E+00  0.00000000000E+00 -0.18067457020E+04  0.18067457020E+04  0.50400001928E-02 0. -1.
    10030    2    1    2    0    0  0.00000000000E+00  0.00000000000E+00  0.25853128113E+02  0.36393445321E+04  0.36392527034E+04 0.  0.
        5    1    3    3  502    0  0.44613950613E+03  0.56530769560E+03 -0.16581645892E+04  0.18078011906E+04  0.46999998093E+01 0. -1.
       -5    1    3    3    0  502 -0.44613950613E+03 -0.56530769560E+03  0.16840177173E+04  0.18315433415E+04  0.46999998093E+01 0.  1.
</event>
<event>
 5   0  0.3539010E-07  0.3806128E+04  0.7818609E-02  0.8044841E-01
        2   -1    0    0  501    0  0.00000000000E+00  0.00000000000E+00  0.22224122131E+04  0.22224122131E+04  0.25500000920E-02 0. -1.
       -2   -1    0    0    0  501  0.00000000000E+00  0.00000000000E+00 -0.16296039221E+04  0.16296039221E+04  0.25500000920E-02 0.  1.
    10030    2    1    2    0    0  0.00000000000E+00  0.00000000000E+00  0.59280829099E+03  0.38520161353E+04  0.38061275118E+04 0.  0.
        1    1    3    3  502    0  0.17646024703E+04 -0.48285762310E+03  0.82682053715E+03  0.20076368105E+04  0.50400001928E-02 0. -1.
       -1    1    3    3    0  502 -0.17646024703E+04  0.48285762310E+03 -0.23401224616E+03  0.18443793248E+04  0.50400001928E-02 0.  1.
</event>
<event>
 5   0  0.1084315E-07  0.3428622E+04  0.7818609E-02  0.8130917E-01
        1   -1    0    0  501    0  0.00000000000E+00  0.00000000000E+00  0.17868353818E+04  0.17868353818E+04  0.50400001928E-02 0. -1.
       -1   -1    0    0    0  501  0.00000000000E+00  0.00000000000E+00 -0.16447305657E+04  0.16447305657E+04  0.50400001928E-02 0.  1.
    10030    2    1    2    0    0  0.00000000000E+00  0.00000000000E+00  0.14210481616E+03  0.34315659475E+04  0.34286223288E+04 0.  0.
        4    1    3    3  502    0 -0.39480081291E+03 -0.49455424563E+03  0.16656589768E+04  0.17818173373E+04  0.12699999809E+01 0. -1.
       -4    1    3    3    0  502  0.39480081291E+03  0.49455424563E+03 -0.15235541606E+04  0.16497486102E+04  0.12699999809E+01 0.  1.
</event>
<event>
 5   0  0.3442126E-07  0.3810615E+04  0.7818609E-02  0.8043881E-01
        2   -1    0    0  501    0  0.00000000000E+00  0.00000000000E+00  0.16249336203E+04  0.16249336203E+04  0.25500000920E-02 0. -1.
       -2   -1    0    0    0  501  0.00000000000E+00  0.00000000000E+00 -0.22340580152E+04  0.22340580152E+04  0.25500000920E-02 0.  1.
    10030    2    1    2    0    0  0.00000000000E+00  0.00000000000E+00 -0.60912439493E+03  0.38589916355E+04  0.38106146373E+04 0.  0.
        2    1    3    3  502    0  0.53050420346E+03  0.18029959956E+04 -0.62153212791E+03  0.19795280892E+04  0.25500000920E-02 0.  1.
       -2    1    3    3    0  502 -0.53050420346E+03 -0.18029959956E+04  0.12407732975E+02  0.18794635463E+04  0.25500000920E-02 0. -1.
</event>
<event>
 5   0  0.1070988E-07  0.3817055E+04  0.7818609E-02  0.8042505E-01
       -1   -1    0    0    0  501  0.00000000000E+00  0.00000000000E+00  0.21734640829E+04  0.21734640830E+04  0.50400001928E-02 0. -1.
        1   -1    0    0  501    0  0.00000000000E+00  0.00000000000E+00 -0.16758857357E+04  0.16758857357E+04  0.50400001928E-02 0.  1.
    10030    2    1    2    0    0  0.00000000000E+00  0.00000000000E+00  0.49757834726E+03  0.38493498186E+04  0.38170551233E+04 0.  0.
        5    1    3    3  502    0 -0.11536877302E+04  0.14895251828E+04  0.55595561206E+03  0.19643801520E+04  0.46999998093E+01 0.  1.
       -5    1    3    3    0  502  0.11536877302E+04 -0.14895251828E+04 -0.58377264801E+02  0.18849696666E+04  0.46999998093E+01 0. -1.
</event>
<event>
 5   0  0.3327241E-07  0.3770646E+04  0.7818609E-02  0.8052484E-01
        2   -1    0    0  501    0  0.00000000000E+00  0.00000000000E+00  0.12631881489E+04  0.12631881489E+04  0.25500000920E-02 0.  1.
       -2   -1    0    0    0  501  0.00000000000E+00  0.00000000000E+00 -0.28138662377E+04  0.28138662377E+04  0.25500000920E-02 0. -1.
    10030    2    1    2    0    0  0.00000000000E+00  0.00000000000E+00 -0.15506780887E+04  0.40770543866E+04  0.37706458249E+04 0.  0.
        3    1    3    3  502    0  0.13703481813E+03  0.17033574126E+04 -0.16364452270E+04  0.23660426893E+04  0.10100000352E+00 0. -1.
       -3    1    3    3    0  502 -0.13703481813E+03 -0.17033574126E+04  0.85767138223E+02  0.17110116974E+04  0.10100000352E+00 0.  1.
</event>
<event>
 5   0  0.1070988E-07  0.3782377E+04  0.7818609E-02  0.8049947E-01
       -1   -1    0    0    0  501  0.00000000000E+00  0.00000000000E+00  0.10903173213E+04  0.10903173213E+04  0.50400001928E-02 0.  1.
        1   -1    0    0  501    0  0.00000000000E+00  0.00000000000E+00 -0.32803237732E+04  0.32803237733E+04  0.50400001928E-02 0. -1.
    10030    2    1    2    0    0  0.00000000000E+00  0.00000000000E+00 -0.21900064519E+04  0.43706410946E+04  0.37823769403E+04 0.  0.
        2    1    3    3  502    0  0.16018280377E+04  0.82561407229E+03 -0.17578997035E+04  0.25174794987E+04  0.25500000920E-02 0. -1.
       -2    1    3    3    0  502 -0.16018280377E+04 -0.82561407229E+03 -0.43210674843E+03  0.18531615959E+04  0.25500000920E-02 0.  1.
</event>
<event>
 5   0  0.3442126E-07  0.3834467E+04  0.7818609E-02  0.8038799E-01
       -2   -1    0    0    0  501  0.00000000000E+00  0.00000000000E+00  0.14023763935E+04  0.14023763935E+04  0.25500000920E-02 0. -1.
        2   -1    0    0  501    0  0.00000000000E+00  0.00000000000E+00 -0.26211110062E+04  0.26211110062E+04  0.25500000920E-02 0.  1.
    10030    2    1    2    0    0  0.00000000000E+00  0.00000000000E+00 -0.12187346127E+04  0.40234873998E+04  0.38344669512E+04 0.  0.
        2    1    3    3  502    0  0.99348912474E+03  0.12360684310E+04  0.52119565049E+03  0.16692904820E+04  0.25500000920E-02 0. -1.
       -2    1    3    3    0  502 -0.99348912474E+03 -0.12360684310E+04 -0.17399302632E+04  0.23541969178E+04  0.25500000920E-02 0.  1.
</event>
<event>
 5   0  0.3539010E-07  0.3773462E+04  0.7818609E-02  0.8051874E-01
        2   -1    0    0  501    0  0.00000000000E+00  0.00000000000E+00  0.25048742936E+04  0.25048742936E+04  0.25500000920E-02 0.  1.
       -2   -1    0    0    0  501  0.00000000000E+00  0.00000000000E+00 -0.14211303799E+04  0.14211303799E+04  0.25500000920E-02 0. -1.
    10030    2    1    2    0    0  0.00000000000E+00  0.00000000000E+00  0.10837439138E+04  0.39260046735E+04  0.37734615177E+04 0.  0.
        1    1    3    3  502    0  0.15525569219E+04 -0.92526318480E+03  0.11052485438E+04  0.21185181851E+04  0.50400001928E-02 0.  1.
       -1    1    3    3    0  502 -0.15525569219E+04  0.92526318480E+03 -0.21504629996E+02  0.18074864885E+04  0.50400001928E-02 0. -1.
</event>
<event>
 5   0  0.1070988E-07  0.3687461E+04  0.7818609E-02  0.8070746E-01
        1   -1    0    0  501    0  0.00000000000E+00  0.00000000000E+00  0.15676789029E+04  0.15676789029E+04  0.50400001928E-02 0.  1.
       -1   -1    0    0    0  501  0.00000000000E+00  0.00000000000E+00 -0.21683921681E+04  0.21683921681E+04  0.50400001928E-02 0. -1.
    10030    2    1    2    0    0  0.00000000000E+00  0.00000000000E+00 -0.60071326515E+03  0.37360710710E+04  0.36874612704E+04 0.  0.
        3    1    3    3  502    0  0.17442300770E+04  0.58433343039E+03 -0.17397851566E+03  0.18477155229E+04  0.10100000352E+00 0.  1.
       -3    1    3    3    0  502 -0.17442300770E+04 -0.58433343039E+03 -0.42673474949E+03  0.18883555481E+04  0.10100000352E+00 0. -1.
</event>
<event>
 5   0  0.1084315E-07  0.3792964E+04  0.7818609E-02  0.8047666E-01
       -1   -1    0    0    0  501  0.00000000000E+00  0.00000000000E+00  0.13638602252E+04  0.13638602252E+04  0.50400001928E-02 0.  1.
        1   -1    0    0  501    0  0.00000000000E+00  0.00000000000E+00 -0.26371063072E+04  0.26371063072E+04  0.50400001928E-02 0. -1.
    10030    2    1    2    0    0  0.00000000000E+00  0.00000000000E+00 -0.12732460819E+04  0.40009665324E+04  0.37929642245E+04 0.  0.
        4    1    3    3  502    0 -0.15714167347E+04  0.86180383958E+03  0.17535657150E+02  0.17923073186E+04  0.12699999809E+01 0.  1.
       -4    1    3    3    0  502  0.15714167347E+04 -0.86180383958E+03 -0.12907817391E+04  0.22086592138E+04  0.12699999809E+01 0. -1.
</event>
<event>
 5   0  0.3442126E-07  0.3812183E+04  0.7818609E-02  0.8043545E-01
       -2   -1    0    0    0  501  0.00000000000E+00  0.00000000000E+00  0.14477761322E+04  0.14477761322E+04  0.25500000920E-02 0.  1.
        2   -1    0    0  501    0  0.00000000000E+00  0.00000000000E+00 -0.25094937537E+04  0.25094937537E+04  0.25500000920E-02 0. -1.
    10030    2    1    2    0    0  0.00000000000E+00  0.00000000000E+00 -0.10617176215E+04  0.39572698860E+04  0.38121831859E+04 0.  0.
        2    1    3    3  502    0 -0.15314395406E+04  0.75210298601E+03 -0.14130372136E+04  0.22153194206E+04  0.25500000920E-02 0. -1.
       -2    1    3    3    0  502  0.15314395406E+04 -0.75210298601E+03  0.35131959210E+03  0.17419504654E+04  0.25500000920E-02 0.  1.
</event>
<event>
 5   0  0.3509843E-07  0.3765538E+04  0.7818609E-02  0.8053591E-01
       -2   -1    0    0    0  501  0.00000000000E+00  0.00000000000E+00  0.28300007156E+04  0.28300007156E+04  0.25500000920E-02 0. -1.
        2   -1    0    0  501    0  0.00000000000E+00  0.00000000000E+00 -0.12525860117E+04  0.12525860117E+04  0.25500000920E-02 0.  1.
    10030    2    1    2    0    0  0.00000000000E+00  0.00000000000E+00  0.15774147038E+04  0.40825867273E+04  0.37655381074E+04 0.  0.
        4    1    3    3  502    0  0.14245274694E+04 -0.72032597488E+03 -0.29368320476E+03  0.16230833185E+04  0.12699999809E+01 0.  1.
       -4    1    3    3    0  502 -0.14245274694E+04  0.72032597488E+03  0.18710979086E+04  0.24595034088E+04  0.12699999809E+01 0. -1.
</event>
<event>
 5   0  0.3327241E-07  0.3805937E+04  0.7818609E-02  0.8044882E-01
        2   -1    0    0  501    0  0.00000000000E+00  0.00000000000E+00  0.23491140534E+04  0.23491140534E+04  0.25500000920E-02 0. -1.
       -2   -1    0    0    0  501  0.00000000000E+00  0.00000000000E+00 -0.15415555465E+04  0.15415555465E+04  0.25500000920E-02 0.  1.
    10030    2    1    2    0    0  0.00000000000E+00  0.00000000000E+00  0.80755850688E+03  0.38906695999E+04  0.38059373607E+04 0.  0.
        3    1    3    3  502    0 -0.66798511793E+03  0.30188224029E+03 -0.13914361892E+04  0.15727147496E+04  0.10100000352E+00 0.  1.
       -3    1    3    3    0  502  0.66798511793E+03 -0.30188224029E+03  0.21989946960E+04  0.23179548503E+04  0.10100000352E+00 0. -1.
</event>
<event>
 5   0  0.3377396E-07  0.3835900E+04  0.7818609E-02  0.8038494E-01
       -2   -1    0    0    0  501  0.00000000000E+00  0.00000000000E+00  0.15904119606E+04  0.15904119606E+04  0.25500000920E-02 0.  1.
        2   -1    0    0  501    0  0.00000000000E+00  0.00000000000E+00 -0.23129430550E+04  0.23129430550E+04  0.25500000920E-02 0. -1.
    10030    2    1    2    0    0  0.00000000000E+00  0.00000000000E+00 -0.72253109441E+03  0.39033550156E+04  0.38359000502E+04 0.  0.
        5    1    3    3  502    0  0.19038698274E+04  0.22828000413E+03 -0.31958020287E+03  0.19439613361E+04  0.46999998093E+01 0. -1.
       -5    1    3    3    0  502 -0.19038698274E+04 -0.22828000413E+03 -0.40295089154E+03  0.19593936795E+04  0.46999998093E+01 0.  1.
</event>
<event>
 5   0  0.1084315E-07  0.3815810E+04  0.7818609E-02  0.8042771E-01
        1   -1    0    0  501    0  0.00000000000E+00  0.00000000000E+00  0.20713957467E+04  0.20713957467E+04  0.50400001928E-02 0. -1.
       -1   -1    0    0    0  501  0.00000000000E+00  0.00000000000E+00 -0.17573185828E+04  0.17573185828E+04  0.50400001928E-02 0.  1.
    10030    2    1    2    0    0  0.00000000000E+00  0.00000000000E+00  0.31407716390E+03  0.38287143295E+04  0.38158103926E+04 0.  0.
        4    1    3    3  502    0 -0.14227630510E+04 -0.12233056464E+04  0.50370546652E+03  0.19427949490E+04  0.12699999809E+01 0. -1.
       -4    1    3    3    0  502  0.14227630510E+04  0.12233056464E+04 -0.18962830262E+03  0.18859193805E+04  0.12699999809E+01 0.  1.
</event>
<event>
 5   0  0.1070988E-07  0.3687154E+04  0.7818609E-02  0.8070815E-01
        1   -1    0    0  501    0  0.00000000000E+00  0.00000000000E+00  0.22769370830E+04  0.22769370830E+04  0.50400001928E-02 0. -1.
       -1   -1    0    0    0  501  0.00000000000E+00  0.00000000000E+00 -0.14926967289E+04  0.14926967289E+04  0.50400001928E-02 0.  1.
    10030    2    1    2    0    0  0.00000000000E+00  0.00000000000E+00  0.78424035409E+03  0.37696338119E+04  0.36871542066E+04 0.  0.
        5    1    3    3  502    0 -0.67192904327E+03  0.13130989467E+04  0.15227687896E+04  0.21200387637E+04  0.46999998093E+01 0. -1.
       -5    1    3    3    0  502  0.67192904327E+03 -0.13130989467E+04 -0.73852843550E+03  0.16495950482E+04  0.46999998093E+01 0.  1.
</event>
<event>
 5   0  0.1085771E-07  0.3839414E+04  0.7818609E-02  0.8037749E-01
       -1   -1    0    0    0  501  0.00000000000E+00  0.00000000000E+00  0.29055739767E+04  0.29055739767E+04  0.50400001928E-02 0. -1.
        1   -1    0    0  501    0  0.00000000000E+00  0.00000000000E+00 -0.12683465100E+04  0.12683465100E+04  0.50400001928E-02 0.  1.
    10030    2    1    2    0    0  0.00000000000E+00  0.00000000000E+00  0.16372274666E+04  0.41739204867E+04  0.38394138162E+04 0.  0.
        1    1    3    3  502    0  0.41680057172E+03  0.22175483039E+03  0.28414764307E+04  0.28804316044E+04  0.50400001928E-02 0. -1.
       -1    1    3    3    0  502 -0.41680057172E+03 -0.22175483039E+03 -0.12042489640E+04  0.12934888823E+04  0.50400001928E-02 0.  1.
</event>
<event>
 5   0  0.3509843E-07  0.3763837E+04  0.7818609E-02  0.8053960E-01
        2   -1    0    0  501    0  0.00000000000E+00  0.00000000000E+00  0.22873837104E+04  0.22873837104E+04  0.25500000920E-02 0. -1.
       -2   -1    0    0    0  501  0.00000000000E+00  0.00000000000E+00 -0.15483270018E+04  0.15483270018E+04  0.25500000920E-02 0.  1.
    10030    2    1    2    0    0  0.00000000000E+00  0.00000000000E+00  0.73905670855E+03  0.38357107122E+04  0.37638373834E+04 0.  0.
        4    1    3    3  502    0  0.10735759567E+04 -0.14035955882E+04  0.10291679018E+04  0.20449533229E+04  0.12699999809E+01 0. -1.
       -4    1    3    3    0  502 -0.10735759567E+04  0.14035955882E+04 -0.29011119321E+03  0.17907573893E+04  0.12699999809E+01 0.  1.
</event>
<event>
 5   0  0.3509843E-07  0.3784289E+04  0.7818609E-02  0.8049535E-01
        2   -1    0    0  501    0  0.00000000000E+00  0.00000000000E+00  0.21970569269E+04  0.21970569269E+04  0.25500000920E-02 0. -1.
       -2   -1    0    0    0  501  0.00000000000E+00  0.00000000000E+00 -0.16295486575E+04  0.16295486575E+04  0.25500000920E-02 0.  1.
    10030    2    1    2    0    0  0.00000000000E+00  0.00000000000E+00  0.56750826937E+03  0.38266055845E+04  0.37842891886E+04 0.  0.
        4    1    3    3  502    0  0.89567544868E+03  0.10299783492E+04 -0.10412879198E+04  0.17167912086E+04  0.12699999809E+01 0.  1.
       -4    1    3    3    0  502 -0.89567544868E+03 -0.10299783492E+04  0.16087961892E+04  0.21098143758E+04  0.12699999809E+01 0. -1.
</event>
<event>
 5   0  0.3442126E-07  0.3788798E+04  0.7818609E-02  0.8048563E-01
        2   -1    0    0  501    0  0.00000000000E+00  0.00000000000E+00  0.30343284058E+04  0.30343284058E+04  0.25500000920E-02 0.  1.
       -2   -1    0    0    0  501  0.00000000000E+00  0.00000000000E+00 -0.11827157866E+04  0.11827157866E+04  0.25500000920E-02 0. -1.
    10030    2    1    2    0    0  0.00000000000E+00  0.00000000000E+00  0.18516126192E+04  0.42170441925E+04  0.37887982831E+04 0.  0.
        2    1    3    3  502    0  0.72263477937E+03 -0.12514182765E+04  0.22892103558E+04  0.27071632349E+04  0.25500000920E-02 0.  1.
       -2    1    3    3    0  502 -0.72263477937E+03  0.12514182765E+04 -0.43759773659E+03  0.15098809576E+04  0.25500000920E-02 0. -1.
</event>
<event>
 5   0  0.1070988E-07  0.3793772E+04  0.7818609E-02  0.8047493E-01
       -1   -1    0    0    0  501  0.00000000000E+00  0.00000000000E+00  0.15046888032E+04  0.15046888032E+04  0.50400001928E-02 0. -1.
        1   -1    0    0  501    0  0.00000000000E+00  0.00000000000E+00 -0.23913096375E+04  0.23913096375E+04  0.50400001928E-02 0.  1.
    10030    2    1    2    0    0  0.00000000000E+00  0.00000000000E+00 -0.88662083434E+03  0.38959984408E+04  0.37937721790E+04 0.  0.
        2    1    3    3  502    0 -0.45146523128E+03  0.13754719554E+04  0.81545576559E+03  0.16615390638E+04  0.25500000920E-02 0. -1.
       -2    1    3    3    0  502  0.45146523128E+03 -0.13754719554E+04 -0.17020765999E+04  0.22344593769E+04  0.25500000920E-02 0.  1.
</event>
<event>
 5   0  0.1070988E-07  0.3802759E+04  0.7818609E-02  0.8045563E-01
       -1   -1    0    0    0  501  0.00000000000E+00  0.00000000000E+00  0.19245720210E+04  0.19245720210E+04  0.50400001928E-02 0. -1.
        1   -1    0    0  501    0  0.00000000000E+00  0.00000000000E+00 -0.18784661341E+04  0.18784661341E+04  0.50400001928E-02 0.  1.
    10030    2    1    2    0    0  0.00000000000E+00  0.00000000000E+00  0.46105886952E+02  0.38030381551E+04  0.38027586640E+04 0.  0.
        3    1    3    3  502    0  0.18760799611E+02  0.60529703136E+03  0.18255468875E+04  0.19233714962E+04  0.10100000352E+00 0. -1.
       -3    1    3    3    0  502 -0.18760799611E+02 -0.60529703136E+03 -0.17794410006E+04  0.18796666589E+04  0.10100000352E+00 0.  1.
</event>
<event>
 5   0  0.3377396E-07  0.3752243E+04  0.7818609E-02  0.8056482E-01
        2   -1    0    0  501    0  0.00000000000E+00  0.00000000000E+00  0.21053712056E+04  0.21053712056E+04  0.25500000920E-02 0.  1.
       -2   -1    0    0    0  501  0.00000000000E+00  0.00000000000E+00 -0.16718340168E+04  0.16718340168E+04  0.25500000920E-02 0. -1.
    10030    2    1    2    0    0  0.00000000000E+00  0.00000000000E+00  0.43353718880E+03  0.37772052224E+04  0.37522426358E+04 0.  0.
        5    1    3    3  502    0  0.10148848329E+04  0.24396293029E+03 -0.13525445367E+04  0.17084811820E+04  0.46999998093E+01 0. -1.
       -5    1    3    3    0  502 -0.10148848329E+04 -0.24396293029E+03  0.17860817255E+04  0.20687240404E+04  0.46999998093E+01 0.  1.
</event>
<event>
 5   0  0.3539010E-07  0.3723529E+04  0.7818609E-02  0.8062767E-01
       -2   -1    0    0    0  501  0.00000000000E+00  0.00000000000E+00  0.17374542632E+04  0.17374542632E+04  0.25500000920E-02 0.  1.
        2   -1    0    0  501    0  0.00000000000E+00  0.00000000000E+00 -0.19949687760E+04  0.19949687760E+04  0.25500000920E-02 0. -1.
    10030    2    1    2    0    0  0.00000000000E+00  0.00000000000E+00 -0.25751451284E+03  0.37324230392E+04  0.37235289739E+04 0.  0.
        1    1    3    3  502    0  0.17445730380E+04  0.11383239353E+03 -0.77034399886E+03  0.19104771068E+04  0.50400001928E-02 0. -1.
       -1    1    3    3    0  502 -0.17445730380E+04 -0.11383239353E+03  0.51282948602E+03  0.18219459324E+04  0.50400001928E-02 0.  1.
</event>
<event>
 5   0  0.1084315E-07  0.3767114E+04  0.7818609E-02  0.8053249E-01
       -1   -1    0    0    0  501  0.00000000000E+00  0.00000000000E+00  0.23393889231E+04  0.23393889231E+04  0.50400001928E-02 0. -1.
        1   -1    0    0  501    0  0.00000000000E+00  0.00000000000E+00 -0.15165446316E+04  0.15165446316E+04  0.50400001928E-02 0.  1.
    10030    2    1    2    0    0  0.00000000000E+00  0.00000000000E+00  0.82284429150E+03  0.38559335547E+04  0.37671143930E+04 0.  0.
        4    1    3    3  502    0  0.10668322917E+04  0.13219563663E+04  0.12442937252E+04  0.21056989957E+04  0.12699999809E+01 0. -1.
       -4    1    3    3    0  502 -0.10668322917E+04 -0.13219563663E+04 -0.42144943373E+03  0.17502345589E+04  0.12699999809E+01 0.  1.
</event>
<event>
 5   0  0.1084315E-07  0.3795627E+04  0.7818609E-02  0.8047094E-01
        1   -1    0    0  501    0  0.00000000000E+00  0.00000000000E+00  0.18253889992E+04  0.18253889992E+04  0.50400001928E-02 0. -1.
       -1   -1    0    0    0  501  0.00000000000E+00  0.00000000000E+00 -0.19731120247E+04  0.19731120247E+04  0.50400001928E-02 0.  1.
    10030    2    1    2    0    0  0.00000000000E+00  0.00000000000E+00 -0.14772302557E+03  0.37985010239E+04  0.37956274760E+04 0.  0.
        4    1    3    3  502    0 -0.18963978201E+04 -0.11940724546E+02 -0.14622184204E+03  0.19020645922E+04  0.12699999809E+01 0.  1.
       -4    1    3    3    0  502  0.18963978201E+04  0.11940724546E+02 -0.15011835209E+01  0.18964364317E+04  0.12699999809E+01 0. -1.
</event>
<event>
 5   0  0.1070988E-07  0.3807574E+04  0.7818609E-02  0.8044532E-01
       -1   -1    0    0    0  501  0.00000000000E+00  0.00000000000E+00  0.14220647947E+04  0.14220647947E+04  0.50400001928E-02 0. -1.
        1   -1    0    0  501    0  0.00000000000E+00  0.00000000000E+00 -0.25486912120E+04  0.25486912120E+04  0.50400001928E-02 0.  1.
    10030    2    1    2    0    0  0.00000000000E+00  0.00000000000E+00 -0.11266264174E+04  0.39707560067E+04  0.38075735292E+04 0.  0.
        5    1    3    3  502    0 -0.24013741899E+03  0.28373041870E+03 -0.25104742122E+04  0.25378478660E+04  0.46999998093E+01 0.  1.
       -5    1    3    3    0  502  0.24013741899E+03 -0.28373041870E+03  0.13838477949E+04  0.14329081408E+04  0.46999998093E+01 0. -1.
</event>
<event>
 5   0  0.3509843E-07  0.3780316E+04  0.7818609E-02  0.8050392E-01
       -2   -1    0    0    0  501  0.00000000000E+00  0.00000000000E+00  0.19895713940E+04  0.19895713940E+04  0.25500000920E-02 0.  1.
        2   -1    0    0  501    0  0.00000000000E+00  0.00000000000E+00 -0.17957120764E+04  0.17957120764E+04  0.25500000920E-02 0. -1.
    10030    2    1    2    0    0  0.00000000000E+00  0.00000000000E+00  0.19385931765E+03  0.37852834704E+04  0.37803160603E+04 0.  0.
        4    1    3    3  502    0  0.19139032231E+03  0.93996288962E+03 -0.15338710109E+04  0.18091219915E+04  0.12699999809E+01 0. -1.
       -4    1    3    3    0  502 -0.19139032231E+03 -0.93996288962E+03  0.17277303285E+04  0.19761614788E+04  0.12699999809E+01 0.  1.
</event>
<event>
 5   0  0.1070988E-07  0.3741238E+04  0.7818609E-02  0.8058884E-01
        3   -1    0    0  501    0  0.00000000000E+00  0.00000000000E+00  0.21176666683E+04  0.21176666707E+04  0.10100000352E+00 0.  1.
       -3   -1    0    0    0  501  0.00000000000E+00  0.00000000000E+00 -0.16523920308E+04  0.16523920339E+04  0.10100000352E+00 0. -1.
    10030    2    1    2    0    0  0.00000000000E+00  0.00000000000E+00  0.46527463749E+03  0.37700587046E+04  0.37412380502E+04 0.  0.
        1    1    3    3  502    0  0.10505818342E+04  0.93089426062E+03 -0.10133868342E+04  0.17312536471E+04  0.50400001928E-02 0. -1.
       -1    1    3    3    0  502 -0.10505818342E+04 -0.93089426062E+03  0.14786614717E+04  0.20388050575E+04  0.50400001928E-02 0.  1.
</event>
<event>
 5   0  0.3327241E-07  0.3809078E+04  0.7818609E-02  0.8044210E-01
       -2   -1    0    0    0  501  0.00000000000E+00  0.00000000000E+00  0.16438612096E+04  0.16438612096E+04  0.25500000920E-02 0.  1.
        2   -1    0    0  501    0  0.00000000000E+00  0.00000000000E+00 -0.22065540541E+04  0.22065540541E+04  0.25500000920E-02 0. -1.
    10030    2    1    2    0    0  0.00000000000E+00  0.00000000000E+00 -0.56269284447E+03  0.38504152637E+04  0.38090779023E+04 0.  0.
        3    1    3    3  502    0 -0.96929648294E+03  0.10851752303E+04 -0.15235550627E+04  0.21067417952E+04  0.10100000352E+00 0. -1.
       -3    1    3    3    0  502  0.96929648294E+03 -0.10851752303E+04  0.96086221825E+03  0.17436734685E+04  0.10100000352E+00 0.  1.
</event>
<event>
 5   0  0.3327241E-07  0.3766284E+04  0.7818609E-02  0.8053429E-01
        2   -1    0    0  501    0  0.00000000000E+00  0.00000000000E+00  0.17442095710E+04  0.17442095710E+04  0.25500000920E-02 0. -1.
       -2   -1    0    0    0  501  0.00000000000E+00  0.00000000000E+00 -0.20331406337E+04  0.20331406337E+04  0.25500000920E-02 0.  1.
    10030    2    1    2    0    0  0.00000000000E+00  0.00000000000E+00 -0.28893106275E+03  0.37773502047E+04  0.37662837665E+04 0.  0.
        3    1    3    3  502    0 -0.51884393108E+03  0.17335532621E+03 -0.19516958379E+04  0.20269108880E+04  0.10100000352E+00 0.  1.
       -3    1    3    3    0  502  0.51884393108E+03 -0.17335532621E+03  0.16627647751E+04  0.17504393167E+04  0.10100000352E+00 0. -1.
</event>
<event>
 5   0  0.1070988E-07  0.3887063E+04  0.7818609E-02  0.8027725E-01
        3   -1    0    0  501    0  0.00000000000E+00  0.00000000000E+00  0.14345271735E+04  0.14345271770E+04  0.10100000352E+00 0.  1.
       -3   -1    0    0    0  501  0.00000000000E+00  0.00000000000E+00 -0.26331421851E+04  0.26331421870E+04  0.10100000352E+00 0. -1.
    10030    2    1    2    0    0  0.00000000000E+00  0.00000000000E+00 -0.11986150116E+04  0.40676693640E+04  0.38870626582E+04 0.  0.
        2    1    3    3  502    0  0.68660227106E+03 -0.49405924251E+03 -0.24304084498E+04  0.25734028924E+04  0.25500000920E-02 0. -1.
       -2    1    3    3    0  502 -0.68660227106E+03  0.49405924251E+03  0.12317934382E+04  0.14942664716E+04  0.25500000920E-02 0.  1.
</event>
<event>
 5   0  0.3327241E-07  0.3839673E+04  0.7818609E-02  0.8037694E-01
       -2   -1    0    0    0  501  0.00000000000E+00  0.00000000000E+00  0.16787328726E+04  0.16787328726E+04  0.25500000920E-02 0.  1.
        2   -1    0    0  501    0  0.00000000000E+00  0.00000000000E+00 -0.21955679965E+04  0.21955679965E+04  0.25500000920E-02 0. -1.
    10030    2    1    2    0    0  0.00000000000E+00  0.00000000000E+00 -0.51683512390E+03  0.38743008691E+04  0.38396729912E+04 0.  0.
        3    1    3    3  502    0  0.12569919617E+04 -0.66313331991E+03  0.10439581445E+04  0.17634123765E+04  0.10100000352E+00 0.  1.
       -3    1    3    3    0  502 -0.12569919617E+04  0.66313331991E+03 -0.15607932684E+04  0.21108884927E+04  0.10100000352E+00 0. -1.
</event>
<event>
 5   0  0.3442126E-07  0.3744140E+04  0.7818609E-02  0.8058250E-01
        2   -1    0    0  501    0  0.00000000000E+00  0.00000000000E+00  0.25157286574E+04  0.25157286574E+04  0.25500000920E-02 0. -1.
       -2   -1    0    0    0  501  0.00000000000E+00  0.00000000000E+00 -0.13930936886E+04  0.13930936886E+04  0.25500000920E-02 0.  1.
    10030    2    1    2    0    0  0.00000000000E+00  0.00000000000E+00  0.11226349688E+04  0.39088223460E+04  0.37441398023E+04 0.  0.
        2    1    3    3  502    0  0.54240053775E+03 -0.98691962885E+03 -0.99993165503E+03  0.15060119561E+04  0.25500000920E-02 0.  1.
       -2    1    3    3    0  502 -0.54240053775E+03  0.98691962885E+03  0.21225666239E+04  0.24028103899E+04  0.25500000920E-02 0. -1.
</event>
<event>
 5   0  0.3539010E-07  0.3830782E+04  0.7818609E-02  0.8039581E-01
        2   -1    0    0  501    0  0.00000000000E+00  0.00000000000E+00  0.29683933216E+04  0.29683933216E+04  0.25500000920E-02 0.  1.
       -2   -1    0    0    0  501  0.00000000000E+00  0.00000000000E+00 -0.12359286491E+04  0.12359286491E+04  0.25500000920E-02 0. -1.
    10030    2    1    2    0    0  0.00000000000E+00  0.00000000000E+00  0.17324646724E+04  0.42043219707E+04  0.38307818252E+04 0.  0.
        1    1    3    3  502    0  0.20412608435E+03  0.11415588462E+04 -0.80684920298E+03  0.14127383672E+04  0.50400001928E-02 0. -1.
       -1    1    3    3    0  502 -0.20412608435E+03 -0.11415588462E+04  0.25393138754E+04  0.27915836036E+04  0.50400001928E-02 0.  1.
</event>
<event>
 5   0  0.1070988E-07  0.3797292E+04  0.7818609E-02  0.8046736E-01
        1   -1    0    0  501    0  0.00000000000E+00  0.00000000000E+00  0.18698714043E+04  0.18698714043E+04  0.50400001928E-02 0.  1.
       -1   -1    0    0    0  501  0.00000000000E+00  0.00000000000E+00 -0.19278629287E+04  0.19278629287E+04  0.50400001928E-02 0. -1.
    10030    2    1    2    0    0  0.00000000000E+00  0.00000000000E+00 -0.57991524472E+02  0.37977343330E+04  0.37972915410E+04 0.  0.
        3    1    3    3  502    0  0.52424073941E+03  0.83915179572E+03  0.15916411759E+04  0.18741199887E+04  0.10100000352E+00 0.  1.
       -3    1    3    3    0  502 -0.52424073941E+03 -0.83915179572E+03 -0.16496327004E+04  0.19236143443E+04  0.10100000352E+00 0. -1.
</event>
<event>
 5   0  0.3509843E-07  0.3791560E+04  0.7818609E-02  0.8047968E-01
        2   -1    0    0  501    0  0.00000000000E+00  0.00000000000E+00  0.33676515961E+04  0.33676515961E+04  0.25500000920E-02 0.  1.
       -2   -1    0    0    0  501  0.00000000000E+00  0.00000000000E+00 -0.10672073739E+04  0.10672073739E+04  0.25500000920E-02 0. -1.
    10030    2    1    2    0    0  0.00000000000E+00  0.00000000000E+00  0.23004442223E+04  0.44348589700E+04  0.37915604261E+04 0.  0.
        4    1    3    3  502    0  0.44493581841E+03  0.10114063253E+04  0.29520659122E+04  0.31520795358E+04  0.12699999809E+01 0.  1.
       -4    1    3    3    0  502 -0.44493581841E+03 -0.10114063253E+04 -0.65162168990E+03  0.12827794343E+04  0.12699999809E+01 0. -1.
</event>
<event>
 5   0  0.3509843E-07  0.3817372E+04  0.7818609E-02  0.8042437E-01
        2   -1    0    0  501    0  0.00000000000E+00  0.00000000000E+00  0.18969403419E+04  0.18969403419E+04  0.25500000920E-02 0.  1.
       -2   -1    0    0    0  501  0.00000000000E+00  0.00000000000E+00 -0.19205043419E+04  0.19205043419E+04  0.25500000920E-02 0. -1.
    10030    2    1    2    0    0  0.00000000000E+00  0.00000000000E+00 -0.23564000025E+02  0.38174446838E+04  0.38173719561E+04 0.  0.
        4    1    3    3  502    0  0.99866036361E+03 -0.11314203112E+04 -0.11804128844E+04  0.19159359679E+04  0.12699999809E+01 0. -1.
       -4    1    3    3    0  502 -0.99866036361E+03  0.11314203112E+04  0.11568488844E+04  0.19015087159E+04  0.12699999809E+01 0.  1.
</event>
<event>
 5   0  0.3377396E-07  0.3848133E+04  0.7818609E-02  0.8035904E-01
       -2   -1    0    0    0  501  0.00000000000E+00  0.00000000000E+00  0.17508513170E+04  0.17508513170E+04  0.25500000920E-02 0. -1.
        2   -1    0    0  501    0  0.00000000000E+00  0.00000000000E+00 -0.21144181850E+04  0.21144181850E+04  0.25500000920E-02 0.  1.
    10030    2    1    2    0    0  0.00000000000E+00  0.00000000000E+00 -0.36356686798E+03  0.38652695019E+04  0.38481329830E+04 0.  0.
        5    1    3    3  502    0  0.83501702503E+03 -0.14269985331E+04 -0.11702549705E+04  0.20256102862E+04  0.46999998093E+01 0.  1.
       -5    1    3    3    0  502 -0.83501702503E+03  0.14269985331E+04  0.80668810248E+03  0.18396592158E+04  0.46999998093E+01 0. -1.
</event>
<event>
 5   0  0.1084315E-07  0.3876901E+04  0.7818609E-02  0.8029851E-01
        1   -1    0    0  501    0  0.00000000000E+00  0.00000000000E+00  0.16811497146E+04  0.16811497146E+04  0.50400001928E-02 0. -1.
       -1   -1    0    0    0  501  0.00000000000E+00  0.00000000000E+00 -0.22351316199E+04  0.22351316199E+04  0.50400001928E-02 0.  1.
    10030    2    1    2    0    0  0.00000000000E+00  0.00000000000E+00 -0.55398190534E+03  0.39162813345E+04  0.38769012806E+04 0.  0.
        4    1    3    3  502    0 -0.85202387011E+03 -0.16511988582E+04  0.28105775091E+03  0.18792012710E+04  0.12699999809E+01 0. -1.
       -4    1    3    3    0  502  0.85202387011E+03  0.16511988582E+04 -0.83503965625E+03  0.20370800635E+04  0.12699999809E+01 0.  1.
</event>
<event>
 5   0  0.1070988E-07  0.3633148E+04  0.7818609E-02  0.8082941E-01
        1   -1    0    0  501    0  0.00000000000E+00  0.00000000000E+00  0.23736948176E+04  0.23736948176E+04  0.50400001928E-02 0. -1.
       -1   -1    0    0    0  501  0.00000000000E+00  0.00000000000E+00 -0.13902128719E+04  0.13902128720E+04  0.50400001928E-02 0.  1.
    10030    2    1    2    0    0  0.00000000000E+00  0.00000000000E+00  0.98348194561E+03  0.37639076895E+04  0.36331479956E+04 0.  0.
        2    1    3    3  502    0  0.63756794550E+03  0.19881758159E+03  0.22418969473E+04  0.23392569842E+04  0.25500000920E-02 0. -1.
       -2    1    3    3    0  502 -0.63756794550E+03 -0.19881758159E+03 -0.12584150016E+04  0.14246507053E+04  0.25500000920E-02 0.  1.
</event>
<event>
 5   0  0.3327241E-07  0.3799879E+04  0.7818609E-02  0.8046181E-01
        2   -1    0    0  501    0  0.00000000000E+00  0.00000000000E+00  0.32848956558E+04  0.32848956558E+04  0.25500000920E-02 0. -1.
       -2   -1    0    0    0  501  0.00000000000E+00  0.00000000000E+00 -0.10988992854E+04  0.10988992854E+04  0.25500000920E-02 0.  1.
    10030    2    1    2    0    0  0.00000000000E+00  0.00000000000E+00  0.21859963704E+04  0.43837949412E+04  0.37998786764E+04 0.  0.
        3    1    3    3  502    0  0.64943144845E+03  0.10952485296E+04  0.27198074209E+04  0.30031122131E+04  0.10100000352E+00 0. -1.
       -3    1    3    3    0  502 -0.64943144845E+03 -0.10952485296E+04 -0.53381105043E+03  0.13806827281E+04  0.10100000352E+00 0.  1.
</event>
<event>
 5   0  0.3539010E-07  0.3925265E+04  0.7818609E-02  0.8019795E-01
        2   -1    0    0  501    0  0.00000000000E+00  0.00000000000E+00  0.17114178707E+04  0.17114178707E+04  0.25500000920E-02 0. -1.
       -2   -1    0    0    0  501  0.00000000000E+00  0.00000000000E+00 -0.22507223022E+04  0.22507223022E+04  0.25500000920E-02 0.  1.
    10030    2    1    2    0    0  0.00000000000E+00  0.00000000000E+00 -0.53930443143E+03  0.39621401729E+04  0.39252650203E+04 0.  0.
        1    1    3    3  502    0  0.59957402351E+03  0.17967742509E+04 -0.78832734925E+03  0.20516692540E+04  0.50400001928E-02 0. -1.
       -1    1    3    3    0  502 -0.59957402351E+03 -0.17967742509E+04  0.24902291782E+03  0.19104709189E+04  0.50400001928E-02 0.  1.
</event>
<event>
 5   0  0.3509843E-07  0.3729167E+04  0.7818609E-02  0.8061529E-01
        2   -1    0    0  501    0  0.00000000000E+00  0.00000000000E+00  0.18659720382E+04  0.18659720382E+04  0.25500000920E-02 0.  1.
       -2   -1    0    0    0  501  0.00000000000E+00  0.00000000000E+00 -0.18631956935E+04  0.18631956935E+04  0.25500000920E-02 0. -1.
    10030    2    1    2    0    0  0.00000000000E+00  0.00000000000E+00  0.27763446545E+01  0.37291677317E+04  0.37291666982E+04 0.  0.
        4    1    3    3  502    0 -0.69337986882E+03  0.60519014611E+03 -0.16202283529E+04  0.18633765814E+04  0.12699999809E+01 0. -1.
       -4    1    3    3    0  502  0.69337986882E+03 -0.60519014611E+03  0.16230046976E+04  0.18657911503E+04  0.12699999809E+01 0.  1.
</event>
<event>
 5   0  0.1070988E-07  0.3817030E+04  0.7818609E-02  0.8042510E-01
       -1   -1    0    0    0  501  0.00000000000E+00  0.00000000000E+00  0.14119140984E+04  0.14119140984E+04  0.50400001928E-02 0. -1.
        1   -1    0    0  501    0  0.00000000000E+00  0.00000000000E+00 -0.25797811016E+04  0.25797811016E+04  0.50400001928E-02 0.  1.
    10030    2    1    2    0    0  0.00000000000E+00  0.00000000000E+00 -0.11678670032E+04  0.39916952000E+04  0.38170298968E+04 0.  0.
        3    1    3    3  502    0 -0.15722663354E+04  0.94243104444E+03 -0.11394981786E+04  0.21583914872E+04  0.10100000352E+00 0.  1.
       -3    1    3    3    0  502  0.15722663354E+04 -0.94243104444E+03 -0.28368824606E+02  0.18333037128E+04  0.10100000352E+00 0. -1.
</event>
<event>
 5   0  0.1085771E-07  0.3804738E+04  0.7818609E-02  0.8045139E-01
       -1   -1    0    0    0  501  0.00000000000E+00  0.00000000000E+00  0.16939773685E+04  0.16939773685E+04  0.50400001928E-02 0.  1.
        1   -1    0    0  501    0  0.00000000000E+00  0.00000000000E+00 -0.21363968505E+04  0.21363968505E+04  0.50400001928E-02 0. -1.
    10030    2    1    2    0    0  0.00000000000E+00  0.00000000000E+00 -0.44241948202E+03  0.38303742190E+04  0.38047380540E+04 0.  0.
        1    1    3    3  502    0  0.79295793649E+03  0.36633983845E+02 -0.19616973785E+04  0.21162185479E+04  0.50400001928E-02 0. -1.
       -1    1    3    3    0  502 -0.79295793649E+03 -0.36633983845E+02  0.15192778965E+04  0.17141556710E+04  0.50400001928E-02 0.  1.
</event>
<event>
 5   0  0.1084315E-07  0.3772411E+04  0.7818609E-02  0.8052101E-01
       -1   -1    0    0    0  501  0.00000000000E+00  0.00000000000E+00  0.26005704344E+04  0.26005704344E+04  0.50400001928E-02 0.  1.
        1   -1    0    0  501    0  0.00000000000E+00  0.00000000000E+00 -0.13680732942E+04  0.13680732942E+04  0.50400001928E-02 0. -1.
    10030    2    1    2    0    0  0.00000000000E+00  0.00000000000E+00  0.12324971402E+04  0.39686437286E+04  0.37724108795E+04 0.  0.
        4    1    3    3  502    0  0.13114225601E+04  0.24584649754E+03 -0.78633224678E+03  0.15487380821E+04  0.12699999809E+01 0. -1.
       -4    1    3    3    0  502 -0.13114225601E+04 -0.24584649754E+03  0.20188293870E+04  0.24199056465E+04  0.12699999809E+01 0.  1.
</event>
<event>
 5   0  0.3539010E-07  0.3785068E+04  0.7818609E-02  0.8049367E-01
       -2   -1    0    0    0  501  0.00000000000E+00  0.00000000000E+00  0.13963090550E+04  0.13963090550E+04  0.25500000920E-02 0. -1.
        2   -1    0    0  501    0  0.00000000000E+00  0.00000000000E+00 -0.25651085882E+04  0.25651085882E+04  0.25500000920E-02 0.  1.
    10030    2    1    2    0    0  0.00000000000E+00  0.00000000000E+00 -0.11687995332E+04  0.39614176433E+04  0.37850676871E+04 0.  0.
        1    1    3    3  502    0 -0.44299118889E+03 -0.91135392839E+03 -0.22572690013E+04  0.24742818192E+04  0.50400001928E-02 0.  1.
       -1    1    3    3    0  502  0.44299118889E+03  0.91135392839E+03  0.10884694681E+04  0.14871358241E+04  0.50400001928E-02 0. -1.
</event>
<event>
 5   0  0.3509843E-07  0.3500724E+04  0.7818609E-02  0.8113618E-01
        2   -1    0    0  501    0  0.00000000000E+00  0.00000000000E+00  0.27040853875E+04  0.27040853875E+04  0.25500000920E-02 0. -1.
       -2   -1    0    0    0  501  0.00000000000E+00  0.00000000000E+00 -0.11330143734E+04  0.11330143734E+04  0.25500000920E-02 0.  1.
    10030    2    1    2    0    0  0.00000000000E+00  0.00000000000E+00  0.15710710141E+04  0.38370997610E+04  0.35007242743E+04 0.  0.
        4    1    3    3  502    0 -0.15598617292E+04 -0.38092347315E+03  0.21809767952E+02  0.16058482448E+04  0.12699999809E+01 0. -1.
       -4    1    3    3    0  502  0.15598617292E+04  0.38092347315E+03  0.15492612461E+04  0.22312515161E+04  0.12699999809E+01 0.  1.
</event>
<event>
 5   0  0.1070988E-07  0.3787547E+04  0.7818609E-02  0.8048833E-01
        1   -1    0    0  501    0  0.00000000000E+00  0.00000000000E+00  0.18088480769E+04  0.18088480769E+04  0.50400001928E-02 0.  1.
       -1   -1    0    0    0  501  0.00000000000E+00  0.00000000000E+00 -0.19826857141E+04  0.19826857141E+04  0.50400001928E-02 0. -1.
    10030    2    1    2    0    0  0.00000000000E+00  0.00000000000E+00 -0.17383763714E+03  0.37915337910E+04  0.37875465626E+04 0.  0.
        5    1    3    3  502    0  0.51428432235E+03  0.14241554612E+04 -0.12255026507E+04  0.19479697068E+04  0.46999998093E+01 0. -1.
       -5    1    3    3    0  502 -0.51428432235E+03 -0.14241554612E+04  0.10516650135E+04  0.18435640842E+04  0.46999998093E+01 0.  1.
</event>
<event>
 5   0  0.3539010E-07  0.3832655E+04  0.7818609E-02  0.8039183E-01
       -2   -1    0    0    0  501  0.00000000000E+00  0.00000000000E+00  0.11971518910E+04  0.11971518910E+04  0.25500000920E-02 0. -1.
        2   -1    0    0  501    0  0.00000000000E+00  0.00000000000E+00 -0.30675396082E+04  0.30675396082E+04  0.25500000920E-02 0.  1.
    10030    2    1    2    0    0  0.00000000000E+00  0.00000000000E+00 -0.18703877172E+04  0.42646914992E+04  0.38326548724E+04 0.  0.
        1    1    3    3  502    0  0.56287971320E+03 -0.33572803656E+03  0.10685655563E+04  0.12535466621E+04  0.50400001928E-02 0. -1.
       -1    1    3    3    0  502 -0.56287971320E+03  0.33572803656E+03 -0.29389532735E+04  0.30111448371E+04  0.50400001928E-02 0.  1.
</event>
<event>
 5   0  0.1070988E-07  0.3780608E+04  0.7818609E-02  0.8050329E-01
       -1   -1    0    0    0  501  0.00000000000E+00  0.00000000000E+00  0.16785462080E+04  0.16785462080E+04  0.50400001928E-02 0.  1.
        1   -1    0    0  501    0  0.00000000000E+00  0.00000000000E+00 -0.21287764985E+04  0.21287764985E+04  0.50400001928E-02 0. -1.
    10030    2    1    2    0    0  0.00000000000E+00  0.00000000000E+00 -0.45023029049E+03  0.38073227066E+04  0.37806082682E+04 0.  0.
        3    1    3    3  502    0 -0.61981878379E+02  0.46250255342E+03 -0.20698611917E+04  0.21218095410E+04  0.10100000352E+00 0. -1.
       -3    1    3    3    0  502  0.61981878379E+02 -0.46250255342E+03  0.16196309012E+04  0.16855131656E+04  0.10100000352E+00 0.  1.
</event>
<event>
 5   0  0.1070988E-07  0.3806345E+04  0.7818609E-02  0.8044795E-01
       -1   -1    0    0    0  501  0.00000000000E+00  0.00000000000E+00  0.19545602802E+04  0.19545602802E+04  0.50400001928E-02 0.  1.
        1   -1    0    0  501    0  0.00000000000E+00  0.00000000000E+00 -0.18531355985E+04  0.18531355985E+04  0.50400001928E-02 0. -1.
    10030    2    1    2    0    0  0.00000000000E+00  0.00000000000E+00  0.10142468167E+03  0.38076958786E+04  0.38063448265E+04 0.  0.
        5    1    3    3  502    0 -0.57072489244E+03  0.18044355607E+04  0.25160331362E+03  0.19091990240E+04  0.46999998093E+01 0. -1.
       -5    1    3    3    0  502  0.57072489244E+03 -0.18044355607E+04 -0.15017863194E+03  0.18984968547E+04  0.46999998093E+01 0.  1.
</event>
<event>
 5   0  0.1070988E-07  0.3901449E+04  0.7818609E-02  0.8024728E-01
        1   -1    0    0  501    0  0.00000000000E+00  0.00000000000E+00  0.23732872167E+04  0.23732872167E+04  0.50400001928E-02 0. -1.
       -1   -1    0    0    0  501  0.00000000000E+00  0.00000000000E+00 -0.16033985792E+04  0.16033985792E+04  0.50400001928E-02 0.  1.
    10030    2    1    2    0    0  0.00000000000E+00  0.00000000000E+00  0.76988863754E+03  0.39766857959E+04  0.39014486291E+04 0.  0.
        2    1    3    3  502    0 -0.16573877683E+04 -0.65076554299E+03  0.11971134082E+04  0.21455792968E+04  0.25500000920E-02 0. -1.
       -2    1    3    3    0  502  0.16573877683E+04  0.65076554299E+03 -0.42722477069E+03  0.18311064991E+04  0.25500000920E-02 0.  1.
</event>
<event>
 5   0  0.3377396E-07  0.3757361E+04  0.7818609E-02  0.8055367E-01
       -2   -1    0    0    0  501  0.00000000000E+00  0.00000000000E+00  0.15164219548E+04  0.15164219548E+04  0.25500000920E-02 0. -1.
        2   -1    0    0  501    0  0.00000000000E+00  0.00000000000E+00 -0.23274791750E+04  0.23274791750E+04  0.25500000920E-02 0.  1.
    10030    2    1    2    0    0  0.00000000000E+00  0.00000000000E+00 -0.81105722019E+03  0.38439011299E+04  0.37573610529E+04 0.  0.
        5    1    3    3  502    0  0.61793139771E+03  0.11154240351E+04 -0.18169453842E+04  0.22197573312E+04  0.46999998093E+01 0.  1.
       -5    1    3    3    0  502 -0.61793139771E+03 -0.11154240351E+04  0.10058881640E+04  0.16241437987E+04  0.46999998093E+01 0. -1.
</event>
<event>
 5   0  0.3509843E-07  0.3793766E+04  0.7818609E-02  0.8047494E-01
       -2   -1    0    0    0  501  0.00000000000E+00  0.00000000000E+00  0.16189118781E+04  0.16189118781E+04  0.25500000920E-02 0.  1.
        2   -1    0    0  501    0  0.00000000000E+00  0.00000000000E+00 -0.22225828076E+04  0.22225828076E+04  0.25500000920E-02 0. -1.
    10030    2    1    2    0    0  0.00000000000E+00  0.00000000000E+00 -0.60367092948E+03  0.38414946857E+04  0.37937663119E+04 0.  0.
        4    1    3    3  502    0 -0.97981409771E+03 -0.44469526338E+03  0.12799876034E+04  0.16721720668E+04  0.12699999809E+01 0.  1.
       -4    1    3    3    0  502  0.97981409771E+03  0.44469526338E+03 -0.18836585329E+04  0.21693226189E+04  0.12699999809E+01 0. -1.
</event>
<event>
 5   0  0.1085771E-07  0.3800833E+04  0.7818609E-02  0.8045976E-01
        1   -1    0    0  501    0  0.00000000000E+00  0.00000000000E+00  0.20287907406E+04  0.20287907407E+04  0.50400001928E-02 0.  1.
       -1   -1    0    0    0  501  0.00000000000E+00  0.00000000000E+00 -0.17801654300E+04  0.17801654300E+04  0.50400001928E-02 0. -1.
    10030    2    1    2    0    0  0.00000000000E+00  0.00000000000E+00  0.24862531061E+03  0.38089561707E+04  0.38008331409E+04 0.  0.
        1    1    3    3  502    0  0.11003065204E+04 -0.32252214360E+03 -0.13944751328E+04  0.18053409284E+04  0.50400001928E-02 0. -1.
       -1    1    3    3    0  502 -0.11003065204E+04  0.32252214360E+03  0.16431004434E+04  0.20036152423E+04  0.50400001928E-02 0.  1.
</event>
<event>
 5   0  0.3377396E-07  0.3818917E+04  0.7818609E-02  0.8042108E-01
       -2   -1    0    0    0  501  0.00000000000E+00  0.00000000000E+00  0.14062924091E+04  0.14062924091E+04  0.25500000920E-02 0. -1.
        2   -1    0    0  501    0  0.00000000000E+00  0.00000000000E+00 -0.25926549838E+04  0.25926549838E+04  0.25500000920E-02 0.  1.
    10030    2    1    2    0    0  0.00000000000E+00  0.00000000000E+00 -0.11863625747E+04  0.39989473929E+04  0.38189166124E+04 0.  0.
        5    1    3    3  502    0  0.71001539111E+03 -0.13493408697E+04  0.61042447488E+03  0.16424015245E+04  0.46999998093E+01 0. -1.
       -5    1    3    3    0  502 -0.71001539111E+03  0.13493408697E+04 -0.17967870495E+04  0.23565458683E+04  0.46999998093E+01 0.  1.
</event>
<event>
 5   0  0.1070988E-07  0.3800656E+04  0.7818609E-02  0.8046014E-01
       -1   -1    0    0    0  501  0.00000000000E+00  0.00000000000E+00  0.15353155704E+04  0.15353155704E+04  0.50400001928E-02 0.  1.
        1   -1    0    0  501    0  0.00000000000E+00  0.00000000000E+00 -0.23521200313E+04  0.23521200313E+04  0.50400001928E-02 0. -1.
    10030    2    1    2    0    0  0.00000000000E+00  0.00000000000E+00 -0.81680446086E+03  0.38874356017E+04  0.38006560000E+04 0.  0.
        5    1    3    3  502    0  0.54254619781E+03 -0.43584614820E+03 -0.22170836191E+04  0.23237469969E+04  0.46999998093E+01 0. -1.
       -5    1    3    3    0  502 -0.54254619781E+03  0.43584614820E+03  0.14002791583E+04  0.15636886048E+04  0.46999998093E+01 0.  1.
</event>
<event>
 5   0  0.3327241E-07  0.3762135E+04  0.7818609E-02  0.8054330E-01
       -2   -1    0    0    0  501  0.00000000000E+00  0.00000000000E+00  0.27510902025E+04  0.27510902025E+04  0.25500000920E-02 0. -1.
        2   -1    0    0  501    0  0.00000000000E+00  0.00000000000E+00 -0.12861866684E+04  0.12861866684E+04  0.25500000920E-02 0.  1.
    10030    2    1    2    0    0  0.00000000000E+00  0.00000000000E+00  0.14649035341E+04  0.40372768709E+04  0.37621353203E+04 0.  0.
        3    1    3    3  502    0 -0.17288061310E+04  0.67154449851E+03  0.39535621453E+03  0.18963251827E+04  0.10100000352E+00 0.  1.
       -3    1    3    3    0  502  0.17288061310E+04 -0.67154449851E+03  0.10695473196E+04  0.21409516882E+04  0.10100000352E+00 0. -1.
</event>
<event>
 5   0  0.3377396E-07  0.3801057E+04  0.7818609E-02  0.8045928E-01
        2   -1    0    0  501    0  0.00000000000E+00  0.00000000000E+00  0.11421191737E+04  0.11421191737E+04  0.25500000920E-02 0.  1.
       -2   -1    0    0    0  501  0.00000000000E+00  0.00000000000E+00 -0.31625492667E+04  0.31625492667E+04  0.25500000920E-02 0. -1.
    10030    2    1    2    0    0  0.00000000000E+00  0.00000000000E+00 -0.20204300930E+04  0.43046684404E+04  0.38010567769E+04 0.  0.
        5    1    3    3  502    0 -0.17172858391E+04 -0.81155139208E+03 -0.93595470249E+03  0.21174795419E+04  0.46999998093E+01 0.  1.
       -5    1    3    3    0  502  0.17172858391E+04  0.81155139208E+03 -0.10844753905E+04  0.21871888985E+04  0.46999998093E+01 0. -1.
</event>
<event>
 5   0  0.1084315E-07  0.3898162E+04  0.7818609E-02  0.8025412E-01
       -1   -1    0    0    0  501  0.00000000000E+00  0.00000000000E+00  0.14989194681E+04  0.14989194681E+04  0.50400001928E-02 0. -1.
        1   -1    0    0  501    0  0.00000000000E+00  0.00000000000E+00 -0.25344364887E+04  0.25344364887E+04  0.50400001928E-02 0.  1.
    10030    2    1    2    0    0  0.00000000000E+00  0.00000000000E+00 -0.10355170206E+04  0.40333559568E+04  0.38981617174E+04 0.  0.
        4    1    3    3  502    0 -0.18326975531E+04 -0.50663427737E+03 -0.74586195001E+02  0.19028986640E+04  0.12699999809E+01 0. -1.
       -4    1    3    3    0  502  0.18326975531E+04  0.50663427737E+03 -0.96093082557E+03  0.21304572928E+04  0.12699999809E+01 0.  1.
</event>
<event>
 5   0  0.3327241E-07  0.3476402E+04  0.7818609E-02  0.8119405E-01
        2   -1    0    0  501    0  0.00000000000E+00  0.00000000000E+00  0.14939273870E+04  0.14939273870E+04  0.25500000920E-02 0.  1.
       -2   -1    0    0    0  501  0.00000000000E+00  0.00000000000E+00 -0.20224159296E+04  0.20224159296E+04  0.25500000920E-02 0. -1.
    10030    2    1    2    0    0  0.00000000000E+00  0.00000000000E+00 -0.52848854257E+03  0.35163433166E+04  0.34764019015E+04 0.  0.
        3    1    3    3  502    0  0.25970472047E+03 -0.12966849160E+02 -0.20026315333E+04  0.20194424353E+04  0.10100000352E+00 0. -1.
       -3    1    3    3    0  502 -0.25970472047E+03  0.12966849160E+02  0.14741429908E+04  0.14969008813E+04  0.10100000352E+00 0.  1.
</event>
<event>
 5   0  0.3442126E-07  0.3773592E+04  0.7818609E-02  0.8051846E-01
       -2   -1    0    0    0  501  0.00000000000E+00  0.00000000000E+00  0.19713262391E+04  0.19713262391E+04  0.25500000920E-02 0. -1.
        2   -1    0    0  501    0  0.00000000000E+00  0.00000000000E+00 -0.18058907036E+04  0.18058907036E+04  0.25500000920E-02 0.  1.
    10030    2    1    2    0    0  0.00000000000E+00  0.00000000000E+00  0.16543553544E+03  0.37772169427E+04  0.37735923092E+04 0.  0.
        2    1    3    3  502    0  0.47109259041E+03 -0.10573229968E+03 -0.17430112328E+04  0.18086447151E+04  0.25500000920E-02 0.  1.
       -2    1    3    3    0  502 -0.47109259041E+03  0.10573229968E+03  0.19084467682E+04  0.19685722276E+04  0.25500000920E-02 0. -1.
</event>
<event>
 5   0  0.3509843E-07  0.3782494E+04  0.7818609E-02  0.8049922E-01
       -2   -1    0    0    0  501  0.00000000000E+00  0.00000000000E+00  0.16010238421E+04  0.16010238421E+04  0.25500000920E-02 0.  1.
        2   -1    0    0  501    0  0.00000000000E+00  0.00000000000E+00 -0.22340798491E+04  0.22340798491E+04  0.25500000920E-02 0. -1.
    10030    2    1    2    0    0  0.00000000000E+00  0.00000000000E+00 -0.63305600703E+03  0.38351036912E+04  0.37824939411E+04 0.  0.
        4    1    3    3  502    0 -0.18369476062E+04 -0.41849583463E+03 -0.48404775757E+03  0.19452041323E+04  0.12699999809E+01 0.  1.
       -4    1    3    3    0  502  0.18369476062E+04  0.41849583463E+03 -0.14900824946E+03  0.18898995590E+04  0.12699999809E+01 0. -1.
</event>
<event>
 5   0  0.3377396E-07  0.3709464E+04  0.7818609E-02  0.8065868E-01
       -2   -1    0    0    0  501  0.00000000000E+00  0.00000000000E+00  0.20263591573E+04  0.20263591573E+04  0.25500000920E-02 0.  1.
        2   -1    0    0  501    0  0.00000000000E+00  0.00000000000E+00 -0.16976413855E+04  0.16976413855E+04  0.25500000920E-02 0. -1.
    10030    2    1    2    0    0  0.00000000000E+00  0.00000000000E+00  0.32871777180E+03  0.37240005428E+04  0.37094642025E+04 0.  0.
        5    1    3    3  502    0 -0.52001513283E+03  0.17803196806E+04  0.17181590442E+03  0.18626585029E+04  0.46999998093E+01 0.  1.
       -5    1    3    3    0  502  0.52001513283E+03 -0.17803196806E+04  0.15690186738E+03  0.18613420399E+04  0.46999998093E+01 0. -1.
</event>
<event>
 5   0  0.3539010E-07  0.3787480E+04  0.7818609E-02  0.8048847E-01
        2   -1    0    0  501    0  0.00000000000E+00  0.00000000000E+00  0.13029142637E+04  0.13029142637E+04  0.25500000920E-02 0. -1.
       -2   -1    0    0    0  501  0.00000000000E+00  0.00000000000E+00 -0.27524847811E+04  0.27524847811E+04  0.25500000920E-02 0.  1.
    10030    2    1    2    0    0  0.00000000000E+00  0.00000000000E+00 -0.14495705174E+04  0.40553990448E+04  0.37874802610E+04 0.  0.
        1    1    3    3  502    0 -0.32273114683E+03 -0.10900759605E+04  0.89689001844E+03  0.14480444392E+04  0.50400001928E-02 0. -1.
       -1    1    3    3    0  502  0.32273114683E+03  0.10900759605E+04 -0.23464605358E+04  0.26073546055E+04  0.50400001928E-02 0.  1.
</event>
<event>
 5   0  0.3539010E-07  0.3755269E+04  0.7818609E-02  0.8055823E-01
       -2   -1    0    0    0  501  0.00000000000E+00  0.00000000000E+00  0.13023691814E+04  0.13023691814E+04  0.25500000920E-02 0. -1.
        2   -1    0    0  501    0  0.00000000000E+00  0.00000000000E+00 -0.27069978831E+04  0.27069978831E+04  0.25500000920E-02 0.  1.
    10030    2    1    2    0    0  0.00000000000E+00  0.00000000000E+00 -0.14046287017E+04  0.40093670645E+04  0.37552686280E+04 0.  0.
        1    1    3    3  502    0 -0.49046081093E+02 -0.42535538316E+03 -0.26541785157E+04  0.26884933166E+04  0.50400001928E-02 0.  1.
       -1    1    3    3    0  502  0.49046081093E+02  0.42535538316E+03  0.12495498141E+04  0.13208737479E+04  0.50400001928E-02 0. -1.
</event>
<event>
 5   0  0.1085771E-07  0.3779340E+04  0.7818609E-02  0.8050603E-01
       -1   -1    0    0    0  501  0.00000000000E+00  0.00000000000E+00  0.34776589973E+04  0.34776589973E+04  0.50400001928E-02 0. -1.
        1   -1    0    0  501    0  0.00000000000E+00  0.00000000000E+00 -0.10267976114E+04  0.10267976114E+04  0.50400001928E-02 0.  1.
    10030    2    1    2    0    0  0.00000000000E+00  0.00000000000E+00  0.24508613859E+04  0.45044566088E+04  0.37793395994E+04 0.  0.
        1    1    3    3  502    0 -0.13388799351E+03 -0.69414009712E+01 -0.10211220719E+04  0.10298856556E+04  0.50400001928E-02 0.  1.
       -1    1    3    3    0  502  0.13388799351E+03  0.69414009712E+01  0.34719834578E+04  0.34745709532E+04  0.50400001928E-02 0. -1.
</event>
<event>
 5   0  0.1070988E-07  0.3786756E+04  0.7818609E-02  0.8049003E-01
       -1   -1    0    0    0  501  0.00000000000E+00  0.00000000000E+00  0.17552511588E+04  0.17552511588E+04  0.50400001928E-02 0.  1.
        1   -1    0    0  501    0  0.00000000000E+00  0.00000000000E+00 -0.20423742807E+04  0.20423742807E+04  0.50400001928E-02 0. -1.
    10030    2    1    2    0    0  0.00000000000E+00  0.00000000000E+00 -0.28712312186E+03  0.37976254395E+04  0.37867557740E+04 0.  0.
        2    1    3    3  502    0  0.69829110037E+03 -0.12195560001E+04 -0.14160427367E+04  0.19950198822E+04  0.25500000920E-02 0.  1.
       -2    1    3    3    0  502 -0.69829110037E+03  0.12195560001E+04  0.11289196149E+04  0.18026055573E+04  0.25500000920E-02 0. -1.
</event>
<event>
 5   0  0.3539010E-07  0.3827051E+04  0.7818609E-02  0.8040375E-01
        2   -1    0    0  501    0  0.00000000000E+00  0.00000000000E+00  0.20770956731E+04  0.20770956731E+04  0.25500000920E-02 0. -1.
       -2   -1    0    0    0  501  0.00000000000E+00  0.00000000000E+00 -0.17628363504E+04  0.17628363504E+04  0.25500000920E-02 0.  1.
    10030    2    1    2    0    0  0.00000000000E+00  0.00000000000E+00  0.31425932275E+03  0.38399320235E+04  0.38270509564E+04 0.  0.
        1    1    3    3  502    0 -0.11556414878E+04 -0.73178324352E+03  0.14997537448E+04  0.20298461171E+04  0.50400001928E-02 0. -1.
       -1    1    3    3    0  502  0.11556414878E+04  0.73178324352E+03 -0.11854944221E+04  0.18100859064E+04  0.50400001928E-02 0.  1.
</event>
<event>
 5   0  0.1070988E-07  0.3799728E+04  0.7818609E-02  0.8046213E-01
       -1   -1    0    0    0  501  0.00000000000E+00  0.00000000000E+00  0.15531698154E+04  0.15531698154E+04  0.50400001928E-02 0.  1.
        1   -1    0    0  501    0  0.00000000000E+00  0.00000000000E+00 -0.23239468432E+04  0.23239468432E+04  0.50400001928E-02 0. -1.
    10030    2    1    2    0    0  0.00000000000E+00  0.00000000000E+00 -0.77077702778E+03  0.38771166586E+04  0.37997284584E+04 0.  0.
        5    1    3    3  502    0  0.16700184835E+04  0.88146697856E+03 -0.59824257352E+03  0.19808740587E+04  0.46999998093E+01 0. -1.
       -5    1    3    3    0  502 -0.16700184835E+04 -0.88146697856E+03 -0.17253445427E+03  0.18962425999E+04  0.46999998093E+01 0.  1.
</event>
<event>
 5   0  0.3377396E-07  0.3778521E+04  0.7818609E-02  0.8050780E-01
       -2   -1    0    0    0  501  0.00000000000E+00  0.00000000000E+00  0.16207876268E+04  0.16207876268E+04  0.25500000920E-02 0. -1.
        2   -1    0    0  501    0  0.00000000000E+00  0.00000000000E+00 -0.22022040714E+04  0.22022040714E+04  0.25500000920E-02 0.  1.
    10030    2    1    2    0    0  0.00000000000E+00  0.00000000000E+00 -0.58141644454E+03  0.38229916982E+04  0.37785209332E+04 0.  0.
        5    1    3    3  502    0  0.16762007111E+03  0.80301705444E+03  0.14311883197E+04  0.16496226764E+04  0.46999998093E+01 0. -1.
       -5    1    3    3    0  502 -0.16762007111E+03 -0.80301705444E+03 -0.20126047642E+04  0.21733690218E+04  0.46999998093E+01 0.  1.
</event>
<event>
 5   0  0.1070988E-07  0.3820692E+04  0.7818609E-02  0.8041729E-01
       -1   -1    0    0    0  501  0.00000000000E+00  0.00000000000E+00  0.16707442284E+04  0.16707442284E+04  0.50400001928E-02 0. -1.
        1   -1    0    0  501    0  0.00000000000E+00  0.00000000000E+00 -0.21843096225E+04  0.21843096225E+04  0.50400001928E-02 0.  1.
    10030    2    1    2    0    0  0.00000000000E+00  0.00000000000E+00 -0.51356539411E+03  0.38550538509E+04  0.38206924476E+04 0.  0.
        3    1    3    3  502    0 -0.11668865119E+04 -0.33084927324E+03  0.12324101251E+04  0.17291385428E+04  0.10100000352E+00 0. -1.
       -3    1    3    3    0  502  0.11668865119E+04  0.33084927324E+03 -0.17459755192E+04  0.21259153081E+04  0.10100000352E+00 0.  1.
</event>
<event>
 5   0  0.3442126E-07  0.3888773E+04  0.7818609E-02  0.8027368E-01
        2   -1    0    0  501    0  0.00000000000E+00  0.00000000000E+00  0.25096177589E+04  0.25096177589E+04  0.25500000920E-02 0.  1.
       -2   -1    0    0    0  501  0.00000000000E+00  0.00000000000E+00 -0.15064597851E+04  0.15064597851E+04  0.25500000920E-02 0. -1.
    10030    2    1    2    0    0  0.00000000000E+00  0.00000000000E+00  0.10031579738E+04  0.40160775440E+04  0.38887726752E+04 0.  0.
        2    1    3    3  502    0 -0.16093508659E+04 -0.76548659339E+03 -0.30147462747E+03  0.18074476161E+04  0.25500000920E-02 0. -1.
       -2    1    3    3    0  502  0.16093508659E+04  0.76548659339E+03  0.13046326013E+04  0.22086299279E+04  0.25500000920E-02 0.  1.
</event>
<event>
 5   0  0.1084315E-07  0.3769169E+04  0.7818609E-02  0.8052804E-01
        1   -1    0    0  501    0  0.00000000000E+00  0.00000000000E+00  0.24644705824E+04  0.24644705824E+04  0.50400001928E-02 0. -1.
       -1   -1    0    0    0  501  0.00000000000E+00  0.00000000000E+00 -0.14411444559E+04  0.14411444559E+04  0.50400001928E-02 0.  1.
    10030    2    1    2    0    0  0.00000000000E+00  0.00000000000E+00  0.10233261265E+04  0.39056150383E+04  0.37691686704E+04 0.  0.
        4    1    3    3  502    0  0.63672122973E+03  0.13278925407E+04 -0.70689479780E+03  0.16335282037E+04  0.12699999809E+01 0.  1.
       -4    1    3    3    0  502 -0.63672122973E+03 -0.13278925407E+04  0.17302209243E+04  0.22720868346E+04  0.12699999809E+01 0. -1.
</event>
<event>
 5   0  0.1070988E-07  0.3789822E+04  0.7818609E-02  0.8048343E-01
        1   -1    0    0  501    0  0.00000000000E+00  0.00000000000E+00  0.23640879975E+04  0.23640879975E+04  0.50400001928E-02 0. -1.
       -1   -1    0    0    0  501  0.00000000000E+00  0.00000000000E+00 -0.15188469817E+04  0.15188469817E+04  0.50400001928E-02 0.  1.
    10030    2    1    2    0    0  0.00000000000E+00  0.00000000000E+00  0.84524101581E+03  0.38829349791E+04  0.37898221168E+04 0.  0.
        5    1    3    3  502    0  0.36837917792E+03 -0.11162579058E+04  0.19453836535E+04  0.22729440337E+04  0.46999998093E+01 0. -1.
       -5    1    3    3    0  502 -0.36837917792E+03  0.11162579058E+04 -0.11001426377E+04  0.16099909454E+04  0.46999998093E+01 0.  1.
</event>
<event>
 5   0  0.1070988E-07  0.3689244E+04  0.7818609E-02  0.8070350E-01
       -1   -1    0    0    0  501  0.00000000000E+00  0.00000000000E+00  0.17922903810E+04  0.17922903810E+04  0.50400001928E-02 0.  1.
        1   -1    0    0  501    0  0.00000000000E+00  0.00000000000E+00 -0.18984819949E+04  0.18984819949E+04  0.50400001928E-02 0. -1.
    10030    2    1    2    0    0  0.00000000000E+00  0.00000000000E+00 -0.10619161388E+03  0.36907723758E+04  0.36892443768E+04 0.  0.
        3    1    3    3  502    0  0.13915163608E+04  0.11662088769E+04 -0.37922174592E+03  0.18547695463E+04  0.10100000352E+00 0. -1.
       -3    1    3    3    0  502 -0.13915163608E+04 -0.11662088769E+04  0.27303013204E+03  0.18360028296E+04  0.10100000352E+00 0.  1.
</event>
<event>
 5   0  0.1070988E-07  0.3652048E+04  0.7818609E-02  0.8078672E-01
       -1   -1    0    0    0  501  0.00000000000E+00  0.00000000000E+00  0.22376324730E+04  0.22376324730E+04  0.50400001928E-02 0.  1.
        1   -1    0    0  501    0  0.00000000000E+00  0.00000000000E+00 -0.14901300488E+04  0.14901300488E+04  0.50400001928E-02 0. -1.
    10030    2    1    2    0    0  0.00000000000E+00  0.00000000000E+00  0.74750242422E+03  0.37277625218E+04  0.36520478563E+04 0.  0.
        2    1    3    3  502    0 -0.11535581653E+04 -0.71150576409E+03  0.16228147595E+04  0.21143473311E+04  0.25500000920E-02 0.  1.
       -2    1    3    3    0  502  0.11535581653E+04  0.71150576409E+03 -0.87531233527E+03  0.16134151906E+04  0.25500000920E-02 0. -1.
</event>
<event>
 5   0  0.3327241E-07  0.3789520E+04  0.7818609E-02  0.8048408E-01
        2   -1    0    0  501    0  0.00000000000E+00  0.00000000000E+00  0.29681413803E+04  0.29681413803E+04  0.25500000920E-02 0.  1.
       -2   -1    0    0    0  501  0.00000000000E+00  0.00000000000E+00 -0.12095501479E+04  0.12095501479E+04  0.25500000920E-02 0. -1.
    10030    2    1    2    0    0  0.00000000000E+00  0.00000000000E+00  0.17585912324E+04  0.41776915282E+04  0.37895202047E+04 0.  0.
        3    1    3    3  502    0  0.14080651458E+04  0.53773730453E+03  0.21450819922E+04  0.26216761102E+04  0.10100000352E+00 0.  1.
       -3    1    3    3    0  502 -0.14080651458E+04 -0.53773730453E+03 -0.38649075977E+03  0.15560154180E+04  0.10100000352E+00 0. -1.
</event>
<event>
 5   0  0.3539010E-07  0.3297629E+04  0.7818609E-02  0.8163499E-01
       -2   -1    0    0    0  501  0.00000000000E+00  0.00000000000E+00  0.12867573056E+04  0.12867573056E+04  0.25500000920E-02 0.  1.
        2   -1    0    0  501    0  0.00000000000E+00  0.00000000000E+00 -0.21127445254E+04  0.21127445254E+04  0.25500000920E-02 0. -1.
    10030    2    1    2    0    0  0.00000000000E+00  0.00000000000E+00 -0.82598721983E+03  0.33995018310E+04  0.32976291197E+04 0.  0.
        1    1    3    3  502    0 -0.72850551025E+03  0.33991975115E+03  0.10710349902E+04  0.13391720076E+04  0.50400001928E-02 0.  1.
       -1    1    3    3    0  502  0.72850551025E+03 -0.33991975115E+03 -0.18970222100E+04  0.20603298234E+04  0.50400001928E-02 0. -1.
</event>
<event>
 5   0  0.1070988E-07  0.3811328E+04  0.7818609E-02  0.8043728E-01
        1   -1    0    0  501    0  0.00000000000E+00  0.00000000000E+00  0.16851972149E+04  0.16851972149E+04  0.50400001928E-02 0. -1.
       -1   -1    0    0    0  501  0.00000000000E+00  0.00000000000E+00 -0.21549730734E+04  0.21549730734E+04  0.50400001928E-02 0.  1.
    10030    2    1    2    0    0  0.00000000000E+00  0.00000000000E+00 -0.46977585848E+03  0.38401702883E+04  0.38113276540E+04 0.  0.
        2    1    3    3  502    0  0.66413212348E+03 -0.95853138700E+03 -0.17535101678E+04  0.21058612979E+04  0.25500000920E-02 0.  1.
       -2    1    3    3    0  502 -0.66413212348E+03  0.95853138700E+03  0.12837343093E+04  0.17343089904E+04  0.25500000920E-02 0. -1.
</event>
<event>
 5   0  0.1084315E-07  0.3777602E+04  0.7818609E-02  0.8050978E-01
       -1   -1    0    0    0  501  0.00000000000E+00  0.00000000000E+00  0.21526704095E+04  0.21526704095E+04  0.50400001928E-02 0. -1.
        1   -1    0    0  501    0  0.00000000000E+00  0.00000000000E+00 -0.16572765177E+04  0.16572765177E+04  0.50400001928E-02 0.  1.
    10030    2    1    2    0    0  0.00000000000E+00  0.00000000000E+00  0.49539389178E+03  0.38099469272E+04  0.37776024778E+04 0.  0.
        4    1    3    3  502    0  0.84475273723E+03 -0.13436077725E+04 -0.78512166493E+03  0.17706797212E+04  0.12699999809E+01 0.  1.
       -4    1    3    3    0  502 -0.84475273723E+03  0.13436077725E+04  0.12805155567E+04  0.20392672060E+04  0.12699999809E+01 0. -1.
</event>
<event>
 5   0  0.1070988E-07  0.3826204E+04  0.7818609E-02  0.8040555E-01
       -1   -1    0    0    0  501  0.00000000000E+00  0.00000000000E+00  0.25802943579E+04  0.25802943579E+04  0.50400001928E-02 0.  1.
        1   -1    0    0  501    0  0.00000000000E+00  0.00000000000E+00 -0.14184269952E+04  0.14184269952E+04  0.50400001928E-02 0. -1.
    10030    2    1    2    0    0  0.00000000000E+00  0.00000000000E+00  0.11618673627E+04  0.39987213531E+04  0.38262039531E+04 0.  0.
        3    1    3    3  502    0  0.46083157447E+03 -0.76058331077E+03  0.23511500680E+04  0.25137142568E+04  0.10100000352E+00 0.  1.
       -3    1    3    3    0  502 -0.46083157447E+03  0.76058331077E+03 -0.11892827053E+04  0.14850070963E+04  0.10100000352E+00 0. -1.
</event>
<event>
 5   0  0.1084315E-07  0.3803583E+04  0.7818609E-02  0.8045386E-01
       -1   -1    0    0    0  501  0.00000000000E+00  0.00000000000E+00  0.15161615599E+04  0.15161615599E+04  0.50400001928E-02 0. -1.
        1   -1    0    0  501    0  0.00000000000E+00  0.00000000000E+00 -0.23855052392E+04  0.23855052392E+04  0.50400001928E-02 0.  1.
    10030    2    1    2    0    0  0.00000000000E+00  0.00000000000E+00 -0.86934367929E+03  0.39016667991E+04  0.38035832288E+04 0.  0.
        4    1    3    3  502    0  0.74908690597E+03 -0.11804602969E+04 -0.17571784504E+04  0.22455056056E+04  0.12699999809E+01 0.  1.
       -4    1    3    3    0  502 -0.74908690597E+03  0.11804602969E+04  0.88783477108E+03  0.16561611935E+04  0.12699999809E+01 0. -1.
</event>
<event>
 5   0  0.3442126E-07  0.3830597E+04  0.7818609E-02  0.8039621E-01
        2   -1    0    0  501    0  0.00000000000E+00  0.00000000000E+00  0.12769299452E+04  0.12769299452E+04  0.25500000920E-02 0. -1.
       -2   -1    0    0    0  501  0.00000000000E+00  0.00000000000E+00 -0.28728032491E+04  0.28728032491E+04  0.25500000920E-02 0.  1.
    10030    2    1    2    0    0  0.00000000000E+00  0.00000000000E+00 -0.15958733039E+04  0.41497331943E+04  0.38305970790E+04 0.  0.
        2    1    3    3  502    0  0.71357167235E+03  0.11593545020E+04  0.66155534951E+03  0.15135860971E+04  0.25500000920E-02 0. -1.
       -2    1    3    3    0  502 -0.71357167235E+03 -0.11593545020E+04 -0.22574286534E+04  0.26361470972E+04  0.25500000920E-02 0.  1.
</event>
<event>
 5   0  0.3539010E-07  0.3798951E+04  0.7818609E-02  0.8046380E-01
       -2   -1    0    0    0  501  0.00000000000E+00  0.00000000000E+00  0.16382161891E+04  0.16382161891E+04  0.25500000920E-02 0.  1.
        2   -1    0    0  501    0  0.00000000000E+00  0.00000000000E+00 -0.22024000709E+04  0.22024000709E+04  0.25500000920E-02 0. -1.
    10030    2    1    2    0    0  0.00000000000E+00  0.00000000000E+00 -0.56418388176E+03  0.38406162600E+04  0.37989511453E+04 0.  0.
        1    1    3    3  502    0 -0.17812939628E+04 -0.39472219995E+03  0.25209095614E+03  0.18418370306E+04  0.50400001928E-02 0.  1.
       -1    1    3    3    0  502  0.17812939628E+04  0.39472219995E+03 -0.81627483790E+03  0.19987792294E+04  0.50400001928E-02 0. -1.
</event>
<event>
 5   0  0.1085771E-07  0.3721204E+04  0.7818609E-02  0.8063279E-01
       -1   -1    0    0    0  501  0.00000000000E+00  0.00000000000E+00  0.11801151312E+04  0.11801151312E+04  0.50400001928E-02 0. -1.
        1   -1    0    0  501    0  0.00000000000E+00  0.00000000000E+00 -0.29334764821E+04  0.29334764821E+04  0.50400001928E-02 0.  1.
    10030    2    1    2    0    0  0.00000000000E+00  0.00000000000E+00 -0.17533613510E+04  0.41135916133E+04  0.37212040973E+04 0.  0.
        1    1    3    3  502    0 -0.13067224603E+04  0.11764913244E+04 -0.15492651424E+04  0.23434756039E+04  0.50400001928E-02 0. -1.
       -1    1    3    3    0  502  0.13067224603E+04 -0.11764913244E+04 -0.20409620859E+03  0.17701160094E+04  0.50400001928E-02 0.  1.
</event>
<event>
 5   0  0.3442126E-07  0.3792597E+04  0.7818609E-02  0.8047745E-01
       -2   -1    0    0    0  501  0.00000000000E+00  0.00000000000E+00  0.14809072780E+04  0.14809072780E+04  0.25500000920E-02 0. -1.
        2   -1    0    0  501    0  0.00000000000E+00  0.00000000000E+00 -0.24282066693E+04  0.24282066693E+04  0.25500000920E-02 0.  1.
    10030    2    1    2    0    0  0.00000000000E+00  0.00000000000E+00 -0.94729939135E+03  0.39091139473E+04  0.37925974894E+04 0.  0.
        2    1    3    3  502    0  0.56643075422E+03  0.49677577436E+03 -0.22673190353E+04  0.23892186122E+04  0.25500000920E-02 0.  1.
       -2    1    3    3    0  502 -0.56643075422E+03 -0.49677577436E+03  0.13200196439E+04  0.15198953351E+04  0.25500000920E-02 0. -1.
</event>
<event>
 5   0  0.1070988E-07  0.3813092E+04  0.7818609E-02  0.8043351E-01
        1   -1    0    0  501    0  0.00000000000E+00  0.00000000000E+00  0.13157373950E+04  0.13157373950E+04  0.50400001928E-02 0. -1.
       -1   -1    0    0    0  501  0.00000000000E+00  0.00000000000E+00 -0.27626473439E+04  0.27626473439E+04  0.50400001928E-02 0.  1.
    10030    2    1    2    0    0  0.00000000000E+00  0.00000000000E+00 -0.14469099489E+04  0.40783847389E+04  0.38130924036E+04 0.  0.
        3    1    3    3  502    0  0.16082914081E+04 -0.11397638038E+03 -0.18117572492E+04  0.24252950767E+04  0.10100000352E+00 0.  1.
       -3    1    3    3    0  502 -0.16082914081E+04  0.11397638038E+03  0.36484730035E+03  0.16530896622E+04  0.10100000352E+00 0. -1.
</event>
<event>
 5   0  0.3539010E-07  0.3800880E+04  0.7818609E-02  0.8045966E-01
        2   -1    0    0  501    0  0.00000000000E+00  0.00000000000E+00  0.12674848068E+04  0.12674848068E+04  0.25500000920E-02 0.  1.
       -2   -1    0    0    0  501  0.00000000000E+00  0.00000000000E+00 -0.28494795612E+04  0.28494795612E+04  0.25500000920E-02 0. -1.
    10030    2    1    2    0    0  0.00000000000E+00  0.00000000000E+00 -0.15819947544E+04  0.41169643680E+04  0.38008799250E+04 0.  0.
        1    1    3    3  502    0  0.18004050715E+04  0.29880843566E+03 -0.21689438058E+03  0.18378759684E+04  0.50400001928E-02 0. -1.
       -1    1    3    3    0  502 -0.18004050715E+04 -0.29880843566E+03 -0.13651003738E+04  0.22790883996E+04  0.50400001928E-02 0.  1.
</event>
<event>
 5   0  0.1070988E-07  0.3814016E+04  0.7818609E-02  0.8043154E-01
        1   -1    0    0  501    0  0.00000000000E+00  0.00000000000E+00  0.23265853284E+04  0.23265853284E+04  0.50400001928E-02 0. -1.
       -1   -1    0    0    0  501  0.00000000000E+00  0.00000000000E+00 -0.15630974209E+04  0.15630974209E+04  0.50400001928E-02 0.  1.
    10030    2    1    2    0    0  0.00000000000E+00  0.00000000000E+00  0.76348790746E+03  0.38896827493E+04  0.38140160075E+04 0.  0.
        3    1    3    3  502    0 -0.90306284294E+02  0.17277276561E+04 -0.43634340333E+03  0.17842627762E+04  0.10100000352E+00 0.  1.
       -3    1    3    3    0  502  0.90306284294E+02 -0.17277276561E+04  0.11998313108E+04  0.21054199731E+04  0.10100000352E+00 0. -1.
</event>
<event>
 5   0  0.3377396E-07  0.3775711E+04  0.7818609E-02  0.8051387E-01
       -2   -1    0    0    0  501  0.00000000000E+00  0.00000000000E+00  0.22808179022E+04  0.22808179022E+04  0.25500000920E-02 0.  1.
        2   -1    0    0  501    0  0.00000000000E+00  0.00000000000E+00 -0.15625965830E+04  0.15625965830E+04  0.25500000920E-02 0. -1.
    10030    2    1    2    0    0  0.00000000000E+00  0.00000000000E+00  0.71822131916E+03  0.38434144852E+04  0.37757109319E+04 0.  0.
        5    1    3    3  502    0  0.13469440141E+04  0.95118443510E+02 -0.98389167220E+03  0.16707395392E+04  0.46999998093E+01 0. -1.
       -5    1    3    3    0  502 -0.13469440141E+04 -0.95118443510E+02  0.17021129914E+04  0.21726749459E+04  0.46999998093E+01 0.  1.
</event>
<event>
 5   0  0.3539010E-07  0.3835905E+04  0.7818609E-02  0.8038493E-01
        2   -1    0    0  501    0  0.00000000000E+00  0.00000000000E+00  0.17774936517E+04  0.17774936517E+04  0.25500000920E-02 0. -1.
       -2   -1    0    0    0  501  0.00000000000E+00  0.00000000000E+00 -0.20695101361E+04  0.20695101361E+04  0.25500000920E-02 0.  1.
    10030    2    1    2    0    0  0.00000000000E+00  0.00000000000E+00 -0.29201648434E+03  0.38470037878E+04  0.38359046542E+04 0.  0.
        1    1    3    3  502    0 -0.55350926950E+03  0.87577681833E+03 -0.17647366054E+04  0.20463755358E+04  0.50400001928E-02 0.  1.
       -1    1    3    3    0  502  0.55350926950E+03 -0.87577681833E+03  0.14727201210E+04  0.18006282520E+04  0.50400001928E-02 0. -1.
</event>
<event>
 5   0  0.1070988E-07  0.3813329E+04  0.7818609E-02  0.8043300E-01
        1   -1    0    0  501    0  0.00000000000E+00  0.00000000000E+00  0.25441701433E+04  0.25441701433E+04  0.50400001928E-02 0.  1.
       -1   -1    0    0    0  501  0.00000000000E+00  0.00000000000E+00 -0.14289021161E+04  0.14289021161E+04  0.50400001928E-02 0. -1.
    10030    2    1    2    0    0  0.00000000000E+00  0.00000000000E+00  0.11152680272E+04  0.39730722594E+04  0.38133293073E+04 0.  0.
        2    1    3    3  502    0  0.29060896795E+03 -0.29405114138E+03  0.24969087064E+04  0.25309035410E+04  0.25500000920E-02 0.  1.
       -2    1    3    3    0  502 -0.29060896795E+03  0.29405114138E+03 -0.13816406791E+04  0.14421687184E+04  0.25500000920E-02 0. -1.
</event>
<event>
 5   0  0.3442126E-07  0.3818200E+04  0.7818609E-02  0.8042260E-01
       -2   -1    0    0    0  501  0.00000000000E+00  0.00000000000E+00  0.16057462650E+04  0.16057462650E+04  0.25500000920E-02 0. -1.
        2   -1    0    0  501    0  0.00000000000E+00  0.00000000000E+00 -0.22697631882E+04  0.22697631882E+04  0.25500000920E-02 0.  1.
    10030    2    1    2    0    0  0.00000000000E+00  0.00000000000E+00 -0.66401692322E+03  0.38755094531E+04  0.38182004985E+04 0.  0.
        2    1    3    3  502    0  0.76360834373E+03  0.28784199569E+03  0.14197910632E+04  0.16376072119E+04  0.25500000920E-02 0. -1.
       -2    1    3    3    0  502 -0.76360834373E+03 -0.28784199569E+03 -0.20838079865E+04  0.22379022413E+04  0.25500000920E-02 0.  1.
</event>
<event>
 5   0  0.3539010E-07  0.3825298E+04  0.7818609E-02  0.8040748E-01
        2   -1    0    0  501    0  0.00000000000E+00  0.00000000000E+00  0.19339726732E+04  0.19339726732E+04  0.25500000920E-02 0. -1.
       -2   -1    0    0    0  501  0.00000000000E+00  0.00000000000E+00 -0.18915608633E+04  0.18915608633E+04  0.25500000920E-02 0.  1.
    10030    2    1    2    0    0  0.00000000000E+00  0.00000000000E+00  0.42411809909E+02  0.38255335366E+04  0.38252984299E+04 0.  0.
        1    1    3    3  502    0 -0.88036569367E+03 -0.15915823414E+04  0.61289158612E+03  0.19193264966E+04  0.50400001928E-02 0.  1.
       -1    1    3    3    0  502  0.88036569367E+03  0.15915823414E+04 -0.57047977621E+03  0.19062070400E+04  0.50400001928E-02 0. -1.
</event>
<event>
 5   0  0.1070988E-07  0.3810435E+04  0.7818609E-02  0.8043919E-01
        1   -1    0    0  501    0  0.00000000000E+00  0.00000000000E+00  0.26789062663E+04  0.26789062663E+04  0.50400001928E-02 0. -1.
       -1   -1    0    0    0  501  0.00000000000E+00  0.00000000000E+00 -0.13549760596E+04  0.13549760596E+04  0.50400001928E-02 0.  1.
    10030    2    1    2    0    0  0.00000000000E+00  0.00000000000E+00  0.13239302067E+04  0.40338823259E+04  0.38104350705E+04 0.  0.
        2    1    3    3  502    0  0.22807694914E+03 -0.27124562837E+03 -0.13197757182E+04  0.13665288991E+04  0.25500000920E-02 0.  1.
       -2    1    3    3    0  502 -0.22807694914E+03  0.27124562837E+03  0.26437059249E+04  0.26673534267E+04  0.25500000920E-02 0. -1.
</event>
<event>
 5   0  0.1084315E-07  0.3751301E+04  0.7818609E-02  0.8056687E-01
       -1   -1    0    0    0  501  0.00000000000E+00  0.00000000000E+00  0.21846094576E+04  0.21846094576E+04  0.50400001928E-02 0. -1.
        1   -1    0    0  501    0  0.00000000000E+00  0.00000000000E+00 -0.16103860837E+04  0.16103860837E+04  0.50400001928E-02 0.  1.
    10030    2    1    2    0    0  0.00000000000E+00  0.00000000000E+00  0.57422337393E+03  0.37949955413E+04  0.37513009311E+04 0.  0.
        4    1    3    3  502    0  0.26812074293E+03 -0.85857915312E+03 -0.13779685382E+04  0.16455533417E+04  0.12699999809E+01 0.  1.
       -4    1    3    3    0  502 -0.26812074293E+03  0.85857915312E+03  0.19521919122E+04  0.21494421997E+04  0.12699999809E+01 0. -1.
</event>
<event>
 5   0  0.3377396E-07  0.3812664E+04  0.7818609E-02  0.8043443E-01
        2   -1    0    0  501    0  0.00000000000E+00  0.00000000000E+00  0.23102668314E+04  0.23102668314E+04  0.25500000920E-02 0.  1.
       -2   -1    0    0    0  501  0.00000000000E+00  0.00000000000E+00 -0.15730227813E+04  0.15730227813E+04  0.25500000920E-02 0. -1.
    10030    2    1    2    0    0  0.00000000000E+00  0.00000000000E+00  0.73724405004E+03  0.38832896127E+04  0.38126643475E+04 0.  0.
        5    1    3    3  502    0  0.66363651611E+03  0.11632069833E+04 -0.10132023401E+04  0.16793049108E+04  0.46999998093E+01 0. -1.
       -5    1    3    3    0  502 -0.66363651611E+03 -0.11632069833E+04  0.17504463902E+04  0.22039847019E+04  0.46999998093E+01 0.  1.
</event>
<event>
 5   0  0.1070988E-07  0.3868535E+04  0.7818609E-02  0.8031605E-01
        1   -1    0    0  501    0  0.00000000000E+00  0.00000000000E+00  0.19606028628E+04  0.19606028628E+04  0.50400001928E-02 0.  1.
       -1   -1    0    0    0  501  0.00000000000E+00  0.00000000000E+00 -0.19082861329E+04  0.19082861329E+04  0.50400001928E-02 0. -1.
    10030    2    1    2    0    0  0.00000000000E+00  0.00000000000E+00  0.52316729951E+02  0.38688889957E+04  0.38685352552E+04 0.  0.
        5    1    3    3  502    0  0.13779105853E+04 -0.10488168760E+04  0.88804616473E+03  0.19460993040E+04  0.46999998093E+01 0.  1.
       -5    1    3    3    0  502 -0.13779105853E+04  0.10488168760E+04 -0.83572943478E+03  0.19227896917E+04  0.46999998093E+01 0. -1.
</event>
<event>
 5   0  0.1070988E-07  0.3838739E+04  0.7818609E-02  0.8037892E-01
       -1   -1    0    0    0  501  0.00000000000E+00  0.00000000000E+00  0.16556680079E+04  0.16556680080E+04  0.50400001928E-02 0.  1.
        1   -1    0    0  501    0  0.00000000000E+00  0.00000000000E+00 -0.22250710776E+04  0.22250710776E+04  0.50400001928E-02 0. -1.
    10030    2    1    2    0    0  0.00000000000E+00  0.00000000000E+00 -0.56940306963E+03  0.38807390855E+04  0.38387388547E+04 0.  0.
        3    1    3    3  502    0  0.39130837789E+03  0.16630365277E+04  0.59960692326E+03  0.18106190134E+04  0.10100000352E+00 0.  1.
       -3    1    3    3    0  502 -0.39130837789E+03 -0.16630365277E+04 -0.11690099929E+04  0.20701200721E+04  0.10100000352E+00 0. -1.
</event>
<event>
 5   0  0.3327241E-07  0.3936487E+04  0.7818609E-02  0.8017483E-01
       -2   -1    0    0    0  501  0.00000000000E+00  0.00000000000E+00  0.24241532950E+04  0.24241532950E+04  0.25500000920E-02 0.  1.
        2   -1    0    0  501    0  0.00000000000E+00  0.00000000000E+00 -0.15980764537E+04  0.15980764538E+04  0.25500000920E-02 0. -1.
    10030    2    1    2    0    0  0.00000000000E+00  0.00000000000E+00  0.82607684122E+03  0.40222297487E+04  0.39364869114E+04 0.  0.
        3    1    3    3  502    0 -0.73732745694E+03 -0.99410924607E+03 -0.11506804463E+04  0.16899616775E+04  0.10100000352E+00 0. -1.
       -3    1    3    3    0  502  0.73732745694E+03  0.99410924607E+03  0.19767572875E+04  0.23322680712E+04  0.10100000352E+00 0.  1.
</event>
<event>
 5   0  0.3377396E-07  0.3688310E+04  0.7818609E-02  0.8070557E-01
       -2   -1    0    0    0  501  0.00000000000E+00  0.00000000000E+00  0.22565447393E+04  0.22565447393E+04  0.25500000920E-02 0.  1.
        2   -1    0    0  501    0  0.00000000000E+00  0.00000000000E+00 -0.15071307509E+04  0.15071307509E+04  0.25500000920E-02 0. -1.
    10030    2    1    2    0    0  0.00000000000E+00  0.00000000000E+00  0.74941398837E+03  0.37636754902E+04  0.36883101645E+04 0.  0.
        5    1    3    3  502    0 -0.22087958936E+03  0.93542146135E+03 -0.12313286151E+04  0.15620478071E+04  0.46999998093E+01 0. -1.
       -5    1    3    3    0  502  0.22087958936E+03 -0.93542146135E+03  0.19807426035E+04  0.22016276830E+04  0.46999998093E+01 0.  1.
</event>
<event>
 5   0  0.1070988E-07  0.3795617E+04  0.7818609E-02  0.8047096E-01
       -1   -1    0    0    0  501  0.00000000000E+00  0.00000000000E+00  0.21807308492E+04  0.21807308492E+04  0.50400001928E-02 0. -1.
        1   -1    0    0  501    0  0.00000000000E+00  0.00000000000E+00 -0.16515913344E+04  0.16515913344E+04  0.50400001928E-02 0.  1.
    10030    2    1    2    0    0  0.00000000000E+00  0.00000000000E+00  0.52913951479E+03  0.38323221836E+04  0.37956165103E+04 0.  0.
        5    1    3    3  502    0  0.19337968008E+02  0.97810750854E+03 -0.13773749162E+04  0.16894531674E+04  0.46999998093E+01 0.  1.
       -5    1    3    3    0  502 -0.19337968008E+02 -0.97810750854E+03  0.19065144309E+04  0.21428690162E+04  0.46999998093E+01 0. -1.
</event>
<event>
 5   0  0.1070988E-07  0.3770942E+04  0.7818609E-02  0.8052420E-01
       -1   -1    0    0    0  501  0.00000000000E+00  0.00000000000E+00  0.15332284004E+04  0.15332284004E+04  0.50400001928E-02 0.  1.
        1   -1    0    0  501    0  0.00000000000E+00  0.00000000000E+00 -0.23186376201E+04  0.23186376201E+04  0.50400001928E-02 0. -1.
    10030    2    1    2    0    0  0.00000000000E+00  0.00000000000E+00 -0.78540921969E+03  0.38518660206E+04  0.37709420836E+04 0.  0.
        2    1    3    3  502    0  0.39210165346E+03 -0.13005147427E+04 -0.17284049829E+04  0.21982870803E+04  0.25500000920E-02 0. -1.
       -2    1    3    3    0  502 -0.39210165346E+03  0.13005147427E+04  0.94299576316E+03  0.16535789403E+04  0.25500000920E-02 0.  1.
</event>
<event>
 5   0  0.3509843E-07  0.3678415E+04  0.7818609E-02  0.8072762E-01
       -2   -1    0    0    0  501  0.00000000000E+00  0.00000000000E+00  0.20790747088E+04  0.20790747088E+04  0.25500000920E-02 0. -1.
        2   -1    0    0  501    0  0.00000000000E+00  0.00000000000E+00 -0.16270144143E+04  0.16270144143E+04  0.25500000920E-02 0.  1.
    10030    2    1    2    0    0  0.00000000000E+00  0.00000000000E+00  0.45206029450E+03  0.37060891231E+04  0.36784151585E+04 0.  0.
        4    1    3    3  502    0  0.54506443566E+02 -0.40406560175E+03  0.20329672735E+04  0.20734506290E+04  0.12699999809E+01 0. -1.
       -4    1    3    3    0  502 -0.54506443566E+02  0.40406560175E+03 -0.15809069790E+04  0.16326384940E+04  0.12699999809E+01 0.  1.
</event>
<event>
 5   0  0.3377396E-07  0.3814363E+04  0.7818609E-02  0.8043080E-01
        2   -1    0    0  501    0  0.00000000000E+00  0.00000000000E+00  0.26037410725E+04  0.26037410725E+04  0.25500000920E-02 0.  1.
       -2   -1    0    0    0  501  0.00000000000E+00  0.00000000000E+00 -0.13969673880E+04  0.13969673880E+04  0.25500000920E-02 0. -1.
    10030    2    1    2    0    0  0.00000000000E+00  0.00000000000E+00  0.12067736845E+04  0.40007084605E+04  0.38143630478E+04 0.  0.
        5    1    3    3  502    0 -0.12295453217E+04  0.12195948709E+04  0.14412403141E+04  0.22530843483E+04  0.46999998093E+01 0. -1.
       -5    1    3    3    0  502  0.12295453217E+04 -0.12195948709E+04 -0.23446662963E+03  0.17476241123E+04  0.46999998093E+01 0.  1.
</event>
<event>
 5   0  0.1085771E-07  0.3792860E+04  0.7818609E-02  0.8047689E-01
       -1   -1    0    0    0  501  0.00000000000E+00  0.00000000000E+00  0.18732156999E+04  0.18732156999E+04  0.50400001928E-02 0. -1.
        1   -1    0    0  501    0  0.00000000000E+00  0.00000000000E+00 -0.19199320466E+04  0.19199320466E+04  0.50400001928E-02 0.  1.
    10030    2    1    2    0    0  0.00000000000E+00  0.00000000000E+00 -0.46716346626E+02  0.37931477465E+04  0.37928600567E+04 0.  0.
        1    1    3    3  502    0  0.26626489726E+03  0.55873073749E+03  0.17693652601E+04  0.18744947203E+04  0.50400001928E-02 0. -1.
       -1    1    3    3    0  502 -0.26626489726E+03 -0.55873073749E+03 -0.18160816068E+04  0.19186530262E+04  0.50400001928E-02 0.  1.
</event>
<event>
 5   0  0.3442126E-07  0.3808073E+04  0.7818609E-02  0.8044425E-01
        2   -1    0    0  501    0  0.00000000000E+00  0.00000000000E+00  0.28139294146E+04  0.28139294146E+04  0.25500000920E-02 0. -1.
       -2   -1    0    0    0  501  0.00000000000E+00  0.00000000000E+00 -0.12883600958E+04  0.12883600958E+04  0.25500000920E-02 0.  1.
    10030    2    1    2    0    0  0.00000000000E+00  0.00000000000E+00  0.15255693188E+04  0.41022895103E+04  0.38080726726E+04 0.  0.
        2    1    3    3  502    0 -0.62065425369E+02 -0.84637557990E+02  0.28108108438E+04  0.28127696730E+04  0.25500000920E-02 0. -1.
       -2    1    3    3    0  502  0.62065425369E+02  0.84637557990E+02 -0.12852415250E+04  0.12895198374E+04  0.25500000920E-02 0.  1.
</event>
<event>
 5   0  0.1070988E-07  0.3809913E+04  0.7818609E-02  0.8044031E-01
       -1   -1    0    0    0  501  0.00000000000E+00  0.00000000000E+00  0.14892486590E+04  0.14892486590E+04  0.50400001928E-02 0.  1.
        1   -1    0    0  501    0  0.00000000000E+00  0.00000000000E+00 -0.24367051224E+04  0.24367051224E+04  0.50400001928E-02 0. -1.
    10030    2    1    2    0    0  0.00000000000E+00  0.00000000000E+00 -0.94745646338E+03  0.39259537814E+04  0.38099132987E+04 0.  0.
        2    1    3    3  502    0 -0.10759357187E+04  0.13167277565E+04  0.41117632810E+03  0.17494215125E+04  0.25500000920E-02 0.  1.
       -2    1    3    3    0  502  0.10759357187E+04 -0.13167277565E+04 -0.13586327915E+04  0.21765322689E+04  0.25500000920E-02 0. -1.
</event>
<event>
 5   0  0.3539010E-07  0.3799150E+04  0.7818609E-02  0.8046337E-01
       -2   -1    0    0    0  501  0.00000000000E+00  0.00000000000E+00  0.11670872128E+04  0.11670872128E+04  0.25500000920E-02 0.  1.
        2   -1    0    0  501    0  0.00000000000E+00  0.00000000000E+00 -0.30917866152E+04  0.30917866152E+04  0.25500000920E-02 0. -1.
    10030    2    1    2    0    0  0.00000000000E+00  0.00000000000E+00 -0.19246994024E+04  0.42588738280E+04  0.37991497066E+04 0.  0.
        1    1    3    3  502    0  0.12542146871E+04 -0.29126328623E+03 -0.25279499469E+04  0.28369736899E+04  0.50400001928E-02 0. -1.
       -1    1    3    3    0  502 -0.12542146871E+04  0.29126328623E+03  0.60325054444E+03  0.14219001381E+04  0.50400001928E-02 0.  1.
</event>
<event>
 5   0  0.1070988E-07  0.3760194E+04  0.7818609E-02  0.8054751E-01
        1   -1    0    0  501    0  0.00000000000E+00  0.00000000000E+00  0.18768622506E+04  0.18768622506E+04  0.50400001928E-02 0. -1.
       -1   -1    0    0    0  501  0.00000000000E+00  0.00000000000E+00 -0.18833373232E+04  0.18833373232E+04  0.50400001928E-02 0.  1.
    10030    2    1    2    0    0  0.00000000000E+00  0.00000000000E+00 -0.64750725902E+01  0.37601995739E+04  0.37601939988E+04 0.  0.
        3    1    3    3  502    0 -0.55511932987E+03  0.12342700943E+04  0.13018255393E+04  0.18778524652E+04  0.10100000352E+00 0. -1.
       -3    1    3    3    0  502  0.55511932987E+03 -0.12342700943E+04 -0.13083006119E+04  0.18823471086E+04  0.10100000352E+00 0.  1.
</event>
<event>
 5   0  0.1070988E-07  0.3785369E+04  0.7818609E-02  0.8049302E-01
        1   -1    0    0  501    0  0.00000000000E+00  0.00000000000E+00  0.22522561281E+04  0.22522561281E+04  0.50400001928E-02 0. -1.
       -1   -1    0    0    0  501  0.00000000000E+00  0.00000000000E+00 -0.15905181059E+04  0.15905181059E+04  0.50400001928E-02 0.  1.
    10030    2    1    2    0    0  0.00000000000E+00  0.00000000000E+00  0.66173802218E+03  0.38427742340E+04  0.37853687539E+04 0.  0.
        3    1    3    3  502    0 -0.13982709550E+02 -0.93590725032E+03 -0.13391118966E+04  0.16338110598E+04  0.10100000352E+00 0.  1.
       -3    1    3    3    0  502  0.13982709550E+02  0.93590725032E+03  0.20008499187E+04  0.22089631742E+04  0.10100000352E+00 0. -1.
</event>
<event>
 5   0  0.3509843E-07  0.3806711E+04  0.7818609E-02  0.8044716E-01
        2   -1    0    0  501    0  0.00000000000E+00  0.00000000000E+00  0.20255328231E+04  0.20255328231E+04  0.25500000920E-02 0.  1.
       -2   -1    0    0    0  501  0.00000000000E+00  0.00000000000E+00 -0.17885480236E+04  0.17885480236E+04  0.25500000920E-02 0. -1.
    10030    2    1    2    0    0  0.00000000000E+00  0.00000000000E+00  0.23698479953E+03  0.38140808466E+04  0.38067112984E+04 0.  0.
        4    1    3    3  502    0 -0.41709292069E+03 -0.85980706451E+03  0.17677429915E+04  0.20095152624E+04  0.12699999809E+01 0.  1.
       -4    1    3    3    0  502  0.41709292069E+03  0.85980706451E+03 -0.15307581920E+04  0.18045655843E+04  0.12699999809E+01 0. -1.
</event>
<event>
 5   0  0.3539010E-07  0.3775084E+04  0.7818609E-02  0.8051523E-01
       -2   -1    0    0    0  501  0.00000000000E+00  0.00000000000E+00  0.12321564368E+04  0.12321564368E+04  0.25500000920E-02 0.  1.
        2   -1    0    0  501    0  0.00000000000E+00  0.00000000000E+00 -0.28915277659E+04  0.28915277659E+04  0.25500000920E-02 0. -1.
    10030    2    1    2    0    0  0.00000000000E+00  0.00000000000E+00 -0.16593713291E+04  0.41236842028E+04  0.37750838661E+04 0.  0.
        1    1    3    3  502    0 -0.12703543672E+04 -0.13842519698E+04 -0.10277006046E+04  0.21415233520E+04  0.50400001928E-02 0. -1.
       -1    1    3    3    0  502  0.12703543672E+04  0.13842519698E+04 -0.63167072447E+03  0.19821608508E+04  0.50400001928E-02 0.  1.
</event>
<event>
 5   0  0.1070988E-07  0.3766053E+04  0.7818609E-02  0.8053479E-01
        1   -1    0    0  501    0  0.00000000000E+00  0.00000000000E+00  0.21326478335E+04  0.21326478335E+04  0.50400001928E-02 0.  1.
       -1   -1    0    0    0  501  0.00000000000E+00  0.00000000000E+00 -0.16626231774E+04  0.16626231774E+04  0.50400001928E-02 0. -1.
    10030    2    1    2    0    0  0.00000000000E+00  0.00000000000E+00  0.47002465618E+03  0.37952710109E+04  0.37660534872E+04 0.  0.
        2    1    3    3  502    0  0.43096701333E+03 -0.56834106756E+03 -0.15212199890E+04  0.16801352298E+04  0.25500000920E-02 0. -1.
       -2    1    3    3    0  502 -0.43096701333E+03  0.56834106756E+03  0.19912446451E+04  0.21151357811E+04  0.25500000920E-02 0.  1.
</event>
<event>
 5   0  0.1085771E-07  0.3795659E+04  0.7818609E-02  0.8047087E-01
       -1   -1    0    0    0  501  0.00000000000E+00  0.00000000000E+00  0.16948352175E+04  0.16948352175E+04  0.50400001928E-02 0. -1.
        1   -1    0    0  501    0  0.00000000000E+00  0.00000000000E+00 -0.21251364143E+04  0.21251364143E+04  0.50400001928E-02 0.  1.
    10030    2    1    2    0    0  0.00000000000E+00  0.00000000000E+00 -0.43030119687E+03  0.38199716318E+04  0.37956585921E+04 0.  0.
        1    1    3    3  502    0 -0.97336469323E+03 -0.39678876781E+03 -0.18054228209E+04  0.20891222354E+04  0.50400001928E-02 0.  1.
       -1    1    3    3    0  502  0.97336469323E+03  0.39678876781E+03  0.13751216240E+04  0.17308493964E+04  0.50400001928E-02 0. -1.
</event>
<event>
 5   0  0.1070988E-07  0.3562249E+04  0.7818609E-02  0.8099194E-01
       -1   -1    0    0    0  501  0.00000000000E+00  0.00000000000E+00  0.15151361080E+04  0.15151361080E+04  0.50400001928E-02 0. -1.
        1   -1    0    0  501    0  0.00000000000E+00  0.00000000000E+00 -0.20938084990E+04  0.20938084990E+04  0.50400001928E-02 0.  1.
    10030    2    1    2    0    0  0.00000000000E+00  0.00000000000E+00 -0.57867239103E+03  0.36089446070E+04  0.35622492108E+04 0.  0.
        5    1    3    3  502    0  0.23224188293E+02  0.95169642916E+03  0.12357595577E+04  0.15599324443E+04  0.46999998093E+01 0. -1.
       -5    1    3    3    0  502 -0.23224188293E+02 -0.95169642916E+03 -0.18144319488E+04  0.20490121627E+04  0.46999998093E+01 0.  1.
</event>
<event>
 5   0  0.3442126E-07  0.3745802E+04  0.7818609E-02  0.8057887E-01
       -2   -1    0    0    0  501  0.00000000000E+00  0.00000000000E+00  0.25019696104E+04  0.25019696104E+04  0.25500000920E-02 0. -1.
        2   -1    0    0  501    0  0.00000000000E+00  0.00000000000E+00 -0.14019983775E+04  0.14019983775E+04  0.25500000920E-02 0.  1.
    10030    2    1    2    0    0  0.00000000000E+00  0.00000000000E+00  0.10999712329E+04  0.39039679879E+04  0.37458015614E+04 0.  0.
        2    1    3    3  502    0 -0.75836946634E+03  0.59347524315E+02 -0.12337455198E+04  0.14494048377E+04  0.25500000920E-02 0.  1.
       -2    1    3    3    0  502  0.75836946634E+03 -0.59347524315E+02  0.23337167527E+04  0.24545631501E+04  0.25500000920E-02 0. -1.
</event>
<event>
 5   0  0.1084315E-07  0.3791453E+04  0.7818609E-02  0.8047991E-01
        1   -1    0    0  501    0  0.00000000000E+00  0.00000000000E+00  0.24933539801E+04  0.24933539801E+04  0.50400001928E-02 0. -1.
       -1   -1    0    0    0  501  0.00000000000E+00  0.00000000000E+00 -0.14413434146E+04  0.14413434146E+04  0.50400001928E-02 0.  1.
    10030    2    1    2    0    0  0.00000000000E+00  0.00000000000E+00  0.10520105655E+04  0.39346973947E+04  0.37914531987E+04 0.  0.
        4    1    3    3  502    0 -0.80468099693E+03  0.83911948233E+02  0.23051941609E+04  0.24430461424E+04  0.12699999809E+01 0. -1.
       -4    1    3    3    0  502  0.80468099693E+03 -0.83911948233E+02 -0.12531835953E+04  0.14916512523E+04  0.12699999809E+01 0.  1.
</event>
<event>
 5   0  0.3377396E-07  0.3051647E+04  0.7818609E-02  0.8229135E-01
        2   -1    0    0  501    0  0.00000000000E+00  0.00000000000E+00  0.17109460561E+04  0.17109460561E+04  0.25500000920E-02 0.  1.
       -2   -1    0    0    0  501  0.00000000000E+00  0.00000000000E+00 -0.13607307593E+04  0.13607307593E+04  0.25500000920E-02 0. -1.
    10030    2    1    2    0    0  0.00000000000E+00  0.00000000000E+00  0.35021529677E+03  0.30716768153E+04  0.30516467200E+04 0.  0.
        5    1    3    3  502    0  0.60401076535E+02  0.32586141018E+03 -0.13240576923E+04  0.13649120159E+04  0.46999998093E+01 0. -1.
       -5    1    3    3    0  502 -0.60401076535E+02 -0.32586141018E+03  0.16742729891E+04  0.17067647994E+04  0.46999998093E+01 0.  1.
</event>
<event>
 5   0  0.1070988E-07  0.3693074E+04  0.7818609E-02  0.8069498E-01
       -1   -1    0    0    0  501  0.00000000000E+00  0.00000000000E+00  0.21222248481E+04  0.21222248481E+04  0.50400001928E-02 0.  1.
        1   -1    0    0  501    0  0.00000000000E+00  0.00000000000E+00 -0.16066623737E+04  0.16066623737E+04  0.50400001928E-02 0. -1.
    10030    2    1    2    0    0  0.00000000000E+00  0.00000000000E+00  0.51556247440E+03  0.37288872218E+04  0.36930739565E+04 0.  0.
        5    1    3    3  502    0  0.11144278976E+04 -0.11060129553E+04 -0.72347766349E+03  0.17287730377E+04  0.46999998093E+01 0. -1.
       -5    1    3    3    0  502 -0.11144278976E+04  0.11060129553E+04  0.12390401379E+04  0.20001141841E+04  0.46999998093E+01 0.  1.
</event>
<event>
 5   0  0.1085771E-07  0.3889804E+04  0.7818609E-02  0.8027153E-01
       -1   -1    0    0    0  501  0.00000000000E+00  0.00000000000E+00  0.20036969480E+04  0.20036969480E+04  0.50400001928E-02 0. -1.
        1   -1    0    0  501    0  0.00000000000E+00  0.00000000000E+00 -0.18878325330E+04  0.18878325330E+04  0.50400001928E-02 0.  1.
    10030    2    1    2    0    0  0.00000000000E+00  0.00000000000E+00  0.11586441502E+03  0.38915294810E+04  0.38898042546E+04 0.  0.
        1    1    3    3  502    0 -0.37712674085E+03 -0.15041431479E+04  0.12323238370E+04  0.19807304782E+04  0.50400001928E-02 0. -1.
       -1    1    3    3    0  502  0.37712674085E+03  0.15041431479E+04 -0.11164594220E+04  0.19107990028E+04  0.50400001928E-02 0.  1.
</event>
<event>
 5   0  0.3442126E-07  0.3813641E+04  0.7818609E-02  0.8043234E-01
        2   -1    0    0  501    0  0.00000000000E+00  0.00000000000E+00  0.20427206520E+04  0.20427206520E+04  0.25500000920E-02 0.  1.
       -2   -1    0    0    0  501  0.00000000000E+00  0.00000000000E+00 -0.17799615552E+04  0.17799615552E+04  0.25500000920E-02 0. -1.
    10030    2    1    2    0    0  0.00000000000E+00  0.00000000000E+00  0.26275909672E+03  0.38226822072E+04  0.38136409000E+04 0.  0.
        2    1    3    3  502    0 -0.12574937891E+02 -0.19004713708E+04  0.28671360897E+03  0.19220182761E+04  0.25500000920E-02 0. -1.
       -2    1    3    3    0  502  0.12574937891E+02  0.19004713708E+04 -0.23954512255E+02  0.19006639311E+04  0.25500000920E-02 0.  1.
</event>
<event>
 5   0  0.1070988E-07  0.3795276E+04  0.7818609E-02  0.8047169E-01
       -1   -1    0    0    0  501  0.00000000000E+00  0.00000000000E+00  0.14438249412E+04  0.14438249412E+04  0.50400001928E-02 0. -1.
        1   -1    0    0  501    0  0.00000000000E+00  0.00000000000E+00 -0.24940898323E+04  0.24940898323E+04  0.50400001928E-02 0.  1.
    10030    2    1    2    0    0  0.00000000000E+00  0.00000000000E+00 -0.10502648911E+04  0.39379147735E+04  0.37952755396E+04 0.  0.
        5    1    3    3  502    0  0.18139140455E+03 -0.18889195245E+04 -0.53482169618E+03  0.19715415665E+04  0.46999998093E+01 0. -1.
       -5    1    3    3    0  502 -0.18139140455E+03  0.18889195245E+04 -0.51544319489E+03  0.19663732070E+04  0.46999998093E+01 0.  1.
</event>
<event>
 5   0  0.3539010E-07  0.3785110E+04  0.7818609E-02  0.8049358E-01
        2   -1    0    0  501    0  0.00000000000E+00  0.00000000000E+00  0.25560179908E+04  0.25560179908E+04  0.25500000920E-02 0. -1.
       -2   -1    0    0    0  501  0.00000000000E+00  0.00000000000E+00 -0.14013064548E+04  0.14013064548E+04  0.25500000920E-02 0.  1.
    10030    2    1    2    0    0  0.00000000000E+00  0.00000000000E+00  0.11547115361E+04  0.39573244456E+04  0.37851100428E+04 0.  0.
        1    1    3    3  502    0  0.96285238441E+03 -0.84963254652E+03 -0.87615111532E+03  0.15545420403E+04  0.50400001928E-02 0.  1.
       -1    1    3    3    0  502 -0.96285238441E+03  0.84963254652E+03  0.20308626514E+04  0.24027824053E+04  0.50400001928E-02 0. -1.
</event>
<event>
 5   0  0.1085771E-07  0.3828454E+04  0.7818609E-02  0.8040076E-01
        1   -1    0    0  501    0  0.00000000000E+00  0.00000000000E+00  0.19969152685E+04  0.19969152685E+04  0.50400001928E-02 0. -1.
       -1   -1    0    0    0  501  0.00000000000E+00  0.00000000000E+00 -0.18349625713E+04  0.18349625713E+04  0.50400001928E-02 0.  1.
    10030    2    1    2    0    0  0.00000000000E+00  0.00000000000E+00  0.16195269718E+03  0.38318778397E+04  0.38284538789E+04 0.  0.
        1    1    3    3  502    0 -0.85702434934E+03 -0.13219103831E+04 -0.10073447175E+04  0.18699414900E+04  0.50400001928E-02 0.  1.
       -1    1    3    3    0  502  0.85702434934E+03  0.13219103831E+04  0.11692974147E+04  0.19619363497E+04  0.50400001928E-02 0. -1.
</event>
<event>
 5   0  0.1070988E-07  0.3847954E+04  0.7818609E-02  0.8035942E-01
       -1   -1    0    0    0  501  0.00000000000E+00  0.00000000000E+00  0.17679749773E+04  0.17679749773E+04  0.50400001928E-02 0. -1.
        1   -1    0    0  501    0  0.00000000000E+00  0.00000000000E+00 -0.20937446765E+04  0.20937446766E+04  0.50400001928E-02 0.  1.
    10030    2    1    2    0    0  0.00000000000E+00  0.00000000000E+00 -0.32576969924E+03  0.38617196539E+04  0.38479543641E+04 0.  0.
        2    1    3    3  502    0 -0.11391056121E+04  0.23655077819E+03 -0.17007406956E+04  0.20605913666E+04  0.25500000920E-02 0.  1.
       -2    1    3    3    0  502  0.11391056121E+04 -0.23655077819E+03  0.13749709964E+04  0.18011282873E+04  0.25500000920E-02 0. -1.
</event>
<event>
 5   0  0.3509843E-07  0.3788125E+04  0.7818609E-02  0.8048708E-01
        2   -1    0    0  501    0  0.00000000000E+00  0.00000000000E+00  0.17377821626E+04  0.17377821626E+04  0.25500000920E-02 0.  1.
       -2   -1    0    0    0  501  0.00000000000E+00  0.00000000000E+00 -0.20643970903E+04  0.20643970903E+04  0.25500000920E-02 0. -1.
    10030    2    1    2    0    0  0.00000000000E+00  0.00000000000E+00 -0.32661492774E+03  0.38021792529E+04  0.37881248343E+04 0.  0.
        4    1    3    3  502    0  0.10255637610E+04 -0.79616552277E+03 -0.15474853237E+04  0.20199933187E+04  0.12699999809E+01 0. -1.
       -4    1    3    3    0  502 -0.10255637610E+04  0.79616552277E+03  0.12208703960E+04  0.17821859342E+04  0.12699999809E+01 0.  1.
</event>
<event>
 5   0  0.3442126E-07  0.3811477E+04  0.7818609E-02  0.8043696E-01
       -2   -1    0    0    0  501  0.00000000000E+00  0.00000000000E+00  0.18923971242E+04  0.18923971242E+04  0.25500000920E-02 0. -1.
        2   -1    0    0  501    0  0.00000000000E+00  0.00000000000E+00 -0.19191736987E+04  0.19191736987E+04  0.25500000920E-02 0.  1.
    10030    2    1    2    0    0  0.00000000000E+00  0.00000000000E+00 -0.26776574550E+02  0.38115708229E+04  0.38114767680E+04 0.  0.
        2    1    3    3  502    0  0.70906249811E+02  0.17505926913E+04  0.73645440932E+03  0.19005177095E+04  0.25500000920E-02 0. -1.
       -2    1    3    3    0  502 -0.70906249811E+02 -0.17505926913E+04 -0.76323098387E+03  0.19110531133E+04  0.25500000920E-02 0.  1.
</event>
<event>
 5   0  0.3509843E-07  0.3556828E+04  0.7818609E-02  0.8100453E-01
        2   -1    0    0  501    0  0.00000000000E+00  0.00000000000E+00  0.22726750378E+04  0.22726750378E+04  0.25500000920E-02 0.  1.
       -2   -1    0    0    0  501  0.00000000000E+00  0.00000000000E+00 -0.13916447025E+04  0.13916447025E+04  0.25500000920E-02 0. -1.
    10030    2    1    2    0    0  0.00000000000E+00  0.00000000000E+00  0.88103033533E+03  0.36643197404E+04  0.35568278997E+04 0.  0.
        4    1    3    3  502    0  0.63096713765E+03 -0.61315187665E+03 -0.11517283144E+04  0.14493289743E+04  0.12699999809E+01 0. -1.
       -4    1    3    3    0  502 -0.63096713765E+03  0.61315187665E+03  0.20327586498E+04  0.22149907661E+04  0.12699999809E+01 0.  1.
</event>
<event>
 5   0  0.1070988E-07  0.3712656E+04  0.7818609E-02  0.8065163E-01
       -1   -1    0    0    0  501  0.00000000000E+00  0.00000000000E+00  0.18150006877E+04  0.18150006877E+04  0.50400001928E-02 0. -1.
        1   -1    0    0  501    0  0.00000000000E+00  0.00000000000E+00 -0.18985963360E+04  0.18985963360E+04  0.50400001928E-02 0.  1.
    10030    2    1    2    0    0  0.00000000000E+00  0.00000000000E+00 -0.83595648262E+02  0.37135970237E+04  0.37126560064E+04 0.  0.
        2    1    3    3  502    0 -0.63146366408E+03 -0.12979127631E+03  0.16994367605E+04  0.18176021120E+04  0.25500000920E-02 0. -1.
       -2    1    3    3    0  502  0.63146366408E+03  0.12979127631E+03 -0.17830324088E+04  0.18959949117E+04  0.25500000920E-02 0.  1.
</event>
<event>
 5   0  0.3539010E-07  0.3779194E+04  0.7818609E-02  0.8050635E-01
       -2   -1    0    0    0  501  0.00000000000E+00  0.00000000000E+00  0.13590182453E+04  0.13590182453E+04  0.25500000920E-02 0.  1.
        2   -1    0    0  501    0  0.00000000000E+00  0.00000000000E+00 -0.26273200597E+04  0.26273200597E+04  0.25500000920E-02 0. -1.
    10030    2    1    2    0    0  0.00000000000E+00  0.00000000000E+00 -0.12683018145E+04  0.39863383050E+04  0.37791935104E+04 0.  0.
        1    1    3    3  502    0 -0.22584725549E+03  0.17999766491E+04 -0.76342897278E+02  0.18156957779E+04  0.50400001928E-02 0. -1.
       -1    1    3    3    0  502  0.22584725549E+03 -0.17999766491E+04 -0.11919589172E+04  0.21706425271E+04  0.50400001928E-02 0.  1.
</event>
<event>
 5   0  0.1084315E-07  0.3805437E+04  0.7818609E-02  0.8044989E-01
        1   -1    0    0  501    0  0.00000000000E+00  0.00000000000E+00  0.21866537263E+04  0.21866537263E+04  0.50400001928E-02 0. -1.
       -1   -1    0    0    0  501  0.00000000000E+00  0.00000000000E+00 -0.16556519001E+04  0.16556519001E+04  0.50400001928E-02 0.  1.
    10030    2    1    2    0    0  0.00000000000E+00  0.00000000000E+00  0.53100182620E+03  0.38423056263E+04  0.38054368457E+04 0.  0.
        4    1    3    3  502    0 -0.13234274365E+04  0.22590184555E+03 -0.10958362130E+04  0.17330177270E+04  0.12699999809E+01 0.  1.
       -4    1    3    3    0  502  0.13234274365E+04 -0.22590184555E+03  0.16268380392E+04  0.21092878993E+04  0.12699999809E+01 0. -1.
</event>
<event>
 5   0  0.1070988E-07  0.3771287E+04  0.7818609E-02  0.8052345E-01
       -1   -1    0    0    0  501  0.00000000000E+00  0.00000000000E+00  0.14853563070E+04  0.14853563070E+04  0.50400001928E-02 0.  1.
        1   -1    0    0  501    0  0.00000000000E+00  0.00000000000E+00 -0.23938033945E+04  0.23938033945E+04  0.50400001928E-02 0. -1.
    10030    2    1    2    0    0  0.00000000000E+00  0.00000000000E+00 -0.90844708756E+03  0.38791597015E+04  0.37712867670E+04 0.  0.
        2    1    3    3  502    0  0.14098257442E+04 -0.11419758870E+04  0.74215977104E+02  0.18158264143E+04  0.25500000920E-02 0.  1.
       -2    1    3    3    0  502 -0.14098257442E+04  0.11419758870E+04 -0.98266306466E+03  0.20633332872E+04  0.25500000920E-02 0. -1.
</event>
<event>
 5   0  0.1085771E-07  0.3512228E+04  0.7818609E-02  0.8110898E-01
        1   -1    0    0  501    0  0.00000000000E+00  0.00000000000E+00  0.94379829994E+03  0.94379829995E+03  0.50400001928E-02 0. -1.
       -1   -1    0    0    0  501  0.00000000000E+00  0.00000000000E+00 -0.32675790910E+04  0.32675790910E+04  0.50400001928E-02 0.  1.
    10030    2    1    2    0    0  0.00000000000E+00  0.00000000000E+00 -0.23237807911E+04  0.42113773910E+04  0.35122275502E+04 0.  0.
        1    1    3    3  502    0 -0.17135248732E+04  0.19262585390E+03 -0.76300927404E+03  0.18855915154E+04  0.50400001928E-02 0. -1.
       -1    1    3    3    0  502  0.17135248732E+04 -0.19262585390E+03 -0.15607715171E+04  0.23257858756E+04  0.50400001928E-02 0.  1.
</event>
<event>
 5   0  0.3539010E-07  0.3643980E+04  0.7818609E-02  0.8080491E-01
       -2   -1    0    0    0  501  0.00000000000E+00  0.00000000000E+00  0.14723141705E+04  0.14723141705E+04  0.25500000920E-02 0. -1.
        2   -1    0    0  501    0  0.00000000000E+00  0.00000000000E+00 -0.22547139222E+04  0.22547139222E+04  0.25500000920E-02 0.  1.
    10030    2    1    2    0    0  0.00000000000E+00  0.00000000000E+00 -0.78239975167E+03  0.37270280928E+04  0.36439798343E+04 0.  0.
        1    1    3    3  502    0  0.17950409706E+04  0.29141918702E+03 -0.27661980882E+03  0.18394607219E+04  0.50400001928E-02 0. -1.
       -1    1    3    3    0  502 -0.17950409706E+04 -0.29141918702E+03 -0.50577994286E+03  0.18875673708E+04  0.50400001928E-02 0.  1.
</event>
<event>
 5   0  0.1070988E-07  0.3841585E+04  0.7818609E-02  0.8037289E-01
        1   -1    0    0  501    0  0.00000000000E+00  0.00000000000E+00  0.24433151951E+04  0.24433151951E+04  0.50400001928E-02 0. -1.
       -1   -1    0    0    0  501  0.00000000000E+00  0.00000000000E+00 -0.15100158115E+04  0.15100158115E+04  0.50400001928E-02 0.  1.
    10030    2    1    2    0    0  0.00000000000E+00  0.00000000000E+00  0.93329938362E+03  0.39533310066E+04  0.38415853900E+04 0.  0.
        3    1    3    3  502    0 -0.79273406451E+03 -0.42570862070E+03  0.22130067954E+04  0.23889441629E+04  0.10100000352E+00 0. -1.
       -3    1    3    3    0  502  0.79273406451E+03  0.42570862070E+03 -0.12797074118E+04  0.15643868437E+04  0.10100000352E+00 0.  1.
</event>
<event>
 5   0  0.1070988E-07  0.3818601E+04  0.7818609E-02  0.8042175E-01
        1   -1    0    0  501    0  0.00000000000E+00  0.00000000000E+00  0.23294686564E+04  0.23294686564E+04  0.50400001928E-02 0. -1.
       -1   -1    0    0    0  501  0.00000000000E+00  0.00000000000E+00 -0.15649187371E+04  0.15649187371E+04  0.50400001928E-02 0.  1.
    10030    2    1    2    0    0  0.00000000000E+00  0.00000000000E+00  0.76454991937E+03  0.38943873935E+04  0.38186013921E+04 0.  0.
        5    1    3    3  502    0  0.15047953496E+04 -0.21144152057E+03 -0.79664756136E+03  0.17157464812E+04  0.46999998093E+01 0.  1.
       -5    1    3    3    0  502 -0.15047953496E+04  0.21144152057E+03  0.15611974807E+04  0.21786409123E+04  0.46999998093E+01 0. -1.
</event>
<event>
 5   0  0.1070988E-07  0.3788490E+04  0.7818609E-02  0.8048629E-01
       -1   -1    0    0    0  501  0.00000000000E+00  0.00000000000E+00  0.21856092589E+04  0.21856092589E+04  0.50400001928E-02 0.  1.
        1   -1    0    0  501    0  0.00000000000E+00  0.00000000000E+00 -0.16417227883E+04  0.16417227883E+04  0.50400001928E-02 0. -1.
    10030    2    1    2    0    0  0.00000000000E+00  0.00000000000E+00  0.54388647058E+03  0.38273320473E+04  0.37884902147E+04 0.  0.
        3    1    3    3  502    0  0.17433747827E+04 -0.69408219598E+03  0.53355533365E+03  0.19508426467E+04  0.10100000352E+00 0.  1.
       -3    1    3    3    0  502 -0.17433747827E+04  0.69408219598E+03  0.10331136935E+02  0.18764894006E+04  0.10100000352E+00 0. -1.
</event>
<event>
 5   0  0.3442126E-07  0.3692125E+04  0.7818609E-02  0.8069709E-01
       -2   -1    0    0    0  501  0.00000000000E+00  0.00000000000E+00  0.28194992711E+04  0.28194992711E+04  0.25500000920E-02 0.  1.
        2   -1    0    0  501    0  0.00000000000E+00  0.00000000000E+00 -0.12087064355E+04  0.12087064355E+04  0.25500000920E-02 0. -1.
    10030    2    1    2    0    0  0.00000000000E+00  0.00000000000E+00  0.16107928356E+04  0.40282057065E+04  0.36921250866E+04 0.  0.
        2    1    3    3  502    0 -0.24869951238E+03  0.13949106277E+04 -0.48567078875E+03  0.14978328417E+04  0.25500000920E-02 0. -1.
       -2    1    3    3    0  502  0.24869951238E+03 -0.13949106277E+04  0.20964636243E+04  0.25303728648E+04  0.25500000920E-02 0.  1.
</event>
<event>
 5   0  0.3442126E-07  0.3770139E+04  0.7818609E-02  0.8052593E-01
       -2   -1    0    0    0  501  0.00000000000E+00  0.00000000000E+00  0.12373074476E+04  0.12373074476E+04  0.25500000920E-02 0. -1.
        2   -1    0    0  501    0  0.00000000000E+00  0.00000000000E+00 -0.28719522112E+04  0.28719522112E+04  0.25500000920E-02 0.  1.
    10030    2    1    2    0    0  0.00000000000E+00  0.00000000000E+00 -0.16346447636E+04  0.41092596588E+04  0.37701394458E+04 0.  0.
        2    1    3    3  502    0 -0.20796592903E+03  0.17656237489E+04 -0.13420098856E+03  0.17828872527E+04  0.25500000920E-02 0.  1.
       -2    1    3    3    0  502  0.20796592903E+03 -0.17656237489E+04 -0.15004437750E+04  0.23263724062E+04  0.25500000920E-02 0. -1.
</event>
<event>
 5   0  0.3509843E-07  0.3771437E+04  0.7818609E-02  0.8052312E-01
        2   -1    0    0  501    0  0.00000000000E+00  0.00000000000E+00  0.27680098585E+04  0.27680098585E+04  0.25500000920E-02 0.  1.
       -2   -1    0    0    0  501  0.00000000000E+00  0.00000000000E+00 -0.12846539984E+04  0.12846539984E+04  0.25500000920E-02 0. -1.
    10030    2    1    2    0    0  0.00000000000E+00  0.00000000000E+00  0.14833558602E+04  0.40526638569E+04  0.37714373558E+04 0.  0.
        4    1    3    3  502    0  0.71495570344E+03 -0.72380717264E+03  0.24477969578E+04  0.26508055456E+04  0.12699999809E+01 0.  1.
       -4    1    3    3    0  502 -0.71495570344E+03  0.72380717264E+03 -0.96444109766E+03  0.14018583112E+04  0.12699999809E+01 0. -1.
</event>
<event>
 5   0  0.1070988E-07  0.3784871E+04  0.7818609E-02  0.8049409E-01
       -1   -1    0    0    0  501  0.00000000000E+00  0.00000000000E+00  0.26915823424E+04  0.26915823424E+04  0.50400001928E-02 0.  1.
        1   -1    0    0  501    0  0.00000000000E+00  0.00000000000E+00 -0.13305598689E+04  0.13305598689E+04  0.50400001928E-02 0. -1.
    10030    2    1    2    0    0  0.00000000000E+00  0.00000000000E+00  0.13610224735E+04  0.40221422113E+04  0.37848706443E+04 0.  0.
        3    1    3    3  502    0  0.59078087162E+03 -0.78115745710E+03 -0.10402854085E+04  0.14287836619E+04  0.10100000352E+00 0. -1.
       -3    1    3    3    0  502 -0.59078087162E+03  0.78115745710E+03  0.24013078820E+04  0.25933585494E+04  0.10100000352E+00 0.  1.
</event>
<event>
 5   0  0.1084315E-07  0.3769763E+04  0.7818609E-02  0.8052675E-01
        1   -1    0    0  501    0  0.00000000000E+00  0.00000000000E+00  0.10820760420E+04  0.10820760421E+04  0.50400001928E-02 0. -1.
       -1   -1    0    0    0  501  0.00000000000E+00  0.00000000000E+00 -0.32832980634E+04  0.32832980634E+04  0.50400001928E-02 0.  1.
    10030    2    1    2    0    0  0.00000000000E+00  0.00000000000E+00 -0.22012220213E+04  0.43653741054E+04  0.37697629492E+04 0.  0.
        4    1    3    3  502    0 -0.16461174282E+03  0.11729322534E+04 -0.27985321366E+04  0.30388568294E+04  0.12699999809E+01 0.  1.
       -4    1    3    3    0  502  0.16461174282E+03 -0.11729322534E+04  0.59731011524E+03  0.13265172761E+04  0.12699999809E+01 0. -1.
</event>
<event>
 5   0  0.3377396E-07  0.3739476E+04  0.7818609E-02  0.8059269E-01
        2   -1    0    0  501    0  0.00000000000E+00  0.00000000000E+00  0.24652901533E+04  0.24652901533E+04  0.25500000920E-02 0.  1.
       -2   -1    0    0    0  501  0.00000000000E+00  0.00000000000E+00 -0.14180566605E+04  0.14180566605E+04  0.25500000920E-02 0. -1.
    10030    2    1    2    0    0  0.00000000000E+00  0.00000000000E+00  0.10472334928E+04  0.38833468139E+04  0.37394764992E+04 0.  0.
        5    1    3    3  502    0 -0.76563021213E+03 -0.43533172786E+03 -0.11891390448E+04  0.14797895435E+04  0.46999998093E+01 0. -1.
       -5    1    3    3    0  502  0.76563021213E+03  0.43533172786E+03  0.22363725376E+04  0.24035572704E+04  0.46999998093E+01 0.  1.
</event>
<event>
 5   0  0.1070988E-07  0.3770190E+04  0.7818609E-02  0.8052582E-01
       -1   -1    0    0    0  501  0.00000000000E+00  0.00000000000E+00  0.16677519677E+04  0.16677519677E+04  0.50400001928E-02 0. -1.
        1   -1    0    0  501    0  0.00000000000E+00  0.00000000000E+00 -0.21307626532E+04  0.21307626532E+04  0.50400001928E-02 0.  1.
    10030    2    1    2    0    0  0.00000000000E+00  0.00000000000E+00 -0.46301068548E+03  0.37985146208E+04  0.37701902379E+04 0.  0.
        5    1    3    3  502    0 -0.58316857868E+03 -0.24265668190E+03  0.15579557119E+04  0.16811353148E+04  0.46999998093E+01 0. -1.
       -5    1    3    3    0  502  0.58316857868E+03  0.24265668190E+03 -0.20209663974E+04  0.21173793061E+04  0.46999998093E+01 0.  1.
</event>
<event>
 5   0  0.1084315E-07  0.3675951E+04  0.7818609E-02  0.8073312E-01
        1   -1    0    0  501    0  0.00000000000E+00  0.00000000000E+00  0.31437992934E+04  0.31437992934E+04  0.50400001928E-02 0. -1.
       -1   -1    0    0    0  501  0.00000000000E+00  0.00000000000E+00 -0.10745453296E+04  0.10745453296E+04  0.50400001928E-02 0.  1.
    10030    2    1    2    0    0  0.00000000000E+00  0.00000000000E+00  0.20692539638E+04  0.42183446230E+04  0.36759514947E+04 0.  0.
        4    1    3    3  502    0  0.33775219686E+03 -0.17748141337E+04  0.14222744510E+04  0.22993277240E+04  0.12699999809E+01 0.  1.
       -4    1    3    3    0  502 -0.33775219686E+03  0.17748141337E+04  0.64697951277E+03  0.19190168989E+04  0.12699999809E+01 0. -1.
</event>
<event>
 5   0  0.3327241E-07  0.3828743E+04  0.7818609E-02  0.8040015E-01
        2   -1    0    0  501    0  0.00000000000E+00  0.00000000000E+00  0.23584051264E+04  0.23584051264E+04  0.25500000920E-02 0. -1.
       -2   -1    0    0    0  501  0.00000000000E+00  0.00000000000E+00 -0.15539388649E+04  0.15539388649E+04  0.25500000920E-02 0.  1.
    10030    2    1    2    0    0  0.00000000000E+00  0.00000000000E+00  0.80446626157E+03  0.39123439913E+04  0.38287425534E+04 0.  0.
        3    1    3    3  502    0  0.59233356974E+02 -0.12339665639E+03 -0.15489322718E+04  0.15549683335E+04  0.10100000352E+00 0.  1.
       -3    1    3    3    0  502 -0.59233356974E+02  0.12339665639E+03  0.23533985333E+04  0.23573756579E+04  0.10100000352E+00 0. -1.
</event>
<event>
 5   0  0.1070988E-07  0.3697203E+04  0.7818609E-02  0.8068582E-01
       -1   -1    0    0    0  501  0.00000000000E+00  0.00000000000E+00  0.16313346657E+04  0.16313346657E+04  0.50400001928E-02 0. -1.
        1   -1    0    0  501    0  0.00000000000E+00  0.00000000000E+00 -0.20948046213E+04  0.20948046213E+04  0.50400001928E-02 0.  1.
    10030    2    1    2    0    0  0.00000000000E+00  0.00000000000E+00 -0.46346995563E+03  0.37261392870E+04  0.36972029410E+04 0.  0.
        5    1    3    3  502    0  0.15629629765E+03  0.15246850610E+04 -0.12733675936E+04  0.19926314728E+04  0.46999998093E+01 0.  1.
       -5    1    3    3    0  502 -0.15629629765E+03 -0.15246850610E+04  0.80989763797E+03  0.17335078142E+04  0.46999998093E+01 0. -1.
</event>
<event>
 5   0  0.1070988E-07  0.3784431E+04  0.7818609E-02  0.8049504E-01
        1   -1    0    0  501    0  0.00000000000E+00  0.00000000000E+00  0.29156891639E+04  0.29156891639E+04  0.50400001928E-02 0. -1.
       -1   -1    0    0    0  501  0.00000000000E+00  0.00000000000E+00 -0.12280042233E+04  0.12280042233E+04  0.50400001928E-02 0.  1.
    10030    2    1    2    0    0  0.00000000000E+00  0.00000000000E+00  0.16876849406E+04  0.41436933872E+04  0.37844305290E+04 0.  0.
        5    1    3    3  502    0  0.19052046349E+03  0.81677602781E+03 -0.10133618151E+04  0.13154259329E+04  0.46999998093E+01 0.  1.
       -5    1    3    3    0  502 -0.19052046349E+03 -0.81677602781E+03  0.27010467557E+04  0.28282674543E+04  0.46999998093E+01 0. -1.
</event>
<event>
 5   0  0.1070988E-07  0.3800889E+04  0.7818609E-02  0.8045964E-01
        1   -1    0    0  501    0  0.00000000000E+00  0.00000000000E+00  0.13553125866E+04  0.13553125866E+04  0.50400001928E-02 0.  1.
       -1   -1    0    0    0  501  0.00000000000E+00  0.00000000000E+00 -0.26648385864E+04  0.26648385864E+04  0.50400001928E-02 0. -1.
    10030    2    1    2    0    0  0.00000000000E+00  0.00000000000E+00 -0.13095259998E+04  0.40201511730E+04  0.38008889894E+04 0.  0.
        3    1    3    3  502    0  0.48117420202E+03 -0.12206664857E+04 -0.21088938705E+04  0.24837448840E+04  0.10100000352E+00 0. -1.
       -3    1    3    3    0  502 -0.48117420202E+03  0.12206664857E+04  0.79936787067E+03  0.15364062890E+04  0.10100000352E+00 0.  1.
</event>
<event>
 5   0  0.1070988E-07  0.3801096E+04  0.7818609E-02  0.8045920E-01
       -1   -1    0    0    0  501  0.00000000000E+00  0.00000000000E+00  0.19334798299E+04  0.19334798299E+04  0.50400001928E-02 0. -1.
        1   -1    0    0  501    0  0.00000000000E+00  0.00000000000E+00 -0.18681771633E+04  0.18681771633E+04  0.50400001928E-02 0.  1.
    10030    2    1    2    0    0  0.00000000000E+00  0.00000000000E+00  0.65302666668E+02  0.38016569932E+04  0.38010960861E+04 0.  0.
        2    1    3    3  502    0  0.82167239547E+03 -0.13797366665E+04 -0.98399464167E+03  0.18833651396E+04  0.25500000920E-02 0.  1.
       -2    1    3    3    0  502 -0.82167239547E+03  0.13797366665E+04  0.10492973083E+04  0.19182918536E+04  0.25500000920E-02 0. -1.
</event>
<event>
 5   0  0.1084315E-07  0.3824806E+04  0.7818609E-02  0.8040852E-01
        1   -1    0    0  501    0  0.00000000000E+00  0.00000000000E+00  0.20766276000E+04  0.20766276001E+04  0.50400001928E-02 0. -1.
       -1   -1    0    0    0  501  0.00000000000E+00  0.00000000000E+00 -0.17611658158E+04  0.17611658158E+04  0.50400001928E-02 0.  1.
    10030    2    1    2    0    0  0.00000000000E+00  0.00000000000E+00  0.31546178427E+03  0.38377934158E+04  0.38248061605E+04 0.  0.
        4    1    3    3  502    0  0.15931688086E+04  0.29626794568E+02  0.12187804304E+04  0.20061136433E+04  0.12699999809E+01 0. -1.
       -4    1    3    3    0  502 -0.15931688086E+04 -0.29626794568E+02 -0.90331864615E+03  0.18316797725E+04  0.12699999809E+01 0.  1.
</event>
<event>
 5   0  0.1084315E-07  0.3404920E+04  0.7818609E-02  0.8136700E-01
       -1   -1    0    0    0  501  0.00000000000E+00  0.00000000000E+00  0.19808560470E+04  0.19808560470E+04  0.50400001928E-02 0. -1.
        1   -1    0    0  501    0  0.00000000000E+00  0.00000000000E+00 -0.14631902622E+04  0.14631902622E+04  0.50400001928E-02 0.  1.
    10030    2    1    2    0    0  0.00000000000E+00  0.00000000000E+00  0.51766578476E+03  0.34440463092E+04  0.34049195461E+04 0.  0.
        4    1    3    3  502    0 -0.12661375099E+03 -0.12583311586E+04 -0.89397398702E+03  0.15487477035E+04  0.12699999809E+01 0.  1.
       -4    1    3    3    0  502  0.12661375099E+03  0.12583311586E+04  0.14116397718E+04  0.18952986057E+04  0.12699999809E+01 0. -1.
</event>
<event>
 5   0  0.3327241E-07  0.3439326E+04  0.7818609E-02  0.8128321E-01
       -2   -1    0    0    0  501  0.00000000000E+00  0.00000000000E+00  0.20682546177E+04  0.20682546177E+04  0.25500000920E-02 0.  1.
        2   -1    0    0  501    0  0.00000000000E+00  0.00000000000E+00 -0.14298246791E+04  0.14298246791E+04  0.25500000920E-02 0. -1.
    10030    2    1    2    0    0  0.00000000000E+00  0.00000000000E+00  0.63842993867E+03  0.34980792968E+04  0.34393263847E+04 0.  0.
        3    1    3    3  502    0 -0.15860718648E+04  0.19320653616E+02  0.99482452223E+03  0.18723442761E+04  0.10100000352E+00 0.  1.
       -3    1    3    3    0  502  0.15860718648E+04 -0.19320653616E+02 -0.35639458355E+03  0.16257350207E+04  0.10100000352E+00 0. -1.
</event>
<event>
 5   0  0.3509843E-07  0.3838451E+04  0.7818609E-02  0.8037953E-01
        2   -1    0    0  501    0  0.00000000000E+00  0.00000000000E+00  0.19107629258E+04  0.19107629258E+04  0.25500000920E-02 0. -1.
       -2   -1    0    0    0  501  0.00000000000E+00  0.00000000000E+00 -0.19277256479E+04  0.19277256479E+04  0.25500000920E-02 0.  1.
    10030    2    1    2    0    0  0.00000000000E+00  0.00000000000E+00 -0.16962722115E+02  0.38384885737E+04  0.38384510934E+04 0.  0.
        4    1    3    3  502    0  0.15837686807E+04 -0.10839271615E+04 -0.22755988674E+02  0.19193073681E+04  0.12699999809E+01 0.  1.
       -4    1    3    3    0  502 -0.15837686807E+04  0.10839271615E+04  0.57932665584E+01  0.19191812057E+04  0.12699999809E+01 0. -1.
</event>
<event>
 5   0  0.3509843E-07  0.3783474E+04  0.7818609E-02  0.8049711E-01
        2   -1    0    0  501    0  0.00000000000E+00  0.00000000000E+00  0.23137511350E+04  0.23137511350E+04  0.25500000920E-02 0.  1.
       -2   -1    0    0    0  501  0.00000000000E+00  0.00000000000E+00 -0.15466957529E+04  0.15466957529E+04  0.25500000920E-02 0. -1.
    10030    2    1    2    0    0  0.00000000000E+00  0.00000000000E+00  0.76705538215E+03  0.38604468879E+04  0.37834740933E+04 0.  0.
        4    1    3    3  502    0  0.13806471735E+04 -0.12652866159E+04  0.11063446264E+03  0.18760006491E+04  0.12699999809E+01 0. -1.
       -4    1    3    3    0  502 -0.13806471735E+04  0.12652866159E+04  0.65642091951E+03  0.19844462388E+04  0.12699999809E+01 0.  1.
</event>
<event>
 5   0  0.1070988E-07  0.3790257E+04  0.7818609E-02  0.8048249E-01
       -1   -1    0    0    0  501  0.00000000000E+00  0.00000000000E+00  0.31264777589E+04  0.31264777589E+04  0.50400001928E-02 0.  1.
        1   -1    0    0  501    0  0.00000000000E+00  0.00000000000E+00 -0.11487404667E+04  0.11487404667E+04  0.50400001928E-02 0. -1.
    10030    2    1    2    0    0  0.00000000000E+00  0.00000000000E+00  0.19777372922E+04  0.42752182257E+04  0.37902567301E+04 0.  0.
        5    1    3    3  502    0  0.98744145251E+03 -0.15366839861E+04  0.15585123353E+04  0.24011291270E+04  0.46999998093E+01 0.  1.
       -5    1    3    3    0  502 -0.98744145251E+03  0.15366839861E+04  0.41922495685E+03  0.18740890986E+04  0.46999998093E+01 0. -1.
</event>
<event>
 5   0  0.1070988E-07  0.3712350E+04  0.7818609E-02  0.8065231E-01
        1   -1    0    0  501    0  0.00000000000E+00  0.00000000000E+00  0.14687470431E+04  0.14687470431E+04  0.50400001928E-02 0. -1.
       -1   -1    0    0    0  501  0.00000000000E+00  0.00000000000E+00 -0.23457986135E+04  0.23457986135E+04  0.50400001928E-02 0.  1.
    10030    2    1    2    0    0  0.00000000000E+00  0.00000000000E+00 -0.87705157036E+03  0.38145456566E+04  0.37123495403E+04 0.  0.
        3    1    3    3  502    0  0.15795515965E+04 -0.79056489632E+03  0.14762386976E+03  0.17725035736E+04  0.10100000352E+00 0.  1.
       -3    1    3    3    0  502 -0.15795515965E+04  0.79056489632E+03 -0.10246754401E+04  0.20420420830E+04  0.10100000352E+00 0. -1.
</event>
<event>
 5   0  0.3509843E-07  0.3706092E+04  0.7818609E-02  0.8066613E-01
        2   -1    0    0  501    0  0.00000000000E+00  0.00000000000E+00  0.28312484471E+04  0.28312484471E+04  0.25500000920E-02 0. -1.
       -2   -1    0    0    0  501  0.00000000000E+00  0.00000000000E+00 -0.12128147410E+04  0.12128147410E+04  0.25500000920E-02 0.  1.
    10030    2    1    2    0    0  0.00000000000E+00  0.00000000000E+00  0.16184337061E+04  0.40440631881E+04  0.37060922018E+04 0.  0.
        4    1    3    3  502    0  0.63995487136E+03  0.10696645451E+04  0.23054071965E+04  0.26208068283E+04  0.12699999809E+01 0. -1.
       -4    1    3    3    0  502 -0.63995487136E+03 -0.10696645451E+04 -0.68697349046E+03  0.14232563599E+04  0.12699999809E+01 0.  1.
</event>
<event>
 5   0  0.3377396E-07  0.3702443E+04  0.7818609E-02  0.8067421E-01
        2   -1    0    0  501    0  0.00000000000E+00  0.00000000000E+00  0.27739669550E+04  0.27739669550E+04  0.25500000920E-02 0. -1.
       -2   -1    0    0    0  501  0.00000000000E+00  0.00000000000E+00 -0.12354222254E+04  0.12354222254E+04  0.25500000920E-02 0.  1.
    10030    2    1    2    0    0  0.00000000000E+00  0.00000000000E+00  0.15385447296E+04  0.40093891804E+04  0.37024426686E+04 0.  0.
        5    1    3    3  502    0  0.14316018570E+04  0.10236671588E+04  0.13909949665E+04  0.22432715876E+04  0.46999998093E+01 0. -1.
       -5    1    3    3    0  502 -0.14316018570E+04 -0.10236671588E+04  0.14754976309E+03  0.17661175928E+04  0.46999998093E+01 0.  1.
</event>
<event>
 5   0  0.1070988E-07  0.3803598E+04  0.7818609E-02  0.8045383E-01
        1   -1    0    0  501    0  0.00000000000E+00  0.00000000000E+00  0.13429269385E+04  0.13429269385E+04  0.50400001928E-02 0. -1.
       -1   -1    0    0    0  501  0.00000000000E+00  0.00000000000E+00 -0.26932506711E+04  0.26932506711E+04  0.50400001928E-02 0.  1.
    10030    2    1    2    0    0  0.00000000000E+00  0.00000000000E+00 -0.13503237327E+04  0.40361776096E+04  0.38035977065E+04 0.  0.
        5    1    3    3  502    0  0.25642270157E+03 -0.18844163514E+04 -0.66851795351E+03  0.20158660500E+04  0.46999998093E+01 0.  1.
       -5    1    3    3    0  502 -0.25642270157E+03  0.18844163514E+04 -0.68180577915E+03  0.20203115596E+04  0.46999998093E+01 0. -1.
</event>
<event>
 5   0  0.1070988E-07  0.3813746E+04  0.7818609E-02  0.8043211E-01
       -1   -1    0    0    0  501  0.00000000000E+00  0.00000000000E+00  0.11975916284E+04  0.11975916285E+04  0.50400001928E-02 0. -1.
        1   -1    0    0  501    0  0.00000000000E+00  0.00000000000E+00 -0.30362312528E+04  0.30362312528E+04  0.50400001928E-02 0.  1.
    10030    2    1    2    0    0  0.00000000000E+00  0.00000000000E+00 -0.18386396243E+04  0.42338228812E+04  0.38137462581E+04 0.  0.
        3    1    3    3  502    0  0.29456111149E+03  0.16898539542E+04  0.53691783010E+01  0.17153429608E+04  0.10100000352E+00 0. -1.
       -3    1    3    3    0  502 -0.29456111149E+03 -0.16898539542E+04 -0.18440088026E+04  0.25184799204E+04  0.10100000352E+00 0.  1.
</event>
<event>
 5   0  0.3442126E-07  0.3790089E+04  0.7818609E-02  0.8048285E-01
        2   -1    0    0  501    0  0.00000000000E+00  0.00000000000E+00  0.11890850485E+04  0.11890850485E+04  0.25500000920E-02 0.  1.
       -2   -1    0    0    0  501  0.00000000000E+00  0.00000000000E+00 -0.30201315980E+04  0.30201315980E+04  0.25500000920E-02 0. -1.
    10030    2    1    2    0    0  0.00000000000E+00  0.00000000000E+00 -0.18310465495E+04  0.42092166465E+04  0.37900888262E+04 0.  0.
        2    1    3    3  502    0  0.49800685788E+02 -0.12909868560E+04  0.62417653739E+03  0.14348252579E+04  0.25500000920E-02 0.  1.
       -2    1    3    3    0  502 -0.49800685788E+02  0.12909868560E+04 -0.24552230869E+04  0.27743913886E+04  0.25500000920E-02 0. -1.
</event>
<event>
 5   0  0.3377396E-07  0.3826464E+04  0.7818609E-02  0.8040499E-01
        2   -1    0    0  501    0  0.00000000000E+00  0.00000000000E+00  0.25709370336E+04  0.25709370336E+04  0.25500000920E-02 0. -1.
       -2   -1    0    0    0  501  0.00000000000E+00  0.00000000000E+00 -0.14237833329E+04  0.14237833329E+04  0.25500000920E-02 0.  1.
    10030    2    1    2    0    0  0.00000000000E+00  0.00000000000E+00  0.11471537006E+04  0.39947203665E+04  0.38264643202E+04 0.  0.
        5    1    3    3  502    0  0.58187520664E+03  0.16133112549E+04 -0.31169835574E+03  0.17431379510E+04  0.46999998093E+01 0.  1.
       -5    1    3    3    0  502 -0.58187520664E+03 -0.16133112549E+04  0.14588520564E+04  0.22515824155E+04  0.46999998093E+01 0. -1.
</event>
<event>
 5   0  0.3539010E-07  0.3789308E+04  0.7818609E-02  0.8048453E-01
       -2   -1    0    0    0  501  0.00000000000E+00  0.00000000000E+00  0.23708248068E+04  0.23708248068E+04  0.25500000920E-02 0.  1.
        2   -1    0    0  501    0  0.00000000000E+00  0.00000000000E+00 -0.15141201374E+04  0.15141201374E+04  0.25500000920E-02 0. -1.
    10030    2    1    2    0    0  0.00000000000E+00  0.00000000000E+00  0.85670466940E+03  0.38849449441E+04  0.37893078957E+04 0.  0.
        1    1    3    3  502    0 -0.10718304189E+04 -0.51685804117E+03  0.19399278941E+04  0.22758037955E+04  0.50400001928E-02 0.  1.
       -1    1    3    3    0  502  0.10718304189E+04  0.51685804117E+03 -0.10832232247E+04  0.16091411486E+04  0.50400001928E-02 0. -1.
</event>
<event>
 5   0  0.3509843E-07  0.3842523E+04  0.7818609E-02  0.8037091E-01
       -2   -1    0    0    0  501  0.00000000000E+00  0.00000000000E+00  0.19286938744E+04  0.19286938744E+04  0.25500000920E-02 0. -1.
        2   -1    0    0  501    0  0.00000000000E+00  0.00000000000E+00 -0.19138576974E+04  0.19138576974E+04  0.25500000920E-02 0.  1.
    10030    2    1    2    0    0  0.00000000000E+00  0.00000000000E+00  0.14836176987E+02  0.38425515718E+04  0.38425229303E+04 0.  0.
        4    1    3    3  502    0 -0.65701231178E+03 -0.18054292935E+04  0.54450536742E+01  0.19212681680E+04  0.12699999809E+01 0. -1.
       -4    1    3    3    0  502  0.65701231178E+03  0.18054292935E+04  0.93911233130E+01  0.19212834039E+04  0.12699999809E+01 0.  1.
</event>
<event>
 5   0  0.3377396E-07  0.3808592E+04  0.7818609E-02  0.8044314E-01
       -2   -1    0    0    0  501  0.00000000000E+00  0.00000000000E+00  0.11175911808E+04  0.11175911808E+04  0.25500000920E-02 0. -1.
        2   -1    0    0  501    0  0.00000000000E+00  0.00000000000E+00 -0.32447853844E+04  0.32447853844E+04  0.25500000920E-02 0.  1.
    10030    2    1    2    0    0  0.00000000000E+00  0.00000000000E+00 -0.21271942036E+04  0.43623765652E+04  0.38085921436E+04 0.  0.
        5    1    3    3  502    0 -0.98228451360E+02  0.33442753701E+02  0.11143439560E+04  0.11191746016E+04  0.46999998093E+01 0. -1.
       -5    1    3    3    0  502  0.98228451360E+02 -0.33442753701E+02 -0.32415381597E+04  0.32432019636E+04  0.46999998093E+01 0.  1.
</event>
<event>
 5   0  0.3327241E-07  0.3877291E+04  0.7818609E-02  0.8029769E-01
       -2   -1    0    0    0  501  0.00000000000E+00  0.00000000000E+00  0.14926177730E+04  0.14926177730E+04  0.25500000920E-02 0. -1.
        2   -1    0    0  501    0  0.00000000000E+00  0.00000000000E+00 -0.25179566442E+04  0.25179566442E+04  0.25500000920E-02 0.  1.
    10030    2    1    2    0    0  0.00000000000E+00  0.00000000000E+00 -0.10253388713E+04  0.40105744172E+04  0.38772912394E+04 0.  0.
        3    1    3    3  502    0  0.40343494368E+03 -0.17580316749E+04 -0.12476669572E+04  0.21931958348E+04  0.10100000352E+00 0.  1.
       -3    1    3    3    0  502 -0.40343494368E+03  0.17580316749E+04  0.22232808593E+03  0.18173785824E+04  0.10100000352E+00 0. -1.
</event>
<event>
 5   0  0.1084315E-07  0.3830565E+04  0.7818609E-02  0.8039627E-01
       -1   -1    0    0    0  501  0.00000000000E+00  0.00000000000E+00  0.20652301823E+04  0.20652301823E+04  0.50400001928E-02 0. -1.
        1   -1    0    0  501    0  0.00000000000E+00  0.00000000000E+00 -0.17762214482E+04  0.17762214482E+04  0.50400001928E-02 0.  1.
    10030    2    1    2    0    0  0.00000000000E+00  0.00000000000E+00  0.28900873405E+03  0.38414516305E+04  0.38305645251E+04 0.  0.
        4    1    3    3  502    0  0.68115393050E+03  0.17818795699E+04  0.31598467030E+03  0.19336270073E+04  0.12699999809E+01 0.  1.
       -4    1    3    3    0  502 -0.68115393050E+03 -0.17818795699E+04 -0.26975936250E+02  0.19078246232E+04  0.12699999809E+01 0. -1.
</event>
<event>
 5   0  0.3377396E-07  0.3562619E+04  0.7818609E-02  0.8099108E-01
       -2   -1    0    0    0  501  0.00000000000E+00  0.00000000000E+00  0.17560407519E+04  0.17560407519E+04  0.25500000920E-02 0. -1.
        2   -1    0    0  501    0  0.00000000000E+00  0.00000000000E+00 -0.18069416347E+04  0.18069416347E+04  0.25500000920E-02 0.  1.
    10030    2    1    2    0    0  0.00000000000E+00  0.00000000000E+00 -0.50900882845E+02  0.35629823866E+04  0.35626187823E+04 0.  0.
        5    1    3    3  502    0 -0.75743453528E+03 -0.13523097068E+04  0.85247309830E+03  0.17689491489E+04  0.46999998093E+01 0. -1.
       -5    1    3    3    0  502  0.75743453528E+03  0.13523097068E+04 -0.90337398114E+03  0.17940332377E+04  0.46999998093E+01 0.  1.
</event>
<event>
 5   0  0.1070988E-07  0.3822206E+04  0.7818609E-02  0.8041406E-01
        1   -1    0    0  501    0  0.00000000000E+00  0.00000000000E+00  0.26699677784E+04  0.26699677784E+04  0.50400001928E-02 0.  1.
       -1   -1    0    0    0  501  0.00000000000E+00  0.00000000000E+00 -0.13679247117E+04  0.13679247117E+04  0.50400001928E-02 0. -1.
    10030    2    1    2    0    0  0.00000000000E+00  0.00000000000E+00  0.13020430667E+04  0.40378924901E+04  0.38222061187E+04 0.  0.
        5    1    3    3  502    0  0.17691767715E+04 -0.63431992406E+03  0.10168950676E+04  0.21369243982E+04  0.46999998093E+01 0.  1.
       -5    1    3    3    0  502 -0.17691767715E+04  0.63431992406E+03  0.28514799904E+03  0.19009680919E+04  0.46999998093E+01 0. -1.
</event>
<event>
 5   0  0.1070988E-07  0.3798228E+04  0.7818609E-02  0.8046535E-01
       -1   -1    0    0    0  501  0.00000000000E+00  0.00000000000E+00  0.19698330614E+04  0.19698330614E+04  0.50400001928E-02 0.  1.
        1   -1    0    0  501    0  0.00000000000E+00  0.00000000000E+00 -0.18309338259E+04  0.18309338259E+04  0.50400001928E-02 0. -1.
    10030    2    1    2    0    0  0.00000000000E+00  0.00000000000E+00  0.13889923547E+03  0.38007668873E+04  0.37982279992E+04 0.  0.
        5    1    3    3  502    0 -0.15517275869E+04 -0.10692226112E+04  0.30522629291E+03  0.19089999152E+04  0.46999998093E+01 0.  1.
       -5    1    3    3    0  502  0.15517275869E+04  0.10692226112E+04 -0.16632705744E+03  0.18917669720E+04  0.46999998093E+01 0. -1.
</event>
<event>
 5   0  0.1070988E-07  0.3812607E+04  0.7818609E-02  0.8043455E-01
        1   -1    0    0  501    0  0.00000000000E+00  0.00000000000E+00  0.27617748109E+04  0.27617748109E+04  0.50400001928E-02 0. -1.
       -1   -1    0    0    0  501  0.00000000000E+00  0.00000000000E+00 -0.13158178407E+04  0.13158178408E+04  0.50400001928E-02 0.  1.
    10030    2    1    2    0    0  0.00000000000E+00  0.00000000000E+00  0.14459569701E+04  0.40775926516E+04  0.38126067556E+04 0.  0.
        5    1    3    3  502    0 -0.19674472713E+03  0.22946637301E+02  0.27507326013E+04  0.27578591280E+04  0.46999998093E+01 0. -1.
       -5    1    3    3    0  502  0.19674472713E+03 -0.22946637301E+02 -0.13047756312E+04  0.13197335237E+04  0.46999998093E+01 0.  1.
</event>
<event>
 5   0  0.1085771E-07  0.3762626E+04  0.7818609E-02  0.8054223E-01
        1   -1    0    0  501    0  0.00000000000E+00  0.00000000000E+00  0.14593993825E+04  0.14593993825E+04  0.50400001928E-02 0.  1.
       -1   -1    0    0    0  501  0.00000000000E+00  0.00000000000E+00 -0.24252027607E+04  0.24252027607E+04  0.50400001928E-02 0. -1.
    10030    2    1    2    0    0  0.00000000000E+00  0.00000000000E+00 -0.96580337823E+03  0.38846021432E+04  0.37626264292E+04 0.  0.
        1    1    3    3  502    0  0.27123655088E+03 -0.15459004108E+04  0.58801065250E+03  0.16760470978E+04  0.50400001928E-02 0.  1.
       -1    1    3    3    0  502 -0.27123655088E+03  0.15459004108E+04 -0.15538140307E+04  0.22085550454E+04  0.50400001928E-02 0. -1.
</event>
<event>
 5   0  0.3327241E-07  0.3786624E+04  0.7818609E-02  0.8049031E-01
       -2   -1    0    0    0  501  0.00000000000E+00  0.00000000000E+00  0.15286961791E+04  0.15286961791E+04  0.25500000920E-02 0.  1.
        2   -1    0    0  501    0  0.00000000000E+00  0.00000000000E+00 -0.23448937579E+04  0.23448937579E+04  0.25500000920E-02 0. -1.
    10030    2    1    2    0    0  0.00000000000E+00  0.00000000000E+00 -0.81619757888E+03  0.38735899370E+04  0.37866238937E+04 0.  0.
        3    1    3    3  502    0 -0.10710636219E+04 -0.57869471247E+03  0.10752258665E+04  0.16242461410E+04  0.10100000352E+00 0.  1.
       -3    1    3    3    0  502  0.10710636219E+04  0.57869471247E+03 -0.18914234454E+04  0.22493437960E+04  0.10100000352E+00 0. -1.
</event>
<event>
 5   0  0.1070988E-07  0.3929488E+04  0.7818609E-02  0.8018924E-01
       -1   -1    0    0    0  501  0.00000000000E+00  0.00000000000E+00  0.22760175261E+04  0.22760175261E+04  0.50400001928E-02 0. -1.
        1   -1    0    0  501    0  0.00000000000E+00  0.00000000000E+00 -0.16960411182E+04  0.16960411182E+04  0.50400001928E-02 0.  1.
    10030    2    1    2    0    0  0.00000000000E+00  0.00000000000E+00  0.57997640785E+03  0.39720586443E+04  0.39294881652E+04 0.  0.
        2    1    3    3  502    0  0.12388783701E+04  0.15191675683E+04  0.15615447076E+03  0.19664877155E+04  0.25500000920E-02 0. -1.
       -2    1    3    3    0  502 -0.12388783701E+04 -0.15191675683E+04  0.42382193709E+03  0.20055709289E+04  0.25500000920E-02 0.  1.
</event>
<event>
 5   0  0.1084315E-07  0.3850335E+04  0.7818609E-02  0.8035438E-01
        1   -1    0    0  501    0  0.00000000000E+00  0.00000000000E+00  0.25409667721E+04  0.25409667721E+04  0.50400001928E-02 0. -1.
       -1   -1    0    0    0  501  0.00000000000E+00  0.00000000000E+00 -0.14586065420E+04  0.14586065420E+04  0.50400001928E-02 0.  1.
    10030    2    1    2    0    0  0.00000000000E+00  0.00000000000E+00  0.10823602301E+04  0.39995733142E+04  0.38503354435E+04 0.  0.
        4    1    3    3  502    0 -0.18261662451E+04 -0.41749431957E+03  0.80031073541E+02  0.18749909993E+04  0.12699999809E+01 0.  1.
       -4    1    3    3    0  502  0.18261662451E+04  0.41749431957E+03  0.10023291565E+04  0.21245823149E+04  0.12699999809E+01 0. -1.
</event>
<event>
 5   0  0.3442126E-07  0.3728762E+04  0.7818609E-02  0.8061618E-01
       -2   -1    0    0    0  501  0.00000000000E+00  0.00000000000E+00  0.19309393425E+04  0.19309393425E+04  0.25500000920E-02 0.  1.
        2   -1    0    0  501    0  0.00000000000E+00  0.00000000000E+00 -0.18001167501E+04  0.18001167501E+04  0.25500000920E-02 0. -1.
    10030    2    1    2    0    0  0.00000000000E+00  0.00000000000E+00  0.13082259239E+03  0.37310560926E+04  0.37287618610E+04 0.  0.
        2    1    3    3  502    0  0.52208623010E+03  0.57155571745E+03 -0.16317060487E+04  0.18060217604E+04  0.25500000920E-02 0. -1.
       -2    1    3    3    0  502 -0.52208623010E+03 -0.57155571745E+03  0.17625286410E+04  0.19250343322E+04  0.25500000920E-02 0.  1.
</event>
<event>
 5   0  0.3442126E-07  0.3758486E+04  0.7818609E-02  0.8055123E-01
       -2   -1    0    0    0  501  0.00000000000E+00  0.00000000000E+00  0.25647048228E+04  0.25647048228E+04  0.25500000920E-02 0. -1.
        2   -1    0    0  501    0  0.00000000000E+00  0.00000000000E+00 -0.13769828166E+04  0.13769828166E+04  0.25500000920E-02 0.  1.
    10030    2    1    2    0    0  0.00000000000E+00  0.00000000000E+00  0.11877220063E+04  0.39416876394E+04  0.37584861158E+04 0.  0.
        2    1    3    3  502    0 -0.11653051041E+04  0.65146413607E+03 -0.79318414955E+03  0.15528949099E+04  0.25500000920E-02 0.  1.
       -2    1    3    3    0  502  0.11653051041E+04 -0.65146413607E+03  0.19809061558E+04  0.23887927295E+04  0.25500000920E-02 0. -1.
</event>
<event>
 5   0  0.1085771E-07  0.3551334E+04  0.7818609E-02  0.8101731E-01
        1   -1    0    0  501    0  0.00000000000E+00  0.00000000000E+00  0.24474491553E+04  0.24474491553E+04  0.50400001928E-02 0. -1.
       -1   -1    0    0    0  501  0.00000000000E+00  0.00000000000E+00 -0.12882775454E+04  0.12882775454E+04  0.50400001928E-02 0.  1.
    10030    2    1    2    0    0  0.00000000000E+00  0.00000000000E+00  0.11591716099E+04  0.37357267007E+04  0.35513342790E+04 0.  0.
        1    1    3    3  502    0 -0.93967592643E+03  0.74971277162E+03 -0.79514937799E+03  0.14412919968E+04  0.50400001928E-02 0.  1.
       -1    1    3    3    0  502  0.93967592643E+03 -0.74971277162E+03  0.19543209879E+04  0.22944347039E+04  0.50400001928E-02 0. -1.
</event>
<event>
 5   0  0.3377396E-07  0.3801751E+04  0.7818609E-02  0.8045779E-01
        2   -1    0    0  501    0  0.00000000000E+00  0.00000000000E+00  0.22271042224E+04  0.22271042224E+04  0.25500000920E-02 0.  1.
       -2   -1    0    0    0  501  0.00000000000E+00  0.00000000000E+00 -0.16224330490E+04  0.16224330490E+04  0.25500000920E-02 0. -1.
    10030    2    1    2    0    0  0.00000000000E+00  0.00000000000E+00  0.60467117337E+03  0.38495372714E+04  0.38017509092E+04 0.  0.
        5    1    3    3  502    0 -0.66288419294E+03  0.10948916800E+04  0.17253839243E+04  0.21482958410E+04  0.46999998093E+01 0.  1.
       -5    1    3    3    0  502  0.66288419294E+03 -0.10948916800E+04 -0.11207127510E+04  0.17012414304E+04  0.46999998093E+01 0. -1.
</event>
<event>
 5   0  0.1070988E-07  0.3773769E+04  0.7818609E-02  0.8051808E-01
        1   -1    0    0  501    0  0.00000000000E+00  0.00000000000E+00  0.14576364408E+04  0.14576364408E+04  0.50400001928E-02 0. -1.
       -1   -1    0    0    0  501  0.00000000000E+00  0.00000000000E+00 -0.24425385733E+04  0.24425385733E+04  0.50400001928E-02 0.  1.
    10030    2    1    2    0    0  0.00000000000E+00  0.00000000000E+00 -0.98490213247E+03  0.39001750141E+04  0.37737690616E+04 0.  0.
        3    1    3    3  502    0 -0.17895463752E+04 -0.19944790847E+03 -0.10753258506E+04  0.20972795218E+04  0.10100000352E+00 0.  1.
       -3    1    3    3    0  502  0.17895463752E+04  0.19944790847E+03  0.90423718097E+02  0.18028954923E+04  0.10100000352E+00 0. -1.
</event>
<event>
 5   0  0.3509843E-07  0.3822709E+04  0.7818609E-02  0.8041299E-01
        2   -1    0    0  501    0  0.00000000000E+00  0.00000000000E+00  0.15561994815E+04  0.15561994815E+04  0.25500000920E-02 0. -1.
       -2   -1    0    0    0  501  0.00000000000E+00  0.00000000000E+00 -0.23475622040E+04  0.23475622040E+04  0.25500000920E-02 0.  1.
    10030    2    1    2    0    0  0.00000000000E+00  0.00000000000E+00 -0.79136272245E+03  0.39037616855E+04  0.38227085082E+04 0.  0.
        4    1    3    3  502    0  0.12648633926E+03 -0.73732535220E+03  0.14004827675E+04  0.15877660608E+04  0.12699999809E+01 0. -1.
       -4    1    3    3    0  502 -0.12648633926E+03  0.73732535220E+03 -0.21918454899E+04  0.23159956247E+04  0.12699999809E+01 0.  1.
</event>
<event>
 5   0  0.1070988E-07  0.3758703E+04  0.7818609E-02  0.8055076E-01
        1   -1    0    0  501    0  0.00000000000E+00  0.00000000000E+00  0.17930429071E+04  0.17930429071E+04  0.50400001928E-02 0.  1.
       -1   -1    0    0    0  501  0.00000000000E+00  0.00000000000E+00 -0.19698148475E+04  0.19698148475E+04  0.50400001928E-02 0. -1.
    10030    2    1    2    0    0  0.00000000000E+00  0.00000000000E+00 -0.17677194041E+03  0.37628577546E+04  0.37587032554E+04 0.  0.
        2    1    3    3  502    0 -0.16363485137E+04 -0.53214943719E+03 -0.84496136414E+03  0.19169713583E+04  0.25500000920E-02 0.  1.
       -2    1    3    3    0  502  0.16363485137E+04  0.53214943719E+03  0.66818942372E+03  0.18458863962E+04  0.25500000920E-02 0. -1.
</event>
<event>
 5   0  0.1070988E-07  0.3755380E+04  0.7818609E-02  0.8055799E-01
       -1   -1    0    0    0  501  0.00000000000E+00  0.00000000000E+00  0.29115920353E+04  0.29115920353E+04  0.50400001928E-02 0. -1.
        1   -1    0    0  501    0  0.00000000000E+00  0.00000000000E+00 -0.12109250328E+04  0.12109250329E+04  0.50400001928E-02 0.  1.
    10030    2    1    2    0    0  0.00000000000E+00  0.00000000000E+00  0.17006670024E+04  0.41225170681E+04  0.37553799706E+04 0.  0.
        3    1    3    3  502    0  0.15652009478E+04  0.64675718876E+03  0.17405176107E+04  0.24284872723E+04  0.10100000352E+00 0. -1.
       -3    1    3    3    0  502 -0.15652009478E+04 -0.64675718876E+03 -0.39850608312E+02  0.16940297959E+04  0.10100000352E+00 0.  1.
</event>
<event>
 5   0  0.1085771E-07  0.3739265E+04  0.7818609E-02  0.8059316E-01
        1   -1    0    0  501    0  0.00000000000E+00  0.00000000000E+00  0.26123288647E+04  0.26123288647E+04  0.50400001928E-02 0. -1.
       -1   -1    0    0    0  501  0.00000000000E+00  0.00000000000E+00 -0.13380877525E+04  0.13380877525E+04  0.50400001928E-02 0.  1.
    10030    2    1    2    0    0  0.00000000000E+00  0.00000000000E+00  0.12742411122E+04  0.39504166171E+04  0.37392647722E+04 0.  0.
        1    1    3    3  502    0 -0.16684142350E+04 -0.72524075773E+03  0.18155699001E+03  0.18282623326E+04  0.50400001928E-02 0. -1.
       -1    1    3    3    0  502  0.16684142350E+04  0.72524075773E+03  0.10926841222E+04  0.21221542845E+04  0.50400001928E-02 0.  1.
</event>
<event>
 5   0  0.1070988E-07  0.3461418E+04  0.7818609E-02  0.8122995E-01
        1   -1    0    0  501    0  0.00000000000E+00  0.00000000000E+00  0.17441530977E+04  0.17441530977E+04  0.50400001928E-02 0. -1.
       -1   -1    0    0    0  501  0.00000000000E+00  0.00000000000E+00 -0.17173688583E+04  0.17173688583E+04  0.50400001928E-02 0.  1.
    10030    2    1    2    0    0  0.00000000000E+00  0.00000000000E+00  0.26784239416E+02  0.34615219560E+04  0.34614183302E+04 0.  0.
        3    1    3    3  502    0 -0.15582376644E+04  0.49636708364E+03  0.57986234479E+03  0.17351441581E+04  0.10100000352E+00 0.  1.
       -3    1    3    3    0  502  0.15582376644E+04 -0.49636708364E+03 -0.55307810537E+03  0.17263777979E+04  0.10100000352E+00 0. -1.
</event>
<event>
 5   0  0.3509843E-07  0.3775874E+04  0.7818609E-02  0.8051352E-01
        2   -1    0    0  501    0  0.00000000000E+00  0.00000000000E+00  0.21178836287E+04  0.21178836287E+04  0.25500000920E-02 0. -1.
       -2   -1    0    0    0  501  0.00000000000E+00  0.00000000000E+00 -0.16829564365E+04  0.16829564365E+04  0.25500000920E-02 0.  1.
    10030    2    1    2    0    0  0.00000000000E+00  0.00000000000E+00  0.43492719219E+03  0.38008400652E+04  0.37758738775E+04 0.  0.
        4    1    3    3  502    0 -0.17413084369E+04 -0.59909138847E+02  0.94929206780E+03  0.19841625992E+04  0.12699999809E+01 0.  1.
       -4    1    3    3    0  502  0.17413084369E+04  0.59909138847E+02 -0.51436487561E+03  0.18166774660E+04  0.12699999809E+01 0. -1.
</event>
<event>
 5   0  0.3539010E-07  0.3810243E+04  0.7818609E-02  0.8043960E-01
        2   -1    0    0  501    0  0.00000000000E+00  0.00000000000E+00  0.23486465583E+04  0.23486465583E+04  0.25500000920E-02 0. -1.
       -2   -1    0    0    0  501  0.00000000000E+00  0.00000000000E+00 -0.15453528378E+04  0.15453528378E+04  0.25500000920E-02 0.  1.
    10030    2    1    2    0    0  0.00000000000E+00  0.00000000000E+00  0.80329372047E+03  0.38939993961E+04  0.38102428394E+04 0.  0.
        1    1    3    3  502    0  0.42246381309E+03 -0.10014987079E+04  0.20006525939E+04  0.22768588311E+04  0.50400001928E-02 0. -1.
       -1    1    3    3    0  502 -0.42246381309E+03  0.10014987079E+04 -0.11973588734E+04  0.16171405650E+04  0.50400001928E-02 0.  1.
</event>
<event>
 5   0  0.1070988E-07  0.3742060E+04  0.7818609E-02  0.8058704E-01
        1   -1    0    0  501    0  0.00000000000E+00  0.00000000000E+00  0.12391632607E+04  0.12391632607E+04  0.50400001928E-02 0. -1.
       -1   -1    0    0    0  501  0.00000000000E+00  0.00000000000E+00 -0.28250949884E+04  0.28250949884E+04  0.50400001928E-02 0.  1.
    10030    2    1    2    0    0  0.00000000000E+00  0.00000000000E+00 -0.15859317278E+04  0.40642582491E+04  0.37420603510E+04 0.  0.
        2    1    3    3  502    0  0.10686727007E+04 -0.62820707439E+03 -0.23150778529E+04  0.26260790039E+04  0.25500000920E-02 0.  1.
       -2    1    3    3    0  502 -0.10686727007E+04  0.62820707439E+03  0.72914612513E+03  0.14381792452E+04  0.25500000920E-02 0. -1.
</event>
<event>
 5   0  0.1070988E-07  0.3778060E+04  0.7818609E-02  0.8050880E-01
        1   -1    0    0  501    0  0.00000000000E+00  0.00000000000E+00  0.27260208059E+04  0.27260208059E+04  0.50400001928E-02 0.  1.
       -1   -1    0    0    0  501  0.00000000000E+00  0.00000000000E+00 -0.13090270686E+04  0.13090270686E+04  0.50400001928E-02 0. -1.
    10030    2    1    2    0    0  0.00000000000E+00  0.00000000000E+00  0.14169937373E+04  0.40350478746E+04  0.37780603620E+04 0.  0.
        2    1    3    3  502    0  0.93314074244E+02  0.11861176708E+04 -0.85856782213E+03  0.14672155093E+04  0.25500000920E-02 0. -1.
       -2    1    3    3    0  502 -0.93314074244E+02 -0.11861176708E+04  0.22755615594E+04  0.25678323653E+04  0.25500000920E-02 0.  1.
</event>
<event>
 5   0  0.3509843E-07  0.3799030E+04  0.7818609E-02  0.8046363E-01
       -2   -1    0    0    0  501  0.00000000000E+00  0.00000000000E+00  0.24171781261E+04  0.24171781261E+04  0.25500000920E-02 0. -1.
        2   -1    0    0  501    0  0.00000000000E+00  0.00000000000E+00 -0.14927149953E+04  0.14927149953E+04  0.25500000920E-02 0.  1.
    10030    2    1    2    0    0  0.00000000000E+00  0.00000000000E+00  0.92446313077E+03  0.39098931215E+04  0.37990304212E+04 0.  0.
        4    1    3    3  502    0  0.69976375164E+03 -0.94743990919E+03 -0.10715065587E+04  0.15923063801E+04  0.12699999809E+01 0.  1.
       -4    1    3    3    0  502 -0.69976375164E+03  0.94743990919E+03  0.19959696895E+04  0.23175867414E+04  0.12699999809E+01 0. -1.
</event>
<event>
 5   0  0.1070988E-07  0.3774838E+04  0.7818609E-02  0.8051576E-01
        1   -1    0    0  501    0  0.00000000000E+00  0.00000000000E+00  0.15505916804E+04  0.15505916804E+04  0.50400001928E-02 0. -1.
       -1   -1    0    0    0  501  0.00000000000E+00  0.00000000000E+00 -0.22974131730E+04  0.22974131730E+04  0.50400001928E-02 0.  1.
    10030    2    1    2    0    0  0.00000000000E+00  0.00000000000E+00 -0.74682149254E+03  0.38480048534E+04  0.37748376138E+04 0.  0.
        3    1    3    3  502    0  0.53551744619E+02 -0.82416290581E+03  0.13566106898E+04  0.15882395469E+04  0.10100000352E+00 0. -1.
       -3    1    3    3    0  502 -0.53551744619E+02  0.82416290581E+03 -0.21034321823E+04  0.22597653065E+04  0.10100000352E+00 0.  1.
</event>
<event>
 5   0  0.3509843E-07  0.3786262E+04  0.7818609E-02  0.8049109E-01
        2   -1    0    0  501    0  0.00000000000E+00  0.00000000000E+00  0.13957590746E+04  0.13957590746E+04  0.25500000920E-02 0.  1.
       -2   -1    0    0    0  501  0.00000000000E+00  0.00000000000E+00 -0.25677389854E+04  0.25677389854E+04  0.25500000920E-02 0. -1.
    10030    2    1    2    0    0  0.00000000000E+00  0.00000000000E+00 -0.11719799108E+04  0.39634980600E+04  0.37862620037E+04 0.  0.
        4    1    3    3  502    0 -0.13490909847E+04 -0.12383687975E+03 -0.19702204747E+04  0.23910567516E+04  0.12699999809E+01 0. -1.
       -4    1    3    3    0  502  0.13490909847E+04  0.12383687975E+03  0.79824056384E+03  0.15724413084E+04  0.12699999809E+01 0.  1.
</event>
<event>
 5   0  0.1070988E-07  0.3675881E+04  0.7818609E-02  0.8073328E-01
       -1   -1    0    0    0  501  0.00000000000E+00  0.00000000000E+00  0.13182652632E+04  0.13182652633E+04  0.50400001928E-02 0. -1.
        1   -1    0    0  501    0  0.00000000000E+00  0.00000000000E+00 -0.25624773392E+04  0.25624773392E+04  0.50400001928E-02 0.  1.
    10030    2    1    2    0    0  0.00000000000E+00  0.00000000000E+00 -0.12442120759E+04  0.38807426025E+04  0.36758807729E+04 0.  0.
        3    1    3    3  502    0  0.50972923910E+03 -0.56963922387E+02 -0.24853914537E+04  0.25377626906E+04  0.10100000352E+00 0.  1.
       -3    1    3    3    0  502 -0.50972923910E+03  0.56963922387E+02  0.12411793777E+04  0.13429799118E+04  0.10100000352E+00 0. -1.
</event>
<event>
 5   0  0.1070988E-07  0.3905461E+04  0.7818609E-02  0.8023894E-01
       -1   -1    0    0    0  501  0.00000000000E+00  0.00000000000E+00  0.13276911679E+04  0.13276911679E+04  0.50400001928E-02 0. -1.
        1   -1    0    0  501    0  0.00000000000E+00  0.00000000000E+00 -0.28720206284E+04  0.28720206284E+04  0.50400001928E-02 0.  1.
    10030    2    1    2    0    0  0.00000000000E+00  0.00000000000E+00 -0.15443294605E+04  0.41997117962E+04  0.39054610085E+04 0.  0.
        3    1    3    3  502    0  0.17045559824E+04  0.87522543394E+03 -0.11768508423E+04  0.22486681775E+04  0.10100000352E+00 0. -1.
       -3    1    3    3    0  502 -0.17045559824E+04 -0.87522543394E+03 -0.36747861816E+03  0.19510436187E+04  0.10100000352E+00 0.  1.
</event>
<event>
 5   0  0.3539010E-07  0.3779889E+04  0.7818609E-02  0.8050485E-01
       -2   -1    0    0    0  501  0.00000000000E+00  0.00000000000E+00  0.13093187360E+04  0.13093187360E+04  0.25500000920E-02 0.  1.
        2   -1    0    0  501    0  0.00000000000E+00  0.00000000000E+00 -0.27280519702E+04  0.27280519702E+04  0.25500000920E-02 0. -1.
    10030    2    1    2    0    0  0.00000000000E+00  0.00000000000E+00 -0.14187332342E+04  0.40373707063E+04  0.37798886531E+04 0.  0.
        1    1    3    3  502    0 -0.53274796675E+03  0.81984476132E+03 -0.24369227178E+04  0.26257490667E+04  0.50400001928E-02 0. -1.
       -1    1    3    3    0  502  0.53274796675E+03 -0.81984476132E+03  0.10181894836E+04  0.14116216395E+04  0.50400001928E-02 0.  1.
</event>
<event>
 5   0  0.3539010E-07  0.4075898E+04  0.7818609E-02  0.7989408E-01
        2   -1    0    0  501    0  0.00000000000E+00  0.00000000000E+00  0.27851253489E+04  0.27851253489E+04  0.25500000920E-02 0. -1.
       -2   -1    0    0    0  501  0.00000000000E+00  0.00000000000E+00 -0.14912203664E+04  0.14912203664E+04  0.25500000920E-02 0.  1.
    10030    2    1    2    0    0  0.00000000000E+00  0.00000000000E+00  0.12939049826E+04  0.42763457153E+04  0.40758977628E+04 0.  0.
        1    1    3    3  502    0  0.19109502908E+03 -0.78279958201E+03  0.26108917492E+04  0.27324070381E+04  0.50400001928E-02 0. -1.
       -1    1    3    3    0  502 -0.19109502908E+03  0.78279958201E+03 -0.13169867666E+04  0.15439386772E+04  0.50400001928E-02 0.  1.
</event>
<event>
 5   0  0.3509843E-07  0.3806616E+04  0.7818609E-02  0.8044737E-01
        2   -1    0    0  501    0  0.00000000000E+00  0.00000000000E+00  0.27406815245E+04  0.27406815245E+04  0.25500000920E-02 0. -1.
       -2   -1    0    0    0  501  0.00000000000E+00  0.00000000000E+00 -0.13217810531E+04  0.13217810531E+04  0.25500000920E-02 0.  1.
    10030    2    1    2    0    0  0.00000000000E+00  0.00000000000E+00  0.14189004713E+04  0.40624625776E+04  0.38066157735E+04 0.  0.
        4    1    3    3  502    0  0.19368089041E+03  0.18270235131E+04  0.12399004146E+04  0.22165021669E+04  0.12699999809E+01 0. -1.
       -4    1    3    3    0  502 -0.19368089041E+03 -0.18270235131E+04  0.17900005675E+03  0.18459604107E+04  0.12699999809E+01 0.  1.
</event>
<event>
 5   0  0.3509843E-07  0.3815294E+04  0.7818609E-02  0.8042881E-01
        2   -1    0    0  501    0  0.00000000000E+00  0.00000000000E+00  0.17740288074E+04  0.17740288074E+04  0.25500000920E-02 0. -1.
       -2   -1    0    0    0  501  0.00000000000E+00  0.00000000000E+00 -0.20513290066E+04  0.20513290066E+04  0.25500000920E-02 0.  1.
    10030    2    1    2    0    0  0.00000000000E+00  0.00000000000E+00 -0.27730019913E+03  0.38253578140E+04  0.38152938294E+04 0.  0.
        4    1    3    3  502    0 -0.18041197541E+04  0.50217532328E+03  0.22574632369E+03  0.18862638092E+04  0.12699999809E+01 0. -1.
       -4    1    3    3    0  502  0.18041197541E+04 -0.50217532328E+03 -0.50304652282E+03  0.19390940048E+04  0.12699999809E+01 0.  1.
</event>
<event>
 5   0  0.1085771E-07  0.3807807E+04  0.7818609E-02  0.8044482E-01
       -1   -1    0    0    0  501  0.00000000000E+00  0.00000000000E+00  0.16312664441E+04  0.16312664441E+04  0.50400001928E-02 0. -1.
        1   -1    0    0  501    0  0.00000000000E+00  0.00000000000E+00 -0.22221068392E+04  0.22221068392E+04  0.50400001928E-02 0.  1.
    10030    2    1    2    0    0  0.00000000000E+00  0.00000000000E+00 -0.59084039513E+03  0.38533732833E+04  0.38078068869E+04 0.  0.
        1    1    3    3  502    0  0.13760353959E+04 -0.84980196386E+03 -0.13120369675E+04  0.20825651953E+04  0.50400001928E-02 0.  1.
       -1    1    3    3    0  502 -0.13760353959E+04  0.84980196386E+03  0.72119657239E+03  0.17708080880E+04  0.50400001928E-02 0. -1.
</event>
<event>
 5   0  0.1070988E-07  0.3779680E+04  0.7818609E-02  0.8050530E-01
       -1   -1    0    0    0  501  0.00000000000E+00  0.00000000000E+00  0.13074323283E+04  0.13074323283E+04  0.50400001928E-02 0.  1.
        1   -1    0    0  501    0  0.00000000000E+00  0.00000000000E+00 -0.27316857816E+04  0.27316857816E+04  0.50400001928E-02 0. -1.
    10030    2    1    2    0    0  0.00000000000E+00  0.00000000000E+00 -0.14242534533E+04  0.40391181099E+04  0.37796795111E+04 0.  0.
        3    1    3    3  502    0  0.13261743632E+04 -0.92650703247E+03  0.33183185653E+03  0.16514436454E+04  0.10100000352E+00 0.  1.
       -3    1    3    3    0  502 -0.13261743632E+04  0.92650703247E+03 -0.17560853099E+04  0.23876744645E+04  0.10100000352E+00 0. -1.
</event>
<event>
 5   0  0.3442126E-07  0.3830383E+04  0.7818609E-02  0.8039666E-01
       -2   -1    0    0    0  501  0.00000000000E+00  0.00000000000E+00  0.19197687184E+04  0.19197687184E+04  0.25500000920E-02 0. -1.
        2   -1    0    0  501    0  0.00000000000E+00  0.00000000000E+00 -0.19106250903E+04  0.19106250903E+04  0.25500000920E-02 0.  1.
    10030    2    1    2    0    0  0.00000000000E+00  0.00000000000E+00  0.91436280986E+01  0.38303938088E+04  0.38303828953E+04 0.  0.
        2    1    3    3  502    0  0.91819311456E+03 -0.11420654988E+04 -0.12285440551E+04  0.19122533029E+04  0.25500000920E-02 0. -1.
       -2    1    3    3    0  502 -0.91819311456E+03  0.11420654988E+04  0.12376876832E+04  0.19181405059E+04  0.25500000920E-02 0.  1.
</event>
<event>
 5   0  0.1070988E-07  0.3549970E+04  0.7818609E-02  0.8102049E-01
        1   -1    0    0  501    0  0.00000000000E+00  0.00000000000E+00  0.19757596377E+04  0.19757596378E+04  0.50400001928E-02 0.  1.
       -1   -1    0    0    0  501  0.00000000000E+00  0.00000000000E+00 -0.15946125656E+04  0.15946125656E+04  0.50400001928E-02 0. -1.
    10030    2    1    2    0    0  0.00000000000E+00  0.00000000000E+00  0.38114707214E+03  0.35703722034E+04  0.35499696590E+04 0.  0.
        2    1    3    3  502    0 -0.16664150071E+04 -0.61094070362E+03  0.21027247081E+03  0.17872890173E+04  0.25500000920E-02 0. -1.
       -2    1    3    3    0  502  0.16664150071E+04  0.61094070362E+03  0.17087460134E+03  0.17830831861E+04  0.25500000920E-02 0.  1.
</event>
<event>
 5   0  0.1084315E-07  0.3308001E+04  0.7818609E-02  0.8160862E-01
       -1   -1    0    0    0  501  0.00000000000E+00  0.00000000000E+00  0.13553966360E+04  0.13553966360E+04  0.50400001928E-02 0.  1.
        1   -1    0    0  501    0  0.00000000000E+00  0.00000000000E+00 -0.20183892860E+04  0.20183892861E+04  0.50400001928E-02 0. -1.
    10030    2    1    2    0    0  0.00000000000E+00  0.00000000000E+00 -0.66299265009E+03  0.33737859220E+04  0.33080012385E+04 0.  0.
        4    1    3    3  502    0  0.15713029125E+04 -0.23432075665E+03  0.13789239612E+03  0.15946519951E+04  0.12699999809E+01 0.  1.
       -4    1    3    3    0  502 -0.15713029125E+04  0.23432075665E+03 -0.80088504621E+03  0.17791339269E+04  0.12699999809E+01 0. -1.
</event>
<event>
 5   0  0.1084315E-07  0.3818651E+04  0.7818609E-02  0.8042164E-01
       -1   -1    0    0    0  501  0.00000000000E+00  0.00000000000E+00  0.24593583863E+04  0.24593583863E+04  0.50400001928E-02 0. -1.
        1   -1    0    0  501    0  0.00000000000E+00  0.00000000000E+00 -0.14823065477E+04  0.14823065477E+04  0.50400001928E-02 0.  1.
    10030    2    1    2    0    0  0.00000000000E+00  0.00000000000E+00  0.97705183862E+03  0.39416649340E+04  0.38186505675E+04 0.  0.
        4    1    3    3  502    0  0.31901278880E+03  0.17379552475E+03 -0.14463035426E+04  0.14912308990E+04  0.12699999809E+01 0.  1.
       -4    1    3    3    0  502 -0.31901278880E+03 -0.17379552475E+03  0.24233553812E+04  0.24504340351E+04  0.12699999809E+01 0. -1.
</event>
<event>
 5   0  0.3442126E-07  0.3592083E+04  0.7818609E-02  0.8092308E-01
        2   -1    0    0  501    0  0.00000000000E+00  0.00000000000E+00  0.20680637397E+04  0.20680637397E+04  0.25500000920E-02 0.  1.
       -2   -1    0    0    0  501  0.00000000000E+00  0.00000000000E+00 -0.15597995141E+04  0.15597995141E+04  0.25500000920E-02 0. -1.
    10030    2    1    2    0    0  0.00000000000E+00  0.00000000000E+00  0.50826422560E+03  0.36278632537E+04  0.35920828588E+04 0.  0.
        2    1    3    3  502    0  0.12742410691E+04 -0.11845278774E+04 -0.19636957447E+03  0.17508162680E+04  0.25500000920E-02 0.  1.
       -2    1    3    3    0  502 -0.12742410691E+04  0.11845278774E+04  0.70463380007E+03  0.18770469857E+04  0.25500000920E-02 0. -1.
</event>
<event>
 5   0  0.1085771E-07  0.3824161E+04  0.7818609E-02  0.8040990E-01
        1   -1    0    0  501    0  0.00000000000E+00  0.00000000000E+00  0.14813053428E+04  0.14813053428E+04  0.50400001928E-02 0.  1.
       -1   -1    0    0    0  501  0.00000000000E+00  0.00000000000E+00 -0.24681286251E+04  0.24681286251E+04  0.50400001928E-02 0. -1.
    10030    2    1    2    0    0  0.00000000000E+00  0.00000000000E+00 -0.98682328228E+03  0.39494339679E+04  0.38241611468E+04 0.  0.
        1    1    3    3  502    0 -0.14574316047E+04  0.11362411876E+04  0.13483530349E+02  0.18480618833E+04  0.50400001928E-02 0. -1.
       -1    1    3    3    0  502  0.14574316047E+04 -0.11362411876E+04 -0.10003068126E+04  0.21013720847E+04  0.50400001928E-02 0.  1.
</event>
<event>
 5   0  0.3442126E-07  0.3718300E+04  0.7818609E-02  0.8063918E-01
       -2   -1    0    0    0  501  0.00000000000E+00  0.00000000000E+00  0.17270038788E+04  0.17270038788E+04  0.25500000920E-02 0. -1.
        2   -1    0    0  501    0  0.00000000000E+00  0.00000000000E+00 -0.20014076374E+04  0.20014076374E+04  0.25500000920E-02 0.  1.
    10030    2    1    2    0    0  0.00000000000E+00  0.00000000000E+00 -0.27440375855E+03  0.37284115162E+04  0.37183000163E+04 0.  0.
        2    1    3    3  502    0 -0.72069440062E+02  0.18503602162E+04  0.28813507118E+02  0.18519873520E+04  0.25500000920E-02 0. -1.
       -2    1    3    3    0  502  0.72069440062E+02 -0.18503602162E+04 -0.30321726567E+03  0.18764241642E+04  0.25500000920E-02 0.  1.
</event>
<event>
 5   0  0.3442126E-07  0.3803189E+04  0.7818609E-02  0.8045471E-01
        2   -1    0    0  501    0  0.00000000000E+00  0.00000000000E+00  0.18574912381E+04  0.18574912381E+04  0.25500000920E-02 0.  1.
       -2   -1    0    0    0  501  0.00000000000E+00  0.00000000000E+00 -0.19467450009E+04  0.19467450009E+04  0.25500000920E-02 0. -1.
    10030    2    1    2    0    0  0.00000000000E+00  0.00000000000E+00 -0.89253762832E+02  0.38042362390E+04  0.38031890734E+04 0.  0.
        2    1    3    3  502    0  0.90740241113E+03 -0.12317643758E+04  0.10850375029E+04  0.18756142983E+04  0.25500000920E-02 0.  1.
       -2    1    3    3    0  502 -0.90740241113E+03  0.12317643758E+04 -0.11742912657E+04  0.19286219407E+04  0.25500000920E-02 0. -1.
</event>
<event>
 5   0  0.3442126E-07  0.3721497E+04  0.7818609E-02  0.8063215E-01
       -2   -1    0    0    0  501  0.00000000000E+00  0.00000000000E+00  0.24732675176E+04  0.24732675176E+04  0.25500000920E-02 0. -1.
        2   -1    0    0  501    0  0.00000000000E+00  0.00000000000E+00 -0.13999232241E+04  0.13999232241E+04  0.25500000920E-02 0.  1.
    10030    2    1    2    0    0  0.00000000000E+00  0.00000000000E+00  0.10733442935E+04  0.38731907417E+04  0.37214968157E+04 0.  0.
        2    1    3    3  502    0  0.44794487093E+03 -0.94225562098E+03  0.21402166384E+04  0.23809719700E+04  0.25500000920E-02 0. -1.
       -2    1    3    3    0  502 -0.44794487093E+03  0.94225562098E+03 -0.10668723448E+04  0.14922187718E+04  0.25500000920E-02 0.  1.
</event>
<event>
 5   0  0.3539010E-07  0.3829298E+04  0.7818609E-02  0.8039897E-01
        2   -1    0    0  501    0  0.00000000000E+00  0.00000000000E+00  0.17928359310E+04  0.17928359310E+04  0.25500000920E-02 0. -1.
       -2   -1    0    0    0  501  0.00000000000E+00  0.00000000000E+00 -0.20447388370E+04  0.20447388370E+04  0.25500000920E-02 0.  1.
    10030    2    1    2    0    0  0.00000000000E+00  0.00000000000E+00 -0.25190290597E+03  0.38375747680E+04  0.38292982420E+04 0.  0.
        1    1    3    3  502    0 -0.60181962341E+03  0.17648237586E+04 -0.56173783952E+03  0.19473929132E+04  0.50400001928E-02 0.  1.
       -1    1    3    3    0  502  0.60181962341E+03 -0.17648237586E+04  0.30983493355E+03  0.18901818548E+04  0.50400001928E-02 0. -1.
</event>
<event>
 5   0  0.1070988E-07  0.3798207E+04  0.7818609E-02  0.8046540E-01
        1   -1    0    0  501    0  0.00000000000E+00  0.00000000000E+00  0.14734436728E+04  0.14734436728E+04  0.50400001928E-02 0.  1.
       -1   -1    0    0    0  501  0.00000000000E+00  0.00000000000E+00 -0.24477307797E+04  0.24477307797E+04  0.50400001928E-02 0. -1.
    10030    2    1    2    0    0  0.00000000000E+00  0.00000000000E+00 -0.97428710694E+03  0.39211744525E+04  0.37982066453E+04 0.  0.
        2    1    3    3  502    0  0.12119203530E+04  0.11161287022E+04 -0.14622323176E+04  0.22028657636E+04  0.25500000920E-02 0. -1.
       -2    1    3    3    0  502 -0.12119203530E+04 -0.11161287022E+04  0.48794521067E+03  0.17183086889E+04  0.25500000920E-02 0.  1.
</event>
<event>
 5   0  0.3509843E-07  0.3758174E+04  0.7818609E-02  0.8055191E-01
       -2   -1    0    0    0  501  0.00000000000E+00  0.00000000000E+00  0.30870094606E+04  0.30870094606E+04  0.25500000920E-02 0.  1.
        2   -1    0    0  501    0  0.00000000000E+00  0.00000000000E+00 -0.11438153044E+04  0.11438153044E+04  0.25500000920E-02 0. -1.
    10030    2    1    2    0    0  0.00000000000E+00  0.00000000000E+00  0.19431941563E+04  0.42308247650E+04  0.37581743790E+04 0.  0.
        4    1    3    3  502    0  0.35099381518E+03 -0.10759213877E+04 -0.71711322927E+03  0.13397971814E+04  0.12699999809E+01 0. -1.
       -4    1    3    3    0  502 -0.35099381518E+03  0.10759213877E+04  0.26603073855E+04  0.28910275836E+04  0.12699999809E+01 0.  1.
</event>
<event>
 5   0  0.3377396E-07  0.3791992E+04  0.7818609E-02  0.8047876E-01
       -2   -1    0    0    0  501  0.00000000000E+00  0.00000000000E+00  0.28390021176E+04  0.28390021176E+04  0.25500000920E-02 0.  1.
        2   -1    0    0  501    0  0.00000000000E+00  0.00000000000E+00 -0.12662198766E+04  0.12662198766E+04  0.25500000920E-02 0. -1.
    10030    2    1    2    0    0  0.00000000000E+00  0.00000000000E+00  0.15727822410E+04  0.41052219942E+04  0.37919920417E+04 0.  0.
        5    1    3    3  502    0 -0.20475351987E+03  0.18418926537E+04  0.12198195461E+04  0.22186649965E+04  0.46999998093E+01 0. -1.
       -5    1    3    3    0  502  0.20475351987E+03 -0.18418926537E+04  0.35296269489E+03  0.18865569977E+04  0.46999998093E+01 0.  1.
</event>
<event>
 5   0  0.1070988E-07  0.3859766E+04  0.7818609E-02  0.8033450E-01
       -1   -1    0    0    0  501  0.00000000000E+00  0.00000000000E+00  0.14631094042E+04  0.14631094042E+04  0.50400001928E-02 0. -1.
        1   -1    0    0  501    0  0.00000000000E+00  0.00000000000E+00 -0.25455706779E+04  0.25455706779E+04  0.50400001928E-02 0.  1.
    10030    2    1    2    0    0  0.00000000000E+00  0.00000000000E+00 -0.10824612737E+04  0.40086800822E+04  0.38597660023E+04 0.  0.
        5    1    3    3  502    0  0.13723924903E+04  0.68417949788E+03 -0.17581284567E+04  0.23329381674E+04  0.46999998093E+01 0.  1.
       -5    1    3    3    0  502 -0.13723924903E+04 -0.68417949788E+03  0.67566718301E+03  0.16757419148E+04  0.46999998093E+01 0. -1.
</event>
<event>
 5   0  0.3377396E-07  0.3715250E+04  0.7818609E-02  0.8064591E-01
       -2   -1    0    0    0  501  0.00000000000E+00  0.00000000000E+00  0.14178317539E+04  0.14178317539E+04  0.25500000920E-02 0. -1.
        2   -1    0    0  501    0  0.00000000000E+00  0.00000000000E+00 -0.24338363977E+04  0.24338363977E+04  0.25500000920E-02 0.  1.
    10030    2    1    2    0    0  0.00000000000E+00  0.00000000000E+00 -0.10160046438E+04  0.38516681516E+04  0.37152499396E+04 0.  0.
        5    1    3    3  502    0 -0.11899520769E+03  0.11241877403E+04  0.10201609373E+04  0.15227305615E+04  0.46999998093E+01 0. -1.
       -5    1    3    3    0  502  0.11899520769E+03 -0.11241877403E+04 -0.20361655812E+04  0.23289375901E+04  0.46999998093E+01 0.  1.
</event>
<event>
 5   0  0.1070988E-07  0.3467362E+04  0.7818609E-02  0.8121569E-01
       -1   -1    0    0    0  501  0.00000000000E+00  0.00000000000E+00  0.10200254112E+04  0.10200254112E+04  0.50400001928E-02 0. -1.
        1   -1    0    0  501    0  0.00000000000E+00  0.00000000000E+00 -0.29466414528E+04  0.29466414528E+04  0.50400001928E-02 0.  1.
    10030    2    1    2    0    0  0.00000000000E+00  0.00000000000E+00 -0.19266160416E+04  0.39666668640E+04  0.34673616249E+04 0.  0.
        5    1    3    3  502    0  0.15464880300E+04 -0.14074066752E+03 -0.81466208161E+02  0.15550215418E+04  0.46999998093E+01 0. -1.
       -5    1    3    3    0  502 -0.15464880300E+04  0.14074066752E+03 -0.18451498334E+04  0.24116453222E+04  0.46999998093E+01 0.  1.
</event>
<event>
 5   0  0.3377396E-07  0.3718188E+04  0.7818609E-02  0.8063943E-01
        2   -1    0    0  501    0  0.00000000000E+00  0.00000000000E+00  0.28359575851E+04  0.28359575851E+04  0.25500000920E-02 0. -1.
       -2   -1    0    0    0  501  0.00000000000E+00  0.00000000000E+00 -0.12187173128E+04  0.12187173128E+04  0.25500000920E-02 0.  1.
    10030    2    1    2    0    0  0.00000000000E+00  0.00000000000E+00  0.16172402723E+04  0.40546748979E+04  0.37181880573E+04 0.  0.
        5    1    3    3  502    0  0.14335921165E+04  0.10989184117E+04  0.12881917475E+04  0.22186185116E+04  0.46999998093E+01 0. -1.
       -5    1    3    3    0  502 -0.14335921165E+04 -0.10989184117E+04  0.32904852481E+03  0.18360563863E+04  0.46999998093E+01 0.  1.
</event>
<event>
 5   0  0.3442126E-07  0.3790484E+04  0.7818609E-02  0.8048200E-01
       -2   -1    0    0    0  501  0.00000000000E+00  0.00000000000E+00  0.17218071441E+04  0.17218071441E+04  0.25500000920E-02 0. -1.
        2   -1    0    0  501    0  0.00000000000E+00  0.00000000000E+00 -0.20861470973E+04  0.20861470973E+04  0.25500000920E-02 0.  1.
    10030    2    1    2    0    0  0.00000000000E+00  0.00000000000E+00 -0.36433995318E+03  0.38079542414E+04  0.37904843890E+04 0.  0.
        2    1    3    3  502    0  0.11350135813E+04 -0.14771647056E+04 -0.53259215089E+03  0.19375050442E+04  0.25500000920E-02 0.  1.
       -2    1    3    3    0  502 -0.11350135813E+04  0.14771647056E+04  0.16825219772E+03  0.18704491972E+04  0.25500000920E-02 0. -1.
</event>
<event>
 5   0  0.1085771E-07  0.3576945E+04  0.7818609E-02  0.8095793E-01
       -1   -1    0    0    0  501  0.00000000000E+00  0.00000000000E+00  0.14430768291E+04  0.14430768292E+04  0.50400001928E-02 0. -1.
        1   -1    0    0  501    0  0.00000000000E+00  0.00000000000E+00 -0.22165376235E+04  0.22165376235E+04  0.50400001928E-02 0.  1.
    10030    2    1    2    0    0  0.00000000000E+00  0.00000000000E+00 -0.77346079431E+03  0.36596144526E+04  0.35769451130E+04 0.  0.
        1    1    3    3  502    0 -0.15171616255E+04  0.43512767983E+03  0.47385106279E+03  0.16479230338E+04  0.50400001928E-02 0. -1.
       -1    1    3    3    0  502  0.15171616255E+04 -0.43512767983E+03 -0.12473118571E+04  0.20116914188E+04  0.50400001928E-02 0.  1.
</event>
<event>
 5   0  0.1070988E-07  0.3797992E+04  0.7818609E-02  0.8046586E-01
       -1   -1    0    0    0  501  0.00000000000E+00  0.00000000000E+00  0.21515082796E+04  0.21515082796E+04  0.50400001928E-02 0. -1.
        1   -1    0    0  501    0  0.00000000000E+00  0.00000000000E+00 -0.16761202475E+04  0.16761202475E+04  0.50400001928E-02 0.  1.
    10030    2    1    2    0    0  0.00000000000E+00  0.00000000000E+00  0.47538803205E+03  0.38276285271E+04  0.37979924119E+04 0.  0.
        3    1    3    3  502    0  0.38014896258E+03  0.18203941609E+04 -0.14980391081E+03  0.18656873684E+04  0.10100000352E+00 0.  1.
       -3    1    3    3    0  502 -0.38014896258E+03 -0.18203941609E+04  0.62519194286E+03  0.19619411587E+04  0.10100000352E+00 0. -1.
</event>
<event>
 5   0  0.3509843E-07  0.3802137E+04  0.7818609E-02  0.8045696E-01
       -2   -1    0    0    0  501  0.00000000000E+00  0.00000000000E+00  0.14586134224E+04  0.14586134224E+04  0.25500000920E-02 0. -1.
        2   -1    0    0  501    0  0.00000000000E+00  0.00000000000E+00 -0.24777377123E+04  0.24777377123E+04  0.25500000920E-02 0.  1.
    10030    2    1    2    0    0  0.00000000000E+00  0.00000000000E+00 -0.10191242898E+04  0.39363511347E+04  0.38021370224E+04 0.  0.
        4    1    3    3  502    0 -0.15543396050E+04 -0.75157065725E+03 -0.13334094852E+04  0.21814702677E+04  0.12699999809E+01 0.  1.
       -4    1    3    3    0  502  0.15543396050E+04  0.75157065725E+03  0.31428519540E+03  0.17548808670E+04  0.12699999809E+01 0. -1.
</event>
<event>
 5   0  0.3509843E-07  0.3820337E+04  0.7818609E-02  0.8041805E-01
        2   -1    0    0  501    0  0.00000000000E+00  0.00000000000E+00  0.20644294519E+04  0.20644294519E+04  0.25500000920E-02 0.  1.
       -2   -1    0    0    0  501  0.00000000000E+00  0.00000000000E+00 -0.17674342543E+04  0.17674342543E+04  0.25500000920E-02 0. -1.
    10030    2    1    2    0    0  0.00000000000E+00  0.00000000000E+00  0.29699519758E+03  0.38318637063E+04  0.38203368066E+04 0.  0.
        4    1    3    3  502    0 -0.27883763941E+03 -0.17621514183E+04  0.83306231907E+03  0.19689902211E+04  0.12699999809E+01 0. -1.
       -4    1    3    3    0  502  0.27883763941E+03  0.17621514183E+04 -0.53606712149E+03  0.18628734852E+04  0.12699999809E+01 0.  1.
</event>
<event>
 5   0  0.3539010E-07  0.3858835E+04  0.7818609E-02  0.8033646E-01
       -2   -1    0    0    0  501  0.00000000000E+00  0.00000000000E+00  0.18559016549E+04  0.18559016550E+04  0.25500000920E-02 0. -1.
        2   -1    0    0  501    0  0.00000000000E+00  0.00000000000E+00 -0.20058458737E+04  0.20058458737E+04  0.25500000920E-02 0.  1.
    10030    2    1    2    0    0  0.00000000000E+00  0.00000000000E+00 -0.14994421879E+03  0.38617475287E+04  0.38588354081E+04 0.  0.
        1    1    3    3  502    0 -0.21600264523E+02 -0.19291664754E+04 -0.97412577581E+02  0.19317450845E+04  0.50400001928E-02 0. -1.
       -1    1    3    3    0  502  0.21600264523E+02  0.19291664754E+04 -0.52531641205E+02  0.19300024442E+04  0.50400001928E-02 0.  1.
</event>
<event>
 5   0  0.1070988E-07  0.3814964E+04  0.7818609E-02  0.8042951E-01
        4   -1    0    0  501    0  0.00000000000E+00  0.00000000000E+00  0.17805701894E+04  0.17805706424E+04  0.12699999809E+01 0.  1.
       -4   -1    0    0    0  501  0.00000000000E+00  0.00000000000E+00 -0.20434386880E+04  0.20434390826E+04  0.12699999809E+01 0. -1.
    10030    2    1    2    0    0  0.00000000000E+00  0.00000000000E+00 -0.26286849853E+03  0.38240097250E+04  0.38149640273E+04 0.  0.
        1    1    3    3  502    0 -0.17015730216E+04  0.74633209445E+03  0.30101110271E+03  0.18822778826E+04  0.50400001928E-02 0.  1.
       -1    1    3    3    0  502  0.17015730216E+04 -0.74633209445E+03 -0.56387960124E+03  0.19417318424E+04  0.50400001928E-02 0. -1.
</event>
<event>
 5   0  0.1070988E-07  0.3778584E+04  0.7818609E-02  0.8050766E-01
        1   -1    0    0  501    0  0.00000000000E+00  0.00000000000E+00  0.16151649764E+04  0.16151649764E+04  0.50400001928E-02 0. -1.
       -1   -1    0    0    0  501  0.00000000000E+00  0.00000000000E+00 -0.22099443712E+04  0.22099443712E+04  0.50400001928E-02 0.  1.
    10030    2    1    2    0    0  0.00000000000E+00  0.00000000000E+00 -0.59477939476E+03  0.38251093476E+04  0.37785842577E+04 0.  0.
        3    1    3    3  502    0  0.26351218235E+03  0.18702637175E+04 -0.34377632875E+03  0.19197674905E+04  0.10100000352E+00 0. -1.
       -3    1    3    3    0  502 -0.26351218235E+03 -0.18702637175E+04 -0.25100306601E+03  0.19053418571E+04  0.10100000352E+00 0.  1.
</event>
<event>
 5   0  0.1085771E-07  0.3811657E+04  0.7818609E-02  0.8043658E-01
        1   -1    0    0  501    0  0.00000000000E+00  0.00000000000E+00  0.13765124785E+04  0.13765124785E+04  0.50400001928E-02 0. -1.
       -1   -1    0    0    0  501  0.00000000000E+00  0.00000000000E+00 -0.26386852539E+04  0.26386852539E+04  0.50400001928E-02 0.  1.
    10030    2    1    2    0    0  0.00000000000E+00  0.00000000000E+00 -0.12621727753E+04  0.40151977324E+04  0.38116574762E+04 0.  0.
        1    1    3    3  502    0 -0.15043309790E+04  0.65165633281E+03  0.39267233942E+03  0.16857814913E+04  0.50400001928E-02 0. -1.
       -1    1    3    3    0  502  0.15043309790E+04 -0.65165633281E+03 -0.16548451148E+04  0.23294162411E+04  0.50400001928E-02 0.  1.
</event>
<event>
 5   0  0.3442126E-07  0.3831318E+04  0.7818609E-02  0.8039467E-01
       -2   -1    0    0    0  501  0.00000000000E+00  0.00000000000E+00  0.22785099983E+04  0.22785099983E+04  0.25500000920E-02 0.  1.
        2   -1    0    0  501    0  0.00000000000E+00  0.00000000000E+00 -0.16105913820E+04  0.16105913820E+04  0.25500000920E-02 0. -1.
    10030    2    1    2    0    0  0.00000000000E+00  0.00000000000E+00  0.66791861631E+03  0.38891013802E+04  0.38313175629E+04 0.  0.
        2    1    3    3  502    0  0.87283172031E+03 -0.15478649754E+04 -0.39239363972E+03  0.18198060233E+04  0.25500000920E-02 0. -1.
       -2    1    3    3    0  502 -0.87283172031E+03  0.15478649754E+04  0.10603122560E+04  0.20692953569E+04  0.25500000920E-02 0.  1.
</event>
<event>
 5   0  0.1070988E-07  0.3808179E+04  0.7818609E-02  0.8044402E-01
        1   -1    0    0  501    0  0.00000000000E+00  0.00000000000E+00  0.23697653634E+04  0.23697653634E+04  0.50400001928E-02 0. -1.
       -1   -1    0    0    0  501  0.00000000000E+00  0.00000000000E+00 -0.15299223310E+04  0.15299223310E+04  0.50400001928E-02 0.  1.
    10030    2    1    2    0    0  0.00000000000E+00  0.00000000000E+00  0.83984303242E+03  0.38996876945E+04  0.38081790655E+04 0.  0.
        5    1    3    3  502    0  0.15138872726E+04 -0.11533187110E+04  0.35902717736E+03  0.19367295442E+04  0.46999998093E+01 0. -1.
       -5    1    3    3    0  502 -0.15138872726E+04  0.11533187110E+04  0.48081585506E+03  0.19629581503E+04  0.46999998093E+01 0.  1.
</event>
<event>
 5   0  0.1070988E-07  0.3793551E+04  0.7818609E-02  0.8047540E-01
       -1   -1    0    0    0  501  0.00000000000E+00  0.00000000000E+00  0.19410582912E+04  0.19410582912E+04  0.50400001928E-02 0.  1.
        1   -1    0    0  501    0  0.00000000000E+00  0.00000000000E+00 -0.18535028392E+04  0.18535028392E+04  0.50400001928E-02 0. -1.
    10030    2    1    2    0    0  0.00000000000E+00  0.00000000000E+00  0.87555451981E+02  0.37945611305E+04  0.37935508716E+04 0.  0.
        3    1    3    3  502    0  0.33090548281E+03 -0.39632482810E+03 -0.17818618126E+04  0.18551558795E+04  0.10100000352E+00 0. -1.
       -3    1    3    3    0  502 -0.33090548281E+03  0.39632482810E+03  0.18694172646E+04  0.19394052509E+04  0.10100000352E+00 0.  1.
</event>
<event>
 5   0  0.1070988E-07  0.3832287E+04  0.7818609E-02  0.8039261E-01
       -1   -1    0    0    0  501  0.00000000000E+00  0.00000000000E+00  0.13470668797E+04  0.13470668797E+04  0.50400001928E-02 0. -1.
        1   -1    0    0  501    0  0.00000000000E+00  0.00000000000E+00 -0.27256305316E+04  0.27256305316E+04  0.50400001928E-02 0.  1.
    10030    2    1    2    0    0  0.00000000000E+00  0.00000000000E+00 -0.13785636519E+04  0.40726974113E+04  0.38322873668E+04 0.  0.
        2    1    3    3  502    0  0.10961800945E+03  0.17129223277E+03  0.13355656400E+04  0.13509599239E+04  0.25500000920E-02 0. -1.
       -2    1    3    3    0  502 -0.10961800945E+03 -0.17129223277E+03 -0.27141292919E+04  0.27217374874E+04  0.25500000920E-02 0.  1.
</event>
<event>
 5   0  0.3442126E-07  0.3196370E+04  0.7818609E-02  0.8189776E-01
        2   -1    0    0  501    0  0.00000000000E+00  0.00000000000E+00  0.22966029404E+04  0.22966029404E+04  0.25500000920E-02 0.  1.
       -2   -1    0    0    0  501  0.00000000000E+00  0.00000000000E+00 -0.11121625522E+04  0.11121625522E+04  0.25500000920E-02 0. -1.
    10030    2    1    2    0    0  0.00000000000E+00  0.00000000000E+00  0.11844403882E+04  0.34087654926E+04  0.31963703086E+04 0.  0.
        2    1    3    3  502    0 -0.43608018976E+03 -0.54384635845E+03 -0.94148789355E+03  0.11714667077E+04  0.25500000920E-02 0. -1.
       -2    1    3    3    0  502  0.43608018976E+03  0.54384635845E+03  0.21259282818E+04  0.22372987849E+04  0.25500000920E-02 0.  1.
</event>
<event>
 5   0  0.3327241E-07  0.3721356E+04  0.7818609E-02  0.8063246E-01
       -2   -1    0    0    0  501  0.00000000000E+00  0.00000000000E+00  0.11666904359E+04  0.11666904359E+04  0.25500000920E-02 0.  1.
        2   -1    0    0  501    0  0.00000000000E+00  0.00000000000E+00 -0.29674730150E+04  0.29674730150E+04  0.25500000920E-02 0. -1.
    10030    2    1    2    0    0  0.00000000000E+00  0.00000000000E+00 -0.18007825791E+04  0.41341634509E+04  0.37213558741E+04 0.  0.
        3    1    3    3  502    0  0.48529643707E+03 -0.10325625755E+04  0.73249507821E+03  0.13558197351E+04  0.10100000352E+00 0.  1.
       -3    1    3    3    0  502 -0.48529643707E+03  0.10325625755E+04 -0.25332776573E+04  0.27783437159E+04  0.10100000352E+00 0. -1.
</event>
<event>
 5   0  0.1070988E-07  0.3739987E+04  0.7818609E-02  0.8059158E-01
       -1   -1    0    0    0  501  0.00000000000E+00  0.00000000000E+00  0.24542829741E+04  0.24542829741E+04  0.50400001928E-02 0. -1.
        1   -1    0    0  501    0  0.00000000000E+00  0.00000000000E+00 -0.14248051334E+04  0.14248051334E+04  0.50400001928E-02 0.  1.
    10030    2    1    2    0    0  0.00000000000E+00  0.00000000000E+00  0.10294778407E+04  0.38790881075E+04  0.37399866205E+04 0.  0.
        5    1    3    3  502    0 -0.54108990792E+03 -0.30626114757E+03  0.23439307353E+04  0.24249964043E+04  0.46999998093E+01 0. -1.
       -5    1    3    3    0  502  0.54108990792E+03  0.30626114757E+03 -0.13144528947E+04  0.14540917032E+04  0.46999998093E+01 0.  1.
</event>
<event>
 5   0  0.1085771E-07  0.3875458E+04  0.7818609E-02  0.8030153E-01
       -1   -1    0    0    0  501  0.00000000000E+00  0.00000000000E+00  0.18898468519E+04  0.18898468519E+04  0.50400001928E-02 0.  1.
        1   -1    0    0  501    0  0.00000000000E+00  0.00000000000E+00 -0.19868244461E+04  0.19868244461E+04  0.50400001928E-02 0. -1.
    10030    2    1    2    0    0  0.00000000000E+00  0.00000000000E+00 -0.96977594200E+02  0.38766712980E+04  0.38754581276E+04 0.  0.
        1    1    3    3  502    0 -0.56242114813E+03  0.13195281484E+04  0.12547320842E+04  0.19057346839E+04  0.50400001928E-02 0.  1.
       -1    1    3    3    0  502  0.56242114813E+03 -0.13195281484E+04 -0.13517096784E+04  0.19709366141E+04  0.50400001928E-02 0. -1.
</event>
<event>
 5   0  0.1070988E-07  0.3959515E+04  0.7818609E-02  0.8012764E-01
       -1   -1    0    0    0  501  0.00000000000E+00  0.00000000000E+00  0.14159680150E+04  0.14159680150E+04  0.50400001928E-02 0.  1.
        1   -1    0    0  501    0  0.00000000000E+00  0.00000000000E+00 -0.27680287581E+04  0.27680287581E+04  0.50400001928E-02 0. -1.
    10030    2    1    2    0    0  0.00000000000E+00  0.00000000000E+00 -0.13520607431E+04  0.41839967731E+04  0.39595152159E+04 0.  0.
        5    1    3    3  502    0 -0.10628871211E+04  0.37482716068E+03 -0.23959421809E+04  0.26477887863E+04  0.46999998093E+01 0. -1.
       -5    1    3    3    0  502  0.10628871211E+04 -0.37482716068E+03  0.10438814378E+04  0.15362079868E+04  0.46999998093E+01 0.  1.
</event>
<event>
 5   0  0.3377396E-07  0.3765751E+04  0.7818609E-02  0.8053545E-01
       -2   -1    0    0    0  501  0.00000000000E+00  0.00000000000E+00  0.21567643148E+04  0.21567643148E+04  0.25500000920E-02 0. -1.
        2   -1    0    0  501    0  0.00000000000E+00  0.00000000000E+00 -0.16437681386E+04  0.16437681386E+04  0.25500000920E-02 0.  1.
    10030    2    1    2    0    0  0.00000000000E+00  0.00000000000E+00  0.51299617614E+03  0.38005324534E+04  0.37657511671E+04 0.  0.
        5    1    3    3  502    0  0.24080726699E+03  0.13228479305E+04 -0.10737363417E+04  0.17207110764E+04  0.46999998093E+01 0.  1.
       -5    1    3    3    0  502 -0.24080726699E+03 -0.13228479305E+04  0.15867325178E+04  0.20798213770E+04  0.46999998093E+01 0. -1.
</event>
<event>
 5   0  0.3442126E-07  0.3803861E+04  0.7818609E-02  0.8045327E-01
        2   -1    0    0  501    0  0.00000000000E+00  0.00000000000E+00  0.11892650782E+04  0.11892650782E+04  0.25500000920E-02 0.  1.
       -2   -1    0    0    0  501  0.00000000000E+00  0.00000000000E+00 -0.30416597162E+04  0.30416597162E+04  0.25500000920E-02 0. -1.
    10030    2    1    2    0    0  0.00000000000E+00  0.00000000000E+00 -0.18523946380E+04  0.42309247944E+04  0.38038610281E+04 0.  0.
        2    1    3    3  502    0 -0.18616971392E+04  0.10180874318E+03 -0.50845336383E+03  0.19325646384E+04  0.25500000920E-02 0. -1.
       -2    1    3    3    0  502  0.18616971392E+04 -0.10180874318E+03 -0.13439412742E+04  0.22983601560E+04  0.25500000920E-02 0.  1.
</event>
<event>
 5   0  0.3442126E-07  0.3740921E+04  0.7818609E-02  0.8058953E-01
       -2   -1    0    0    0  501  0.00000000000E+00  0.00000000000E+00  0.13125245328E+04  0.13125245328E+04  0.25500000920E-02 0. -1.
        2   -1    0    0  501    0  0.00000000000E+00  0.00000000000E+00 -0.26655675665E+04  0.26655675665E+04  0.25500000920E-02 0.  1.
    10030    2    1    2    0    0  0.00000000000E+00  0.00000000000E+00 -0.13530430337E+04  0.39780920993E+04  0.37409211832E+04 0.  0.
        2    1    3    3  502    0  0.17290569526E+04  0.70739696477E+03 -0.57805275210E+03  0.19555544982E+04  0.25500000920E-02 0. -1.
       -2    1    3    3    0  502 -0.17290569526E+04 -0.70739696477E+03 -0.77499028159E+03  0.20225376011E+04  0.25500000920E-02 0.  1.
</event>
<event>
 5   0  0.3377396E-07  0.3804579E+04  0.7818609E-02  0.8045173E-01
       -2   -1    0    0    0  501  0.00000000000E+00  0.00000000000E+00  0.18086855047E+04  0.18086855047E+04  0.25500000920E-02 0.  1.
        2   -1    0    0  501    0  0.00000000000E+00  0.00000000000E+00 -0.20007373257E+04  0.20007373257E+04  0.25500000920E-02 0. -1.
    10030    2    1    2    0    0  0.00000000000E+00  0.00000000000E+00 -0.19205182101E+03  0.38094228305E+04  0.38045786100E+04 0.  0.
        5    1    3    3  502    0  0.59143181187E+03 -0.46231282452E+03 -0.18461524065E+04  0.19929439364E+04  0.46999998093E+01 0. -1.
       -5    1    3    3    0  502 -0.59143181187E+03  0.46231282452E+03  0.16541005855E+04  0.18164788941E+04  0.46999998093E+01 0.  1.
</event>
<event>
 5   0  0.3539010E-07  0.3724801E+04  0.7818609E-02  0.8062488E-01
        2   -1    0    0  501    0  0.00000000000E+00  0.00000000000E+00  0.25225209834E+04  0.25225209834E+04  0.25500000920E-02 0. -1.
       -2   -1    0    0    0  501  0.00000000000E+00  0.00000000000E+00 -0.13750273603E+04  0.13750273603E+04  0.25500000920E-02 0.  1.
    10030    2    1    2    0    0  0.00000000000E+00  0.00000000000E+00  0.11474936230E+04  0.38975483437E+04  0.37248008640E+04 0.  0.
        1    1    3    3  502    0  0.14102312937E+04 -0.55301758612E+03 -0.55999484861E+03  0.16149845147E+04  0.50400001928E-02 0.  1.
       -1    1    3    3    0  502 -0.14102312937E+04  0.55301758612E+03  0.17074884717E+04  0.22825638289E+04  0.50400001928E-02 0. -1.
</event>
<event>
 5   0  0.3442126E-07  0.3842892E+04  0.7818609E-02  0.8037013E-01
       -2   -1    0    0    0  501  0.00000000000E+00  0.00000000000E+00  0.14911033742E+04  0.14911033742E+04  0.25500000920E-02 0.  1.
        2   -1    0    0  501    0  0.00000000000E+00  0.00000000000E+00 -0.24759880745E+04  0.24759880745E+04  0.25500000920E-02 0. -1.
    10030    2    1    2    0    0  0.00000000000E+00  0.00000000000E+00 -0.98488470028E+03  0.39670914487E+04  0.38428917093E+04 0.  0.
        2    1    3    3  502    0 -0.73928767642E+03 -0.16740025840E+04  0.11225649676E+03  0.18334209666E+04  0.25500000920E-02 0.  1.
       -2    1    3    3    0  502  0.73928767642E+03  0.16740025840E+04 -0.10971411970E+04  0.21336704821E+04  0.25500000920E-02 0. -1.
</event>
<event>
 5   0  0.3539010E-07  0.3718484E+04  0.7818609E-02  0.8063878E-01
        2   -1    0    0  501    0  0.00000000000E+00  0.00000000000E+00  0.21196163497E+04  0.21196163497E+04  0.25500000920E-02 0.  1.
       -2   -1    0    0    0  501  0.00000000000E+00  0.00000000000E+00 -0.16308522266E+04  0.16308522266E+04  0.25500000920E-02 0. -1.
    10030    2    1    2    0    0  0.00000000000E+00  0.00000000000E+00  0.48876412303E+03  0.37504685763E+04  0.37184841231E+04 0.  0.
        1    1    3    3  502    0 -0.16167650633E+04 -0.26785152738E+03 -0.64129830211E+03  0.17598117010E+04  0.50400001928E-02 0. -1.
       -1    1    3    3    0  502  0.16167650633E+04  0.26785152738E+03  0.11300624251E+04  0.19906568753E+04  0.50400001928E-02 0.  1.
</event>
<event>
 5   0  0.1084315E-07  0.3780320E+04  0.7818609E-02  0.8050391E-01
        1   -1    0    0  501    0  0.00000000000E+00  0.00000000000E+00  0.26576317398E+04  0.26576317398E+04  0.50400001928E-02 0. -1.
       -1   -1    0    0    0  501  0.00000000000E+00  0.00000000000E+00 -0.13443190809E+04  0.13443190809E+04  0.50400001928E-02 0.  1.
    10030    2    1    2    0    0  0.00000000000E+00  0.00000000000E+00  0.13133126590E+04  0.40019508207E+04  0.37803201228E+04 0.  0.
        4    1    3    3  502    0  0.16636664018E+04 -0.75307554422E+03  0.11728876155E+04  0.21703860586E+04  0.12699999809E+01 0.  1.
       -4    1    3    3    0  502 -0.16636664018E+04  0.75307554422E+03  0.14042504349E+03  0.18315647621E+04  0.12699999809E+01 0. -1.
</event>
<event>
 5   0  0.1085771E-07  0.3803630E+04  0.7818609E-02  0.8045376E-01
       -1   -1    0    0    0  501  0.00000000000E+00  0.00000000000E+00  0.30492905121E+04  0.30492905121E+04  0.50400001928E-02 0. -1.
        1   -1    0    0  501    0  0.00000000000E+00  0.00000000000E+00 -0.11861447599E+04  0.11861447599E+04  0.50400001928E-02 0.  1.
    10030    2    1    2    0    0  0.00000000000E+00  0.00000000000E+00  0.18631457522E+04  0.42354352720E+04  0.38036298255E+04 0.  0.
        1    1    3    3  502    0  0.13555784660E+04  0.42140423564E+03  0.23408416972E+04  0.27376475958E+04  0.50400001928E-02 0. -1.
       -1    1    3    3    0  502 -0.13555784660E+04 -0.42140423564E+03 -0.47769594501E+03  0.14977876762E+04  0.50400001928E-02 0.  1.
</event>
<event>
 5   0  0.1085771E-07  0.3695497E+04  0.7818609E-02  0.8068960E-01
        1   -1    0    0  501    0  0.00000000000E+00  0.00000000000E+00  0.22871099217E+04  0.22871099217E+04  0.50400001928E-02 0. -1.
       -1   -1    0    0    0  501  0.00000000000E+00  0.00000000000E+00 -0.14927899463E+04  0.14927899463E+04  0.50400001928E-02 0.  1.
    10030    2    1    2    0    0  0.00000000000E+00  0.00000000000E+00  0.79431997539E+03  0.37798998680E+04  0.36954970963E+04 0.  0.
        1    1    3    3  502    0 -0.45690386126E+02  0.85068908146E+03  0.20742470118E+04  0.22423782444E+04  0.50400001928E-02 0. -1.
       -1    1    3    3    0  502  0.45690386126E+02 -0.85068908146E+03 -0.12799270364E+04  0.15375216237E+04  0.50400001928E-02 0.  1.
</event>
<event>
 5   0  0.3509843E-07  0.3771168E+04  0.7818609E-02  0.8052371E-01
        2   -1    0    0  501    0  0.00000000000E+00  0.00000000000E+00  0.17764868335E+04  0.17764868335E+04  0.25500000920E-02 0. -1.
       -2   -1    0    0    0  501  0.00000000000E+00  0.00000000000E+00 -0.20013808309E+04  0.20013808309E+04  0.25500000920E-02 0.  1.
    10030    2    1    2    0    0  0.00000000000E+00  0.00000000000E+00 -0.22489399737E+03  0.37778676644E+04  0.37711678271E+04 0.  0.
        4    1    3    3  502    0  0.16457118909E+04  0.82651255164E+03  0.29316052589E+03  0.18647882809E+04  0.12699999809E+01 0. -1.
       -4    1    3    3    0  502 -0.16457118909E+04 -0.82651255164E+03 -0.51805452326E+03  0.19130793835E+04  0.12699999809E+01 0.  1.
</event>
<event>
 5   0  0.1070988E-07  0.3679349E+04  0.7818609E-02  0.8072554E-01
        1   -1    0    0  501    0  0.00000000000E+00  0.00000000000E+00  0.22484948982E+04  0.22484948982E+04  0.50400001928E-02 0.  1.
       -1   -1    0    0    0  501  0.00000000000E+00  0.00000000000E+00 -0.15051860339E+04  0.15051860339E+04  0.50400001928E-02 0. -1.
    10030    2    1    2    0    0  0.00000000000E+00  0.00000000000E+00  0.74330886434E+03  0.37536809321E+04  0.36793494632E+04 0.  0.
        5    1    3    3  502    0 -0.47195267045E+03  0.14828934042E+04  0.13726329945E+04  0.20750555653E+04  0.46999998093E+01 0.  1.
       -5    1    3    3    0  502  0.47195267045E+03 -0.14828934042E+04 -0.62932413019E+03  0.16786253668E+04  0.46999998093E+01 0. -1.
</event>
<event>
 5   0  0.1070988E-07  0.3790370E+04  0.7818609E-02  0.8048225E-01
       -1   -1    0    0    0  501  0.00000000000E+00  0.00000000000E+00  0.16491256894E+04  0.16491256894E+04  0.50400001928E-02 0.  1.
        1   -1    0    0  501    0  0.00000000000E+00  0.00000000000E+00 -0.21779579874E+04  0.21779579874E+04  0.50400001928E-02 0. -1.
    10030    2    1    2    0    0  0.00000000000E+00  0.00000000000E+00 -0.52883229797E+03  0.38270836768E+04  0.37903701494E+04 0.  0.
        2    1    3    3  502    0  0.12021654732E+04  0.12035337541E+04  0.57915891789E+03  0.17969753405E+04  0.25500000920E-02 0. -1.
       -2    1    3    3    0  502 -0.12021654732E+04 -0.12035337541E+04 -0.11079912159E+04  0.20301083362E+04  0.25500000920E-02 0.  1.
</event>
<event>
 5   0  0.1084315E-07  0.3790303E+04  0.7818609E-02  0.8048239E-01
        1   -1    0    0  501    0  0.00000000000E+00  0.00000000000E+00  0.19412433707E+04  0.19412433707E+04  0.50400001928E-02 0. -1.
       -1   -1    0    0    0  501  0.00000000000E+00  0.00000000000E+00 -0.18501537144E+04  0.18501537144E+04  0.50400001928E-02 0.  1.
    10030    2    1    2    0    0  0.00000000000E+00  0.00000000000E+00  0.91089656324E+02  0.37913970851E+04  0.37903026966E+04 0.  0.
        4    1    3    3  502    0  0.21746813316E+03  0.15769955300E+04 -0.98304664851E+03  0.18709862684E+04  0.12699999809E+01 0.  1.
       -4    1    3    3    0  502 -0.21746813316E+03 -0.15769955300E+04  0.10741363048E+04  0.19204108167E+04  0.12699999809E+01 0. -1.
</event>
<event>
 5   0  0.1085771E-07  0.3792816E+04  0.7818609E-02  0.8047698E-01
       -1   -1    0    0    0  501  0.00000000000E+00  0.00000000000E+00  0.25940203092E+04  0.25940203092E+04  0.50400001928E-02 0. -1.
        1   -1    0    0  501    0  0.00000000000E+00  0.00000000000E+00 -0.13864049678E+04  0.13864049678E+04  0.50400001928E-02 0.  1.
    10030    2    1    2    0    0  0.00000000000E+00  0.00000000000E+00  0.12076153415E+04  0.39804252770E+04  0.37928156523E+04 0.  0.
        1    1    3    3  502    0  0.13244517970E+04 -0.13394106514E+04  0.37347666638E+03  0.19203328555E+04  0.50400001928E-02 0. -1.
       -1    1    3    3    0  502 -0.13244517970E+04  0.13394106514E+04  0.83413867508E+03  0.20600924215E+04  0.50400001928E-02 0.  1.
</event>
<event>
 5   0  0.3327241E-07  0.3793366E+04  0.7818609E-02  0.8047580E-01
       -2   -1    0    0    0  501  0.00000000000E+00  0.00000000000E+00  0.12155423887E+04  0.12155423887E+04  0.25500000920E-02 0. -1.
        2   -1    0    0  501    0  0.00000000000E+00  0.00000000000E+00 -0.29595078846E+04  0.29595078846E+04  0.25500000920E-02 0.  1.
    10030    2    1    2    0    0  0.00000000000E+00  0.00000000000E+00 -0.17439654959E+04  0.41750502733E+04  0.37933664645E+04 0.  0.
        3    1    3    3  502    0 -0.87092961948E+03 -0.46653674335E+03  0.90994326371E+03  0.13431945832E+04  0.10100000352E+00 0. -1.
       -3    1    3    3    0  502  0.87092961948E+03  0.46653674335E+03 -0.26539087596E+04  0.28318556901E+04  0.10100000352E+00 0.  1.
</event>
<event>
 5   0  0.1070988E-07  0.3772798E+04  0.7818609E-02  0.8052018E-01
        1   -1    0    0  501    0  0.00000000000E+00  0.00000000000E+00  0.23432222629E+04  0.23432222629E+04  0.50400001928E-02 0. -1.
       -1   -1    0    0    0  501  0.00000000000E+00  0.00000000000E+00 -0.15186354557E+04  0.15186354557E+04  0.50400001928E-02 0.  1.
    10030    2    1    2    0    0  0.00000000000E+00  0.00000000000E+00  0.82458680720E+03  0.38618577185E+04  0.37727975874E+04 0.  0.
        2    1    3    3  502    0  0.78920349721E+03 -0.87966495022E+03  0.19173239809E+04  0.22522841367E+04  0.25500000920E-02 0. -1.
       -2    1    3    3    0  502 -0.78920349721E+03  0.87966495022E+03 -0.10927371737E+04  0.16095735819E+04  0.25500000920E-02 0.  1.
</event>
<event>
 5   0  0.3327241E-07  0.3759720E+04  0.7818609E-02  0.8054855E-01
        2   -1    0    0  501    0  0.00000000000E+00  0.00000000000E+00  0.21157325684E+04  0.21157325684E+04  0.25500000920E-02 0.  1.
       -2   -1    0    0    0  501  0.00000000000E+00  0.00000000000E+00 -0.16702833502E+04  0.16702833503E+04  0.25500000920E-02 0. -1.
    10030    2    1    2    0    0  0.00000000000E+00  0.00000000000E+00  0.44544921816E+03  0.37860159187E+04  0.37597196079E+04 0.  0.
        3    1    3    3  502    0  0.10231873409E+04  0.89669010866E+03  0.15290672006E+04  0.20467075999E+04  0.10100000352E+00 0.  1.
       -3    1    3    3    0  502 -0.10231873409E+04 -0.89669010866E+03 -0.10836179824E+04  0.17393083187E+04  0.10100000352E+00 0. -1.
</event>
<event>
 5   0  0.1070988E-07  0.3839276E+04  0.7818609E-02  0.8037778E-01
       -3   -1    0    0    0  501  0.00000000000E+00  0.00000000000E+00  0.13318475376E+04  0.13318475414E+04  0.10100000352E+00 0. -1.
        3   -1    0    0  501    0  0.00000000000E+00  0.00000000000E+00 -0.27668413785E+04  0.27668413803E+04  0.10100000352E+00 0.  1.
    10030    2    1    2    0    0  0.00000000000E+00  0.00000000000E+00 -0.14349938409E+04  0.40986889217E+04  0.38392764362E+04 0.  0.
        3    1    3    3  502    0  0.11521207632E+04  0.13697447791E+04 -0.14582290564E+04  0.23086825256E+04  0.10100000352E+00 0.  1.
       -3    1    3    3    0  502 -0.11521207632E+04 -0.13697447791E+04  0.23235215501E+02  0.17900063962E+04  0.10100000352E+00 0. -1.
</event>
<event>
 5   0  0.3327241E-07  0.3769212E+04  0.7818609E-02  0.8052794E-01
       -2   -1    0    0    0  501  0.00000000000E+00  0.00000000000E+00  0.20662689810E+04  0.20662689810E+04  0.25500000920E-02 0. -1.
        2   -1    0    0  501    0  0.00000000000E+00  0.00000000000E+00 -0.17189143248E+04  0.17189143248E+04  0.25500000920E-02 0.  1.
    10030    2    1    2    0    0  0.00000000000E+00  0.00000000000E+00  0.34735465627E+03  0.37851833058E+04  0.37692117745E+04 0.  0.
        3    1    3    3  502    0  0.10339696862E+04 -0.11105336053E+04  0.12961618822E+04  0.19955986158E+04  0.10100000352E+00 0. -1.
       -3    1    3    3    0  502 -0.10339696862E+04  0.11105336053E+04 -0.94880722591E+03  0.17895846900E+04  0.10100000352E+00 0.  1.
</event>
<event>
 5   0  0.1070988E-07  0.3736118E+04  0.7818609E-02  0.8060004E-01
       -1   -1    0    0    0  501  0.00000000000E+00  0.00000000000E+00  0.21775341022E+04  0.21775341022E+04  0.50400001928E-02 0.  1.
        1   -1    0    0  501    0  0.00000000000E+00  0.00000000000E+00 -0.16025668723E+04  0.16025668723E+04  0.50400001928E-02 0. -1.
    10030    2    1    2    0    0  0.00000000000E+00  0.00000000000E+00  0.57496722995E+03  0.37801009745E+04  0.37361177794E+04 0.  0.
        3    1    3    3  502    0 -0.19768162054E+03  0.74257645610E+02 -0.15904520908E+04  0.16044095750E+04  0.10100000352E+00 0. -1.
       -3    1    3    3    0  502  0.19768162054E+03 -0.74257645610E+02  0.21654193207E+04  0.21756913995E+04  0.10100000352E+00 0.  1.
</event>
<event>
 5   0  0.1070988E-07  0.3794696E+04  0.7818609E-02  0.8047294E-01
       -1   -1    0    0    0  501  0.00000000000E+00  0.00000000000E+00  0.16140008899E+04  0.16140008899E+04  0.50400001928E-02 0.  1.
        1   -1    0    0  501    0  0.00000000000E+00  0.00000000000E+00 -0.22304385941E+04  0.22304385941E+04  0.50400001928E-02 0. -1.
    10030    2    1    2    0    0  0.00000000000E+00  0.00000000000E+00 -0.61643770418E+03  0.38444394839E+04  0.37946962332E+04 0.  0.
        5    1    3    3  502    0 -0.20414286171E+03  0.11226101531E+04  0.12275615726E+04  0.16759646083E+04  0.46999998093E+01 0.  1.
       -5    1    3    3    0  502  0.20414286171E+03 -0.11226101531E+04 -0.18439992768E+04  0.21684748757E+04  0.46999998093E+01 0. -1.
</event>
<event>
 5   0  0.3377396E-07  0.3806167E+04  0.7818609E-02  0.8044833E-01
        2   -1    0    0  501    0  0.00000000000E+00  0.00000000000E+00  0.26755972768E+04  0.26755972768E+04  0.25500000920E-02 0.  1.
       -2   -1    0    0    0  501  0.00000000000E+00  0.00000000000E+00 -0.13536141250E+04  0.13536141250E+04  0.25500000920E-02 0. -1.
    10030    2    1    2    0    0  0.00000000000E+00  0.00000000000E+00  0.13219831518E+04  0.40292114017E+04  0.38061667155E+04 0.  0.
        5    1    3    3  502    0  0.14082272486E+04  0.93473960092E+03 -0.26482256471E+03  0.17108463362E+04  0.46999998093E+01 0. -1.
       -5    1    3    3    0  502 -0.14082272486E+04 -0.93473960092E+03  0.15868057165E+04  0.23183650655E+04  0.46999998093E+01 0.  1.
</event>
<event>
 5   0  0.1070988E-07  0.3245220E+04  0.7818609E-02  0.8176976E-01
       -1   -1    0    0    0  501  0.00000000000E+00  0.00000000000E+00  0.10261709251E+04  0.10261709251E+04  0.50400001928E-02 0.  1.
        1   -1    0    0  501    0  0.00000000000E+00  0.00000000000E+00 -0.25657166621E+04  0.25657166621E+04  0.50400001928E-02 0. -1.
    10030    2    1    2    0    0  0.00000000000E+00  0.00000000000E+00 -0.15395457370E+04  0.35918875872E+04  0.32452203874E+04 0.  0.
        3    1    3    3  502    0  0.23171943266E+03 -0.15296163029E+04 -0.13113750817E+04  0.20280839590E+04  0.10100000352E+00 0. -1.
       -3    1    3    3    0  502 -0.23171943266E+03  0.15296163029E+04 -0.22817065526E+03  0.15638036282E+04  0.10100000352E+00 0.  1.
</event>
<event>
 5   0  0.1070988E-07  0.3759417E+04  0.7818609E-02  0.8054920E-01
       -1   -1    0    0    0  501  0.00000000000E+00  0.00000000000E+00  0.32395422255E+04  0.32395422255E+04  0.50400001928E-02 0.  1.
        1   -1    0    0  501    0  0.00000000000E+00  0.00000000000E+00 -0.10906797914E+04  0.10906797914E+04  0.50400001928E-02 0. -1.
    10030    2    1    2    0    0  0.00000000000E+00  0.00000000000E+00  0.21488624341E+04  0.43302220169E+04  0.37594165711E+04 0.  0.
        2    1    3    3  502    0 -0.12679804438E+04  0.11149514021E+04  0.20259406650E+04  0.26372953215E+04  0.25500000920E-02 0.  1.
       -2    1    3    3    0  502  0.12679804438E+04 -0.11149514021E+04  0.12292176914E+03  0.16929266954E+04  0.25500000920E-02 0. -1.
</event>
<event>
 5   0  0.3442126E-07  0.3113414E+04  0.7818609E-02  0.8212066E-01
       -2   -1    0    0    0  501  0.00000000000E+00  0.00000000000E+00  0.10899474096E+04  0.10899474096E+04  0.25500000920E-02 0. -1.
        2   -1    0    0  501    0  0.00000000000E+00  0.00000000000E+00 -0.22233523867E+04  0.22233523867E+04  0.25500000920E-02 0.  1.
    10030    2    1    2    0    0  0.00000000000E+00  0.00000000000E+00 -0.11334049771E+04  0.33132997963E+04  0.31134143152E+04 0.  0.
        2    1    3    3  502    0  0.12166682906E+04  0.29621460957E+03  0.41750391731E+03  0.13199751306E+04  0.25500000920E-02 0. -1.
       -2    1    3    3    0  502 -0.12166682906E+04 -0.29621460957E+03 -0.15509088944E+04  0.19933246657E+04  0.25500000920E-02 0.  1.
</event>
<event>
 5   0  0.3442126E-07  0.3741077E+04  0.7818609E-02  0.8058919E-01
        2   -1    0    0  501    0  0.00000000000E+00  0.00000000000E+00  0.26368202835E+04  0.26368202835E+04  0.25500000920E-02 0. -1.
       -2   -1    0    0    0  501  0.00000000000E+00  0.00000000000E+00 -0.13269446708E+04  0.13269446708E+04  0.25500000920E-02 0.  1.
    10030    2    1    2    0    0  0.00000000000E+00  0.00000000000E+00  0.13098756128E+04  0.39637649543E+04  0.37410771834E+04 0.  0.
        2    1    3    3  502    0  0.15023456435E+04  0.10034922384E+04  0.11684255720E+04  0.21515709197E+04  0.25500000920E-02 0.  1.
       -2    1    3    3    0  502 -0.15023456435E+04 -0.10034922384E+04  0.14145004076E+03  0.18121940346E+04  0.25500000920E-02 0. -1.
</event>
<event>
 5   0  0.3509843E-07  0.3714100E+04  0.7818609E-02  0.8064844E-01
        2   -1    0    0  501    0  0.00000000000E+00  0.00000000000E+00  0.24823251298E+04  0.24823251298E+04  0.25500000920E-02 0. -1.
       -2   -1    0    0    0  501  0.00000000000E+00  0.00000000000E+00 -0.13892759255E+04  0.13892759255E+04  0.25500000920E-02 0.  1.
    10030    2    1    2    0    0  0.00000000000E+00  0.00000000000E+00  0.10930492043E+04  0.38716010553E+04  0.37140999137E+04 0.  0.
        4    1    3    3  502    0 -0.16567521870E+04 -0.80662343278E+03  0.78687500375E+03  0.20036574198E+04  0.12699999809E+01 0. -1.
       -4    1    3    3    0  502  0.16567521870E+04  0.80662343278E+03  0.30617420052E+03  0.18679436355E+04  0.12699999809E+01 0.  1.
</event>
<event>
 5   0  0.3539010E-07  0.3590077E+04  0.7818609E-02  0.8092768E-01
        2   -1    0    0  501    0  0.00000000000E+00  0.00000000000E+00  0.28147145541E+04  0.28147145541E+04  0.25500000920E-02 0.  1.
       -2   -1    0    0    0  501  0.00000000000E+00  0.00000000000E+00 -0.11447565911E+04  0.11447565911E+04  0.25500000920E-02 0. -1.
    10030    2    1    2    0    0  0.00000000000E+00  0.00000000000E+00  0.16699579630E+04  0.39594711452E+04  0.35900769005E+04 0.  0.
        1    1    3    3  502    0  0.38134037873E+03  0.31619218624E+03  0.27378340454E+04  0.27822892091E+04  0.50400001928E-02 0.  1.
       -1    1    3    3    0  502 -0.38134037873E+03 -0.31619218624E+03 -0.10678760824E+04  0.11771819361E+04  0.50400001928E-02 0. -1.
</event>
<event>
 5   0  0.1070988E-07  0.3809574E+04  0.7818609E-02  0.8044103E-01
        1   -1    0    0  501    0  0.00000000000E+00  0.00000000000E+00  0.26888080586E+04  0.26888080586E+04  0.50400001928E-02 0. -1.
       -1   -1    0    0    0  501  0.00000000000E+00  0.00000000000E+00 -0.13493760901E+04  0.13493760901E+04  0.50400001928E-02 0.  1.
    10030    2    1    2    0    0  0.00000000000E+00  0.00000000000E+00  0.13394319685E+04  0.40381841488E+04  0.38095738897E+04 0.  0.
        2    1    3    3  502    0 -0.11047098491E+03  0.99777121112E+03 -0.10462104225E+04  0.14499336110E+04  0.25500000920E-02 0.  1.
       -2    1    3    3    0  502  0.11047098491E+03 -0.99777121112E+03  0.23856423910E+04  0.25882505377E+04  0.25500000920E-02 0. -1.
</event>
<event>
 5   0  0.3509843E-07  0.3839020E+04  0.7818609E-02  0.8037833E-01
       -2   -1    0    0    0  501  0.00000000000E+00  0.00000000000E+00  0.16197110023E+04  0.16197110023E+04  0.25500000920E-02 0.  1.
        2   -1    0    0  501    0  0.00000000000E+00  0.00000000000E+00 -0.22747998062E+04  0.22747998062E+04  0.25500000920E-02 0. -1.
    10030    2    1    2    0    0  0.00000000000E+00  0.00000000000E+00 -0.65508880383E+03  0.38945108085E+04  0.38390198094E+04 0.  0.
        4    1    3    3  502    0  0.93255623916E+03 -0.95515000236E+03  0.10717204156E+04  0.17118875338E+04  0.12699999809E+01 0.  1.
       -4    1    3    3    0  502 -0.93255623916E+03  0.95515000236E+03 -0.17268092194E+04  0.21826232747E+04  0.12699999809E+01 0. -1.
</event>
<event>
 5   0  0.3327241E-07  0.3794823E+04  0.7818609E-02  0.8047267E-01
       -2   -1    0    0    0  501  0.00000000000E+00  0.00000000000E+00  0.23217691035E+04  0.23217691035E+04  0.25500000920E-02 0.  1.
        2   -1    0    0  501    0  0.00000000000E+00  0.00000000000E+00 -0.15506150090E+04  0.15506150090E+04  0.25500000920E-02 0. -1.
    10030    2    1    2    0    0  0.00000000000E+00  0.00000000000E+00  0.77115409450E+03  0.38723841124E+04  0.37948227991E+04 0.  0.
        3    1    3    3  502    0  0.70804998494E+03  0.11797931116E+03  0.21778683929E+04  0.22931124364E+04  0.10100000352E+00 0.  1.
       -3    1    3    3    0  502 -0.70804998494E+03 -0.11797931116E+03 -0.14067142984E+04  0.15792716760E+04  0.10100000352E+00 0. -1.
</event>
<event>
 5   0  0.1070988E-07  0.3707431E+04  0.7818609E-02  0.8066317E-01
        1   -1    0    0  501    0  0.00000000000E+00  0.00000000000E+00  0.25088272061E+04  0.25088272061E+04  0.50400001928E-02 0. -1.
       -1   -1    0    0    0  501  0.00000000000E+00  0.00000000000E+00 -0.13696680505E+04  0.13696680505E+04  0.50400001928E-02 0.  1.
    10030    2    1    2    0    0  0.00000000000E+00  0.00000000000E+00  0.11391591556E+04  0.38784952567E+04  0.37074306297E+04 0.  0.
        3    1    3    3  502    0 -0.10358388850E+04  0.13022444084E+04  0.14242567914E+04  0.21902762641E+04  0.10100000352E+00 0. -1.
       -3    1    3    3    0  502  0.10358388850E+04 -0.13022444084E+04 -0.28509763575E+03  0.16882189926E+04  0.10100000352E+00 0.  1.
</event>
<event>
 5   0  0.3377396E-07  0.3773548E+04  0.7818609E-02  0.8051855E-01
       -2   -1    0    0    0  501  0.00000000000E+00  0.00000000000E+00  0.28226417884E+04  0.28226417884E+04  0.25500000920E-02 0.  1.
        2   -1    0    0  501    0  0.00000000000E+00  0.00000000000E+00 -0.12612002488E+04  0.12612002488E+04  0.25500000920E-02 0. -1.
    10030    2    1    2    0    0  0.00000000000E+00  0.00000000000E+00  0.15614415396E+04  0.40838420371E+04  0.37735482113E+04 0.  0.
        5    1    3    3  502    0  0.11003000402E+04  0.41984072063E+03 -0.81459148122E+03  0.14319594200E+04  0.46999998093E+01 0. -1.
       -5    1    3    3    0  502 -0.11003000402E+04 -0.41984072063E+03  0.23760330208E+04  0.26518826172E+04  0.46999998093E+01 0.  1.
</event>
<event>
 5   0  0.1084315E-07  0.3792268E+04  0.7818609E-02  0.8047816E-01
       -1   -1    0    0    0  501  0.00000000000E+00  0.00000000000E+00  0.20702947219E+04  0.20702947219E+04  0.50400001928E-02 0.  1.
        1   -1    0    0  501    0  0.00000000000E+00  0.00000000000E+00 -0.17366247218E+04  0.17366247218E+04  0.50400001928E-02 0. -1.
    10030    2    1    2    0    0  0.00000000000E+00  0.00000000000E+00  0.33367000012E+03  0.38069194437E+04  0.37922684481E+04 0.  0.
        4    1    3    3  502    0 -0.15926997817E+04  0.47525467045E+03 -0.74924948902E+03  0.18231664779E+04  0.12699999809E+01 0. -1.
       -4    1    3    3    0  502  0.15926997817E+04 -0.47525467045E+03  0.10829194891E+04  0.19837529658E+04  0.12699999809E+01 0.  1.
</event>
<event>
 5   0  0.3539010E-07  0.3723061E+04  0.7818609E-02  0.8062870E-01
       -2   -1    0    0    0  501  0.00000000000E+00  0.00000000000E+00  0.11125123496E+04  0.11125123496E+04  0.25500000920E-02 0.  1.
        2   -1    0    0  501    0  0.00000000000E+00  0.00000000000E+00 -0.31148378408E+04  0.31148378408E+04  0.25500000920E-02 0. -1.
    10030    2    1    2    0    0  0.00000000000E+00  0.00000000000E+00 -0.20023254912E+04  0.42273501904E+04  0.37230608724E+04 0.  0.
        1    1    3    3  502    0  0.10784784352E+03  0.71519544116E+03  0.94644379361E+03  0.11911723347E+04  0.50400001928E-02 0.  1.
       -1    1    3    3    0  502 -0.10784784352E+03 -0.71519544116E+03 -0.29487692848E+04  0.30361778557E+04  0.50400001928E-02 0. -1.
</event>
<event>
 5   0  0.3442126E-07  0.3780676E+04  0.7818609E-02  0.8050315E-01
        2   -1    0    0  501    0  0.00000000000E+00  0.00000000000E+00  0.22610338951E+04  0.22610338951E+04  0.25500000920E-02 0.  1.
       -2   -1    0    0    0  501  0.00000000000E+00  0.00000000000E+00 -0.15804172777E+04  0.15804172777E+04  0.25500000920E-02 0. -1.
    10030    2    1    2    0    0  0.00000000000E+00  0.00000000000E+00  0.68061661734E+03  0.38414511728E+04  0.37806756186E+04 0.  0.
        2    1    3    3  502    0  0.12376593621E+03 -0.18598175661E+04  0.20385499700E+02  0.18640426376E+04  0.25500000920E-02 0. -1.
       -2    1    3    3    0  502 -0.12376593621E+03  0.18598175661E+04  0.66023111764E+03  0.19774085352E+04  0.25500000920E-02 0.  1.
</event>
<event>
 5   0  0.1070988E-07  0.3815643E+04  0.7818609E-02  0.8042806E-01
       -3   -1    0    0    0  501  0.00000000000E+00  0.00000000000E+00  0.28406521388E+04  0.28406521406E+04  0.10100000352E+00 0.  1.
        3   -1    0    0  501    0  0.00000000000E+00  0.00000000000E+00 -0.12813194673E+04  0.12813194713E+04  0.10100000352E+00 0. -1.
    10030    2    1    2    0    0  0.00000000000E+00  0.00000000000E+00  0.15593326714E+04  0.41219716119E+04  0.38156430112E+04 0.  0.
        4    1    3    3  502    0 -0.68842229938E+03  0.11239104061E+04  0.22697830961E+04  0.26246936544E+04  0.12699999809E+01 0.  1.
       -4    1    3    3    0  502  0.68842229938E+03 -0.11239104061E+04 -0.71045042464E+03  0.14972779575E+04  0.12699999809E+01 0. -1.
</event>
<event>
 5   0  0.3509843E-07  0.3806760E+04  0.7818609E-02  0.8044706E-01
       -2   -1    0    0    0  501  0.00000000000E+00  0.00000000000E+00  0.12089632072E+04  0.12089632072E+04  0.25500000920E-02 0. -1.
        2   -1    0    0  501    0  0.00000000000E+00  0.00000000000E+00 -0.29966632034E+04  0.29966632034E+04  0.25500000920E-02 0.  1.
    10030    2    1    2    0    0  0.00000000000E+00  0.00000000000E+00 -0.17876999962E+04  0.42056264105E+04  0.38067600697E+04 0.  0.
        4    1    3    3  502    0  0.98523745323E+03 -0.37317345725E+03 -0.26451599698E+04  0.28472485222E+04  0.12699999809E+01 0.  1.
       -4    1    3    3    0  502 -0.98523745323E+03  0.37317345725E+03  0.85745997356E+03  0.13583778884E+04  0.12699999809E+01 0. -1.
</event>
<event>
 5   0  0.3377396E-07  0.3794270E+04  0.7818609E-02  0.8047386E-01
       -2   -1    0    0    0  501  0.00000000000E+00  0.00000000000E+00  0.23681194082E+04  0.23681194082E+04  0.25500000920E-02 0. -1.
        2   -1    0    0  501    0  0.00000000000E+00  0.00000000000E+00 -0.15198226669E+04  0.15198226669E+04  0.25500000920E-02 0.  1.
    10030    2    1    2    0    0  0.00000000000E+00  0.00000000000E+00  0.84829674129E+03  0.38879420750E+04  0.37942701825E+04 0.  0.
        5    1    3    3  502    0  0.87093878195E+03  0.10233926157E+04  0.17963244768E+04  0.22433614340E+04  0.46999998093E+01 0. -1.
       -5    1    3    3    0  502 -0.87093878195E+03 -0.10233926157E+04 -0.94802773547E+03  0.16445806410E+04  0.46999998093E+01 0.  1.
</event>
<event>
 5   0  0.1084315E-07  0.3790843E+04  0.7818609E-02  0.8048123E-01
       -1   -1    0    0    0  501  0.00000000000E+00  0.00000000000E+00  0.13817766155E+04  0.13817766155E+04  0.50400001928E-02 0.  1.
        1   -1    0    0  501    0  0.00000000000E+00  0.00000000000E+00 -0.26000026539E+04  0.26000026539E+04  0.50400001928E-02 0. -1.
    10030    2    1    2    0    0  0.00000000000E+00  0.00000000000E+00 -0.12182260384E+04  0.39817792693E+04  0.37908431080E+04 0.  0.
        4    1    3    3  502    0  0.12633148171E+04 -0.67521685932E+03  0.69467181629E+03  0.15919964446E+04  0.12699999809E+01 0.  1.
       -4    1    3    3    0  502 -0.12633148171E+04  0.67521685932E+03 -0.19128978547E+04  0.23897828248E+04  0.12699999809E+01 0. -1.
</event>
<event>
 5   0  0.3327241E-07  0.3763314E+04  0.7818609E-02  0.8054074E-01
       -2   -1    0    0    0  501  0.00000000000E+00  0.00000000000E+00  0.11516331148E+04  0.11516331148E+04  0.25500000920E-02 0. -1.
        2   -1    0    0  501    0  0.00000000000E+00  0.00000000000E+00 -0.30744457234E+04  0.30744457234E+04  0.25500000920E-02 0.  1.
    10030    2    1    2    0    0  0.00000000000E+00  0.00000000000E+00 -0.19228126086E+04  0.42260788382E+04  0.37633142333E+04 0.  0.
        3    1    3    3  502    0 -0.74008471373E+03 -0.96115176407E+03 -0.25767218359E+04  0.28479876276E+04  0.10100000352E+00 0.  1.
       -3    1    3    3    0  502  0.74008471373E+03  0.96115176407E+03  0.65390922723E+03  0.13780912106E+04  0.10100000352E+00 0. -1.
</event>
<event>
 5   0  0.1070988E-07  0.3781370E+04  0.7818609E-02  0.8050165E-01
        1   -1    0    0  501    0  0.00000000000E+00  0.00000000000E+00  0.16127462776E+04  0.16127462776E+04  0.50400001928E-02 0.  1.
       -1   -1    0    0    0  501  0.00000000000E+00  0.00000000000E+00 -0.22165230506E+04  0.22165230506E+04  0.50400001928E-02 0. -1.
    10030    2    1    2    0    0  0.00000000000E+00  0.00000000000E+00 -0.60377677304E+03  0.38292693282E+04  0.37813697513E+04 0.  0.
        3    1    3    3  502    0  0.43634521064E+03  0.20458537240E+03 -0.21532803772E+04  0.22065513161E+04  0.10100000352E+00 0. -1.
       -3    1    3    3    0  502 -0.43634521064E+03 -0.20458537240E+03  0.15495036041E+04  0.16227180121E+04  0.10100000352E+00 0.  1.
</event>
<event>
 5   0  0.1070988E-07  0.3807399E+04  0.7818609E-02  0.8044569E-01
       -1   -1    0    0    0  501  0.00000000000E+00  0.00000000000E+00  0.12874356970E+04  0.12874356970E+04  0.50400001928E-02 0.  1.
        1   -1    0    0  501    0  0.00000000000E+00  0.00000000000E+00 -0.28149538301E+04  0.28149538301E+04  0.50400001928E-02 0. -1.
    10030    2    1    2    0    0  0.00000000000E+00  0.00000000000E+00 -0.15275181331E+04  0.41023895271E+04  0.38073991366E+04 0.  0.
        5    1    3    3  502    0 -0.59718794748E+03 -0.53531293065E+03 -0.26240421126E+04  0.27438681596E+04  0.46999998093E+01 0. -1.
       -5    1    3    3    0  502  0.59718794748E+03  0.53531293065E+03  0.10965239795E+04  0.13585213675E+04  0.46999998093E+01 0.  1.
</event>
<event>
 5   0  0.1085771E-07  0.3764042E+04  0.7818609E-02  0.8053916E-01
       -1   -1    0    0    0  501  0.00000000000E+00  0.00000000000E+00  0.16667631522E+04  0.16667631522E+04  0.50400001928E-02 0.  1.
        1   -1    0    0  501    0  0.00000000000E+00  0.00000000000E+00 -0.21250788787E+04  0.21250788787E+04  0.50400001928E-02 0. -1.
    10030    2    1    2    0    0  0.00000000000E+00  0.00000000000E+00 -0.45831572656E+03  0.37918420309E+04  0.37640420670E+04 0.  0.
        1    1    3    3  502    0 -0.63784220770E+03  0.15897204165E+04  0.55631197966E+03  0.18009821496E+04  0.50400001928E-02 0.  1.
       -1    1    3    3    0  502  0.63784220770E+03 -0.15897204165E+04 -0.10146277062E+04  0.19908598813E+04  0.50400001928E-02 0. -1.
</event>
<event>
 5   0  0.3327241E-07  0.3816073E+04  0.7818609E-02  0.8042714E-01
        2   -1    0    0  501    0  0.00000000000E+00  0.00000000000E+00  0.23616915123E+04  0.23616915123E+04  0.25500000920E-02 0. -1.
       -2   -1    0    0    0  501  0.00000000000E+00  0.00000000000E+00 -0.15415235191E+04  0.15415235191E+04  0.25500000920E-02 0.  1.
    10030    2    1    2    0    0  0.00000000000E+00  0.00000000000E+00  0.82016799322E+03  0.39032150315E+04  0.38160728563E+04 0.  0.
        3    1    3    3  502    0 -0.14279698948E+04  0.73197875090E+03 -0.64582323941E+03  0.17297336728E+04  0.10100000352E+00 0.  1.
       -3    1    3    3    0  502  0.14279698948E+04 -0.73197875090E+03  0.14659912326E+04  0.21734813587E+04  0.10100000352E+00 0. -1.
</event>
<event>
 5   0  0.3327241E-07  0.4061946E+04  0.7818609E-02  0.7992165E-01
       -2   -1    0    0    0  501  0.00000000000E+00  0.00000000000E+00  0.21816313880E+04  0.21816313880E+04  0.25500000920E-02 0. -1.
        2   -1    0    0  501    0  0.00000000000E+00  0.00000000000E+00 -0.18907186074E+04  0.18907186074E+04  0.25500000920E-02 0.  1.
    10030    2    1    2    0    0  0.00000000000E+00  0.00000000000E+00  0.29091278056E+03  0.40723499954E+04  0.40619458686E+04 0.  0.
        3    1    3    3  502    0  0.17051132012E+04 -0.11026881490E+04  0.18452885564E+03  0.20389661820E+04  0.10100000352E+00 0.  1.
       -3    1    3    3    0  502 -0.17051132012E+04  0.11026881490E+04  0.10638392492E+03  0.20333838134E+04  0.10100000352E+00 0. -1.
</event>
<event>
 5   0  0.3377396E-07  0.3807791E+04  0.7818609E-02  0.8044485E-01
       -2   -1    0    0    0  501  0.00000000000E+00  0.00000000000E+00  0.23095024543E+04  0.23095024543E+04  0.25500000920E-02 0. -1.
        2   -1    0    0  501    0  0.00000000000E+00  0.00000000000E+00 -0.15695232557E+04  0.15695232557E+04  0.25500000920E-02 0.  1.
    10030    2    1    2    0    0  0.00000000000E+00  0.00000000000E+00  0.73997919858E+03  0.38790257100E+04  0.38077908614E+04 0.  0.
        5    1    3    3  502    0  0.17638269043E+04  0.28976700373E+03  0.10378031353E+04  0.20669077634E+04  0.46999998093E+01 0.  1.
       -5    1    3    3    0  502 -0.17638269043E+04 -0.28976700373E+03 -0.29782393673E+03  0.18121179465E+04  0.46999998093E+01 0. -1.
</event>
<event>
 5   0  0.1084315E-07  0.3769050E+04  0.7818609E-02  0.8052829E-01
       -1   -1    0    0    0  501  0.00000000000E+00  0.00000000000E+00  0.19782712173E+04  0.19782712173E+04  0.50400001928E-02 0.  1.
        1   -1    0    0  501    0  0.00000000000E+00  0.00000000000E+00 -0.17952216836E+04  0.17952216836E+04  0.50400001928E-02 0. -1.
    10030    2    1    2    0    0  0.00000000000E+00  0.00000000000E+00  0.18304953371E+03  0.37734929009E+04  0.37690504827E+04 0.  0.
        4    1    3    3  502    0  0.39497461805E+03  0.13468140461E+04 -0.11675427798E+04  0.18256699536E+04  0.12699999809E+01 0. -1.
       -4    1    3    3    0  502 -0.39497461805E+03 -0.13468140461E+04  0.13505923135E+04  0.19478229473E+04  0.12699999809E+01 0.  1.
</event>
<event>
 5   0  0.1085771E-07  0.3820916E+04  0.7818609E-02  0.8041681E-01
       -1   -1    0    0    0  501  0.00000000000E+00  0.00000000000E+00  0.11847075024E+04  0.11847075024E+04  0.50400001928E-02 0.  1.
        1   -1    0    0  501    0  0.00000000000E+00  0.00000000000E+00 -0.30808017968E+04  0.30808017968E+04  0.50400001928E-02 0. -1.
    10030    2    1    2    0    0  0.00000000000E+00  0.00000000000E+00 -0.18960942944E+04  0.42655092992E+04  0.38209155981E+04 0.  0.
        1    1    3    3  502    0 -0.15079190567E+04  0.11102996178E+04 -0.52550328100E+03  0.19449264308E+04  0.50400001928E-02 0.  1.
       -1    1    3    3    0  502  0.15079190567E+04 -0.11102996178E+04 -0.13705910134E+04  0.23205828684E+04  0.50400001928E-02 0. -1.
</event>
<event>
 5   0  0.3442126E-07  0.3816246E+04  0.7818609E-02  0.8042677E-01
        2   -1    0    0  501    0  0.00000000000E+00  0.00000000000E+00  0.25514379303E+04  0.25514379303E+04  0.25500000920E-02 0. -1.
       -2   -1    0    0    0  501  0.00000000000E+00  0.00000000000E+00 -0.14270123559E+04  0.14270123559E+04  0.25500000920E-02 0.  1.
    10030    2    1    2    0    0  0.00000000000E+00  0.00000000000E+00  0.11244255744E+04  0.39784502862E+04  0.38162460360E+04 0.  0.
        2    1    3    3  502    0  0.48143870643E+03  0.14211465532E+04  0.17910821131E+04  0.23365392976E+04  0.25500000920E-02 0. -1.
       -2    1    3    3    0  502 -0.48143870643E+03 -0.14211465532E+04 -0.66665653874E+03  0.16419109885E+04  0.25500000920E-02 0.  1.
</event>
<event>
 5   0  0.3327241E-07  0.3779618E+04  0.7818609E-02  0.8050543E-01
       -2   -1    0    0    0  501  0.00000000000E+00  0.00000000000E+00  0.12307152844E+04  0.12307152844E+04  0.25500000920E-02 0.  1.
        2   -1    0    0  501    0  0.00000000000E+00  0.00000000000E+00 -0.29018717674E+04  0.29018717674E+04  0.25500000920E-02 0. -1.
    10030    2    1    2    0    0  0.00000000000E+00  0.00000000000E+00 -0.16711564830E+04  0.41325870518E+04  0.37796179370E+04 0.  0.
        3    1    3    3  502    0  0.52242687504E+03  0.12793235032E+04 -0.22450643593E+04  0.26362686611E+04  0.10100000352E+00 0. -1.
       -3    1    3    3    0  502 -0.52242687504E+03 -0.12793235032E+04  0.57390787630E+03  0.14963183907E+04  0.10100000352E+00 0.  1.
</event>
<event>
 5   0  0.1085771E-07  0.3793260E+04  0.7818609E-02  0.8047603E-01
       -1   -1    0    0    0  501  0.00000000000E+00  0.00000000000E+00  0.18024795105E+04  0.18024795105E+04  0.50400001928E-02 0.  1.
        1   -1    0    0  501    0  0.00000000000E+00  0.00000000000E+00 -0.19956983405E+04  0.19956983405E+04  0.50400001928E-02 0. -1.
    10030    2    1    2    0    0  0.00000000000E+00  0.00000000000E+00 -0.19321883007E+03  0.37981778510E+04  0.37932600058E+04 0.  0.
        1    1    3    3  502    0  0.18939717282E+04 -0.31105144159E+02 -0.19217386927E+03  0.19039504282E+04  0.50400001928E-02 0.  1.
       -1    1    3    3    0  502 -0.18939717282E+04  0.31105144159E+02 -0.10449607944E+01  0.18942274228E+04  0.50400001928E-02 0. -1.
</event>
<event>
 5   0  0.3377396E-07  0.3767370E+04  0.7818609E-02  0.8053194E-01
       -2   -1    0    0    0  501  0.00000000000E+00  0.00000000000E+00  0.19082764927E+04  0.19082764927E+04  0.25500000920E-02 0. -1.
        2   -1    0    0  501    0  0.00000000000E+00  0.00000000000E+00 -0.18594103129E+04  0.18594103129E+04  0.25500000920E-02 0.  1.
    10030    2    1    2    0    0  0.00000000000E+00  0.00000000000E+00  0.48866179841E+02  0.37676868056E+04  0.37673698998E+04 0.  0.
        5    1    3    3  502    0  0.11308413221E+04 -0.14218737534E+04  0.52218956810E+03  0.18902992095E+04  0.46999998093E+01 0. -1.
       -5    1    3    3    0  502 -0.11308413221E+04  0.14218737534E+04 -0.47332338826E+03  0.18773875962E+04  0.46999998093E+01 0.  1.
</event>
<event>
 5   0  0.1085771E-07  0.3761772E+04  0.7818609E-02  0.8054409E-01
        1   -1    0    0  501    0  0.00000000000E+00  0.00000000000E+00  0.30516639420E+04  0.30516639420E+04  0.50400001928E-02 0. -1.
       -1   -1    0    0    0  501  0.00000000000E+00  0.00000000000E+00 -0.11592794545E+04  0.11592794545E+04  0.50400001928E-02 0.  1.
    10030    2    1    2    0    0  0.00000000000E+00  0.00000000000E+00  0.18923844875E+04  0.42109433964E+04  0.37617715560E+04 0.  0.
        1    1    3    3  502    0  0.13498956866E+04  0.13027045958E+04  0.10983393537E+04  0.21738461226E+04  0.50400001928E-02 0.  1.
       -1    1    3    3    0  502 -0.13498956866E+04 -0.13027045958E+04  0.79404513379E+03  0.20370972739E+04  0.50400001928E-02 0. -1.
</event>
<event>
 5   0  0.1070988E-07  0.3868154E+04  0.7818609E-02  0.8031685E-01
        1   -1    0    0  501    0  0.00000000000E+00  0.00000000000E+00  0.10693603718E+04  0.10693603718E+04  0.50400001928E-02 0.  1.
       -1   -1    0    0    0  501  0.00000000000E+00  0.00000000000E+00 -0.34980284947E+04  0.34980284947E+04  0.50400001928E-02 0. -1.
    10030    2    1    2    0    0  0.00000000000E+00  0.00000000000E+00 -0.24286681229E+04  0.45673888665E+04  0.38681535914E+04 0.  0.
        5    1    3    3  502    0 -0.17986586481E+04 -0.71071925125E+03 -0.12359835212E+04  0.22952063396E+04  0.46999998093E+01 0.  1.
       -5    1    3    3    0  502  0.17986586481E+04  0.71071925125E+03 -0.11926846017E+04  0.22721825270E+04  0.46999998093E+01 0. -1.
</event>
<event>
 5   0  0.3442126E-07  0.3930437E+04  0.7818609E-02  0.8018728E-01
        2   -1    0    0  501    0  0.00000000000E+00  0.00000000000E+00  0.22734038640E+04  0.22734038640E+04  0.25500000920E-02 0.  1.
       -2   -1    0    0    0  501  0.00000000000E+00  0.00000000000E+00 -0.16988114624E+04  0.16988114624E+04  0.25500000920E-02 0. -1.
    10030    2    1    2    0    0  0.00000000000E+00  0.00000000000E+00  0.57459240163E+03  0.39722153264E+04  0.39304374020E+04 0.  0.
        2    1    3    3  502    0  0.26349125786E+03  0.42043391526E+02 -0.16804199371E+04  0.17014718495E+04  0.25500000920E-02 0. -1.
       -2    1    3    3    0  502 -0.26349125786E+03 -0.42043391526E+02  0.22550123387E+04  0.22707434768E+04  0.25500000920E-02 0.  1.
</event>
<event>
 5   0  0.1085771E-07  0.3760297E+04  0.7818609E-02  0.8054729E-01
       -1   -1    0    0    0  501  0.00000000000E+00  0.00000000000E+00  0.19330905129E+04  0.19330905129E+04  0.50400001928E-02 0. -1.
        1   -1    0    0  501    0  0.00000000000E+00  0.00000000000E+00 -0.18286568988E+04  0.18286568988E+04  0.50400001928E-02 0.  1.
    10030    2    1    2    0    0  0.00000000000E+00  0.00000000000E+00  0.10443361415E+03  0.37617474117E+04  0.37602974895E+04 0.  0.
        1    1    3    3  502    0 -0.70884264203E+03 -0.13588023378E+04 -0.10373117738E+04  0.18506262184E+04  0.50400001928E-02 0.  1.
       -1    1    3    3    0  502  0.70884264203E+03  0.13588023378E+04  0.11417453879E+04  0.19111211932E+04  0.50400001928E-02 0. -1.
</event>
<event>
 5   0  0.1070988E-07  0.3124625E+04  0.7818609E-02  0.8209012E-01
        1   -1    0    0  501    0  0.00000000000E+00  0.00000000000E+00  0.19075680179E+04  0.19075680179E+04  0.50400001928E-02 0.  1.
       -1   -1    0    0    0  501  0.00000000000E+00  0.00000000000E+00 -0.12795456068E+04  0.12795456068E+04  0.50400001928E-02 0. -1.
    10030    2    1    2    0    0  0.00000000000E+00  0.00000000000E+00  0.62802241108E+03  0.31871136247E+04  0.31246249548E+04 0.  0.
        2    1    3    3  502    0 -0.12655905162E+04 -0.15541470327E+03 -0.60678682955E+03  0.14121130767E+04  0.25500000920E-02 0. -1.
       -2    1    3    3    0  502  0.12655905162E+04  0.15541470327E+03  0.12348092406E+04  0.17750005480E+04  0.25500000920E-02 0.  1.
</event>
<event>
 5   0  0.3377396E-07  0.3799663E+04  0.7818609E-02  0.8046227E-01
       -2   -1    0    0    0  501  0.00000000000E+00  0.00000000000E+00  0.14549286698E+04  0.14549286698E+04  0.25500000920E-02 0.  1.
        2   -1    0    0  501    0  0.00000000000E+00  0.00000000000E+00 -0.24807809527E+04  0.24807809527E+04  0.25500000920E-02 0. -1.
    10030    2    1    2    0    0  0.00000000000E+00  0.00000000000E+00 -0.10258522829E+04  0.39357096225E+04  0.37996627911E+04 0.  0.
        5    1    3    3  502    0  0.59602009557E+03 -0.60712644962E+03 -0.22724215494E+04  0.24264715676E+04  0.46999998093E+01 0. -1.
       -5    1    3    3    0  502 -0.59602009557E+03  0.60712644962E+03  0.12465692665E+04  0.15092380549E+04  0.46999998093E+01 0.  1.
</event>
<event>
 5   0  0.3509843E-07  0.3794508E+04  0.7818609E-02  0.8047335E-01
       -2   -1    0    0    0  501  0.00000000000E+00  0.00000000000E+00  0.16376243214E+04  0.16376243214E+04  0.25500000920E-02 0.  1.
        2   -1    0    0  501    0  0.00000000000E+00  0.00000000000E+00 -0.21980449257E+04  0.21980449257E+04  0.25500000920E-02 0. -1.
    10030    2    1    2    0    0  0.00000000000E+00  0.00000000000E+00 -0.56042060435E+03  0.38356692471E+04  0.37945075200E+04 0.  0.
        4    1    3    3  502    0 -0.15093461427E+04  0.10213128834E+03 -0.14376259179E+04  0.20869418946E+04  0.12699999809E+01 0. -1.
       -4    1    3    3    0  502  0.15093461427E+04 -0.10213128834E+03  0.87720531359E+03  0.17487273526E+04  0.12699999809E+01 0.  1.
</event>
<event>
 5   0  0.1070988E-07  0.3811823E+04  0.7818609E-02  0.8043622E-01
        1   -1    0    0  501    0  0.00000000000E+00  0.00000000000E+00  0.10953926620E+04  0.10953926620E+04  0.50400001928E-02 0. -1.
       -1   -1    0    0    0  501  0.00000000000E+00  0.00000000000E+00 -0.33161620137E+04  0.33161620137E+04  0.50400001928E-02 0.  1.
    10030    2    1    2    0    0  0.00000000000E+00  0.00000000000E+00 -0.22207693516E+04  0.44115546757E+04  0.38118234670E+04 0.  0.
        2    1    3    3  502    0  0.27792824733E+03 -0.15084434688E+04  0.19891498508E+03  0.15466780468E+04  0.25500000920E-02 0. -1.
       -2    1    3    3    0  502 -0.27792824733E+03  0.15084434688E+04 -0.24196843367E+04  0.28648766289E+04  0.25500000920E-02 0.  1.
</event>
<event>
 5   0  0.1070988E-07  0.3839278E+04  0.7818609E-02  0.8037778E-01
       -1   -1    0    0    0  501  0.00000000000E+00  0.00000000000E+00  0.29382811541E+04  0.29382811541E+04  0.50400001928E-02 0. -1.
        1   -1    0    0  501    0  0.00000000000E+00  0.00000000000E+00 -0.12541392996E+04  0.12541392996E+04  0.50400001928E-02 0.  1.
    10030    2    1    2    0    0  0.00000000000E+00  0.00000000000E+00  0.16841418545E+04  0.41924204537E+04  0.38392779887E+04 0.  0.
        5    1    3    3  502    0 -0.16285281920E+04 -0.10073505511E+04  0.69502770912E+03  0.20371413332E+04  0.46999998093E+01 0.  1.
       -5    1    3    3    0  502  0.16285281920E+04  0.10073505511E+04  0.98911414538E+03  0.21552791206E+04  0.46999998093E+01 0. -1.
</event>
<event>
 5   0  0.1070988E-07  0.3803681E+04  0.7818609E-02  0.8045365E-01
       -1   -1    0    0    0  501  0.00000000000E+00  0.00000000000E+00  0.24316519056E+04  0.24316519056E+04  0.50400001928E-02 0.  1.
        1   -1    0    0  501    0  0.00000000000E+00  0.00000000000E+00 -0.14874649860E+04  0.14874649860E+04  0.50400001928E-02 0. -1.
    10030    2    1    2    0    0  0.00000000000E+00  0.00000000000E+00  0.94418691966E+03  0.39191168916E+04  0.38036808845E+04 0.  0.
        2    1    3    3  502    0  0.10487907090E+03 -0.95594977948E+03 -0.12184812672E+04  0.15522680822E+04  0.25500000920E-02 0. -1.
       -2    1    3    3    0  502 -0.10487907090E+03  0.95594977948E+03  0.21626681868E+04  0.23668488095E+04  0.25500000920E-02 0.  1.
</event>
<event>
 5   0  0.3327241E-07  0.3796035E+04  0.7818609E-02  0.8047006E-01
       -2   -1    0    0    0  501  0.00000000000E+00  0.00000000000E+00  0.15569037655E+04  0.15569037655E+04  0.25500000920E-02 0.  1.
        2   -1    0    0  501    0  0.00000000000E+00  0.00000000000E+00 -0.23138688887E+04  0.23138688887E+04  0.25500000920E-02 0. -1.
    10030    2    1    2    0    0  0.00000000000E+00  0.00000000000E+00 -0.75696512316E+03  0.38707726542E+04  0.37960353980E+04 0.  0.
        3    1    3    3  502    0 -0.69786958943E+03  0.12257681785E+04 -0.16735033204E+04  0.21886395237E+04  0.10100000352E+00 0. -1.
       -3    1    3    3    0  502  0.69786958943E+03 -0.12257681785E+04  0.91653819721E+03  0.16821331304E+04  0.10100000352E+00 0.  1.
</event>
<event>
 5   0  0.1084315E-07  0.3838945E+04  0.7818609E-02  0.8037849E-01
       -1   -1    0    0    0  501  0.00000000000E+00  0.00000000000E+00  0.16059979900E+04  0.16059979900E+04  0.50400001928E-02 0.  1.
        1   -1    0    0  501    0  0.00000000000E+00  0.00000000000E+00 -0.22941342960E+04  0.22941342960E+04  0.50400001928E-02 0. -1.
    10030    2    1    2    0    0  0.00000000000E+00  0.00000000000E+00 -0.68813630603E+03  0.39001322860E+04  0.38389452032E+04 0.  0.
        4    1    3    3  502    0 -0.19329239268E+03  0.12822116896E+04 -0.17818794880E+04  0.22037524563E+04  0.12699999809E+01 0. -1.
       -4    1    3    3    0  502  0.19329239268E+03 -0.12822116896E+04  0.10937431819E+04  0.16963798298E+04  0.12699999809E+01 0.  1.
</event>
<event>
 5   0  0.1070988E-07  0.3798235E+04  0.7818609E-02  0.8046534E-01
        1   -1    0    0  501    0  0.00000000000E+00  0.00000000000E+00  0.19029910575E+04  0.19029910575E+04  0.50400001928E-02 0.  1.
       -1   -1    0    0    0  501  0.00000000000E+00  0.00000000000E+00 -0.18952517744E+04  0.18952517744E+04  0.50400001928E-02 0. -1.
    10030    2    1    2    0    0  0.00000000000E+00  0.00000000000E+00  0.77392830423E+01  0.37982428319E+04  0.37982349472E+04 0.  0.
        3    1    3    3  502    0  0.41526568282E+03  0.35969683290E+03  0.18217897416E+04  0.19028256020E+04  0.10100000352E+00 0.  1.
       -3    1    3    3    0  502 -0.41526568282E+03 -0.35969683290E+03 -0.18140504586E+04  0.18954172299E+04  0.10100000352E+00 0. -1.
</event>
<event>
 5   0  0.3539010E-07  0.3787381E+04  0.7818609E-02  0.8048868E-01
        2   -1    0    0  501    0  0.00000000000E+00  0.00000000000E+00  0.10529204918E+04  0.10529204918E+04  0.25500000920E-02 0. -1.
       -2   -1    0    0    0  501  0.00000000000E+00  0.00000000000E+00 -0.34058258021E+04  0.34058258021E+04  0.25500000920E-02 0.  1.
    10030    2    1    2    0    0  0.00000000000E+00  0.00000000000E+00 -0.23529053103E+04  0.44587462940E+04  0.37873810364E+04 0.  0.
        1    1    3    3  502    0  0.13234344279E+03 -0.15347046851E+04  0.12026500251E+03  0.15450880001E+04  0.50400001928E-02 0. -1.
       -1    1    3    3    0  502 -0.13234344279E+03  0.15347046851E+04 -0.24731703128E+04  0.29136582939E+04  0.50400001928E-02 0.  1.
</event>
<event>
 5   0  0.1070988E-07  0.3818459E+04  0.7818609E-02  0.8042205E-01
       -1   -1    0    0    0  501  0.00000000000E+00  0.00000000000E+00  0.12343426051E+04  0.12343426051E+04  0.50400001928E-02 0. -1.
        1   -1    0    0  501    0  0.00000000000E+00  0.00000000000E+00 -0.29531169417E+04  0.29531169417E+04  0.50400001928E-02 0.  1.
    10030    2    1    2    0    0  0.00000000000E+00  0.00000000000E+00 -0.17187743366E+04  0.41874595467E+04  0.38184594060E+04 0.  0.
        3    1    3    3  502    0 -0.20493393323E+03 -0.52763286211E+03 -0.28589858341E+04  0.29144801190E+04  0.10100000352E+00 0.  1.
       -3    1    3    3    0  502  0.20493393323E+03  0.52763286211E+03  0.11402114975E+04  0.12729794277E+04  0.10100000352E+00 0. -1.
</event>
<event>
 5   0  0.3327241E-07  0.3798989E+04  0.7818609E-02  0.8046372E-01
        2   -1    0    0  501    0  0.00000000000E+00  0.00000000000E+00  0.25604007926E+04  0.25604007926E+04  0.25500000920E-02 0. -1.
       -2   -1    0    0    0  501  0.00000000000E+00  0.00000000000E+00 -0.14091854075E+04  0.14091854075E+04  0.25500000920E-02 0.  1.
    10030    2    1    2    0    0  0.00000000000E+00  0.00000000000E+00  0.11512153851E+04  0.39695862001E+04  0.37989890415E+04 0.  0.
        3    1    3    3  502    0 -0.10552296146E+04 -0.15251918213E+04  0.10043500458E+04  0.21091322045E+04  0.10100000352E+00 0. -1.
       -3    1    3    3    0  502  0.10552296146E+04  0.15251918213E+04  0.14686533922E+03  0.18604539955E+04  0.10100000352E+00 0.  1.
</event>
<event>
 5   0  0.3327241E-07  0.3802145E+04  0.7818609E-02  0.8045695E-01
       -2   -1    0    0    0  501  0.00000000000E+00  0.00000000000E+00  0.18285352660E+04  0.18285352660E+04  0.25500000920E-02 0.  1.
        2   -1    0    0  501    0  0.00000000000E+00  0.00000000000E+00 -0.19764871996E+04  0.19764871996E+04  0.25500000920E-02 0. -1.
    10030    2    1    2    0    0  0.00000000000E+00  0.00000000000E+00 -0.14795193364E+03  0.38050224656E+04  0.38021449458E+04 0.  0.
        3    1    3    3  502    0 -0.11113928200E+04  0.86794734889E+03  0.12019595127E+04  0.18528986160E+04  0.10100000352E+00 0.  1.
       -3    1    3    3    0  502  0.11113928200E+04 -0.86794734889E+03 -0.13499114464E+04  0.19521238496E+04  0.10100000352E+00 0. -1.
</event>
<event>
 5   0  0.3509843E-07  0.3802160E+04  0.7818609E-02  0.8045692E-01
       -2   -1    0    0    0  501  0.00000000000E+00  0.00000000000E+00  0.19477403437E+04  0.19477403437E+04  0.25500000920E-02 0.  1.
        2   -1    0    0  501    0  0.00000000000E+00  0.00000000000E+00 -0.18555371098E+04  0.18555371098E+04  0.25500000920E-02 0. -1.
    10030    2    1    2    0    0  0.00000000000E+00  0.00000000000E+00  0.92203233907E+02  0.38032774535E+04  0.38021596431E+04 0.  0.
        4    1    3    3  502    0 -0.25323539947E+03 -0.12333946109E+04  0.14708491291E+04  0.19361790225E+04  0.12699999809E+01 0.  1.
       -4    1    3    3    0  502  0.25323539947E+03  0.12333946109E+04 -0.13786458951E+04  0.18670984310E+04  0.12699999809E+01 0. -1.
</event>
<event>
 5   0  0.1070988E-07  0.3782474E+04  0.7818609E-02  0.8049926E-01
       -1   -1    0    0    0  501  0.00000000000E+00  0.00000000000E+00  0.22139569050E+04  0.22139569050E+04  0.50400001928E-02 0.  1.
        1   -1    0    0  501    0  0.00000000000E+00  0.00000000000E+00 -0.16155583334E+04  0.16155583334E+04  0.50400001928E-02 0. -1.
    10030    2    1    2    0    0  0.00000000000E+00  0.00000000000E+00  0.59839857164E+03  0.38295152385E+04  0.37824735440E+04 0.  0.
        5    1    3    3  502    0  0.45960033507E+03  0.88824572068E+03  0.19243231760E+04  0.21686988504E+04  0.46999998093E+01 0.  1.
       -5    1    3    3    0  502 -0.45960033507E+03 -0.88824572068E+03 -0.13259246043E+04  0.16608163880E+04  0.46999998093E+01 0. -1.
</event>
<event>
 5   0  0.3509843E-07  0.3859009E+04  0.7818609E-02  0.8033609E-01
        2   -1    0    0  501    0  0.00000000000E+00  0.00000000000E+00  0.29804900739E+04  0.29804900739E+04  0.25500000920E-02 0. -1.
       -2   -1    0    0    0  501  0.00000000000E+00  0.00000000000E+00 -0.12491194549E+04  0.12491194549E+04  0.25500000920E-02 0.  1.
    10030    2    1    2    0    0  0.00000000000E+00  0.00000000000E+00  0.17313706190E+04  0.42296095288E+04  0.38590092699E+04 0.  0.
        4    1    3    3  502    0  0.13436903639E+04  0.77760141342E+03  0.21215037122E+04  0.26288680769E+04  0.12699999809E+01 0. -1.
       -4    1    3    3    0  502 -0.13436903639E+04 -0.77760141342E+03 -0.39013309319E+03  0.16007414518E+04  0.12699999809E+01 0.  1.
</event>
<event>
 5   0  0.1070988E-07  0.3803338E+04  0.7818609E-02  0.8045439E-01
        1   -1    0    0  501    0  0.00000000000E+00  0.00000000000E+00  0.20641284195E+04  0.20641284195E+04  0.50400001928E-02 0.  1.
       -1   -1    0    0    0  501  0.00000000000E+00  0.00000000000E+00 -0.17519957219E+04  0.17519957219E+04  0.50400001928E-02 0. -1.
    10030    2    1    2    0    0  0.00000000000E+00  0.00000000000E+00  0.31213269764E+03  0.38161241415E+04  0.38033375662E+04 0.  0.
        5    1    3    3  502    0  0.75304265345E+03  0.15570888966E+04  0.94911780893E+03  0.19729282235E+04  0.46999998093E+01 0.  1.
       -5    1    3    3    0  502 -0.75304265345E+03 -0.15570888966E+04 -0.63698511129E+03  0.18431959179E+04  0.46999998093E+01 0. -1.
</event>
<event>
 5   0  0.3539010E-07  0.3840419E+04  0.7818609E-02  0.8037536E-01
       -2   -1    0    0    0  501  0.00000000000E+00  0.00000000000E+00  0.21246672561E+04  0.21246672561E+04  0.25500000920E-02 0.  1.
        2   -1    0    0  501    0  0.00000000000E+00  0.00000000000E+00 -0.17354265105E+04  0.17354265105E+04  0.25500000920E-02 0. -1.
    10030    2    1    2    0    0  0.00000000000E+00  0.00000000000E+00  0.38924074562E+03  0.38600937667E+04  0.38404186659E+04 0.  0.
        1    1    3    3  502    0 -0.49042552506E+02  0.18238594355E+04 -0.40705769650E+03  0.18693753985E+04  0.50400001928E-02 0. -1.
       -1    1    3    3    0  502  0.49042552506E+02 -0.18238594355E+04  0.79629844212E+03  0.19907183681E+04  0.50400001928E-02 0.  1.
</event>
<event>
 5   0  0.1070988E-07  0.3806127E+04  0.7818609E-02  0.8044841E-01
       -1   -1    0    0    0  501  0.00000000000E+00  0.00000000000E+00  0.24297858274E+04  0.24297858274E+04  0.50400001928E-02 0. -1.
        1   -1    0    0  501    0  0.00000000000E+00  0.00000000000E+00 -0.14905222091E+04  0.14905222091E+04  0.50400001928E-02 0.  1.
    10030    2    1    2    0    0  0.00000000000E+00  0.00000000000E+00  0.93926361833E+03  0.39203080365E+04  0.38061265029E+04 0.  0.
        2    1    3    3  502    0  0.15156784840E+04  0.81171139739E+03  0.13098822441E+04  0.21614689803E+04  0.25500000920E-02 0. -1.
       -2    1    3    3    0  502 -0.15156784840E+04 -0.81171139739E+03 -0.37061862575E+03  0.17588390561E+04  0.25500000920E-02 0.  1.
</event>
<event>
 5   0  0.3377396E-07  0.3827747E+04  0.7818609E-02  0.8040226E-01
       -2   -1    0    0    0  501  0.00000000000E+00  0.00000000000E+00  0.13356590338E+04  0.13356590338E+04  0.25500000920E-02 0. -1.
        2   -1    0    0  501    0  0.00000000000E+00  0.00000000000E+00 -0.27424007857E+04  0.27424007857E+04  0.25500000920E-02 0.  1.
    10030    2    1    2    0    0  0.00000000000E+00  0.00000000000E+00 -0.14067417519E+04  0.40780598195E+04  0.38277473186E+04 0.  0.
        5    1    3    3  502    0  0.12754463022E+04  0.30472577158E+03 -0.21885430982E+04  0.25513455368E+04  0.46999998093E+01 0.  1.
       -5    1    3    3    0  502 -0.12754463022E+04 -0.30472577158E+03  0.78180134631E+03  0.15267142826E+04  0.46999998093E+01 0. -1.
</event>
<event>
 5   0  0.1070988E-07  0.3777429E+04  0.7818609E-02  0.8051016E-01
       -1   -1    0    0    0  501  0.00000000000E+00  0.00000000000E+00  0.33331324476E+04  0.33331324476E+04  0.50400001928E-02 0.  1.
        1   -1    0    0  501    0  0.00000000000E+00  0.00000000000E+00 -0.10702372815E+04  0.10702372815E+04  0.50400001928E-02 0. -1.
    10030    2    1    2    0    0  0.00000000000E+00  0.00000000000E+00  0.22628951662E+04  0.44033697291E+04  0.37774290778E+04 0.  0.
        3    1    3    3  502    0 -0.35523648987E+03  0.18538645231E+04  0.12073167035E+04  0.22406740652E+04  0.10100000352E+00 0. -1.
       -3    1    3    3    0  502  0.35523648987E+03 -0.18538645231E+04  0.10555784626E+04  0.21626956639E+04  0.10100000352E+00 0.  1.
</event>
<event>
 5   0  0.1070988E-07  0.3934730E+04  0.7818609E-02  0.8017845E-01
        1   -1    0    0  501    0  0.00000000000E+00  0.00000000000E+00  0.20158787460E+04  0.20158787460E+04  0.50400001928E-02 0.  1.
       -1   -1    0    0    0  501  0.00000000000E+00  0.00000000000E+00 -0.19200185214E+04  0.19200185214E+04  0.50400001928E-02 0. -1.
    10030    2    1    2    0    0  0.00000000000E+00  0.00000000000E+00  0.95860224645E+02  0.39358972674E+04  0.39347297388E+04 0.  0.
        3    1    3    3  502    0  0.45639153483E+03  0.18936381607E+04 -0.22849551630E+03  0.19612161859E+04  0.10100000352E+00 0. -1.
       -3    1    3    3    0  502 -0.45639153483E+03 -0.18936381607E+04  0.32435574095E+03  0.19746810815E+04  0.10100000352E+00 0.  1.
</event>
<event>
 5   0  0.1070988E-07  0.3792318E+04  0.7818609E-02  0.8047805E-01
        1   -1    0    0  501    0  0.00000000000E+00  0.00000000000E+00  0.18103078033E+04  0.18103078033E+04  0.50400001928E-02 0. -1.
       -1   -1    0    0    0  501  0.00000000000E+00  0.00000000000E+00 -0.19860816732E+04  0.19860816732E+04  0.50400001928E-02 0.  1.
    10030    2    1    2    0    0  0.00000000000E+00  0.00000000000E+00 -0.17577386988E+03  0.37963894764E+04  0.37923181042E+04 0.  0.
        3    1    3    3  502    0  0.32867308671E+03 -0.41782513685E+03  0.17341811997E+04  0.18138324858E+04  0.10100000352E+00 0. -1.
       -3    1    3    3    0  502 -0.32867308671E+03  0.41782513685E+03 -0.19099550696E+04  0.19825569906E+04  0.10100000352E+00 0.  1.
</event>
<event>
 5   0  0.1084315E-07  0.3776151E+04  0.7818609E-02  0.8051292E-01
       -1   -1    0    0    0  501  0.00000000000E+00  0.00000000000E+00  0.18505937495E+04  0.18505937495E+04  0.50400001928E-02 0.  1.
        1   -1    0    0  501    0  0.00000000000E+00  0.00000000000E+00 -0.19263164845E+04  0.19263164845E+04  0.50400001928E-02 0. -1.
    10030    2    1    2    0    0  0.00000000000E+00  0.00000000000E+00 -0.75722734959E+02  0.37769102340E+04  0.37761510806E+04 0.  0.
        4    1    3    3  502    0 -0.17327707470E+04  0.59952169072E+03  0.41268109025E+03  0.18794222555E+04  0.12699999809E+01 0.  1.
       -4    1    3    3    0  502  0.17327707470E+04 -0.59952169072E+03 -0.48840382521E+03  0.18974879785E+04  0.12699999809E+01 0. -1.
</event>
<event>
 5   0  0.1070988E-07  0.3052610E+04  0.7818609E-02  0.8228865E-01
       -1   -1    0    0    0  501  0.00000000000E+00  0.00000000000E+00  0.14457388358E+04  0.14457388358E+04  0.50400001928E-02 0. -1.
        1   -1    0    0  501    0  0.00000000000E+00  0.00000000000E+00 -0.16113604803E+04  0.16113604803E+04  0.50400001928E-02 0.  1.
    10030    2    1    2    0    0  0.00000000000E+00  0.00000000000E+00 -0.16562164455E+03  0.30570993161E+04  0.30526096540E+04 0.  0.
        5    1    3    3  502    0 -0.60556829402E+03  0.45974559167E+01 -0.14858889585E+04  0.16045629256E+04  0.46999998093E+01 0.  1.
       -5    1    3    3    0  502  0.60556829402E+03 -0.45974559167E+01  0.13202673140E+04  0.14525363905E+04  0.46999998093E+01 0. -1.
</event>
<event>
 5   0  0.3377396E-07  0.3792668E+04  0.7818609E-02  0.8047730E-01
       -2   -1    0    0    0  501  0.00000000000E+00  0.00000000000E+00  0.15292174377E+04  0.15292174377E+04  0.25500000920E-02 0. -1.
        2   -1    0    0  501    0  0.00000000000E+00  0.00000000000E+00 -0.23515841974E+04  0.23515841974E+04  0.25500000920E-02 0.  1.
    10030    2    1    2    0    0  0.00000000000E+00  0.00000000000E+00 -0.82236675975E+03  0.38808016351E+04  0.37926684858E+04 0.  0.
        5    1    3    3  502    0 -0.72735650704E+03 -0.17356471982E+04 -0.17221236921E+03  0.18897613275E+04  0.46999998093E+01 0. -1.
       -5    1    3    3    0  502  0.72735650704E+03  0.17356471982E+04 -0.65015439054E+03  0.19910403076E+04  0.46999998093E+01 0.  1.
</event>
<event>
 5   0  0.3539010E-07  0.3746589E+04  0.7818609E-02  0.8057715E-01
       -2   -1    0    0    0  501  0.00000000000E+00  0.00000000000E+00  0.18525572309E+04  0.18525572309E+04  0.25500000920E-02 0.  1.
        2   -1    0    0  501    0  0.00000000000E+00  0.00000000000E+00 -0.18942634193E+04  0.18942634193E+04  0.25500000920E-02 0. -1.
    10030    2    1    2    0    0  0.00000000000E+00  0.00000000000E+00 -0.41706188398E+02  0.37468206501E+04  0.37465885253E+04 0.  0.
        1    1    3    3  502    0  0.64705079624E+03 -0.45637229173E+03  0.16769802766E+04  0.18545115933E+04  0.50400001928E-02 0.  1.
       -1    1    3    3    0  502 -0.64705079624E+03  0.45637229173E+03 -0.17186864650E+04  0.18923090568E+04  0.50400001928E-02 0. -1.
</event>
<event>
 5   0  0.1085771E-07  0.3784240E+04  0.7818609E-02  0.8049545E-01
        1   -1    0    0  501    0  0.00000000000E+00  0.00000000000E+00  0.20402661136E+04  0.20402661136E+04  0.50400001928E-02 0. -1.
       -1   -1    0    0    0  501  0.00000000000E+00  0.00000000000E+00 -0.17547310292E+04  0.17547310292E+04  0.50400001928E-02 0.  1.
    10030    2    1    2    0    0  0.00000000000E+00  0.00000000000E+00  0.28553508448E+03  0.37949971428E+04  0.37842400861E+04 0.  0.
        1    1    3    3  502    0 -0.10327474261E+04 -0.45628665241E+03 -0.13798875390E+04  0.17829342039E+04  0.50400001928E-02 0.  1.
       -1    1    3    3    0  502  0.10327474261E+04  0.45628665241E+03  0.16654226235E+04  0.20120629389E+04  0.50400001928E-02 0. -1.
</event>
<event>
 5   0  0.3509843E-07  0.3410677E+04  0.7818609E-02  0.8135291E-01
        2   -1    0    0  501    0  0.00000000000E+00  0.00000000000E+00  0.18882369241E+04  0.18882369241E+04  0.25500000920E-02 0. -1.
       -2   -1    0    0    0  501  0.00000000000E+00  0.00000000000E+00 -0.15401561816E+04  0.15401561816E+04  0.25500000920E-02 0.  1.
    10030    2    1    2    0    0  0.00000000000E+00  0.00000000000E+00  0.34808074254E+03  0.34283931057E+04  0.34106772178E+04 0.  0.
        4    1    3    3  502    0 -0.27239760550E+03 -0.98690504789E+03  0.15449411181E+04  0.18533825024E+04  0.12699999809E+01 0. -1.
       -4    1    3    3    0  502  0.27239760550E+03  0.98690504789E+03 -0.11968603756E+04  0.15750106033E+04  0.12699999809E+01 0.  1.
</event>
<event>
 5   0  0.3327241E-07  0.3844850E+04  0.7818609E-02  0.8036598E-01
        2   -1    0    0  501    0  0.00000000000E+00  0.00000000000E+00  0.24955186260E+04  0.24955186260E+04  0.25500000920E-02 0.  1.
       -2   -1    0    0    0  501  0.00000000000E+00  0.00000000000E+00 -0.14809420249E+04  0.14809420249E+04  0.25500000920E-02 0. -1.
    10030    2    1    2    0    0  0.00000000000E+00  0.00000000000E+00  0.10145766011E+04  0.39764606510E+04  0.38448502739E+04 0.  0.
        3    1    3    3  502    0 -0.17263506582E+04  0.45673729712E+03 -0.22899567338E+03  0.18003706791E+04  0.10100000352E+00 0. -1.
       -3    1    3    3    0  502  0.17263506582E+04 -0.45673729712E+03  0.12435722745E+04  0.21760899719E+04  0.10100000352E+00 0.  1.
</event>
<event>
 5   0  0.1070988E-07  0.3809394E+04  0.7818609E-02  0.8044142E-01
        1   -1    0    0  501    0  0.00000000000E+00  0.00000000000E+00  0.21809632898E+04  0.21809632898E+04  0.50400001928E-02 0.  1.
       -1   -1    0    0    0  501  0.00000000000E+00  0.00000000000E+00 -0.16634260378E+04  0.16634260378E+04  0.50400001928E-02 0. -1.
    10030    2    1    2    0    0  0.00000000000E+00  0.00000000000E+00  0.51753725204E+03  0.38443893276E+04  0.38093942425E+04 0.  0.
        3    1    3    3  502    0  0.66535522510E+03 -0.97458831795E+03 -0.12500753026E+04  0.17190719117E+04  0.10100000352E+00 0. -1.
       -3    1    3    3    0  502 -0.66535522510E+03  0.97458831795E+03  0.17676125547E+04  0.21253174160E+04  0.10100000352E+00 0.  1.
</event>
<event>
 5   0  0.1070988E-07  0.3817441E+04  0.7818609E-02  0.8042422E-01
       -1   -1    0    0    0  501  0.00000000000E+00  0.00000000000E+00  0.18873916822E+04  0.18873916822E+04  0.50400001928E-02 0. -1.
        1   -1    0    0  501    0  0.00000000000E+00  0.00000000000E+00 -0.19302907198E+04  0.19302907198E+04  0.50400001928E-02 0.  1.
    10030    2    1    2    0    0  0.00000000000E+00  0.00000000000E+00 -0.42899037577E+02  0.38176824020E+04  0.38174413676E+04 0.  0.
        5    1    3    3  502    0 -0.14606393243E+04 -0.12272534310E+04 -0.81239070901E+02  0.19095130521E+04  0.46999998093E+01 0.  1.
       -5    1    3    3    0  502  0.14606393243E+04  0.12272534310E+04  0.38340033323E+02  0.19081693499E+04  0.46999998093E+01 0. -1.
</event>
<event>
 5   0  0.1084315E-07  0.3789115E+04  0.7818609E-02  0.8048495E-01
       -1   -1    0    0    0  501  0.00000000000E+00  0.00000000000E+00  0.15084659616E+04  0.15084659616E+04  0.50400001928E-02 0. -1.
        1   -1    0    0  501    0  0.00000000000E+00  0.00000000000E+00 -0.23794695898E+04  0.23794695898E+04  0.50400001928E-02 0.  1.
    10030    2    1    2    0    0  0.00000000000E+00  0.00000000000E+00 -0.87100362815E+03  0.38879355514E+04  0.37891154022E+04 0.  0.
        4    1    3    3  502    0 -0.14548733942E+04 -0.12101054901E+04 -0.34182245327E+03  0.19229810433E+04  0.12699999809E+01 0. -1.
       -4    1    3    3    0  502  0.14548733942E+04  0.12101054901E+04 -0.52918117487E+03  0.19649545081E+04  0.12699999809E+01 0.  1.
</event>
<event>
 5   0  0.3377396E-07  0.3792353E+04  0.7818609E-02  0.8047798E-01
       -2   -1    0    0    0  501  0.00000000000E+00  0.00000000000E+00  0.21492335049E+04  0.21492335050E+04  0.25500000920E-02 0.  1.
        2   -1    0    0  501    0  0.00000000000E+00  0.00000000000E+00 -0.16729152756E+04  0.16729152756E+04  0.25500000920E-02 0. -1.
    10030    2    1    2    0    0  0.00000000000E+00  0.00000000000E+00  0.47631822939E+03  0.38221487805E+04  0.37923531276E+04 0.  0.
        5    1    3    3  502    0 -0.73522528513E+02 -0.14798572440E+04  0.14307055904E+04  0.20596901712E+04  0.46999998093E+01 0.  1.
       -5    1    3    3    0  502  0.73522528513E+02  0.14798572440E+04 -0.95438736101E+03  0.17624586093E+04  0.46999998093E+01 0. -1.
</event>
<event>
 5   0  0.3442126E-07  0.3254941E+04  0.7818609E-02  0.8174456E-01
        2   -1    0    0  501    0  0.00000000000E+00  0.00000000000E+00  0.16751472687E+04  0.16751472687E+04  0.25500000920E-02 0.  1.
       -2   -1    0    0    0  501  0.00000000000E+00  0.00000000000E+00 -0.15811510275E+04  0.15811510275E+04  0.25500000920E-02 0. -1.
    10030    2    1    2    0    0  0.00000000000E+00  0.00000000000E+00  0.93996241206E+02  0.32562982961E+04  0.32549413666E+04 0.  0.
        2    1    3    3  502    0  0.11320763690E+04 -0.35932865160E+03  0.11600925518E+04  0.16602797096E+04  0.25500000920E-02 0.  1.
       -2    1    3    3    0  502 -0.11320763690E+04  0.35932865160E+03 -0.10660963106E+04  0.15960185866E+04  0.25500000920E-02 0. -1.
</event>
<event>
 5   0  0.3327241E-07  0.3811499E+04  0.7818609E-02  0.8043692E-01
        2   -1    0    0  501    0  0.00000000000E+00  0.00000000000E+00  0.17148222296E+04  0.17148222296E+04  0.25500000920E-02 0. -1.
       -2   -1    0    0    0  501  0.00000000000E+00  0.00000000000E+00 -0.21179349918E+04  0.21179349918E+04  0.25500000920E-02 0.  1.
    10030    2    1    2    0    0  0.00000000000E+00  0.00000000000E+00 -0.40311276220E+03  0.38327572214E+04  0.38114994450E+04 0.  0.
        3    1    3    3  502    0  0.16847431727E+03 -0.48911973658E+03 -0.20459781694E+04  0.21103668857E+04  0.10100000352E+00 0.  1.
       -3    1    3    3    0  502 -0.16847431727E+03  0.48911973658E+03  0.16428654072E+04  0.17223903357E+04  0.10100000352E+00 0. -1.
</event>
<event>
 5   0  0.3442126E-07  0.3788903E+04  0.7818609E-02  0.8048540E-01
       -2   -1    0    0    0  501  0.00000000000E+00  0.00000000000E+00  0.27664938420E+04  0.27664938420E+04  0.25500000920E-02 0. -1.
        2   -1    0    0  501    0  0.00000000000E+00  0.00000000000E+00 -0.12972905950E+04  0.12972905950E+04  0.25500000920E-02 0.  1.
    10030    2    1    2    0    0  0.00000000000E+00  0.00000000000E+00  0.14692032470E+04  0.40637844371E+04  0.37889029771E+04 0.  0.
        2    1    3    3  502    0 -0.14669252219E+04 -0.11908531168E+04  0.88223086625E+03  0.20852654636E+04  0.25500000920E-02 0. -1.
       -2    1    3    3    0  502  0.14669252219E+04  0.11908531168E+04  0.58697238077E+03  0.19785189734E+04  0.25500000920E-02 0.  1.
</event>
<event>
 5   0  0.3327241E-07  0.3892599E+04  0.7818609E-02  0.8026570E-01
        2   -1    0    0  501    0  0.00000000000E+00  0.00000000000E+00  0.26937837707E+04  0.26937837707E+04  0.25500000920E-02 0. -1.
       -2   -1    0    0    0  501  0.00000000000E+00  0.00000000000E+00 -0.14062309547E+04  0.14062309547E+04  0.25500000920E-02 0.  1.
    10030    2    1    2    0    0  0.00000000000E+00  0.00000000000E+00  0.12875528159E+04  0.41000147254E+04  0.38925991952E+04 0.  0.
        3    1    3    3  502    0  0.13449976560E+04  0.12577182221E+04  0.13076033602E+04  0.22584730192E+04  0.10100000352E+00 0. -1.
       -3    1    3    3    0  502 -0.13449976560E+04 -0.12577182221E+04 -0.20050544262E+02  0.18415417061E+04  0.10100000352E+00 0.  1.
</event>
<event>
 5   0  0.3377396E-07  0.3728335E+04  0.7818609E-02  0.8061711E-01
       -2   -1    0    0    0  501  0.00000000000E+00  0.00000000000E+00  0.11782397919E+04  0.11782397919E+04  0.25500000920E-02 0.  1.
        2   -1    0    0  501    0  0.00000000000E+00  0.00000000000E+00 -0.29494167291E+04  0.29494167291E+04  0.25500000920E-02 0. -1.
    10030    2    1    2    0    0  0.00000000000E+00  0.00000000000E+00 -0.17711769372E+04  0.41276565210E+04  0.37283348311E+04 0.  0.
        5    1    3    3  502    0  0.11194066668E+04  0.14897122079E+04 -0.94400662516E+03  0.20888954848E+04  0.46999998093E+01 0.  1.
       -5    1    3    3    0  502 -0.11194066668E+04 -0.14897122079E+04 -0.82717031202E+03  0.20387610363E+04  0.46999998093E+01 0. -1.
</event>
<event>
 5   0  0.3509843E-07  0.3750515E+04  0.7818609E-02  0.8056858E-01
        2   -1    0    0  501    0  0.00000000000E+00  0.00000000000E+00  0.17779192465E+04  0.17779192465E+04  0.25500000920E-02 0. -1.
       -2   -1    0    0    0  501  0.00000000000E+00  0.00000000000E+00 -0.19779246193E+04  0.19779246193E+04  0.25500000920E-02 0.  1.
    10030    2    1    2    0    0  0.00000000000E+00  0.00000000000E+00 -0.20000537278E+03  0.37558438658E+04  0.37505147640E+04 0.  0.
        4    1    3    3  502    0 -0.12864224656E+04 -0.48496640590E+02 -0.14655214937E+04  0.19506382406E+04  0.12699999809E+01 0.  1.
       -4    1    3    3    0  502  0.12864224656E+04  0.48496640590E+02  0.12655161209E+04  0.18052056252E+04  0.12699999809E+01 0. -1.
</event>
<event>
 5   0  0.3509843E-07  0.3199200E+04  0.7818609E-02  0.8189029E-01
       -2   -1    0    0    0  501  0.00000000000E+00  0.00000000000E+00  0.13829361148E+04  0.13829361148E+04  0.25500000920E-02 0.  1.
        2   -1    0    0  501    0  0.00000000000E+00  0.00000000000E+00 -0.18502082447E+04  0.18502082447E+04  0.25500000920E-02 0. -1.
    10030    2    1    2    0    0  0.00000000000E+00  0.00000000000E+00 -0.46727212984E+03  0.32331443595E+04  0.31991997759E+04 0.  0.
        4    1    3    3  502    0  0.63327709542E+03  0.11449375335E+04  0.69634311348E+03  0.14821663806E+04  0.12699999809E+01 0.  1.
       -4    1    3    3    0  502 -0.63327709542E+03 -0.11449375335E+04 -0.11636152433E+04  0.17509779789E+04  0.12699999809E+01 0. -1.
</event>
<event>
 5   0  0.1085771E-07  0.3762326E+04  0.7818609E-02  0.8054288E-01
        1   -1    0    0  501    0  0.00000000000E+00  0.00000000000E+00  0.13872539411E+04  0.13872539411E+04  0.50400001928E-02 0.  1.
       -1   -1    0    0    0  501  0.00000000000E+00  0.00000000000E+00 -0.25509199612E+04  0.25509199612E+04  0.50400001928E-02 0. -1.
    10030    2    1    2    0    0  0.00000000000E+00  0.00000000000E+00 -0.11636660201E+04  0.39381739023E+04  0.37623257539E+04 0.  0.
        1    1    3    3  502    0  0.90180631486E+03 -0.12364388659E+04  0.56325283983E+03  0.16307327985E+04  0.50400001928E-02 0.  1.
       -1    1    3    3    0  502 -0.90180631486E+03  0.12364388659E+04 -0.17269188599E+04  0.23074411038E+04  0.50400001928E-02 0. -1.
</event>
<event>
 5   0  0.3442126E-07  0.3831292E+04  0.7818609E-02  0.8039473E-01
       -2   -1    0    0    0  501  0.00000000000E+00  0.00000000000E+00  0.17584004466E+04  0.17584004466E+04  0.25500000920E-02 0. -1.
        2   -1    0    0  501    0  0.00000000000E+00  0.00000000000E+00 -0.20869537538E+04  0.20869537538E+04  0.25500000920E-02 0.  1.
    10030    2    1    2    0    0  0.00000000000E+00  0.00000000000E+00 -0.32855330724E+03  0.38453542005E+04  0.38312924257E+04 0.  0.
        2    1    3    3  502    0  0.15089307216E+04 -0.27707116530E+03 -0.13156837530E+04  0.20210551925E+04  0.25500000920E-02 0.  1.
       -2    1    3    3    0  502 -0.15089307216E+04  0.27707116530E+03  0.98713044578E+03  0.18242990079E+04  0.25500000920E-02 0. -1.
</event>
<event>
 5   0  0.1070988E-07  0.3780517E+04  0.7818609E-02  0.8050349E-01
        1   -1    0    0  501    0  0.00000000000E+00  0.00000000000E+00  0.27187411227E+04  0.27187411227E+04  0.50400001928E-02 0. -1.
       -1   -1    0    0    0  501  0.00000000000E+00  0.00000000000E+00 -0.13142392440E+04  0.13142392440E+04  0.50400001928E-02 0.  1.
    10030    2    1    2    0    0  0.00000000000E+00  0.00000000000E+00  0.14045018788E+04  0.40329803667E+04  0.37805165138E+04 0.  0.
        5    1    3    3  502    0 -0.13316196629E+04 -0.13413556704E+04  0.72856014121E+03  0.20256524703E+04  0.46999998093E+01 0.  1.
       -5    1    3    3    0  502  0.13316196629E+04  0.13413556704E+04  0.67594173756E+03  0.20073278964E+04  0.46999998093E+01 0. -1.
</event>
<event>
 5   0  0.1085771E-07  0.3727522E+04  0.7818609E-02  0.8061890E-01
       -1   -1    0    0    0  501  0.00000000000E+00  0.00000000000E+00  0.16028973338E+04  0.16028973338E+04  0.50400001928E-02 0.  1.
        1   -1    0    0  501    0  0.00000000000E+00  0.00000000000E+00 -0.21670788721E+04  0.21670788721E+04  0.50400001928E-02 0. -1.
    10030    2    1    2    0    0  0.00000000000E+00  0.00000000000E+00 -0.56418153828E+03  0.37699762059E+04  0.37275219362E+04 0.  0.
        1    1    3    3  502    0  0.94854547256E+03 -0.10589767783E+04 -0.15009868950E+04  0.20673973951E+04  0.50400001928E-02 0. -1.
       -1    1    3    3    0  502 -0.94854547256E+03  0.10589767783E+04  0.93680535668E+03  0.17025788108E+04  0.50400001928E-02 0.  1.
</event>
<event>
 5   0  0.1070988E-07  0.4305735E+04  0.7818609E-02  0.7945558E-01
        1   -1    0    0  501    0  0.00000000000E+00  0.00000000000E+00  0.15199487349E+04  0.15199487350E+04  0.50400001928E-02 0. -1.
       -1   -1    0    0    0  501  0.00000000000E+00  0.00000000000E+00 -0.30493391458E+04  0.30493391458E+04  0.50400001928E-02 0.  1.
    10030    2    1    2    0    0  0.00000000000E+00  0.00000000000E+00 -0.15293904109E+04  0.45692878808E+04  0.43057353273E+04 0.  0.
        5    1    3    3  502    0  0.10642961263E+03  0.20957226784E+04 -0.12752200837E+04  0.24555221765E+04  0.46999998093E+01 0.  1.
       -5    1    3    3    0  502 -0.10642961263E+03 -0.20957226784E+04 -0.25417032717E+03  0.21137657043E+04  0.46999998093E+01 0. -1.
</event>
<event>
 5   0  0.3539010E-07  0.3789243E+04  0.7818609E-02  0.8048467E-01
        2   -1    0    0  501    0  0.00000000000E+00  0.00000000000E+00  0.20297528544E+04  0.20297528544E+04  0.25500000920E-02 0. -1.
       -2   -1    0    0    0  501  0.00000000000E+00  0.00000000000E+00 -0.17684862410E+04  0.17684862410E+04  0.25500000920E-02 0.  1.
    10030    2    1    2    0    0  0.00000000000E+00  0.00000000000E+00  0.26126661338E+03  0.37982390954E+04  0.37892426661E+04 0.  0.
        1    1    3    3  502    0  0.15637345700E+04  0.56578756022E+03  0.10406481138E+04  0.19617160512E+04  0.50400001928E-02 0. -1.
       -1    1    3    3    0  502 -0.15637345700E+04 -0.56578756022E+03 -0.77938150045E+03  0.18365230442E+04  0.50400001928E-02 0.  1.
</event>
<event>
 5   0  0.3327241E-07  0.3826173E+04  0.7818609E-02  0.8040561E-01
       -2   -1    0    0    0  501  0.00000000000E+00  0.00000000000E+00  0.19087898406E+04  0.19087898406E+04  0.25500000920E-02 0.  1.
        2   -1    0    0  501    0  0.00000000000E+00  0.00000000000E+00 -0.19173930211E+04  0.19173930211E+04  0.25500000920E-02 0. -1.
    10030    2    1    2    0    0  0.00000000000E+00  0.00000000000E+00 -0.86031805488E+01  0.38261828617E+04  0.38261731895E+04 0.  0.
        3    1    3    3  502    0  0.18126255222E+04 -0.48605445392E+03 -0.37584000144E+03  0.19139268358E+04  0.10100000352E+00 0. -1.
       -3    1    3    3    0  502 -0.18126255222E+04  0.48605445392E+03  0.36723682089E+03  0.19122560259E+04  0.10100000352E+00 0.  1.
</event>
<event>
 5   0  0.3377396E-07  0.3804108E+04  0.7818609E-02  0.8045274E-01
       -2   -1    0    0    0  501  0.00000000000E+00  0.00000000000E+00  0.21440257428E+04  0.21440257428E+04  0.25500000920E-02 0.  1.
        2   -1    0    0  501    0  0.00000000000E+00  0.00000000000E+00 -0.16873911036E+04  0.16873911036E+04  0.25500000920E-02 0. -1.
    10030    2    1    2    0    0  0.00000000000E+00  0.00000000000E+00  0.45663463915E+03  0.38314168464E+04  0.38041082868E+04 0.  0.
        5    1    3    3  502    0 -0.10771620167E+04 -0.23077110847E+03  0.17900142536E+04  0.21018340641E+04  0.46999998093E+01 0.  1.
       -5    1    3    3    0  502  0.10771620167E+04  0.23077110847E+03 -0.13333796145E+04  0.17295827824E+04  0.46999998093E+01 0. -1.
</event>
<event>
 5   0  0.1070988E-07  0.3192331E+04  0.7818609E-02  0.8190846E-01
       -1   -1    0    0    0  501  0.00000000000E+00  0.00000000000E+00  0.10836099459E+04  0.10836099459E+04  0.50400001928E-02 0. -1.
        1   -1    0    0  501    0  0.00000000000E+00  0.00000000000E+00 -0.23511630373E+04  0.23511630373E+04  0.50400001928E-02 0.  1.
    10030    2    1    2    0    0  0.00000000000E+00  0.00000000000E+00 -0.12675530914E+04  0.34347729832E+04  0.31923305917E+04 0.  0.
        5    1    3    3  502    0  0.13535783646E+04  0.44518679673E+03  0.14012350803E+03  0.14317899150E+04  0.46999998093E+01 0. -1.
       -5    1    3    3    0  502 -0.13535783646E+04 -0.44518679673E+03 -0.14076765995E+04  0.20029830683E+04  0.46999998093E+01 0.  1.
</event>
<event>
 5   0  0.3327241E-07  0.3981473E+04  0.7818609E-02  0.8008294E-01
        2   -1    0    0  501    0  0.00000000000E+00  0.00000000000E+00  0.14284817931E+04  0.14284817931E+04  0.25500000920E-02 0.  1.
       -2   -1    0    0    0  501  0.00000000000E+00  0.00000000000E+00 -0.27742962992E+04  0.27742962992E+04  0.25500000920E-02 0. -1.
    10030    2    1    2    0    0  0.00000000000E+00  0.00000000000E+00 -0.13458145061E+04  0.42027780923E+04  0.39814729696E+04 0.  0.
        3    1    3    3  502    0  0.24060981020E+03 -0.26293550735E+03  0.13945292978E+04  0.14393540685E+04  0.10100000352E+00 0.  1.
       -3    1    3    3    0  502 -0.24060981020E+03  0.26293550735E+03 -0.27403438039E+04  0.27634240238E+04  0.10100000352E+00 0. -1.
</event>
<event>
 5   0  0.3509843E-07  0.3787848E+04  0.7818609E-02  0.8048768E-01
       -2   -1    0    0    0  501  0.00000000000E+00  0.00000000000E+00  0.18624043563E+04  0.18624043563E+04  0.25500000920E-02 0. -1.
        2   -1    0    0  501    0  0.00000000000E+00  0.00000000000E+00 -0.19259770253E+04  0.19259770253E+04  0.25500000920E-02 0.  1.
    10030    2    1    2    0    0  0.00000000000E+00  0.00000000000E+00 -0.63572669004E+02  0.37883813815E+04  0.37878479388E+04 0.  0.
        4    1    3    3  502    0  0.99050390280E+03 -0.86127914500E+03 -0.13972795444E+04  0.19171049750E+04  0.12699999809E+01 0.  1.
       -4    1    3    3    0  502 -0.99050390280E+03  0.86127914500E+03  0.13337068754E+04  0.18712764065E+04  0.12699999809E+01 0. -1.
</event>
<event>
 5   0  0.3377396E-07  0.3772532E+04  0.7818609E-02  0.8052075E-01
       -2   -1    0    0    0  501  0.00000000000E+00  0.00000000000E+00  0.13171251722E+04  0.13171251722E+04  0.25500000920E-02 0.  1.
        2   -1    0    0  501    0  0.00000000000E+00  0.00000000000E+00 -0.27013373111E+04  0.27013373111E+04  0.25500000920E-02 0. -1.
    10030    2    1    2    0    0  0.00000000000E+00  0.00000000000E+00 -0.13842121389E+04  0.40184624833E+04  0.37725319726E+04 0.  0.
        5    1    3    3  502    0  0.31203964241E+03 -0.18244956716E+04 -0.30536136596E+03  0.18760119531E+04  0.46999998093E+01 0.  1.
       -5    1    3    3    0  502 -0.31203964241E+03  0.18244956716E+04 -0.10788507729E+04  0.21424505302E+04  0.46999998093E+01 0. -1.
</event>
<event>
 5   0  0.1070988E-07  0.3847021E+04  0.7818609E-02  0.8036139E-01
        1   -1    0    0  501    0  0.00000000000E+00  0.00000000000E+00  0.22984394288E+04  0.22984394288E+04  0.50400001928E-02 0.  1.
       -1   -1    0    0    0  501  0.00000000000E+00  0.00000000000E+00 -0.16097413617E+04  0.16097413617E+04  0.50400001928E-02 0. -1.
    10030    2    1    2    0    0  0.00000000000E+00  0.00000000000E+00  0.68869806709E+03  0.39081807905E+04  0.38470211936E+04 0.  0.
        5    1    3    3  502    0 -0.89487011706E+03 -0.84645562236E+03 -0.11564974591E+04  0.16896118223E+04  0.46999998093E+01 0. -1.
       -5    1    3    3    0  502  0.89487011706E+03  0.84645562236E+03  0.18451955262E+04  0.22185689683E+04  0.46999998093E+01 0.  1.
</event>
<event>
 5   0  0.3327241E-07  0.3900806E+04  0.7818609E-02  0.8024862E-01
       -2   -1    0    0    0  501  0.00000000000E+00  0.00000000000E+00  0.19208227039E+04  0.19208227039E+04  0.25500000920E-02 0.  1.
        2   -1    0    0  501    0  0.00000000000E+00  0.00000000000E+00 -0.19804387165E+04  0.19804387165E+04  0.25500000920E-02 0. -1.
    10030    2    1    2    0    0  0.00000000000E+00  0.00000000000E+00 -0.59616012600E+02  0.39012614204E+04  0.39008058912E+04 0.  0.
        3    1    3    3  502    0  0.16566981416E+04  0.94652325808E+03  0.37461111046E+03  0.19444506949E+04  0.10100000352E+00 0.  1.
       -3    1    3    3    0  502 -0.16566981416E+04 -0.94652325808E+03 -0.43422712306E+03  0.19568107254E+04  0.10100000352E+00 0. -1.
</event>
<event>
 5   0  0.3539010E-07  0.3867221E+04  0.7818609E-02  0.8031881E-01
       -2   -1    0    0    0  501  0.00000000000E+00  0.00000000000E+00  0.13141662288E+04  0.13141662288E+04  0.25500000920E-02 0. -1.
        2   -1    0    0  501    0  0.00000000000E+00  0.00000000000E+00 -0.28450357736E+04  0.28450357736E+04  0.25500000920E-02 0.  1.
    10030    2    1    2    0    0  0.00000000000E+00  0.00000000000E+00 -0.15308695448E+04  0.41592020024E+04  0.38672211901E+04 0.  0.
        1    1    3    3  502    0  0.10602002610E+04  0.10315455512E+04 -0.21047424905E+04  0.25725574374E+04  0.50400001928E-02 0.  1.
       -1    1    3    3    0  502 -0.10602002610E+04 -0.10315455512E+04  0.57387294574E+03  0.15866445649E+04  0.50400001928E-02 0. -1.
</event>
<event>
 5   0  0.3509843E-07  0.3813371E+04  0.7818609E-02  0.8043292E-01
       -2   -1    0    0    0  501  0.00000000000E+00  0.00000000000E+00  0.16910381538E+04  0.16910381538E+04  0.25500000920E-02 0. -1.
        2   -1    0    0  501    0  0.00000000000E+00  0.00000000000E+00 -0.21498331024E+04  0.21498331024E+04  0.25500000920E-02 0.  1.
    10030    2    1    2    0    0  0.00000000000E+00  0.00000000000E+00 -0.45879494865E+03  0.38408712562E+04  0.38133711073E+04 0.  0.
        4    1    3    3  502    0 -0.95127656677E+03 -0.66090220243E+03  0.12960307061E+04  0.17382220893E+04  0.12699999809E+01 0. -1.
       -4    1    3    3    0  502  0.95127656677E+03  0.66090220243E+03 -0.17548256547E+04  0.21026491669E+04  0.12699999809E+01 0.  1.
</event>
<event>
 5   0  0.3539010E-07  0.3551877E+04  0.7818609E-02  0.8101605E-01
       -2   -1    0    0    0  501  0.00000000000E+00  0.00000000000E+00  0.26778220375E+04  0.26778220375E+04  0.25500000920E-02 0. -1.
        2   -1    0    0  501    0  0.00000000000E+00  0.00000000000E+00 -0.11778068969E+04  0.11778068969E+04  0.25500000920E-02 0.  1.
    10030    2    1    2    0    0  0.00000000000E+00  0.00000000000E+00  0.15000151406E+04  0.38556289344E+04  0.35518768359E+04 0.  0.
        1    1    3    3  502    0 -0.71978284095E+03  0.96474721264E+03 -0.66747076473E+03  0.13763508798E+04  0.50400001928E-02 0.  1.
       -1    1    3    3    0  502  0.71978284095E+03 -0.96474721264E+03  0.21674859053E+04  0.24792780546E+04  0.50400001928E-02 0. -1.
</event>
<event>
 5   0  0.3327241E-07  0.3774417E+04  0.7818609E-02  0.8051667E-01
        2   -1    0    0  501    0  0.00000000000E+00  0.00000000000E+00  0.22346519339E+04  0.22346519339E+04  0.25500000920E-02 0. -1.
       -2   -1    0    0    0  501  0.00000000000E+00  0.00000000000E+00 -0.15937851480E+04  0.15937851480E+04  0.25500000920E-02 0.  1.
    10030    2    1    2    0    0  0.00000000000E+00  0.00000000000E+00  0.64086678589E+03  0.38284370819E+04  0.37744165447E+04 0.  0.
        3    1    3    3  502    0 -0.47812829626E+03 -0.15093310057E+04 -0.72133411448E+03  0.17398303559E+04  0.10100000352E+00 0.  1.
       -3    1    3    3    0  502  0.47812829626E+03  0.15093310057E+04  0.13622009004E+04  0.20886067259E+04  0.10100000352E+00 0. -1.
</event>
<event>
 5   0  0.3442126E-07  0.3809428E+04  0.7818609E-02  0.8044135E-01
        2   -1    0    0  501    0  0.00000000000E+00  0.00000000000E+00  0.23908307551E+04  0.23908307551E+04  0.25500000920E-02 0. -1.
       -2   -1    0    0    0  501  0.00000000000E+00  0.00000000000E+00 -0.15174369176E+04  0.15174369176E+04  0.25500000920E-02 0.  1.
    10030    2    1    2    0    0  0.00000000000E+00  0.00000000000E+00  0.87339383748E+03  0.39082676727E+04  0.38094277006E+04 0.  0.
        2    1    3    3  502    0 -0.95211963173E+03  0.38807788286E+03 -0.12082753979E+04  0.15865262914E+04  0.25500000920E-02 0.  1.
       -2    1    3    3    0  502  0.95211963173E+03 -0.38807788286E+03  0.20816692353E+04  0.23217413813E+04  0.25500000920E-02 0. -1.
</event>
<event>
 5   0  0.3539010E-07  0.3784093E+04  0.7818609E-02  0.8049577E-01
        2   -1    0    0  501    0  0.00000000000E+00  0.00000000000E+00  0.26033350287E+04  0.26033350287E+04  0.25500000920E-02 0.  1.
       -2   -1    0    0    0  501  0.00000000000E+00  0.00000000000E+00 -0.13750974809E+04  0.13750974809E+04  0.25500000920E-02 0. -1.
    10030    2    1    2    0    0  0.00000000000E+00  0.00000000000E+00  0.12282375477E+04  0.39784325096E+04  0.37840927261E+04 0.  0.
        1    1    3    3  502    0 -0.13016703262E+04 -0.26140478916E+03  0.20313704173E+04  0.24267558332E+04  0.50400001928E-02 0.  1.
       -1    1    3    3    0  502  0.13016703262E+04  0.26140478916E+03 -0.80313286956E+03  0.15516766764E+04  0.50400001928E-02 0. -1.
</event>
<event>
 5   0  0.3442126E-07  0.3448262E+04  0.7818609E-02  0.8126162E-01
        2   -1    0    0  501    0  0.00000000000E+00  0.00000000000E+00  0.18964398934E+04  0.18964398934E+04  0.25500000920E-02 0.  1.
       -2   -1    0    0    0  501  0.00000000000E+00  0.00000000000E+00 -0.15674782924E+04  0.15674782924E+04  0.25500000920E-02 0. -1.
    10030    2    1    2    0    0  0.00000000000E+00  0.00000000000E+00  0.32896160099E+03  0.34639181858E+04  0.34482623832E+04 0.  0.
        2    1    3    3  502    0 -0.54540559881E+03 -0.15958297373E+04  0.52456124187E+03  0.17661552350E+04  0.25500000920E-02 0. -1.
       -2    1    3    3    0  502  0.54540559881E+03  0.15958297373E+04 -0.19559964088E+03  0.16977629508E+04  0.25500000920E-02 0.  1.
</event>
<event>
 5   0  0.1085771E-07  0.3769424E+04  0.7818609E-02  0.8052748E-01
        1   -1    0    0  501    0  0.00000000000E+00  0.00000000000E+00  0.18484072445E+04  0.18484072445E+04  0.50400001928E-02 0. -1.
       -1   -1    0    0    0  501  0.00000000000E+00  0.00000000000E+00 -0.19217298985E+04  0.19217298985E+04  0.50400001928E-02 0.  1.
    10030    2    1    2    0    0  0.00000000000E+00  0.00000000000E+00 -0.73322654010E+02  0.37701371430E+04  0.37694240761E+04 0.  0.
        1    1    3    3  502    0 -0.83308344176E+03  0.11048316460E+04 -0.13165355624E+04  0.19099599142E+04  0.50400001928E-02 0.  1.
       -1    1    3    3    0  502  0.83308344176E+03 -0.11048316460E+04  0.12432129084E+04  0.18601772288E+04  0.50400001928E-02 0. -1.
</event>
<event>
 5   0  0.1070988E-07  0.3430403E+04  0.7818609E-02  0.8130484E-01
       -1   -1    0    0    0  501  0.00000000000E+00  0.00000000000E+00  0.20067952341E+04  0.20067952341E+04  0.50400001928E-02 0.  1.
        1   -1    0    0  501    0  0.00000000000E+00  0.00000000000E+00 -0.14659772721E+04  0.14659772721E+04  0.50400001928E-02 0. -1.
    10030    2    1    2    0    0  0.00000000000E+00  0.00000000000E+00  0.54081796206E+03  0.34727725062E+04  0.34304030101E+04 0.  0.
        2    1    3    3  502    0 -0.28620387690E+03  0.25100133963E+03  0.19634893270E+04  0.20000511666E+04  0.25500000920E-02 0.  1.
       -2    1    3    3    0  502  0.28620387690E+03 -0.25100133963E+03 -0.14226713649E+04  0.14727213397E+04  0.25500000920E-02 0. -1.
</event>
<event>
 5   0  0.1084315E-07  0.3776984E+04  0.7818609E-02  0.8051112E-01
       -1   -1    0    0    0  501  0.00000000000E+00  0.00000000000E+00  0.21678792843E+04  0.21678792843E+04  0.50400001928E-02 0.  1.
        1   -1    0    0  501    0  0.00000000000E+00  0.00000000000E+00 -0.16451113069E+04  0.16451113070E+04  0.50400001928E-02 0. -1.
    10030    2    1    2    0    0  0.00000000000E+00  0.00000000000E+00  0.52276797736E+03  0.38129905913E+04  0.37769843647E+04 0.  0.
        4    1    3    3  502    0 -0.70061363639E+03 -0.13678377515E+04  0.13693719477E+04  0.20584024694E+04  0.12699999809E+01 0. -1.
       -4    1    3    3    0  502  0.70061363639E+03  0.13678377515E+04 -0.84660397032E+03  0.17545881219E+04  0.12699999809E+01 0.  1.
</event>
<event>
 5   0  0.1070988E-07  0.3807240E+04  0.7818609E-02  0.8044603E-01
        3   -1    0    0  501    0  0.00000000000E+00  0.00000000000E+00  0.18810838875E+04  0.18810838902E+04  0.10100000352E+00 0. -1.
       -3   -1    0    0    0  501  0.00000000000E+00  0.00000000000E+00 -0.19264263715E+04  0.19264263742E+04  0.10100000352E+00 0.  1.
    10030    2    1    2    0    0  0.00000000000E+00  0.00000000000E+00 -0.45342484018E+02  0.38075102644E+04  0.38072402699E+04 0.  0.
        5    1    3    3  502    0  0.11851548268E+04  0.13218383491E+04  0.66432648460E+03  0.18955738848E+04  0.46999998093E+01 0. -1.
       -5    1    3    3    0  502 -0.11851548268E+04 -0.13218383491E+04 -0.70966896861E+03  0.19119363796E+04  0.46999998093E+01 0.  1.
</event>
<event>
 5   0  0.3327241E-07  0.3799706E+04  0.7818609E-02  0.8046218E-01
       -2   -1    0    0    0  501  0.00000000000E+00  0.00000000000E+00  0.15686192427E+04  0.15686192427E+04  0.25500000920E-02 0.  1.
        2   -1    0    0  501    0  0.00000000000E+00  0.00000000000E+00 -0.23010303447E+04  0.23010303447E+04  0.25500000920E-02 0. -1.
    10030    2    1    2    0    0  0.00000000000E+00  0.00000000000E+00 -0.73241110207E+03  0.38696495874E+04  0.37997055026E+04 0.  0.
        3    1    3    3  502    0 -0.68268768760E+03 -0.75306287117E+03 -0.20008291045E+04  0.22442110601E+04  0.10100000352E+00 0. -1.
       -3    1    3    3    0  502  0.68268768760E+03  0.75306287117E+03  0.12684180025E+04  0.16254385273E+04  0.10100000352E+00 0.  1.
</event>
<event>
 5   0  0.3327241E-07  0.3699611E+04  0.7818609E-02  0.8068048E-01
        2   -1    0    0  501    0  0.00000000000E+00  0.00000000000E+00  0.13078020675E+04  0.13078020675E+04  0.25500000920E-02 0. -1.
       -2   -1    0    0    0  501  0.00000000000E+00  0.00000000000E+00 -0.26164354944E+04  0.26164354944E+04  0.25500000920E-02 0.  1.
    10030    2    1    2    0    0  0.00000000000E+00  0.00000000000E+00 -0.13086334269E+04  0.39242375620E+04  0.36996106548E+04 0.  0.
        3    1    3    3  502    0  0.11772478135E+04 -0.11792138107E+04  0.19777735602E+03  0.16779670790E+04  0.10100000352E+00 0.  1.
       -3    1    3    3    0  502 -0.11772478135E+04  0.11792138107E+04 -0.15064107829E+04  0.22462704829E+04  0.10100000352E+00 0. -1.
</event>
<event>
 5   0  0.1070988E-07  0.3776780E+04  0.7818609E-02  0.8051156E-01
       -1   -1    0    0    0  501  0.00000000000E+00  0.00000000000E+00  0.21306347415E+04  0.21306347415E+04  0.50400001928E-02 0.  1.
        1   -1    0    0  501    0  0.00000000000E+00  0.00000000000E+00 -0.16736874672E+04  0.16736874672E+04  0.50400001928E-02 0. -1.
    10030    2    1    2    0    0  0.00000000000E+00  0.00000000000E+00  0.45694727431E+03  0.38043222087E+04  0.37767799322E+04 0.  0.
        3    1    3    3  502    0 -0.13651680968E+03  0.15474948988E+04 -0.85296612661E+03  0.17722664936E+04  0.10100000352E+00 0.  1.
       -3    1    3    3    0  502  0.13651680968E+03 -0.15474948988E+04  0.13099134009E+04  0.20320557151E+04  0.10100000352E+00 0. -1.
</event>
<event>
 5   0  0.1084315E-07  0.3550438E+04  0.7818609E-02  0.8101940E-01
       -1   -1    0    0    0  501  0.00000000000E+00  0.00000000000E+00  0.17042830087E+04  0.17042830087E+04  0.50400001928E-02 0.  1.
        1   -1    0    0  501    0  0.00000000000E+00  0.00000000000E+00 -0.18491070778E+04  0.18491070778E+04  0.50400001928E-02 0. -1.
    10030    2    1    2    0    0  0.00000000000E+00  0.00000000000E+00 -0.14482406915E+03  0.35533900865E+04  0.35504375921E+04 0.  0.
        4    1    3    3  502    0 -0.41614368624E+03 -0.15716128166E+04  0.64110280031E+03  0.17476146104E+04  0.12699999809E+01 0.  1.
       -4    1    3    3    0  502  0.41614368624E+03  0.15716128166E+04 -0.78592686946E+03  0.18057754761E+04  0.12699999809E+01 0. -1.
</event>
<event>
 5   0  0.1070988E-07  0.3790922E+04  0.7818609E-02  0.8048106E-01
       -3   -1    0    0    0  501  0.00000000000E+00  0.00000000000E+00  0.25365816547E+04  0.25365816567E+04  0.10100000352E+00 0.  1.
        3   -1    0    0  501    0  0.00000000000E+00  0.00000000000E+00 -0.14163838230E+04  0.14163838266E+04  0.10100000352E+00 0. -1.
    10030    2    1    2    0    0  0.00000000000E+00  0.00000000000E+00  0.11201978317E+04  0.39529654833E+04  0.37909224379E+04 0.  0.
        1    1    3    3  502    0  0.14308250912E+04  0.91151679909E+03 -0.32140611812E+03  0.17266804016E+04  0.50400001928E-02 0. -1.
       -1    1    3    3    0  502 -0.14308250912E+04 -0.91151679909E+03  0.14416039499E+04  0.22262850817E+04  0.50400001928E-02 0.  1.
</event>
<event>
 5   0  0.3509843E-07  0.3688637E+04  0.7818609E-02  0.8070485E-01
        2   -1    0    0  501    0  0.00000000000E+00  0.00000000000E+00  0.18465616807E+04  0.18465616807E+04  0.25500000920E-02 0.  1.
       -2   -1    0    0    0  501  0.00000000000E+00  0.00000000000E+00 -0.18420781733E+04  0.18420781733E+04  0.25500000920E-02 0. -1.
    10030    2    1    2    0    0  0.00000000000E+00  0.00000000000E+00  0.44835073708E+01  0.36886398540E+04  0.36886371291E+04 0.  0.
        4    1    3    3  502    0 -0.40135963418E+03  0.46997832651E+03  0.17399254512E+04  0.18464320653E+04  0.12699999809E+01 0.  1.
       -4    1    3    3    0  502  0.40135963418E+03 -0.46997832651E+03 -0.17354419438E+04  0.18422077886E+04  0.12699999809E+01 0. -1.
</event>
<event>
 5   0  0.3509843E-07  0.3801114E+04  0.7818609E-02  0.8045916E-01
       -2   -1    0    0    0  501  0.00000000000E+00  0.00000000000E+00  0.12461282934E+04  0.12461282934E+04  0.25500000920E-02 0. -1.
        2   -1    0    0  501    0  0.00000000000E+00  0.00000000000E+00 -0.28986719590E+04  0.28986719590E+04  0.25500000920E-02 0.  1.
    10030    2    1    2    0    0  0.00000000000E+00  0.00000000000E+00 -0.16525436656E+04  0.41448002524E+04  0.38011141216E+04 0.  0.
        4    1    3    3  502    0 -0.27786155777E+02 -0.18530748720E+04 -0.12856170897E+04  0.22555423884E+04  0.12699999809E+01 0.  1.
       -4    1    3    3    0  502  0.27786155777E+02  0.18530748720E+04 -0.36692657590E+03  0.18892578640E+04  0.12699999809E+01 0. -1.
</event>
<event>
 5   0  0.3327241E-07  0.3818853E+04  0.7818609E-02  0.8042121E-01
        2   -1    0    0  501    0  0.00000000000E+00  0.00000000000E+00  0.11392908963E+04  0.11392908963E+04  0.25500000920E-02 0. -1.
       -2   -1    0    0    0  501  0.00000000000E+00  0.00000000000E+00 -0.32001565728E+04  0.32001565728E+04  0.25500000920E-02 0.  1.
    10030    2    1    2    0    0  0.00000000000E+00  0.00000000000E+00 -0.20608656765E+04  0.43394474691E+04  0.38188528383E+04 0.  0.
        3    1    3    3  502    0  0.17604688982E+04 -0.71898195745E+03 -0.12263403427E+04  0.22627630108E+04  0.10100000352E+00 0.  1.
       -3    1    3    3    0  502 -0.17604688982E+04  0.71898195745E+03 -0.83452533376E+03  0.20766844583E+04  0.10100000352E+00 0. -1.
</event>
<event>
 5   0  0.1085771E-07  0.3803320E+04  0.7818609E-02  0.8045443E-01
        1   -1    0    0  501    0  0.00000000000E+00  0.00000000000E+00  0.12338873634E+04  0.12338873634E+04  0.50400001928E-02 0.  1.
       -1   -1    0    0    0  501  0.00000000000E+00  0.00000000000E+00 -0.29308275359E+04  0.29308275359E+04  0.50400001928E-02 0. -1.
    10030    2    1    2    0    0  0.00000000000E+00  0.00000000000E+00 -0.16969401725E+04  0.41647148993E+04  0.38033201605E+04 0.  0.
        1    1    3    3  502    0 -0.50032593913E+03  0.14182603513E+04 -0.21228987108E+04  0.26016316815E+04  0.50400001928E-02 0. -1.
       -1    1    3    3    0  502  0.50032593913E+03 -0.14182603513E+04  0.42595853836E+03  0.15630832178E+04  0.50400001928E-02 0.  1.
</event>
<event>
 5   0  0.3509843E-07  0.3859092E+04  0.7818609E-02  0.8033591E-01
       -2   -1    0    0    0  501  0.00000000000E+00  0.00000000000E+00  0.12662744328E+04  0.12662744328E+04  0.25500000920E-02 0. -1.
        2   -1    0    0  501    0  0.00000000000E+00  0.00000000000E+00 -0.29402379950E+04  0.29402379950E+04  0.25500000920E-02 0.  1.
    10030    2    1    2    0    0  0.00000000000E+00  0.00000000000E+00 -0.16739635623E+04  0.42065124278E+04  0.38590922245E+04 0.  0.
        4    1    3    3  502    0 -0.14452345737E+04 -0.36731785169E+03 -0.21717729519E+04  0.26344306301E+04  0.12699999809E+01 0.  1.
       -4    1    3    3    0  502  0.14452345737E+04  0.36731785169E+03  0.49780938964E+03  0.15720817977E+04  0.12699999809E+01 0. -1.
</event>
<event>
 5   0  0.1084315E-07  0.3568558E+04  0.7818609E-02  0.8097732E-01
       -1   -1    0    0    0  501  0.00000000000E+00  0.00000000000E+00  0.13659451214E+04  0.13659451214E+04  0.50400001928E-02 0. -1.
        1   -1    0    0  501    0  0.00000000000E+00  0.00000000000E+00 -0.23307315864E+04  0.23307315864E+04  0.50400001928E-02 0.  1.
    10030    2    1    2    0    0  0.00000000000E+00  0.00000000000E+00 -0.96478646499E+03  0.36966767078E+04  0.35685579383E+04 0.  0.
        4    1    3    3  502    0 -0.73125157621E+03  0.13143647560E+04 -0.14767331356E+04  0.21078486535E+04  0.12699999809E+01 0.  1.
       -4    1    3    3    0  502  0.73125157621E+03 -0.13143647560E+04  0.51194667062E+03  0.15888280542E+04  0.12699999809E+01 0. -1.
</event>
<event>
 5   0  0.3539010E-07  0.3786048E+04  0.7818609E-02  0.8049156E-01
        2   -1    0    0  501    0  0.00000000000E+00  0.00000000000E+00  0.25151621817E+04  0.25151621817E+04  0.25500000920E-02 0. -1.
       -2   -1    0    0    0  501  0.00000000000E+00  0.00000000000E+00 -0.14247747723E+04  0.14247747723E+04  0.25500000920E-02 0.  1.
    10030    2    1    2    0    0  0.00000000000E+00  0.00000000000E+00  0.10903874094E+04  0.39399369540E+04  0.37860478733E+04 0.  0.
        1    1    3    3  502    0  0.14541558613E+04 -0.88638640188E+02 -0.71270350851E+03  0.16218422761E+04  0.50400001928E-02 0.  1.
       -1    1    3    3    0  502 -0.14541558613E+04  0.88638640188E+02  0.18030909179E+04  0.23180946779E+04  0.50400001928E-02 0. -1.
</event>
<event>
 5   0  0.3377396E-07  0.3798501E+04  0.7818609E-02  0.8046477E-01
       -2   -1    0    0    0  501  0.00000000000E+00  0.00000000000E+00  0.13173162242E+04  0.13173162242E+04  0.25500000920E-02 0. -1.
        2   -1    0    0  501    0  0.00000000000E+00  0.00000000000E+00 -0.27382581637E+04  0.27382581637E+04  0.25500000920E-02 0.  1.
    10030    2    1    2    0    0  0.00000000000E+00  0.00000000000E+00 -0.14209419395E+04  0.40555743879E+04  0.37985007069E+04 0.  0.
        5    1    3    3  502    0  0.10537405730E+04  0.12393884500E+03 -0.23923258900E+04  0.26170546968E+04  0.46999998093E+01 0.  1.
       -5    1    3    3    0  502 -0.10537405730E+04 -0.12393884500E+03  0.97138395047E+03  0.14385196911E+04  0.46999998093E+01 0. -1.
</event>
<event>
 5   0  0.1085771E-07  0.3765058E+04  0.7818609E-02  0.8053695E-01
        1   -1    0    0  501    0  0.00000000000E+00  0.00000000000E+00  0.12682812848E+04  0.12682812848E+04  0.50400001928E-02 0.  1.
       -1   -1    0    0    0  501  0.00000000000E+00  0.00000000000E+00 -0.27942657280E+04  0.27942657280E+04  0.50400001928E-02 0. -1.
    10030    2    1    2    0    0  0.00000000000E+00  0.00000000000E+00 -0.15259844433E+04  0.40625470128E+04  0.37650577300E+04 0.  0.
        1    1    3    3  502    0  0.43139833415E+03  0.14494421549E+04 -0.19727040683E+04  0.24856686071E+04  0.50400001928E-02 0.  1.
       -1    1    3    3    0  502 -0.43139833415E+03 -0.14494421549E+04  0.44671962506E+03  0.15768784057E+04  0.50400001928E-02 0. -1.
</event>
<event>
 5   0  0.1085771E-07  0.3967233E+04  0.7818609E-02  0.8011189E-01
       -1   -1    0    0    0  501  0.00000000000E+00  0.00000000000E+00  0.17838992044E+04  0.17838992044E+04  0.50400001928E-02 0.  1.
        1   -1    0    0  501    0  0.00000000000E+00  0.00000000000E+00 -0.22056935873E+04  0.22056935873E+04  0.50400001928E-02 0. -1.
    10030    2    1    2    0    0  0.00000000000E+00  0.00000000000E+00 -0.42179438291E+03  0.39895927916E+04  0.39672333107E+04 0.  0.
        1    1    3    3  502    0 -0.37649249395E+03 -0.16164368779E+04  0.88155882630E+03  0.18792979387E+04  0.50400001928E-02 0.  1.
       -1    1    3    3    0  502  0.37649249395E+03  0.16164368779E+04 -0.13033532092E+04  0.21102948529E+04  0.50400001928E-02 0. -1.
</event>
<event>
 5   0  0.1084315E-07  0.3795848E+04  0.7818609E-02  0.8047046E-01
        1   -1    0    0  501    0  0.00000000000E+00  0.00000000000E+00  0.18301261422E+04  0.18301261422E+04  0.50400001928E-02 0. -1.
       -1   -1    0    0    0  501  0.00000000000E+00  0.00000000000E+00 -0.19682337290E+04  0.19682337290E+04  0.50400001928E-02 0.  1.
    10030    2    1    2    0    0  0.00000000000E+00  0.00000000000E+00 -0.13810758677E+03  0.37983598712E+04  0.37958482591E+04 0.  0.
        4    1    3    3  502    0 -0.99839932016E+03 -0.12828585460E+04 -0.10492871451E+04  0.19348210195E+04  0.12699999809E+01 0.  1.
       -4    1    3    3    0  502  0.99839932016E+03  0.12828585460E+04  0.91117955833E+03  0.18635388518E+04  0.12699999809E+01 0. -1.
</event>
<event>
 5   0  0.3509843E-07  0.3916623E+04  0.7818609E-02  0.8021581E-01
       -2   -1    0    0    0  501  0.00000000000E+00  0.00000000000E+00  0.32804678413E+04  0.32804678413E+04  0.25500000920E-02 0.  1.
        2   -1    0    0  501    0  0.00000000000E+00  0.00000000000E+00 -0.11690357288E+04  0.11690357288E+04  0.25500000920E-02 0. -1.
    10030    2    1    2    0    0  0.00000000000E+00  0.00000000000E+00  0.21114321125E+04  0.44495035700E+04  0.39166230932E+04 0.  0.
        4    1    3    3  502    0 -0.18200390059E+04  0.59968851062E+03  0.15141174501E+04  0.24422779445E+04  0.12699999809E+01 0.  1.
       -4    1    3    3    0  502  0.18200390059E+04 -0.59968851062E+03  0.59731466242E+03  0.20072256255E+04  0.12699999809E+01 0. -1.
</event>
<event>
 5   0  0.1085771E-07  0.3821475E+04  0.7818609E-02  0.8041562E-01
        1   -1    0    0  501    0  0.00000000000E+00  0.00000000000E+00  0.18282307000E+04  0.18282307000E+04  0.50400001928E-02 0.  1.
       -1   -1    0    0    0  501  0.00000000000E+00  0.00000000000E+00 -0.19969674018E+04  0.19969674018E+04  0.50400001928E-02 0. -1.
    10030    2    1    2    0    0  0.00000000000E+00  0.00000000000E+00 -0.16873670176E+03  0.38251981018E+04  0.38214746426E+04 0.  0.
        1    1    3    3  502    0 -0.10241254130E+04  0.37855075916E+03  0.14852103649E+04  0.18433619739E+04  0.50400001928E-02 0.  1.
       -1    1    3    3    0  502  0.10241254130E+04 -0.37855075916E+03 -0.16539470666E+04  0.19818361279E+04  0.50400001928E-02 0. -1.
</event>
<event>
 5   0  0.3539010E-07  0.3812780E+04  0.7818609E-02  0.8043418E-01
        2   -1    0    0  501    0  0.00000000000E+00  0.00000000000E+00  0.24412358558E+04  0.24412358558E+04  0.25500000920E-02 0.  1.
       -2   -1    0    0    0  501  0.00000000000E+00  0.00000000000E+00 -0.14887222322E+04  0.14887222322E+04  0.25500000920E-02 0. -1.
    10030    2    1    2    0    0  0.00000000000E+00  0.00000000000E+00  0.95251362356E+03  0.39299580880E+04  0.38127796121E+04 0.  0.
        1    1    3    3  502    0  0.58124884281E+03 -0.17187282134E+04  0.10794296274E+04  0.21111715253E+04  0.50400001928E-02 0.  1.
       -1    1    3    3    0  502 -0.58124884281E+03  0.17187282134E+04 -0.12691600384E+03  0.18187865627E+04  0.50400001928E-02 0. -1.
</event>
<event>
 5   0  0.1070988E-07  0.3818564E+04  0.7818609E-02  0.8042183E-01
       -3   -1    0    0    0  501  0.00000000000E+00  0.00000000000E+00  0.20666378068E+04  0.20666378093E+04  0.10100000352E+00 0. -1.
        3   -1    0    0  501    0  0.00000000000E+00  0.00000000000E+00 -0.17639074959E+04  0.17639074988E+04  0.10100000352E+00 0.  1.
    10030    2    1    2    0    0  0.00000000000E+00  0.00000000000E+00  0.30273031089E+03  0.38305453080E+04  0.38185640908E+04 0.  0.
        5    1    3    3  502    0 -0.19042531901E+04  0.11626473008E+03  0.22668829840E+03  0.19212254875E+04  0.46999998093E+01 0.  1.
       -5    1    3    3    0  502  0.19042531901E+04 -0.11626473008E+03  0.76042012492E+02  0.19093198205E+04  0.46999998093E+01 0. -1.
</event>
<event>
 5   0  0.3327241E-07  0.3842763E+04  0.7818609E-02  0.8037040E-01
       -2   -1    0    0    0  501  0.00000000000E+00  0.00000000000E+00  0.16025807170E+04  0.16025807170E+04  0.25500000920E-02 0. -1.
        2   -1    0    0  501    0  0.00000000000E+00  0.00000000000E+00 -0.23036010509E+04  0.23036010509E+04  0.25500000920E-02 0.  1.
    10030    2    1    2    0    0  0.00000000000E+00  0.00000000000E+00 -0.70102033392E+03  0.39061817679E+04  0.38427628727E+04 0.  0.
        3    1    3    3  502    0 -0.16270361551E+04  0.85193780729E+03 -0.92432789015E+03  0.20560707031E+04  0.10100000352E+00 0.  1.
       -3    1    3    3    0  502  0.16270361551E+04 -0.85193780729E+03  0.22330755623E+03  0.18501110648E+04  0.10100000352E+00 0. -1.
</event>
<event>
 5   0  0.1085771E-07  0.3810497E+04  0.7818609E-02  0.8043906E-01
        1   -1    0    0  501    0  0.00000000000E+00  0.00000000000E+00  0.25163467230E+04  0.25163467230E+04  0.50400001928E-02 0.  1.
       -1   -1    0    0    0  501  0.00000000000E+00  0.00000000000E+00 -0.14425560875E+04  0.14425560875E+04  0.50400001928E-02 0. -1.
    10030    2    1    2    0    0  0.00000000000E+00  0.00000000000E+00  0.10737906355E+04  0.39589028106E+04  0.38104967044E+04 0.  0.
        1    1    3    3  502    0  0.11191742881E+04  0.15210920284E+04  0.79911202940E+03  0.20505735982E+04  0.50400001928E-02 0.  1.
       -1    1    3    3    0  502 -0.11191742881E+04 -0.15210920284E+04  0.27467860611E+03  0.19083292124E+04  0.50400001928E-02 0. -1.
</event>
<event>
 5   0  0.3377396E-07  0.3709357E+04  0.7818609E-02  0.8065891E-01
       -2   -1    0    0    0  501  0.00000000000E+00  0.00000000000E+00  0.15693565573E+04  0.15693565573E+04  0.25500000920E-02 0. -1.
        2   -1    0    0  501    0  0.00000000000E+00  0.00000000000E+00 -0.21918744665E+04  0.21918744665E+04  0.25500000920E-02 0.  1.
    10030    2    1    2    0    0  0.00000000000E+00  0.00000000000E+00 -0.62251790918E+03  0.37612310238E+04  0.37093571232E+04 0.  0.
        5    1    3    3  502    0  0.94399082144E+03  0.32657841865E+03 -0.18958149876E+04  0.21428739327E+04  0.46999998093E+01 0.  1.
       -5    1    3    3    0  502 -0.94399082144E+03 -0.32657841865E+03  0.12732970784E+04  0.16183570911E+04  0.46999998093E+01 0. -1.
</event>
<event>
 5   0  0.1085771E-07  0.3675719E+04  0.7818609E-02  0.8073364E-01
        1   -1    0    0  501    0  0.00000000000E+00  0.00000000000E+00  0.22237583748E+04  0.22237583748E+04  0.50400001928E-02 0.  1.
       -1   -1    0    0    0  501  0.00000000000E+00  0.00000000000E+00 -0.15189277582E+04  0.15189277582E+04  0.50400001928E-02 0. -1.
    10030    2    1    2    0    0  0.00000000000E+00  0.00000000000E+00  0.70483061660E+03  0.37426861329E+04  0.36757194250E+04 0.  0.
        1    1    3    3  502    0 -0.17036464295E+04 -0.68041401931E+03  0.46558850752E+03  0.18926560842E+04  0.50400001928E-02 0. -1.
       -1    1    3    3    0  502  0.17036464295E+04  0.68041401931E+03  0.23924210908E+03  0.18500300488E+04  0.50400001928E-02 0.  1.
</event>
<event>
 5   0  0.1070988E-07  0.3807522E+04  0.7818609E-02  0.8044543E-01
        3   -1    0    0  501    0  0.00000000000E+00  0.00000000000E+00  0.24224016957E+04  0.24224016978E+04  0.10100000352E+00 0.  1.
       -3   -1    0    0    0  501  0.00000000000E+00  0.00000000000E+00 -0.14961619872E+04  0.14961619906E+04  0.10100000352E+00 0. -1.
    10030    2    1    2    0    0  0.00000000000E+00  0.00000000000E+00  0.92623970848E+03  0.39185636885E+04  0.38075216852E+04 0.  0.
        4    1    3    3  502    0 -0.67904689257E+03  0.60676127830E+03 -0.12574746153E+04  0.15525810614E+04  0.12699999809E+01 0. -1.
       -4    1    3    3    0  502  0.67904689257E+03 -0.60676127830E+03  0.21837143237E+04  0.23659826271E+04  0.12699999809E+01 0.  1.
</event>
<event>
 5   0  0.1070988E-07  0.3841102E+04  0.7818609E-02  0.8037392E-01
       -1   -1    0    0    0  501  0.00000000000E+00  0.00000000000E+00  0.24947583093E+04  0.24947583093E+04  0.50400001928E-02 0.  1.
        1   -1    0    0  501    0  0.00000000000E+00  0.00000000000E+00 -0.14785064306E+04  0.14785064306E+04  0.50400001928E-02 0. -1.
    10030    2    1    2    0    0  0.00000000000E+00  0.00000000000E+00  0.10162518787E+04  0.39732647399E+04  0.38411020309E+04 0.  0.
        3    1    3    3  502    0 -0.32077474894E+03 -0.18922210250E+04  0.58213738549E+03  0.20055624630E+04  0.10100000352E+00 0. -1.
       -3    1    3    3    0  502  0.32077474894E+03  0.18922210250E+04  0.43411449321E+03  0.19677022769E+04  0.10100000352E+00 0.  1.
</event>
<event>
 5   0  0.3509843E-07  0.3826589E+04  0.7818609E-02  0.8040473E-01
       -2   -1    0    0    0  501  0.00000000000E+00  0.00000000000E+00  0.15304522233E+04  0.15304522233E+04  0.25500000920E-02 0. -1.
        2   -1    0    0  501    0  0.00000000000E+00  0.00000000000E+00 -0.23919046208E+04  0.23919046208E+04  0.25500000920E-02 0.  1.
    10030    2    1    2    0    0  0.00000000000E+00  0.00000000000E+00 -0.86145239757E+03  0.39223568441E+04  0.38265889483E+04 0.  0.
        4    1    3    3  502    0  0.14261219753E+04 -0.98643758132E+03  0.39809613963E+03  0.17791473068E+04  0.12699999809E+01 0.  1.
       -4    1    3    3    0  502 -0.14261219753E+04  0.98643758132E+03 -0.12595485372E+04  0.21432095373E+04  0.12699999809E+01 0. -1.
</event>
<event>
 5   0  0.1070988E-07  0.3756269E+04  0.7818609E-02  0.8055605E-01
        1   -1    0    0  501    0  0.00000000000E+00  0.00000000000E+00  0.27859912558E+04  0.27859912558E+04  0.50400001928E-02 0.  1.
       -1   -1    0    0    0  501  0.00000000000E+00  0.00000000000E+00 -0.12661163426E+04  0.12661163426E+04  0.50400001928E-02 0. -1.
    10030    2    1    2    0    0  0.00000000000E+00  0.00000000000E+00  0.15198749132E+04  0.40521075984E+04  0.37562689250E+04 0.  0.
        2    1    3    3  502    0  0.38185266137E+03  0.26298060272E+03  0.27232837751E+04  0.27624707731E+04  0.25500000920E-02 0.  1.
       -2    1    3    3    0  502 -0.38185266137E+03 -0.26298060272E+03 -0.12034088619E+04  0.12896368253E+04  0.25500000920E-02 0. -1.
</event>
<event>
 5   0  0.3539010E-07  0.3796937E+04  0.7818609E-02  0.8046812E-01
        2   -1    0    0  501    0  0.00000000000E+00  0.00000000000E+00  0.24655552696E+04  0.24655552696E+04  0.25500000920E-02 0.  1.
       -2   -1    0    0    0  501  0.00000000000E+00  0.00000000000E+00 -0.14618139417E+04  0.14618139417E+04  0.25500000920E-02 0. -1.
    10030    2    1    2    0    0  0.00000000000E+00  0.00000000000E+00  0.10037413279E+04  0.39273692113E+04  0.37969372221E+04 0.  0.
        1    1    3    3  502    0 -0.17258145059E+03 -0.18838373035E+04  0.66722378907E+03  0.20059448965E+04  0.50400001928E-02 0.  1.
       -1    1    3    3    0  502  0.17258145059E+03  0.18838373035E+04  0.33651753882E+03  0.19214243147E+04  0.50400001928E-02 0. -1.
</event>
<event>
 5   0  0.3539010E-07  0.3862975E+04  0.7818609E-02  0.8032774E-01
       -2   -1    0    0    0  501  0.00000000000E+00  0.00000000000E+00  0.13419879880E+04  0.13419879880E+04  0.25500000920E-02 0. -1.
        2   -1    0    0  501    0  0.00000000000E+00  0.00000000000E+00 -0.27799380650E+04  0.27799380650E+04  0.25500000920E-02 0.  1.
    10030    2    1    2    0    0  0.00000000000E+00  0.00000000000E+00 -0.14379500770E+04  0.41219260530E+04  0.38629747556E+04 0.  0.
        1    1    3    3  502    0 -0.14900306151E+04 -0.87680657514E+03  0.19995295679E+03  0.17403913897E+04  0.50400001928E-02 0. -1.
       -1    1    3    3    0  502  0.14900306151E+04  0.87680657514E+03 -0.16379030338E+04  0.23815346633E+04  0.50400001928E-02 0.  1.
</event>
<event>
 5   0  0.3509843E-07  0.3709778E+04  0.7818609E-02  0.8065798E-01
        2   -1    0    0  501    0  0.00000000000E+00  0.00000000000E+00  0.20450062758E+04  0.20450062758E+04  0.25500000920E-02 0.  1.
       -2   -1    0    0    0  501  0.00000000000E+00  0.00000000000E+00 -0.16824465511E+04  0.16824465511E+04  0.25500000920E-02 0. -1.
    10030    2    1    2    0    0  0.00000000000E+00  0.00000000000E+00  0.36255972479E+03  0.37274528269E+04  0.37097782983E+04 0.  0.
        4    1    3    3  502    0  0.13249273340E+04 -0.37419602771E+03  0.14302455616E+04  0.19852100864E+04  0.12699999809E+01 0.  1.
       -4    1    3    3    0  502 -0.13249273340E+04  0.37419602771E+03 -0.10676858369E+04  0.17422427405E+04  0.12699999809E+01 0. -1.
</event>
<event>
 5   0  0.3442126E-07  0.3614940E+04  0.7818609E-02  0.8087078E-01
       -2   -1    0    0    0  501  0.00000000000E+00  0.00000000000E+00  0.12717168252E+04  0.12717168252E+04  0.25500000920E-02 0. -1.
        2   -1    0    0  501    0  0.00000000000E+00  0.00000000000E+00 -0.25689263943E+04  0.25689263943E+04  0.25500000920E-02 0.  1.
    10030    2    1    2    0    0  0.00000000000E+00  0.00000000000E+00 -0.12972095691E+04  0.38406432195E+04  0.36149395117E+04 0.  0.
        2    1    3    3  502    0  0.82297767929E+03 -0.48249757298E+03 -0.22796611546E+04  0.24712246252E+04  0.25500000920E-02 0.  1.
       -2    1    3    3    0  502 -0.82297767929E+03  0.48249757298E+03  0.98245158550E+03  0.13694185943E+04  0.25500000920E-02 0. -1.
</event>
<event>
 5   0  0.3327241E-07  0.3770980E+04  0.7818609E-02  0.8052411E-01
       -2   -1    0    0    0  501  0.00000000000E+00  0.00000000000E+00  0.15738042074E+04  0.15738042074E+04  0.25500000920E-02 0. -1.
        2   -1    0    0  501    0  0.00000000000E+00  0.00000000000E+00 -0.22589039117E+04  0.22589039117E+04  0.25500000920E-02 0.  1.
    10030    2    1    2    0    0  0.00000000000E+00  0.00000000000E+00 -0.68509970429E+03  0.38327081191E+04  0.37709799683E+04 0.  0.
        3    1    3    3  502    0 -0.11895613874E+04 -0.80635772417E+03 -0.15831047888E+04  0.21381042669E+04  0.10100000352E+00 0.  1.
       -3    1    3    3    0  502  0.11895613874E+04  0.80635772417E+03  0.89800508449E+03  0.16946038522E+04  0.10100000352E+00 0. -1.
</event>
<event>
 5   0  0.1070988E-07  0.3783776E+04  0.7818609E-02  0.8049645E-01
       -1   -1    0    0    0  501  0.00000000000E+00  0.00000000000E+00  0.19731278369E+04  0.19731278369E+04  0.50400001928E-02 0.  1.
        1   -1    0    0  501    0  0.00000000000E+00  0.00000000000E+00 -0.18139930976E+04  0.18139930976E+04  0.50400001928E-02 0. -1.
    10030    2    1    2    0    0  0.00000000000E+00  0.00000000000E+00  0.15913473925E+03  0.37871209345E+04  0.37837760382E+04 0.  0.
        3    1    3    3  502    0  0.11622078597E+04  0.17741236604E+03 -0.14039838207E+04  0.18312216785E+04  0.10100000352E+00 0. -1.
       -3    1    3    3    0  502 -0.11622078597E+04 -0.17741236604E+03  0.15631185600E+04  0.19558992560E+04  0.10100000352E+00 0.  1.
</event>
<event>
 5   0  0.1085771E-07  0.3796081E+04  0.7818609E-02  0.8046996E-01
        1   -1    0    0  501    0  0.00000000000E+00  0.00000000000E+00  0.25567691084E+04  0.25567691084E+04  0.50400001928E-02 0.  1.
       -1   -1    0    0    0  501  0.00000000000E+00  0.00000000000E+00 -0.14090273394E+04  0.14090273394E+04  0.50400001928E-02 0. -1.
    10030    2    1    2    0    0  0.00000000000E+00  0.00000000000E+00  0.11477417689E+04  0.39657964478E+04  0.37960809129E+04 0.  0.
        1    1    3    3  502    0  0.59144542893E+03 -0.98809166948E+03 -0.10023664368E+04  0.15267191347E+04  0.50400001928E-02 0. -1.
       -1    1    3    3    0  502 -0.59144542893E+03  0.98809166948E+03  0.21501082057E+04  0.24390773131E+04  0.50400001928E-02 0.  1.
</event>
<event>
 5   0  0.3327241E-07  0.3793228E+04  0.7818609E-02  0.8047610E-01
        2   -1    0    0  501    0  0.00000000000E+00  0.00000000000E+00  0.32249451699E+04  0.32249451699E+04  0.25500000920E-02 0.  1.
       -2   -1    0    0    0  501  0.00000000000E+00  0.00000000000E+00 -0.11154125139E+04  0.11154125139E+04  0.25500000920E-02 0. -1.
    10030    2    1    2    0    0  0.00000000000E+00  0.00000000000E+00  0.21095326560E+04  0.43403576838E+04  0.37932277544E+04 0.  0.
        3    1    3    3  502    0  0.17114436709E+03 -0.15564911027E+03  0.32087410945E+04  0.32170695456E+04  0.10100000352E+00 0.  1.
       -3    1    3    3    0  502 -0.17114436709E+03  0.15564911027E+03 -0.10992084385E+04  0.11232881382E+04  0.10100000352E+00 0. -1.
</event>
<event>
 5   0  0.3442126E-07  0.3743108E+04  0.7818609E-02  0.8058475E-01
        2   -1    0    0  501    0  0.00000000000E+00  0.00000000000E+00  0.19047616922E+04  0.19047616922E+04  0.25500000920E-02 0. -1.
       -2   -1    0    0    0  501  0.00000000000E+00  0.00000000000E+00 -0.18389249196E+04  0.18389249197E+04  0.25500000920E-02 0.  1.
    10030    2    1    2    0    0  0.00000000000E+00  0.00000000000E+00  0.65836772519E+02  0.37436866118E+04  0.37431076617E+04 0.  0.
        2    1    3    3  502    0 -0.13534476954E+04 -0.12192872369E+04 -0.39637021892E+03  0.18642938021E+04  0.25500000920E-02 0.  1.
       -2    1    3    3    0  502  0.13534476954E+04  0.12192872369E+04  0.46220699144E+03  0.18793928097E+04  0.25500000920E-02 0. -1.
</event>
<event>
 5   0  0.1085771E-07  0.3780519E+04  0.7818609E-02  0.8050348E-01
       -1   -1    0    0    0  501  0.00000000000E+00  0.00000000000E+00  0.18287653266E+04  0.18287653266E+04  0.50400001928E-02 0.  1.
        1   -1    0    0  501    0  0.00000000000E+00  0.00000000000E+00 -0.19538211146E+04  0.19538211146E+04  0.50400001928E-02 0. -1.
    10030    2    1    2    0    0  0.00000000000E+00  0.00000000000E+00 -0.12505578800E+03  0.37825864412E+04  0.37805186463E+04 0.  0.
        1    1    3    3  502    0  0.57394415525E+03 -0.10137835099E+04  0.14268800776E+04  0.18420520227E+04  0.50400001928E-02 0.  1.
       -1    1    3    3    0  502 -0.57394415525E+03  0.10137835099E+04 -0.15519358656E+04  0.19405344185E+04  0.50400001928E-02 0. -1.
</event>
<event>
 5   0  0.3539010E-07  0.3809107E+04  0.7818609E-02  0.8044203E-01
        2   -1    0    0  501    0  0.00000000000E+00  0.00000000000E+00  0.20275753935E+04  0.20275753935E+04  0.25500000920E-02 0. -1.
       -2   -1    0    0    0  501  0.00000000000E+00  0.00000000000E+00 -0.17889958230E+04  0.17889958230E+04  0.25500000920E-02 0.  1.
    10030    2    1    2    0    0  0.00000000000E+00  0.00000000000E+00  0.23857957058E+03  0.38165712165E+04  0.38091069346E+04 0.  0.
        1    1    3    3  502    0  0.90740400271E+03 -0.91219978510E+03  0.15262613463E+04  0.19962375032E+04  0.50400001928E-02 0. -1.
       -1    1    3    3    0  502 -0.90740400271E+03  0.91219978510E+03 -0.12876817757E+04  0.18203337133E+04  0.50400001928E-02 0.  1.
</event>
<event>
 5   0  0.1070988E-07  0.3613055E+04  0.7818609E-02  0.8087508E-01
       -1   -1    0    0    0  501  0.00000000000E+00  0.00000000000E+00  0.22438746830E+04  0.22438746830E+04  0.50400001928E-02 0. -1.
        1   -1    0    0  501    0  0.00000000000E+00  0.00000000000E+00 -0.14544220430E+04  0.14544220430E+04  0.50400001928E-02 0.  1.
    10030    2    1    2    0    0  0.00000000000E+00  0.00000000000E+00  0.78945264001E+03  0.36982967260E+04  0.36130545529E+04 0.  0.
        2    1    3    3  502    0 -0.36727827258E+03 -0.10306331033E+04  0.18661540501E+04  0.21632449843E+04  0.25500000920E-02 0. -1.
       -2    1    3    3    0  502  0.36727827258E+03  0.10306331033E+04 -0.10767014101E+04  0.15350517417E+04  0.25500000920E-02 0.  1.
</event>
<event>
 5   0  0.3377396E-07  0.3592410E+04  0.7818609E-02  0.8092232E-01
       -2   -1    0    0    0  501  0.00000000000E+00  0.00000000000E+00  0.29719551098E+04  0.29719551098E+04  0.25500000920E-02 0. -1.
        2   -1    0    0  501    0  0.00000000000E+00  0.00000000000E+00 -0.10855995840E+04  0.10855995840E+04  0.25500000920E-02 0.  1.
    10030    2    1    2    0    0  0.00000000000E+00  0.00000000000E+00  0.18863555258E+04  0.40575546939E+04  0.35924104615E+04 0.  0.
        5    1    3    3  502    0 -0.15860069031E+04 -0.72382831466E+03  0.14315857540E+04  0.22558380232E+04  0.46999998093E+01 0. -1.
       -5    1    3    3    0  502  0.15860069031E+04  0.72382831466E+03  0.45476977183E+03  0.18017166707E+04  0.46999998093E+01 0.  1.
</event>
<event>
 5   0  0.1070988E-07  0.3799169E+04  0.7818609E-02  0.8046333E-01
        1   -1    0    0  501    0  0.00000000000E+00  0.00000000000E+00  0.24267831804E+04  0.24267831804E+04  0.50400001928E-02 0.  1.
       -1   -1    0    0    0  501  0.00000000000E+00  0.00000000000E+00 -0.14869155900E+04  0.14869155900E+04  0.50400001928E-02 0. -1.
    10030    2    1    2    0    0  0.00000000000E+00  0.00000000000E+00  0.93986759046E+03  0.39136987704E+04  0.37991692484E+04 0.  0.
        2    1    3    3  502    0 -0.14977987052E+04  0.78232138557E+03  0.13638452900E+04  0.21715205932E+04  0.25500000920E-02 0.  1.
       -2    1    3    3    0  502  0.14977987052E+04 -0.78232138557E+03 -0.42397769949E+03  0.17421781773E+04  0.25500000920E-02 0. -1.
</event>
<event>
 5   0  0.1070988E-07  0.3804305E+04  0.7818609E-02  0.8045232E-01
        1   -1    0    0  501    0  0.00000000000E+00  0.00000000000E+00  0.17738454038E+04  0.17738454038E+04  0.50400001928E-02 0.  1.
       -1   -1    0    0    0  501  0.00000000000E+00  0.00000000000E+00 -0.20397403099E+04  0.20397403099E+04  0.50400001928E-02 0. -1.
    10030    2    1    2    0    0  0.00000000000E+00  0.00000000000E+00 -0.26589490609E+03  0.38135857137E+04  0.38043049161E+04 0.  0.
        3    1    3    3  502    0 -0.23151309989E+02  0.11078697535E+04  0.14168748597E+04  0.17987344863E+04  0.10100000352E+00 0.  1.
       -3    1    3    3    0  502  0.23151309989E+02 -0.11078697535E+04 -0.16827697658E+04  0.20148512275E+04  0.10100000352E+00 0. -1.
</event>
<event>
 5   0  0.1070988E-07  0.3786149E+04  0.7818609E-02  0.8049134E-01
       -3   -1    0    0    0  501  0.00000000000E+00  0.00000000000E+00  0.16868865958E+04  0.16868865988E+04  0.10100000352E+00 0. -1.
        3   -1    0    0  501    0  0.00000000000E+00  0.00000000000E+00 -0.21244652307E+04  0.21244652331E+04  0.10100000352E+00 0.  1.
    10030    2    1    2    0    0  0.00000000000E+00  0.00000000000E+00 -0.43757863492E+03  0.38113518320E+04  0.37861494589E+04 0.  0.
        1    1    3    3  502    0  0.47994321013E+03 -0.53487640435E+03  0.15442376972E+04  0.17032640190E+04  0.50400001928E-02 0.  1.
       -1    1    3    3    0  502 -0.47994321013E+03  0.53487640435E+03 -0.19818163321E+04  0.21080878130E+04  0.50400001928E-02 0. -1.
</event>
<event>
 5   0  0.3539010E-07  0.3806930E+04  0.7818609E-02  0.8044669E-01
       -2   -1    0    0    0  501  0.00000000000E+00  0.00000000000E+00  0.12412211624E+04  0.12412211624E+04  0.25500000920E-02 0.  1.
        2   -1    0    0  501    0  0.00000000000E+00  0.00000000000E+00 -0.29190443396E+04  0.29190443396E+04  0.25500000920E-02 0. -1.
    10030    2    1    2    0    0  0.00000000000E+00  0.00000000000E+00 -0.16778231773E+04  0.41602655020E+04  0.38069303163E+04 0.  0.
        1    1    3    3  502    0  0.97544638863E+03  0.17182779982E+03  0.93742641646E+03  0.13637407144E+04  0.50400001928E-02 0.  1.
       -1    1    3    3    0  502 -0.97544638863E+03 -0.17182779982E+03 -0.26152495937E+04  0.27965247876E+04  0.50400001928E-02 0. -1.
</event>
<event>
 5   0  0.1070988E-07  0.3777213E+04  0.7818609E-02  0.8051063E-01
       -1   -1    0    0    0  501  0.00000000000E+00  0.00000000000E+00  0.16391312761E+04  0.16391312761E+04  0.50400001928E-02 0. -1.
        1   -1    0    0  501    0  0.00000000000E+00  0.00000000000E+00 -0.21760513340E+04  0.21760513340E+04  0.50400001928E-02 0.  1.
    10030    2    1    2    0    0  0.00000000000E+00  0.00000000000E+00 -0.53692005790E+03  0.38151826102E+04  0.37772126231E+04 0.  0.
        3    1    3    3  502    0  0.79284963384E+03 -0.46095017469E+03 -0.19360403570E+04  0.21422739973E+04  0.10100000352E+00 0.  1.
       -3    1    3    3    0  502 -0.79284963384E+03  0.46095017469E+03  0.13991202991E+04  0.16729086129E+04  0.10100000352E+00 0. -1.
</event>
<event>
 5   0  0.3442126E-07  0.3773457E+04  0.7818609E-02  0.8051875E-01
        2   -1    0    0  501    0  0.00000000000E+00  0.00000000000E+00  0.22658881823E+04  0.22658881823E+04  0.25500000920E-02 0.  1.
       -2   -1    0    0    0  501  0.00000000000E+00  0.00000000000E+00 -0.15710153733E+04  0.15710153733E+04  0.25500000920E-02 0. -1.
    10030    2    1    2    0    0  0.00000000000E+00  0.00000000000E+00  0.69487280909E+03  0.38369035556E+04  0.37734573900E+04 0.  0.
        2    1    3    3  502    0  0.14267630344E+04  0.93031276542E+02  0.15991658279E+04  0.21451431001E+04  0.25500000920E-02 0.  1.
       -2    1    3    3    0  502 -0.14267630344E+04 -0.93031276542E+02 -0.90429301882E+03  0.16917604555E+04  0.25500000920E-02 0. -1.
</event>
<event>
 5   0  0.1084315E-07  0.3797487E+04  0.7818609E-02  0.8046694E-01
       -1   -1    0    0    0  501  0.00000000000E+00  0.00000000000E+00  0.19700932204E+04  0.19700932204E+04  0.50400001928E-02 0. -1.
        1   -1    0    0  501    0  0.00000000000E+00  0.00000000000E+00 -0.18299779644E+04  0.18299779644E+04  0.50400001928E-02 0.  1.
    10030    2    1    2    0    0  0.00000000000E+00  0.00000000000E+00  0.14011525597E+03  0.38000711848E+04  0.37974871593E+04 0.  0.
        4    1    3    3  502    0  0.24626717755E+03  0.32938511065E+03  0.19249865478E+04  0.19684300587E+04  0.12699999809E+01 0. -1.
       -4    1    3    3    0  502 -0.24626717755E+03 -0.32938511065E+03 -0.17848712918E+04  0.18316411262E+04  0.12699999809E+01 0.  1.
</event>
<event>
 5   0  0.1070988E-07  0.3825876E+04  0.7818609E-02  0.8040625E-01
        1   -1    0    0  501    0  0.00000000000E+00  0.00000000000E+00  0.22845703448E+04  0.22845703448E+04  0.50400001928E-02 0. -1.
       -1   -1    0    0    0  501  0.00000000000E+00  0.00000000000E+00 -0.16017591064E+04  0.16017591064E+04  0.50400001928E-02 0.  1.
    10030    2    1    2    0    0  0.00000000000E+00  0.00000000000E+00  0.68281123838E+03  0.38863294511E+04  0.38258757711E+04 0.  0.
        5    1    3    3  502    0  0.88766756088E+03 -0.16872299372E+04  0.18204875721E+03  0.19151664157E+04  0.46999998093E+01 0.  1.
       -5    1    3    3    0  502 -0.88766756088E+03  0.16872299372E+04  0.50076248117E+03  0.19711630355E+04  0.46999998093E+01 0. -1.
</event>
<event>
 5   0  0.3377396E-07  0.3661042E+04  0.7818609E-02  0.8076651E-01
       -2   -1    0    0    0  501  0.00000000000E+00  0.00000000000E+00  0.13031899422E+04  0.13031899422E+04  0.25500000920E-02 0.  1.
        2   -1    0    0  501    0  0.00000000000E+00  0.00000000000E+00 -0.25712352788E+04  0.25712352788E+04  0.25500000920E-02 0. -1.
    10030    2    1    2    0    0  0.00000000000E+00  0.00000000000E+00 -0.12680453366E+04  0.38744252211E+04  0.36610424496E+04 0.  0.
        5    1    3    3  502    0 -0.43820882748E+03  0.17450815476E+04 -0.27756875153E+03  0.18205502152E+04  0.46999998093E+01 0.  1.
       -5    1    3    3    0  502  0.43820882748E+03 -0.17450815476E+04 -0.99047658510E+03  0.20538750059E+04  0.46999998093E+01 0. -1.
</event>
<event>
 5   0  0.1070988E-07  0.3774168E+04  0.7818609E-02  0.8051721E-01
       -3   -1    0    0    0  501  0.00000000000E+00  0.00000000000E+00  0.20717503407E+04  0.20717503432E+04  0.10100000352E+00 0.  1.
        3   -1    0    0  501    0  0.00000000000E+00  0.00000000000E+00 -0.17188780728E+04  0.17188780758E+04  0.10100000352E+00 0. -1.
    10030    2    1    2    0    0  0.00000000000E+00  0.00000000000E+00  0.35287226789E+03  0.37906284190E+04  0.37741681168E+04 0.  0.
        4    1    3    3  502    0  0.13525105028E+04 -0.48794287590E+03 -0.10510691410E+04  0.17810448794E+04  0.12699999809E+01 0. -1.
       -4    1    3    3    0  502 -0.13525105028E+04  0.48794287590E+03  0.14039414089E+04  0.20095835396E+04  0.12699999809E+01 0.  1.
</event>
<event>
 5   0  0.1070988E-07  0.3749705E+04  0.7818609E-02  0.8057035E-01
        1   -1    0    0  501    0  0.00000000000E+00  0.00000000000E+00  0.29581727436E+04  0.29581727436E+04  0.50400001928E-02 0. -1.
       -1   -1    0    0    0  501  0.00000000000E+00  0.00000000000E+00 -0.11882577195E+04  0.11882577195E+04  0.50400001928E-02 0.  1.
    10030    2    1    2    0    0  0.00000000000E+00  0.00000000000E+00  0.17699150241E+04  0.41464304631E+04  0.37497048408E+04 0.  0.
        2    1    3    3  502    0  0.10922759428E+04 -0.10548580711E+04 -0.33106219940E+03  0.15541539387E+04  0.25500000920E-02 0.  1.
       -2    1    3    3    0  502 -0.10922759428E+04  0.10548580711E+04  0.21009772235E+04  0.25922765244E+04  0.25500000920E-02 0. -1.
</event>
<event>
 5   0  0.3539010E-07  0.3827676E+04  0.7818609E-02  0.8040242E-01
       -2   -1    0    0    0  501  0.00000000000E+00  0.00000000000E+00  0.23772502560E+04  0.23772502560E+04  0.25500000920E-02 0. -1.
        2   -1    0    0  501    0  0.00000000000E+00  0.00000000000E+00 -0.15407616370E+04  0.15407616370E+04  0.25500000920E-02 0.  1.
    10030    2    1    2    0    0  0.00000000000E+00  0.00000000000E+00  0.83648861896E+03  0.39180118930E+04  0.38276760553E+04 0.  0.
        1    1    3    3  502    0  0.64687908275E+03 -0.14432655072E+04 -0.68482882321E+03  0.17235017810E+04  0.50400001928E-02 0.  1.
       -1    1    3    3    0  502 -0.64687908275E+03  0.14432655072E+04  0.15213174422E+04  0.21945101120E+04  0.50400001928E-02 0. -1.
</event>
<event>
 5   0  0.1085771E-07  0.3823768E+04  0.7818609E-02  0.8041073E-01
        1   -1    0    0  501    0  0.00000000000E+00  0.00000000000E+00  0.22388832999E+04  0.22388832999E+04  0.50400001928E-02 0. -1.
       -1   -1    0    0    0  501  0.00000000000E+00  0.00000000000E+00 -0.16326447686E+04  0.16326447686E+04  0.50400001928E-02 0.  1.
    10030    2    1    2    0    0  0.00000000000E+00  0.00000000000E+00  0.60623853129E+03  0.38715280686E+04  0.38237683545E+04 0.  0.
        1    1    3    3  502    0 -0.17229381525E+04 -0.55240540281E+03 -0.32236167860E+03  0.18378206274E+04  0.50400001928E-02 0.  1.
       -1    1    3    3    0  502  0.17229381525E+04  0.55240540281E+03  0.92860020990E+03  0.20337074412E+04  0.50400001928E-02 0. -1.
</event>
<event>
 5   0  0.3539010E-07  0.3780193E+04  0.7818609E-02  0.8050419E-01
       -2   -1    0    0    0  501  0.00000000000E+00  0.00000000000E+00  0.24211701594E+04  0.24211701594E+04  0.25500000920E-02 0.  1.
        2   -1    0    0  501    0  0.00000000000E+00  0.00000000000E+00 -0.14755119715E+04  0.14755119715E+04  0.25500000920E-02 0. -1.
    10030    2    1    2    0    0  0.00000000000E+00  0.00000000000E+00  0.94565818793E+03  0.38966821309E+04  0.37801934105E+04 0.  0.
        1    1    3    3  502    0 -0.13963040896E+04 -0.12481299817E+04  0.21007828879E+03  0.18845759335E+04  0.50400001928E-02 0. -1.
       -1    1    3    3    0  502  0.13963040896E+04  0.12481299817E+04  0.73557989915E+03  0.20121061974E+04  0.50400001928E-02 0.  1.
</event>
<event>
 5   0  0.3539010E-07  0.3819563E+04  0.7818609E-02  0.8041970E-01
        2   -1    0    0  501    0  0.00000000000E+00  0.00000000000E+00  0.16101839925E+04  0.16101839925E+04  0.25500000920E-02 0.  1.
       -2   -1    0    0    0  501  0.00000000000E+00  0.00000000000E+00 -0.22651229193E+04  0.22651229193E+04  0.25500000920E-02 0. -1.
    10030    2    1    2    0    0  0.00000000000E+00  0.00000000000E+00 -0.65493892673E+03  0.38753069118E+04  0.38195626272E+04 0.  0.
        1    1    3    3  502    0  0.12452051727E+04  0.12067322034E+04  0.48453963286E+03  0.18004213919E+04  0.50400001928E-02 0. -1.
       -1    1    3    3    0  502 -0.12452051727E+04 -0.12067322034E+04 -0.11394785596E+04  0.20748855199E+04  0.50400001928E-02 0.  1.
</event>
<event>
 5   0  0.1084315E-07  0.3759960E+04  0.7818609E-02  0.8054802E-01
        1   -1    0    0  501    0  0.00000000000E+00  0.00000000000E+00  0.22827183320E+04  0.22827183320E+04  0.50400001928E-02 0.  1.
       -1   -1    0    0    0  501  0.00000000000E+00  0.00000000000E+00 -0.15482966423E+04  0.15482966423E+04  0.50400001928E-02 0. -1.
    10030    2    1    2    0    0  0.00000000000E+00  0.00000000000E+00  0.73442168972E+03  0.38310149743E+04  0.37599601747E+04 0.  0.
        4    1    3    3  502    0  0.12489345714E+04 -0.73516571654E+03 -0.85292392471E+03  0.16816025181E+04  0.12699999809E+01 0. -1.
       -4    1    3    3    0  502 -0.12489345714E+04  0.73516571654E+03  0.15873456144E+04  0.21494124563E+04  0.12699999809E+01 0.  1.
</event>
<event>
 5   0  0.1070988E-07  0.3819274E+04  0.7818609E-02  0.8042031E-01
       -1   -1    0    0    0  501  0.00000000000E+00  0.00000000000E+00  0.17184796736E+04  0.17184796736E+04  0.50400001928E-02 0.  1.
        1   -1    0    0  501    0  0.00000000000E+00  0.00000000000E+00 -0.21220574828E+04  0.21220574829E+04  0.50400001928E-02 0. -1.
    10030    2    1    2    0    0  0.00000000000E+00  0.00000000000E+00 -0.40357780926E+03  0.38405371564E+04  0.38192735699E+04 0.  0.
        5    1    3    3  502    0  0.14166368199E+04 -0.85778433184E+02  0.10830070865E+04  0.17852574768E+04  0.46999998093E+01 0.  1.
       -5    1    3    3    0  502 -0.14166368199E+04  0.85778433184E+02 -0.14865848957E+04  0.20552796796E+04  0.46999998093E+01 0. -1.
</event>
<event>
 5   0  0.3509843E-07  0.3783952E+04  0.7818609E-02  0.8049608E-01
       -2   -1    0    0    0  501  0.00000000000E+00  0.00000000000E+00  0.17403496738E+04  0.17403496738E+04  0.25500000920E-02 0.  1.
        2   -1    0    0  501    0  0.00000000000E+00  0.00000000000E+00 -0.20568126257E+04  0.20568126257E+04  0.25500000920E-02 0. -1.
    10030    2    1    2    0    0  0.00000000000E+00  0.00000000000E+00 -0.31646295186E+03  0.37971622995E+04  0.37839519987E+04 0.  0.
        4    1    3    3  502    0 -0.56477893775E+03 -0.15979011953E+04 -0.10021836858E+04  0.19689177818E+04  0.12699999809E+01 0. -1.
       -4    1    3    3    0  502  0.56477893775E+03  0.15979011953E+04  0.68572073392E+03  0.18282445177E+04  0.12699999809E+01 0.  1.
</event>
<event>
 5   0  0.1084315E-07  0.3742314E+04  0.7818609E-02  0.8058649E-01
       -1   -1    0    0    0  501  0.00000000000E+00  0.00000000000E+00  0.15503180354E+04  0.15503180354E+04  0.50400001928E-02 0. -1.
        1   -1    0    0  501    0  0.00000000000E+00  0.00000000000E+00 -0.22583938669E+04  0.22583938669E+04  0.50400001928E-02 0.  1.
    10030    2    1    2    0    0  0.00000000000E+00  0.00000000000E+00 -0.70807583145E+03  0.38087119023E+04  0.37423141199E+04 0.  0.
        4    1    3    3  502    0 -0.67534630714E+03 -0.16800902758E+04 -0.83403179424E+03  0.19935913865E+04  0.12699999809E+01 0.  1.
       -4    1    3    3    0  502  0.67534630714E+03  0.16800902758E+04  0.12595596279E+03  0.18151205158E+04  0.12699999809E+01 0. -1.
</event>
<event>
 5   0  0.1085771E-07  0.3813251E+04  0.7818609E-02  0.8043317E-01
        1   -1    0    0  501    0  0.00000000000E+00  0.00000000000E+00  0.22636738678E+04  0.22636738678E+04  0.50400001928E-02 0.  1.
       -1   -1    0    0    0  501  0.00000000000E+00  0.00000000000E+00 -0.16058943752E+04  0.16058943752E+04  0.50400001928E-02 0. -1.
    10030    2    1    2    0    0  0.00000000000E+00  0.00000000000E+00  0.65777949266E+03  0.38695682430E+04  0.38132511754E+04 0.  0.
        1    1    3    3  502    0 -0.13835601773E+04 -0.13070240344E+04  0.21466382408E+03  0.19153671053E+04  0.50400001928E-02 0. -1.
       -1    1    3    3    0  502  0.13835601773E+04  0.13070240344E+04  0.44311566859E+03  0.19542011377E+04  0.50400001928E-02 0.  1.
</event>
<event>
 5   0  0.1070988E-07  0.3788426E+04  0.7818609E-02  0.8048643E-01
       -3   -1    0    0    0  501  0.00000000000E+00  0.00000000000E+00  0.19811481405E+04  0.19811481431E+04  0.10100000352E+00 0.  1.
        3   -1    0    0  501    0  0.00000000000E+00  0.00000000000E+00 -0.18110929883E+04  0.18110929912E+04  0.10100000352E+00 0. -1.
    10030    2    1    2    0    0  0.00000000000E+00  0.00000000000E+00  0.17005515214E+03  0.37922411342E+04  0.37884263310E+04 0.  0.
        4    1    3    3  502    0 -0.72781491299E+03  0.16161824940E+04  0.75374330940E+03  0.19261077308E+04  0.12699999809E+01 0.  1.
       -4    1    3    3    0  502  0.72781491299E+03 -0.16161824940E+04 -0.58368815725E+03  0.18661334034E+04  0.12699999809E+01 0. -1.
</event>
<event>
 5   0  0.3509843E-07  0.3784203E+04  0.7818609E-02  0.8049553E-01
        2   -1    0    0  501    0  0.00000000000E+00  0.00000000000E+00  0.18977904205E+04  0.18977904205E+04  0.25500000920E-02 0.  1.
       -2   -1    0    0    0  501  0.00000000000E+00  0.00000000000E+00 -0.18864293343E+04  0.18864293343E+04  0.25500000920E-02 0. -1.
    10030    2    1    2    0    0  0.00000000000E+00  0.00000000000E+00  0.11361086185E+02  0.37842197547E+04  0.37842027004E+04 0.  0.
        4    1    3    3  502    0 -0.28610852442E+03 -0.11266954650E+04 -0.14872244226E+04  0.18876278380E+04  0.12699999809E+01 0. -1.
       -4    1    3    3    0  502  0.28610852442E+03  0.11266954650E+04  0.14985855088E+04  0.18965919167E+04  0.12699999809E+01 0.  1.
</event>
<event>
 5   0  0.3442126E-07  0.3815177E+04  0.7818609E-02  0.8042906E-01
        2   -1    0    0  501    0  0.00000000000E+00  0.00000000000E+00  0.11730112116E+04  0.11730112116E+04  0.25500000920E-02 0.  1.
       -2   -1    0    0    0  501  0.00000000000E+00  0.00000000000E+00 -0.31021812565E+04  0.31021812565E+04  0.25500000920E-02 0. -1.
    10030    2    1    2    0    0  0.00000000000E+00  0.00000000000E+00 -0.19291700449E+04  0.42751924681E+04  0.38151767426E+04 0.  0.
        2    1    3    3  502    0  0.12829406793E+04 -0.61328920151E+03  0.46027954456E+03  0.14946296165E+04  0.25500000920E-02 0.  1.
       -2    1    3    3    0  502 -0.12829406793E+04  0.61328920151E+03 -0.23894495895E+04  0.27805628517E+04  0.25500000920E-02 0. -1.
</event>
<event>
 5   0  0.1070988E-07  0.3761380E+04  0.7818609E-02  0.8054494E-01
        1   -1    0    0  501    0  0.00000000000E+00  0.00000000000E+00  0.17817696311E+04  0.17817696311E+04  0.50400001928E-02 0.  1.
       -1   -1    0    0    0  501  0.00000000000E+00  0.00000000000E+00 -0.19851021959E+04  0.19851021959E+04  0.50400001928E-02 0. -1.
    10030    2    1    2    0    0  0.00000000000E+00  0.00000000000E+00 -0.20333256478E+03  0.37668718271E+04  0.37613799635E+04 0.  0.
        5    1    3    3  502    0  0.11717314425E+04 -0.16929099204E+03 -0.15650865181E+04  0.19624301038E+04  0.46999998093E+01 0. -1.
       -5    1    3    3    0  502 -0.11717314425E+04  0.16929099204E+03  0.13617539533E+04  0.18044417233E+04  0.46999998093E+01 0.  1.
</event>
<event>
 5   0  0.1085771E-07  0.3819667E+04  0.7818609E-02  0.8041947E-01
        1   -1    0    0  501    0  0.00000000000E+00  0.00000000000E+00  0.23854114594E+04  0.23854114594E+04  0.50400001928E-02 0. -1.
       -1   -1    0    0    0  501  0.00000000000E+00  0.00000000000E+00 -0.15290715959E+04  0.15290715959E+04  0.50400001928E-02 0.  1.
    10030    2    1    2    0    0  0.00000000000E+00  0.00000000000E+00  0.85633986356E+03  0.39144830553E+04  0.38196674761E+04 0.  0.
        1    1    3    3  502    0  0.12179203757E+04 -0.14002105934E+04  0.89052886223E+03  0.20583880591E+04  0.50400001928E-02 0. -1.
       -1    1    3    3    0  502 -0.12179203757E+04  0.14002105934E+04 -0.34188998672E+02  0.18560949962E+04  0.50400001928E-02 0.  1.
</event>
<event>
 5   0  0.3327241E-07  0.3277757E+04  0.7818609E-02  0.8168578E-01
        2   -1    0    0  501    0  0.00000000000E+00  0.00000000000E+00  0.28267917741E+04  0.28267917741E+04  0.25500000920E-02 0.  1.
       -2   -1    0    0    0  501  0.00000000000E+00  0.00000000000E+00 -0.95016653030E+03  0.95016653030E+03  0.25500000920E-02 0. -1.
    10030    2    1    2    0    0  0.00000000000E+00  0.00000000000E+00  0.18766252438E+04  0.37769583044E+04  0.32777571184E+04 0.  0.
        3    1    3    3  502    0 -0.47507385628E+02  0.13680624934E+04 -0.10008197042E+03  0.13725408368E+04  0.10100000352E+00 0. -1.
       -3    1    3    3    0  502  0.47507385628E+02 -0.13680624934E+04  0.19767072142E+04  0.24044174676E+04  0.10100000352E+00 0.  1.
</event>
<event>
 5   0  0.3509843E-07  0.3814423E+04  0.7818609E-02  0.8043067E-01
        2   -1    0    0  501    0  0.00000000000E+00  0.00000000000E+00  0.18200022507E+04  0.18200022507E+04  0.25500000920E-02 0. -1.
       -2   -1    0    0    0  501  0.00000000000E+00  0.00000000000E+00 -0.19985993120E+04  0.19985993120E+04  0.25500000920E-02 0.  1.
    10030    2    1    2    0    0  0.00000000000E+00  0.00000000000E+00 -0.17859706134E+03  0.38186015627E+04  0.38144227590E+04 0.  0.
        4    1    3    3  502    0 -0.30529971808E+03 -0.15860225208E+04  0.92609972755E+03  0.18618103213E+04  0.12699999809E+01 0. -1.
       -4    1    3    3    0  502  0.30529971808E+03  0.15860225208E+04 -0.11046967889E+04  0.19567912414E+04  0.12699999809E+01 0.  1.
</event>
<event>
 5   0  0.3509843E-07  0.3795195E+04  0.7818609E-02  0.8047187E-01
       -2   -1    0    0    0  501  0.00000000000E+00  0.00000000000E+00  0.18106257562E+04  0.18106257562E+04  0.25500000920E-02 0. -1.
        2   -1    0    0  501    0  0.00000000000E+00  0.00000000000E+00 -0.19887467507E+04  0.19887467507E+04  0.25500000920E-02 0.  1.
    10030    2    1    2    0    0  0.00000000000E+00  0.00000000000E+00 -0.17812099442E+03  0.37993725069E+04  0.37951949038E+04 0.  0.
        4    1    3    3  502    0 -0.14354164639E+04 -0.77186322230E+03  0.88395651146E+03  0.18540695742E+04  0.12699999809E+01 0. -1.
       -4    1    3    3    0  502  0.14354164639E+04  0.77186322230E+03 -0.10620775059E+04  0.19453029328E+04  0.12699999809E+01 0.  1.
</event>
<event>
 5   0  0.1070988E-07  0.3804712E+04  0.7818609E-02  0.8045144E-01
       -1   -1    0    0    0  501  0.00000000000E+00  0.00000000000E+00  0.11142680000E+04  0.11142680000E+04  0.50400001928E-02 0.  1.
        1   -1    0    0  501    0  0.00000000000E+00  0.00000000000E+00 -0.32478345314E+04  0.32478345314E+04  0.50400001928E-02 0. -1.
    10030    2    1    2    0    0  0.00000000000E+00  0.00000000000E+00 -0.21335665314E+04  0.43621025314E+04  0.38047118617E+04 0.  0.
        3    1    3    3  502    0  0.66897752648E+03 -0.53288755347E+03  0.88140953959E+03  0.12281623925E+04  0.10100000352E+00 0.  1.
       -3    1    3    3    0  502 -0.66897752648E+03  0.53288755347E+03 -0.30149760710E+04  0.31339401389E+04  0.10100000352E+00 0. -1.
</event>
<event>
 5   0  0.1070988E-07  0.3747320E+04  0.7818609E-02  0.8057555E-01
       -1   -1    0    0    0  501  0.00000000000E+00  0.00000000000E+00  0.20328269710E+04  0.20328269710E+04  0.50400001928E-02 0. -1.
        1   -1    0    0  501    0  0.00000000000E+00  0.00000000000E+00 -0.17269551581E+04  0.17269551581E+04  0.50400001928E-02 0.  1.
    10030    2    1    2    0    0  0.00000000000E+00  0.00000000000E+00  0.30587181289E+03  0.37597821290E+04  0.37473195877E+04 0.  0.
        5    1    3    3  502    0  0.86489019649E+03  0.21058270161E+03 -0.15012432906E+04  0.17453176312E+04  0.46999998093E+01 0.  1.
       -5    1    3    3    0  502 -0.86489019649E+03 -0.21058270161E+03  0.18071151034E+04  0.20144644979E+04  0.46999998093E+01 0. -1.
</event>
<event>
 5   0  0.1070988E-07  0.3795021E+04  0.7818609E-02  0.8047224E-01
       -1   -1    0    0    0  501  0.00000000000E+00  0.00000000000E+00  0.17771914372E+04  0.17771914372E+04  0.50400001928E-02 0. -1.
        1   -1    0    0  501    0  0.00000000000E+00  0.00000000000E+00 -0.20259754198E+04  0.20259754198E+04  0.50400001928E-02 0.  1.
    10030    2    1    2    0    0  0.00000000000E+00  0.00000000000E+00 -0.24878398262E+03  0.38031668570E+04  0.37950210371E+04 0.  0.
        3    1    3    3  502    0  0.15736294230E+04 -0.10066116458E+04 -0.45822800452E+03  0.19234212957E+04  0.10100000352E+00 0. -1.
       -3    1    3    3    0  502 -0.15736294230E+04  0.10066116458E+04  0.20944402191E+03  0.18797455613E+04  0.10100000352E+00 0.  1.
</event>
<event>
 5   0  0.1070988E-07  0.3811150E+04  0.7818609E-02  0.8043766E-01
       -1   -1    0    0    0  501  0.00000000000E+00  0.00000000000E+00  0.23560421123E+04  0.23560421123E+04  0.50400001928E-02 0. -1.
        1   -1    0    0  501    0  0.00000000000E+00  0.00000000000E+00 -0.15412357544E+04  0.15412357544E+04  0.50400001928E-02 0.  1.
    10030    2    1    2    0    0  0.00000000000E+00  0.00000000000E+00  0.81480635792E+03  0.38972778666E+04  0.38111501373E+04 0.  0.
        2    1    3    3  502    0  0.80204065997E+03 -0.15493754268E+04 -0.37632590936E+03  0.17847841952E+04  0.25500000920E-02 0. -1.
       -2    1    3    3    0  502 -0.80204065997E+03  0.15493754268E+04  0.11911322673E+04  0.21124936714E+04  0.25500000920E-02 0.  1.
</event>
<event>
 5   0  0.3327241E-07  0.3795442E+04  0.7818609E-02  0.8047134E-01
       -2   -1    0    0    0  501  0.00000000000E+00  0.00000000000E+00  0.14652138454E+04  0.14652138454E+04  0.25500000920E-02 0.  1.
        2   -1    0    0  501    0  0.00000000000E+00  0.00000000000E+00 -0.24578972050E+04  0.24578972050E+04  0.25500000920E-02 0. -1.
    10030    2    1    2    0    0  0.00000000000E+00  0.00000000000E+00 -0.99268335960E+03  0.39231110503E+04  0.37954420112E+04 0.  0.
        3    1    3    3  502    0  0.87861199086E+03 -0.11756986305E+04  0.74708539568E+03  0.16469252863E+04  0.10100000352E+00 0.  1.
       -3    1    3    3    0  502 -0.87861199086E+03  0.11756986305E+04 -0.17397687553E+04  0.22761857640E+04  0.10100000352E+00 0. -1.
</event>
<event>
 5   0  0.3327241E-07  0.3818551E+04  0.7818609E-02  0.8042186E-01
       -2   -1    0    0    0  501  0.00000000000E+00  0.00000000000E+00  0.14636647056E+04  0.14636647056E+04  0.25500000920E-02 0.  1.
        2   -1    0    0  501    0  0.00000000000E+00  0.00000000000E+00 -0.24905523618E+04  0.24905523618E+04  0.25500000920E-02 0. -1.
    10030    2    1    2    0    0  0.00000000000E+00  0.00000000000E+00 -0.10268876563E+04  0.39542170674E+04  0.38185513428E+04 0.  0.
        3    1    3    3  502    0 -0.17243289039E+04  0.77602617419E+03 -0.78704042911E+03  0.20481600131E+04  0.10100000352E+00 0.  1.
       -3    1    3    3    0  502  0.17243289039E+04 -0.77602617419E+03 -0.23984722715E+03  0.19060570543E+04  0.10100000352E+00 0. -1.
</event>
<event>
 5   0  0.1070988E-07  0.3802093E+04  0.7818609E-02  0.8045706E-01
       -1   -1    0    0    0  501  0.00000000000E+00  0.00000000000E+00  0.13229159960E+04  0.13229159960E+04  0.50400001928E-02 0.  1.
        1   -1    0    0  501    0  0.00000000000E+00  0.00000000000E+00 -0.27318273151E+04  0.27318273151E+04  0.50400001928E-02 0. -1.
    10030    2    1    2    0    0  0.00000000000E+00  0.00000000000E+00 -0.14089113191E+04  0.40547433112E+04  0.38020931359E+04 0.  0.
        5    1    3    3  502    0  0.94618262353E+03  0.14101812095E+04  0.20677188878E+03  0.17107452483E+04  0.46999998093E+01 0.  1.
       -5    1    3    3    0  502 -0.94618262353E+03 -0.14101812095E+04 -0.16156832079E+04  0.23439980629E+04  0.46999998093E+01 0. -1.
</event>
<event>
 5   0  0.3442126E-07  0.3713598E+04  0.7818609E-02  0.8064955E-01
        2   -1    0    0  501    0  0.00000000000E+00  0.00000000000E+00  0.18099969835E+04  0.18099969835E+04  0.25500000920E-02 0. -1.
       -2   -1    0    0    0  501  0.00000000000E+00  0.00000000000E+00 -0.19048111425E+04  0.19048111425E+04  0.25500000920E-02 0.  1.
    10030    2    1    2    0    0  0.00000000000E+00  0.00000000000E+00 -0.94814158945E+02  0.37148081260E+04  0.37135979438E+04 0.  0.
        2    1    3    3  502    0 -0.57250676380E+03 -0.47393903599E+03  0.16547114743E+04  0.18139603820E+04  0.25500000920E-02 0. -1.
       -2    1    3    3    0  502  0.57250676380E+03  0.47393903599E+03 -0.17495256332E+04  0.19008477440E+04  0.25500000920E-02 0.  1.
</event>
<event>
 5   0  0.3539010E-07  0.3816233E+04  0.7818609E-02  0.8042680E-01
        2   -1    0    0  501    0  0.00000000000E+00  0.00000000000E+00  0.26185221082E+04  0.26185221082E+04  0.25500000920E-02 0. -1.
       -2   -1    0    0    0  501  0.00000000000E+00  0.00000000000E+00 -0.13904440436E+04  0.13904440436E+04  0.25500000920E-02 0.  1.
    10030    2    1    2    0    0  0.00000000000E+00  0.00000000000E+00  0.12280780646E+04  0.40089661519E+04  0.38162329429E+04 0.  0.
        1    1    3    3  502    0 -0.10263935448E+04 -0.14867008873E+04  0.12591758443E+04  0.22021096803E+04  0.50400001928E-02 0.  1.
       -1    1    3    3    0  502  0.10263935448E+04  0.14867008873E+04 -0.31097779688E+02  0.18068564716E+04  0.50400001928E-02 0. -1.
</event>
<event>
 5   0  0.3509843E-07  0.3768124E+04  0.7818609E-02  0.8053030E-01
        2   -1    0    0  501    0  0.00000000000E+00  0.00000000000E+00  0.24131803482E+04  0.24131803482E+04  0.25500000920E-02 0.  1.
       -2   -1    0    0    0  501  0.00000000000E+00  0.00000000000E+00 -0.14709591413E+04  0.14709591413E+04  0.25500000920E-02 0. -1.
    10030    2    1    2    0    0  0.00000000000E+00  0.00000000000E+00  0.94222120683E+03  0.38841394895E+04  0.37681240388E+04 0.  0.
        4    1    3    3  502    0  0.46224405174E+02 -0.13748967185E+04  0.17980725004E+04  0.22639664334E+04  0.12699999809E+01 0.  1.
       -4    1    3    3    0  502 -0.46224405174E+02  0.13748967185E+04 -0.85585129355E+03  0.16201730561E+04  0.12699999809E+01 0. -1.
</event>
<event>
 5   0  0.1070988E-07  0.3730125E+04  0.7818609E-02  0.8061318E-01
       -1   -1    0    0    0  501  0.00000000000E+00  0.00000000000E+00  0.14670136706E+04  0.14670136706E+04  0.50400001928E-02 0. -1.
        1   -1    0    0  501    0  0.00000000000E+00  0.00000000000E+00 -0.23711153558E+04  0.23711153558E+04  0.50400001928E-02 0.  1.
    10030    2    1    2    0    0  0.00000000000E+00  0.00000000000E+00 -0.90410168522E+03  0.38381290264E+04  0.37301252749E+04 0.  0.
        5    1    3    3  502    0 -0.15364223644E+04 -0.10344584292E+04 -0.22723282209E+03  0.18661068482E+04  0.46999998093E+01 0. -1.
       -5    1    3    3    0  502  0.15364223644E+04  0.10344584292E+04 -0.67686886313E+03  0.19720221782E+04  0.46999998093E+01 0.  1.
</event>
<event>
 5   0  0.3539010E-07  0.3810814E+04  0.7818609E-02  0.8043838E-01
       -2   -1    0    0    0  501  0.00000000000E+00  0.00000000000E+00  0.19604807970E+04  0.19604807970E+04  0.25500000920E-02 0.  1.
        2   -1    0    0  501    0  0.00000000000E+00  0.00000000000E+00 -0.18518798894E+04  0.18518798894E+04  0.25500000920E-02 0. -1.
    10030    2    1    2    0    0  0.00000000000E+00  0.00000000000E+00  0.10860090758E+03  0.38123606863E+04  0.38108135412E+04 0.  0.
        1    1    3    3  502    0 -0.78937714052E+03 -0.16109561785E+01 -0.16806054731E+04  0.18567589023E+04  0.50400001928E-02 0. -1.
       -1    1    3    3    0  502  0.78937714052E+03  0.16109561785E+01  0.17892063807E+04  0.19556017840E+04  0.50400001928E-02 0.  1.
</event>
<event>
 5   0  0.3327241E-07  0.3689544E+04  0.7818609E-02  0.8070283E-01
        2   -1    0    0  501    0  0.00000000000E+00  0.00000000000E+00  0.12193958224E+04  0.12193958224E+04  0.25500000920E-02 0.  1.
       -2   -1    0    0    0  501  0.00000000000E+00  0.00000000000E+00 -0.27908764757E+04  0.27908764757E+04  0.25500000920E-02 0. -1.
    10030    2    1    2    0    0  0.00000000000E+00  0.00000000000E+00 -0.15714806533E+04  0.40102722981E+04  0.36895436657E+04 0.  0.
        3    1    3    3  502    0 -0.20107748005E+03 -0.16153621667E+04  0.15767155137E+03  0.16354471593E+04  0.10100000352E+00 0.  1.
       -3    1    3    3    0  502  0.20107748005E+03  0.16153621667E+04 -0.17291522047E+04  0.23748251388E+04  0.10100000352E+00 0. -1.
</event>
<event>
 5   0  0.1084315E-07  0.3793613E+04  0.7818609E-02  0.8047527E-01
       -1   -1    0    0    0  501  0.00000000000E+00  0.00000000000E+00  0.12987243215E+04  0.12987243215E+04  0.50400001928E-02 0.  1.
        1   -1    0    0  501    0  0.00000000000E+00  0.00000000000E+00 -0.27703142567E+04  0.27703142567E+04  0.50400001928E-02 0. -1.
    10030    2    1    2    0    0  0.00000000000E+00  0.00000000000E+00 -0.14715899352E+04  0.40690385782E+04  0.37936127917E+04 0.  0.
        4    1    3    3  502    0  0.99178691449E+03  0.30830314498E+03 -0.24382218687E+04  0.26502112382E+04  0.12699999809E+01 0. -1.
       -4    1    3    3    0  502 -0.99178691449E+03 -0.30830314498E+03  0.96663193354E+03  0.14188273400E+04  0.12699999809E+01 0.  1.
</event>
<event>
 5   0  0.3377396E-07  0.3806355E+04  0.7818609E-02  0.8044792E-01
        2   -1    0    0  501    0  0.00000000000E+00  0.00000000000E+00  0.28187120738E+04  0.28187120738E+04  0.25500000920E-02 0.  1.
       -2   -1    0    0    0  501  0.00000000000E+00  0.00000000000E+00 -0.12850142342E+04  0.12850142342E+04  0.25500000920E-02 0. -1.
    10030    2    1    2    0    0  0.00000000000E+00  0.00000000000E+00  0.15336978396E+04  0.41037263079E+04  0.38063552839E+04 0.  0.
        5    1    3    3  502    0 -0.29109165642E+03  0.12026439134E+04  0.23258399704E+04  0.26345095165E+04  0.46999998093E+01 0.  1.
       -5    1    3    3    0  502  0.29109165642E+03 -0.12026439134E+04 -0.79214213076E+03  0.14692167914E+04  0.46999998093E+01 0. -1.
</event>
<event>
 5   0  0.3442126E-07  0.3493593E+04  0.7818609E-02  0.8115310E-01
       -2   -1    0    0    0  501  0.00000000000E+00  0.00000000000E+00  0.10849304355E+04  0.10849304355E+04  0.25500000920E-02 0. -1.
        2   -1    0    0  501    0  0.00000000000E+00  0.00000000000E+00 -0.28124368823E+04  0.28124368823E+04  0.25500000920E-02 0.  1.
    10030    2    1    2    0    0  0.00000000000E+00  0.00000000000E+00 -0.17275064468E+04  0.38973673178E+04  0.34935932056E+04 0.  0.
        2    1    3    3  502    0 -0.31869657295E+03 -0.17036155594E+04 -0.11066949865E+04  0.20563674946E+04  0.25500000920E-02 0.  1.
       -2    1    3    3    0  502  0.31869657295E+03  0.17036155594E+04 -0.62081146028E+03  0.18409998232E+04  0.25500000920E-02 0. -1.
</event>
<event>
 5   0  0.3442126E-07  0.3925430E+04  0.7818609E-02  0.8019761E-01
        2   -1    0    0  501    0  0.00000000000E+00  0.00000000000E+00  0.29219807934E+04  0.29219807934E+04  0.25500000920E-02 0.  1.
       -2   -1    0    0    0  501  0.00000000000E+00  0.00000000000E+00 -0.13183694360E+04  0.13183694360E+04  0.25500000920E-02 0. -1.
    10030    2    1    2    0    0  0.00000000000E+00  0.00000000000E+00  0.16036113574E+04  0.42403502294E+04  0.39254299996E+04 0.  0.
        2    1    3    3  502    0  0.11824792234E+04 -0.37068723509E+03 -0.84233327999E+03  0.14983963076E+04  0.25500000920E-02 0. -1.
       -2    1    3    3    0  502 -0.11824792234E+04  0.37068723509E+03  0.24459446374E+04  0.27419539218E+04  0.25500000920E-02 0.  1.
</event>
<event>
 5   0  0.1070988E-07  0.3791446E+04  0.7818609E-02  0.8047993E-01
       -1   -1    0    0    0  501  0.00000000000E+00  0.00000000000E+00  0.18063137376E+04  0.18063137376E+04  0.50400001928E-02 0. -1.
        1   -1    0    0  501    0  0.00000000000E+00  0.00000000000E+00 -0.19895580327E+04  0.19895580327E+04  0.50400001928E-02 0.  1.
    10030    2    1    2    0    0  0.00000000000E+00  0.00000000000E+00 -0.18324429508E+03  0.37958717703E+04  0.37914461653E+04 0.  0.
        3    1    3    3  502    0 -0.29688474842E+03  0.26628252073E+03 -0.19470849373E+04  0.19875076598E+04  0.10100000352E+00 0.  1.
       -3    1    3    3    0  502  0.29688474842E+03 -0.26628252073E+03  0.17638406422E+04  0.18083641105E+04  0.10100000352E+00 0. -1.
</event>
<event>
 5   0  0.1070988E-07  0.3796418E+04  0.7818609E-02  0.8046924E-01
        1   -1    0    0  501    0  0.00000000000E+00  0.00000000000E+00  0.19728376071E+04  0.19728376071E+04  0.50400001928E-02 0. -1.
       -1   -1    0    0    0  501  0.00000000000E+00  0.00000000000E+00 -0.18264033565E+04  0.18264033565E+04  0.50400001928E-02 0.  1.
    10030    2    1    2    0    0  0.00000000000E+00  0.00000000000E+00  0.14643425063E+03  0.37992409637E+04  0.37964179051E+04 0.  0.
        2    1    3    3  502    0  0.31773674020E+03 -0.10939136641E+03  0.19428338945E+04  0.19716811732E+04  0.25500000920E-02 0. -1.
       -2    1    3    3    0  502 -0.31773674020E+03  0.10939136641E+03 -0.17963996439E+04  0.18275597904E+04  0.25500000920E-02 0.  1.
</event>
<event>
 5   0  0.3539010E-07  0.3812595E+04  0.7818609E-02  0.8043458E-01
       -2   -1    0    0    0  501  0.00000000000E+00  0.00000000000E+00  0.22310646537E+04  0.22310646537E+04  0.25500000920E-02 0.  1.
        2   -1    0    0  501    0  0.00000000000E+00  0.00000000000E+00 -0.16288050791E+04  0.16288050791E+04  0.25500000920E-02 0. -1.
    10030    2    1    2    0    0  0.00000000000E+00  0.00000000000E+00  0.60225957456E+03  0.38598697328E+04  0.38125946230E+04 0.  0.
        1    1    3    3  502    0 -0.13492817603E+04  0.11500636209E+04 -0.40810072178E+03  0.18192728767E+04  0.50400001928E-02 0. -1.
       -1    1    3    3    0  502  0.13492817603E+04 -0.11500636209E+04  0.10103602963E+04  0.20405968561E+04  0.50400001928E-02 0.  1.
</event>
<event>
 5   0  0.1070988E-07  0.3821145E+04  0.7818609E-02  0.8041632E-01
       -1   -1    0    0    0  501  0.00000000000E+00  0.00000000000E+00  0.16853106057E+04  0.16853106057E+04  0.50400001928E-02 0. -1.
        1   -1    0    0  501    0  0.00000000000E+00  0.00000000000E+00 -0.21659438198E+04  0.21659438198E+04  0.50400001928E-02 0.  1.
    10030    2    1    2    0    0  0.00000000000E+00  0.00000000000E+00 -0.48063321413E+03  0.38512544255E+04  0.38211454255E+04 0.  0.
        2    1    3    3  502    0 -0.67540282979E+03 -0.19956060907E+03 -0.20303444040E+04  0.21490211302E+04  0.25500000920E-02 0.  1.
       -2    1    3    3    0  502  0.67540282979E+03  0.19956060907E+03  0.15497111899E+04  0.17022332952E+04  0.25500000920E-02 0. -1.
</event>
<event>
 5   0  0.1070988E-07  0.3805078E+04  0.7818609E-02  0.8045066E-01
        1   -1    0    0  501    0  0.00000000000E+00  0.00000000000E+00  0.20716968288E+04  0.20716968288E+04  0.50400001928E-02 0.  1.
       -1   -1    0    0    0  501  0.00000000000E+00  0.00000000000E+00 -0.17471936507E+04  0.17471936507E+04  0.50400001928E-02 0. -1.
    10030    2    1    2    0    0  0.00000000000E+00  0.00000000000E+00  0.32450317806E+03  0.38188904795E+04  0.38050784725E+04 0.  0.
        5    1    3    3  502    0  0.70402989636E+03  0.16694693192E+04  0.74474401702E+03  0.19589414600E+04  0.46999998093E+01 0.  1.
       -5    1    3    3    0  502 -0.70402989636E+03 -0.16694693192E+04 -0.42024083896E+03  0.18599490196E+04  0.46999998093E+01 0. -1.
</event>
<event>
 5   0  0.3377396E-07  0.3841332E+04  0.7818609E-02  0.8037343E-01
        2   -1    0    0  501    0  0.00000000000E+00  0.00000000000E+00  0.14843674890E+04  0.14843674890E+04  0.25500000920E-02 0. -1.
       -2   -1    0    0    0  501  0.00000000000E+00  0.00000000000E+00 -0.24852055213E+04  0.24852055213E+04  0.25500000920E-02 0.  1.
    10030    2    1    2    0    0  0.00000000000E+00  0.00000000000E+00 -0.10008380323E+04  0.39695730103E+04  0.38413322061E+04 0.  0.
        5    1    3    3  502    0  0.15890190475E+03 -0.66729426277E+03  0.13534637034E+04  0.15173719172E+04  0.46999998093E+01 0. -1.
       -5    1    3    3    0  502 -0.15890190475E+03  0.66729426277E+03 -0.23543017358E+04  0.24522010932E+04  0.46999998093E+01 0.  1.
</event>
<event>
 5   0  0.1070988E-07  0.3830426E+04  0.7818609E-02  0.8039657E-01
        1   -1    0    0  501    0  0.00000000000E+00  0.00000000000E+00  0.25931039467E+04  0.25931039467E+04  0.50400001928E-02 0. -1.
       -1   -1    0    0    0  501  0.00000000000E+00  0.00000000000E+00 -0.14145369619E+04  0.14145369619E+04  0.50400001928E-02 0.  1.
    10030    2    1    2    0    0  0.00000000000E+00  0.00000000000E+00  0.11785669848E+04  0.40076409086E+04  0.38304262837E+04 0.  0.
        2    1    3    3  502    0 -0.19052544161E+04  0.49356871414E+02  0.78672256065E+03  0.20618833329E+04  0.25500000920E-02 0. -1.
       -2    1    3    3    0  502  0.19052544161E+04 -0.49356871414E+02  0.39184442419E+03  0.19457575758E+04  0.25500000920E-02 0.  1.
</event>
<event>
 5   0  0.1070988E-07  0.3800345E+04  0.7818609E-02  0.8046081E-01
       -1   -1    0    0    0  501  0.00000000000E+00  0.00000000000E+00  0.24890533910E+04  0.24890533910E+04  0.50400001928E-02 0.  1.
        1   -1    0    0  501    0  0.00000000000E+00  0.00000000000E+00 -0.14506140411E+04  0.14506140411E+04  0.50400001928E-02 0. -1.
    10030    2    1    2    0    0  0.00000000000E+00  0.00000000000E+00  0.10384393500E+04  0.39396674321E+04  0.38003451411E+04 0.  0.
        3    1    3    3  502    0 -0.12963689440E+04  0.41772345877E+03 -0.85434188463E+03  0.16077827567E+04  0.10100000352E+00 0. -1.
       -3    1    3    3    0  502  0.12963689440E+04 -0.41772345877E+03  0.18927812346E+04  0.23318846753E+04  0.10100000352E+00 0.  1.
</event>
<event>
 5   0  0.1070988E-07  0.3828461E+04  0.7818609E-02  0.8040075E-01
       -1   -1    0    0    0  501  0.00000000000E+00  0.00000000000E+00  0.12734395790E+04  0.12734395791E+04  0.50400001928E-02 0. -1.
        1   -1    0    0  501    0  0.00000000000E+00  0.00000000000E+00 -0.28774658756E+04  0.28774658756E+04  0.50400001928E-02 0.  1.
    10030    2    1    2    0    0  0.00000000000E+00  0.00000000000E+00 -0.16040262966E+04  0.41509054547E+04  0.38284612749E+04 0.  0.
        5    1    3    3  502    0 -0.58166660312E+03  0.54182417003E+02  0.11744229534E+04  0.13117023805E+04  0.46999998093E+01 0. -1.
       -5    1    3    3    0  502  0.58166660312E+03 -0.54182417003E+02 -0.27784492500E+04  0.28392030742E+04  0.46999998093E+01 0.  1.
</event>
<event>
 5   0  0.3442126E-07  0.3794684E+04  0.7818609E-02  0.8047297E-01
        2   -1    0    0  501    0  0.00000000000E+00  0.00000000000E+00  0.25610591438E+04  0.25610591438E+04  0.25500000920E-02 0. -1.
       -2   -1    0    0    0  501  0.00000000000E+00  0.00000000000E+00 -0.14056316674E+04  0.14056316674E+04  0.25500000920E-02 0.  1.
    10030    2    1    2    0    0  0.00000000000E+00  0.00000000000E+00  0.11554274764E+04  0.39666908113E+04  0.37946835624E+04 0.  0.
        2    1    3    3  502    0  0.70488411285E+03  0.86589064771E+03 -0.10258615884E+04  0.15162520321E+04  0.25500000920E-02 0.  1.
       -2    1    3    3    0  502 -0.70488411285E+03 -0.86589064771E+03  0.21812890648E+04  0.24504387792E+04  0.25500000920E-02 0. -1.
</event>
<event>
 5   0  0.3327241E-07  0.3335171E+04  0.7818609E-02  0.8154003E-01
        2   -1    0    0  501    0  0.00000000000E+00  0.00000000000E+00  0.27300451299E+04  0.27300451299E+04  0.25500000920E-02 0. -1.
       -2   -1    0    0    0  501  0.00000000000E+00  0.00000000000E+00 -0.10186060991E+04  0.10186060991E+04  0.25500000920E-02 0.  1.
    10030    2    1    2    0    0  0.00000000000E+00  0.00000000000E+00  0.17114390308E+04  0.37486512289E+04  0.33351705324E+04 0.  0.
        3    1    3    3  502    0  0.67711345460E+02  0.75486397839E+03 -0.81384295539E+03  0.11120902924E+04  0.10100000352E+00 0.  1.
       -3    1    3    3    0  502 -0.67711345460E+02 -0.75486397839E+03  0.25252819862E+04  0.26365609365E+04  0.10100000352E+00 0. -1.
</event>
<event>
 5   0  0.1070988E-07  0.3801479E+04  0.7818609E-02  0.8045838E-01
        1   -1    0    0  501    0  0.00000000000E+00  0.00000000000E+00  0.15255581923E+04  0.15255581923E+04  0.50400001928E-02 0.  1.
       -1   -1    0    0    0  501  0.00000000000E+00  0.00000000000E+00 -0.23681896951E+04  0.23681896951E+04  0.50400001928E-02 0. -1.
    10030    2    1    2    0    0  0.00000000000E+00  0.00000000000E+00 -0.84263150277E+03  0.38937478874E+04  0.38014792859E+04 0.  0.
        3    1    3    3  502    0  0.92484613424E+03 -0.10216455718E+03 -0.21189618315E+04  0.23142552198E+04  0.10100000352E+00 0. -1.
       -3    1    3    3    0  502 -0.92484613424E+03  0.10216455718E+03  0.12763303288E+04  0.15794926676E+04  0.10100000352E+00 0.  1.
</event>
<event>
 5   0  0.3539010E-07  0.3769597E+04  0.7818609E-02  0.8052711E-01
       -2   -1    0    0    0  501  0.00000000000E+00  0.00000000000E+00  0.13107828301E+04  0.13107828301E+04  0.25500000920E-02 0. -1.
        2   -1    0    0  501    0  0.00000000000E+00  0.00000000000E+00 -0.27101855865E+04  0.27101855865E+04  0.25500000920E-02 0.  1.
    10030    2    1    2    0    0  0.00000000000E+00  0.00000000000E+00 -0.13994027564E+04  0.40209684166E+04  0.37695966538E+04 0.  0.
        1    1    3    3  502    0 -0.30440313181E+03 -0.16943244855E+03 -0.26755434126E+04  0.26981291990E+04  0.50400001928E-02 0.  1.
       -1    1    3    3    0  502  0.30440313181E+03  0.16943244855E+03  0.12761406562E+04  0.13228392176E+04  0.50400001928E-02 0. -1.
</event>
<event>
 5   0  0.3539010E-07  0.3079072E+04  0.7818609E-02  0.8221505E-01
        2   -1    0    0  501    0  0.00000000000E+00  0.00000000000E+00  0.95502599558E+03  0.95502599559E+03  0.25500000920E-02 0.  1.
       -2   -1    0    0    0  501  0.00000000000E+00  0.00000000000E+00 -0.24817867658E+04  0.24817867658E+04  0.25500000920E-02 0. -1.
    10030    2    1    2    0    0  0.00000000000E+00  0.00000000000E+00 -0.15267607702E+04  0.34368127613E+04  0.30790718581E+04 0.  0.
        1    1    3    3  502    0  0.45348142188E+03  0.12398700790E+04  0.12062635071E+03  0.13256975256E+04  0.50400001928E-02 0.  1.
       -1    1    3    3    0  502 -0.45348142188E+03 -0.12398700790E+04 -0.16473871209E+04  0.21111152358E+04  0.50400001928E-02 0. -1.
</event>
<event>
 5   0  0.3377396E-07  0.3790065E+04  0.7818609E-02  0.8048290E-01
        2   -1    0    0  501    0  0.00000000000E+00  0.00000000000E+00  0.24652727024E+04  0.24652727024E+04  0.25500000920E-02 0.  1.
       -2   -1    0    0    0  501  0.00000000000E+00  0.00000000000E+00 -0.14566942441E+04  0.14566942441E+04  0.25500000920E-02 0. -1.
    10030    2    1    2    0    0  0.00000000000E+00  0.00000000000E+00  0.10085784584E+04  0.39219669465E+04  0.37900652004E+04 0.  0.
        5    1    3    3  502    0  0.92285280490E+03 -0.13482595029E+04  0.14977344130E+04  0.22164592143E+04  0.46999998093E+01 0. -1.
       -5    1    3    3    0  502 -0.92285280490E+03  0.13482595029E+04 -0.48915595465E+03  0.17055077322E+04  0.46999998093E+01 0.  1.
</event>
<event>
 5   0  0.3327241E-07  0.3757656E+04  0.7818609E-02  0.8055303E-01
        2   -1    0    0  501    0  0.00000000000E+00  0.00000000000E+00  0.23382637540E+04  0.23382637540E+04  0.25500000920E-02 0. -1.
       -2   -1    0    0    0  501  0.00000000000E+00  0.00000000000E+00 -0.15096648258E+04  0.15096648258E+04  0.25500000920E-02 0.  1.
    10030    2    1    2    0    0  0.00000000000E+00  0.00000000000E+00  0.82859892821E+03  0.38479285797E+04  0.37576559410E+04 0.  0.
        3    1    3    3  502    0 -0.12318828351E+04 -0.13009794387E+04 -0.16489587828E+03  0.17992424740E+04  0.10100000352E+00 0.  1.
       -3    1    3    3    0  502  0.12318828351E+04  0.13009794387E+04  0.99349480649E+03  0.20486861058E+04  0.10100000352E+00 0. -1.
</event>
<event>
 5   0  0.1085771E-07  0.3682424E+04  0.7818609E-02  0.8071868E-01
        1   -1    0    0  501    0  0.00000000000E+00  0.00000000000E+00  0.16948323726E+04  0.16948323726E+04  0.50400001928E-02 0.  1.
       -1   -1    0    0    0  501  0.00000000000E+00  0.00000000000E+00 -0.20002344291E+04  0.20002344291E+04  0.50400001928E-02 0. -1.
    10030    2    1    2    0    0  0.00000000000E+00  0.00000000000E+00 -0.30540205650E+03  0.36950668018E+04  0.36824242360E+04 0.  0.
        1    1    3    3  502    0  0.14453117554E+04  0.11171939797E+04 -0.38373835010E+03  0.18666289348E+04  0.50400001928E-02 0. -1.
       -1    1    3    3    0  502 -0.14453117554E+04 -0.11171939797E+04  0.78336293596E+02  0.18284378670E+04  0.50400001928E-02 0.  1.
</event>
<event>
 5   0  0.1070988E-07  0.3916016E+04  0.7818609E-02  0.8021706E-01
       -1   -1    0    0    0  501  0.00000000000E+00  0.00000000000E+00  0.15016338929E+04  0.15016338929E+04  0.50400001928E-02 0.  1.
        1   -1    0    0  501    0  0.00000000000E+00  0.00000000000E+00 -0.25530827585E+04  0.25530827585E+04  0.50400001928E-02 0. -1.
    10030    2    1    2    0    0  0.00000000000E+00  0.00000000000E+00 -0.10514488657E+04  0.40547166514E+04  0.39160161396E+04 0.  0.
        3    1    3    3  502    0  0.12132206453E+04 -0.94633832474E+03  0.72808820420E+03  0.17022258964E+04  0.10100000352E+00 0.  1.
       -3    1    3    3    0  502 -0.12132206453E+04  0.94633832474E+03 -0.17795370699E+04  0.23524907550E+04  0.10100000352E+00 0. -1.
</event>
<event>
 5   0  0.1070988E-07  0.3844512E+04  0.7818609E-02  0.8036670E-01
       -1   -1    0    0    0  501  0.00000000000E+00  0.00000000000E+00  0.14819270443E+04  0.14819270443E+04  0.50400001928E-02 0.  1.
        1   -1    0    0  501    0  0.00000000000E+00  0.00000000000E+00 -0.24934214635E+04  0.24934214635E+04  0.50400001928E-02 0. -1.
    10030    2    1    2    0    0  0.00000000000E+00  0.00000000000E+00 -0.10114944192E+04  0.39753485078E+04  0.38445122966E+04 0.  0.
        3    1    3    3  502    0 -0.15506811462E+04 -0.11314035339E+04 -0.61111052655E+03  0.20144830750E+04  0.10100000352E+00 0.  1.
       -3    1    3    3    0  502  0.15506811462E+04  0.11314035339E+04 -0.40038389262E+03  0.19608654328E+04  0.10100000352E+00 0. -1.
</event>
<event>
 5   0  0.3377396E-07  0.3793859E+04  0.7818609E-02  0.8047474E-01
        2   -1    0    0  501    0  0.00000000000E+00  0.00000000000E+00  0.16947382203E+04  0.16947382203E+04  0.25500000920E-02 0.  1.
       -2   -1    0    0    0  501  0.00000000000E+00  0.00000000000E+00 -0.21232432525E+04  0.21232432525E+04  0.25500000920E-02 0. -1.
    10030    2    1    2    0    0  0.00000000000E+00  0.00000000000E+00 -0.42850503213E+03  0.38179814728E+04  0.37938589805E+04 0.  0.
        5    1    3    3  502    0 -0.18003949364E+04  0.54768396518E+03 -0.45439024766E+03  0.19359422099E+04  0.46999998093E+01 0. -1.
       -5    1    3    3    0  502  0.18003949364E+04 -0.54768396518E+03  0.25885215535E+02  0.18820392629E+04  0.46999998093E+01 0.  1.
</event>
<event>
 5   0  0.3539010E-07  0.3696116E+04  0.7818609E-02  0.8068823E-01
       -2   -1    0    0    0  501  0.00000000000E+00  0.00000000000E+00  0.16130534563E+04  0.16130534563E+04  0.25500000920E-02 0.  1.
        2   -1    0    0  501    0  0.00000000000E+00  0.00000000000E+00 -0.21173006482E+04  0.21173006482E+04  0.25500000920E-02 0. -1.
    10030    2    1    2    0    0  0.00000000000E+00  0.00000000000E+00 -0.50424719187E+03  0.37303541045E+04  0.36961164098E+04 0.  0.
        1    1    3    3  502    0  0.14511302368E+04  0.10973981893E+04 -0.57956281287E+03  0.19094383478E+04  0.50400001928E-02 0. -1.
       -1    1    3    3    0  502 -0.14511302368E+04 -0.10973981893E+04  0.75315621004E+02  0.18209157567E+04  0.50400001928E-02 0.  1.
</event>
<event>
 5   0  0.1070988E-07  0.3796976E+04  0.7818609E-02  0.8046804E-01
        1   -1    0    0  501    0  0.00000000000E+00  0.00000000000E+00  0.11423123752E+04  0.11423123752E+04  0.50400001928E-02 0. -1.
       -1   -1    0    0    0  501  0.00000000000E+00  0.00000000000E+00 -0.31552281933E+04  0.31552281933E+04  0.50400001928E-02 0.  1.
    10030    2    1    2    0    0  0.00000000000E+00  0.00000000000E+00 -0.20129158181E+04  0.42975405685E+04  0.37969757501E+04 0.  0.
        5    1    3    3  502    0  0.12742151863E+04 -0.80093553004E+03  0.30329877023E+03  0.15352961598E+04  0.46999998093E+01 0. -1.
       -5    1    3    3    0  502 -0.12742151863E+04  0.80093553004E+03 -0.23162145883E+04  0.27622444087E+04  0.46999998093E+01 0.  1.
</event>
<event>
 5   0  0.1070988E-07  0.3695652E+04  0.7818609E-02  0.8068926E-01
       -1   -1    0    0    0  501  0.00000000000E+00  0.00000000000E+00  0.15165254366E+04  0.15165254367E+04  0.50400001928E-02 0. -1.
        1   -1    0    0  501    0  0.00000000000E+00  0.00000000000E+00 -0.22515024277E+04  0.22515024278E+04  0.50400001928E-02 0.  1.
    10030    2    1    2    0    0  0.00000000000E+00  0.00000000000E+00 -0.73497699110E+03  0.37680278644E+04  0.36956518788E+04 0.  0.
        5    1    3    3  502    0  0.14340248654E+04 -0.10364400539E+04  0.17567650863E+03  0.17780662602E+04  0.46999998093E+01 0.  1.
       -5    1    3    3    0  502 -0.14340248654E+04  0.10364400539E+04 -0.91065349973E+03  0.19899616043E+04  0.46999998093E+01 0. -1.
</event>
<event>
 5   0  0.3539010E-07  0.3778860E+04  0.7818609E-02  0.8050707E-01
        2   -1    0    0  501    0  0.00000000000E+00  0.00000000000E+00  0.17750917116E+04  0.17750917116E+04  0.25500000920E-02 0. -1.
       -2   -1    0    0    0  501  0.00000000000E+00  0.00000000000E+00 -0.20111329948E+04  0.20111329948E+04  0.25500000920E-02 0.  1.
    10030    2    1    2    0    0  0.00000000000E+00  0.00000000000E+00 -0.23604128315E+03  0.37862247064E+04  0.37788598862E+04 0.  0.
        1    1    3    3  502    0 -0.12116757205E+04  0.19453644850E+02 -0.15704696392E+04  0.19836611060E+04  0.50400001928E-02 0.  1.
       -1    1    3    3    0  502  0.12116757205E+04 -0.19453644850E+02  0.13344283560E+04  0.18025636004E+04  0.50400001928E-02 0. -1.
</event>
<event>
 5   0  0.1070988E-07  0.3820768E+04  0.7818609E-02  0.8041713E-01
       -1   -1    0    0    0  501  0.00000000000E+00  0.00000000000E+00  0.11066128163E+04  0.11066128163E+04  0.50400001928E-02 0.  1.
        1   -1    0    0  501    0  0.00000000000E+00  0.00000000000E+00 -0.32979623095E+04  0.32979623095E+04  0.50400001928E-02 0. -1.
    10030    2    1    2    0    0  0.00000000000E+00  0.00000000000E+00 -0.21913494932E+04  0.44045751258E+04  0.38207681737E+04 0.  0.
        3    1    3    3  502    0 -0.10159324689E+04 -0.73953576488E+03 -0.27544771902E+04  0.30275694097E+04  0.10100000352E+00 0. -1.
       -3    1    3    3    0  502  0.10159324689E+04  0.73953576488E+03  0.56312769705E+03  0.13770057161E+04  0.10100000352E+00 0.  1.
</event>
<event>
 5   0  0.1070988E-07  0.3764915E+04  0.7818609E-02  0.8053726E-01
       -1   -1    0    0    0  501  0.00000000000E+00  0.00000000000E+00  0.29553399312E+04  0.29553399312E+04  0.50400001928E-02 0. -1.
        1   -1    0    0  501    0  0.00000000000E+00  0.00000000000E+00 -0.11990655038E+04  0.11990655038E+04  0.50400001928E-02 0.  1.
    10030    2    1    2    0    0  0.00000000000E+00  0.00000000000E+00  0.17562744274E+04  0.41544054349E+04  0.37649149597E+04 0.  0.
        2    1    3    3  502    0 -0.86198801222E+03 -0.95839719918E+03  0.23919591065E+04  0.27171707513E+04  0.25500000920E-02 0. -1.
       -2    1    3    3    0  502  0.86198801222E+03  0.95839719918E+03 -0.63568467908E+03  0.14372346836E+04  0.25500000920E-02 0.  1.
</event>
<event>
 5   0  0.1084315E-07  0.3797276E+04  0.7818609E-02  0.8046740E-01
        1   -1    0    0  501    0  0.00000000000E+00  0.00000000000E+00  0.18657692437E+04  0.18657692437E+04  0.50400001928E-02 0.  1.
       -1   -1    0    0    0  501  0.00000000000E+00  0.00000000000E+00 -0.19320857283E+04  0.19320857283E+04  0.50400001928E-02 0. -1.
    10030    2    1    2    0    0  0.00000000000E+00  0.00000000000E+00 -0.66316484599E+02  0.37978549721E+04  0.37972759332E+04 0.  0.
        4    1    3    3  502    0  0.13925436273E+04  0.49102634216E+03 -0.12268811482E+04  0.19197717540E+04  0.12699999809E+01 0. -1.
       -4    1    3    3    0  502 -0.13925436273E+04 -0.49102634216E+03  0.11605646636E+04  0.18780832181E+04  0.12699999809E+01 0.  1.
</event>
<event>
 5   0  0.1084315E-07  0.3763886E+04  0.7818609E-02  0.8053950E-01
       -1   -1    0    0    0  501  0.00000000000E+00  0.00000000000E+00  0.16832951690E+04  0.16832951690E+04  0.50400001928E-02 0. -1.
        1   -1    0    0  501    0  0.00000000000E+00  0.00000000000E+00 -0.21040330528E+04  0.21040330529E+04  0.50400001928E-02 0.  1.
    10030    2    1    2    0    0  0.00000000000E+00  0.00000000000E+00 -0.42073788385E+03  0.37873282219E+04  0.37638855845E+04 0.  0.
        4    1    3    3  502    0  0.85877155553E+02 -0.52771663473E+03  0.16052660615E+04  0.16919634965E+04  0.12699999809E+01 0. -1.
       -4    1    3    3    0  502 -0.85877155553E+02  0.52771663473E+03 -0.20260039454E+04  0.20953647253E+04  0.12699999809E+01 0.  1.
</event>
<event>
 5   0  0.1085771E-07  0.3674279E+04  0.7818609E-02  0.8073686E-01
        1   -1    0    0  501    0  0.00000000000E+00  0.00000000000E+00  0.14428064056E+04  0.14428064056E+04  0.50400001928E-02 0. -1.
       -1   -1    0    0    0  501  0.00000000000E+00  0.00000000000E+00 -0.23392474805E+04  0.23392474805E+04  0.50400001928E-02 0.  1.
    10030    2    1    2    0    0  0.00000000000E+00  0.00000000000E+00 -0.89644107483E+03  0.37820538861E+04  0.36742788404E+04 0.  0.
        1    1    3    3  502    0  0.24650809814E+03  0.17529305607E+04  0.57672418888E+02  0.17711176982E+04  0.50400001928E-02 0. -1.
       -1    1    3    3    0  502 -0.24650809814E+03 -0.17529305607E+04 -0.95411349371E+03  0.20109361879E+04  0.50400001928E-02 0.  1.
</event>
<event>
 5   0  0.1070988E-07  0.3797209E+04  0.7818609E-02  0.8046754E-01
        1   -1    0    0  501    0  0.00000000000E+00  0.00000000000E+00  0.22808617423E+04  0.22808617423E+04  0.50400001928E-02 0.  1.
       -1   -1    0    0    0  501  0.00000000000E+00  0.00000000000E+00 -0.15804107159E+04  0.15804107159E+04  0.50400001928E-02 0. -1.
    10030    2    1    2    0    0  0.00000000000E+00  0.00000000000E+00  0.70045102641E+03  0.38612724582E+04  0.37972086269E+04 0.  0.
        3    1    3    3  502    0 -0.56017785804E+03  0.49176602231E+03 -0.14253917119E+04  0.16085318137E+04  0.10100000352E+00 0. -1.
       -3    1    3    3    0  502  0.56017785804E+03 -0.49176602231E+03  0.21258427383E+04  0.22527406445E+04  0.10100000352E+00 0.  1.
</event>
<event>
 5   0  0.1084315E-07  0.3740562E+04  0.7818609E-02  0.8059032E-01
       -1   -1    0    0    0  501  0.00000000000E+00  0.00000000000E+00  0.17138990888E+04  0.17138990888E+04  0.50400001928E-02 0.  1.
        1   -1    0    0  501    0  0.00000000000E+00  0.00000000000E+00 -0.20409321924E+04  0.20409321924E+04  0.50400001928E-02 0. -1.
    10030    2    1    2    0    0  0.00000000000E+00  0.00000000000E+00 -0.32703310363E+03  0.37548312812E+04  0.37405624309E+04 0.  0.
        4    1    3    3  502    0 -0.17040298295E+04 -0.52401478893E+03 -0.73104128883E+03  0.19268451255E+04  0.12699999809E+01 0. -1.
       -4    1    3    3    0  502  0.17040298295E+04  0.52401478893E+03  0.40400818520E+03  0.18279861557E+04  0.12699999809E+01 0.  1.
</event>
<event>
 5   0  0.3377396E-07  0.3730921E+04  0.7818609E-02  0.8061144E-01
        2   -1    0    0  501    0  0.00000000000E+00  0.00000000000E+00  0.20430845832E+04  0.20430845832E+04  0.25500000920E-02 0.  1.
       -2   -1    0    0    0  501  0.00000000000E+00  0.00000000000E+00 -0.17032789016E+04  0.17032789016E+04  0.25500000920E-02 0. -1.
    10030    2    1    2    0    0  0.00000000000E+00  0.00000000000E+00  0.33980568153E+03  0.37463634848E+04  0.37309209934E+04 0.  0.
        5    1    3    3  502    0  0.16789178367E+04  0.34419716882E+03 -0.56981715854E+03  0.18060870626E+04  0.46999998093E+01 0. -1.
       -5    1    3    3    0  502 -0.16789178367E+04 -0.34419716882E+03  0.90962284007E+03  0.19402764222E+04  0.46999998093E+01 0.  1.
</event>
<event>
 5   0  0.1070988E-07  0.3823269E+04  0.7818609E-02  0.8041180E-01
        1   -1    0    0  501    0  0.00000000000E+00  0.00000000000E+00  0.16334788306E+04  0.16334788306E+04  0.50400001928E-02 0.  1.
       -1   -1    0    0    0  501  0.00000000000E+00  0.00000000000E+00 -0.22371558950E+04  0.22371558950E+04  0.50400001928E-02 0. -1.
    10030    2    1    2    0    0  0.00000000000E+00  0.00000000000E+00 -0.60367706445E+03  0.38706347256E+04  0.38232691745E+04 0.  0.
        2    1    3    3  502    0  0.17689007290E+04  0.41863694523E+03  0.29716727697E+03  0.18418944247E+04  0.25500000920E-02 0.  1.
       -2    1    3    3    0  502 -0.17689007290E+04 -0.41863694523E+03 -0.90084434143E+03  0.20287403009E+04  0.25500000920E-02 0. -1.
</event>
<event>
 5   0  0.1070988E-07  0.3713072E+04  0.7818609E-02  0.8065071E-01
       -1   -1    0    0    0  501  0.00000000000E+00  0.00000000000E+00  0.21113148017E+04  0.21113148017E+04  0.50400001928E-02 0.  1.
        1   -1    0    0  501    0  0.00000000000E+00  0.00000000000E+00 -0.16325023513E+04  0.16325023513E+04  0.50400001928E-02 0. -1.
    10030    2    1    2    0    0  0.00000000000E+00  0.00000000000E+00  0.47881245048E+03  0.37438171530E+04  0.37130722471E+04 0.  0.
        3    1    3    3  502    0 -0.12171408221E+04  0.12938551598E+04 -0.30472272087E+03  0.18023176474E+04  0.10100000352E+00 0. -1.
       -3    1    3    3    0  502  0.12171408221E+04 -0.12938551598E+04  0.78353517135E+03  0.19414995056E+04  0.10100000352E+00 0.  1.
</event>
<event>
 5   0  0.1070988E-07  0.3476389E+04  0.7818609E-02  0.8119408E-01
       -1   -1    0    0    0  501  0.00000000000E+00  0.00000000000E+00  0.11673519179E+04  0.11673519180E+04  0.50400001928E-02 0. -1.
        1   -1    0    0  501    0  0.00000000000E+00  0.00000000000E+00 -0.25881831393E+04  0.25881831393E+04  0.50400001928E-02 0.  1.
    10030    2    1    2    0    0  0.00000000000E+00  0.00000000000E+00 -0.14208312213E+04  0.37555350572E+04  0.34763892484E+04 0.  0.
        2    1    3    3  502    0  0.56248039235E+03  0.38294712815E+03 -0.24383137104E+04  0.25314830525E+04  0.25500000920E-02 0.  1.
       -2    1    3    3    0  502 -0.56248039235E+03 -0.38294712815E+03  0.10174824891E+04  0.12240520047E+04  0.25500000920E-02 0. -1.
</event>
<event>
 5   0  0.3539010E-07  0.3737762E+04  0.7818609E-02  0.8059644E-01
       -2   -1    0    0    0  501  0.00000000000E+00  0.00000000000E+00  0.18287313431E+04  0.18287313431E+04  0.25500000920E-02 0.  1.
        2   -1    0    0  501    0  0.00000000000E+00  0.00000000000E+00 -0.19099121149E+04  0.19099121149E+04  0.25500000920E-02 0. -1.
    10030    2    1    2    0    0  0.00000000000E+00  0.00000000000E+00 -0.81180771792E+02  0.37386434580E+04  0.37377619759E+04 0.  0.
        1    1    3    3  502    0  0.11842911866E+04  0.46732371064E+03 -0.14090428093E+04  0.18990362565E+04  0.50400001928E-02 0. -1.
       -1    1    3    3    0  502 -0.11842911866E+04 -0.46732371064E+03  0.13278620375E+04  0.18396072015E+04  0.50400001928E-02 0.  1.
</event>
<event>
 5   0  0.1085771E-07  0.3809014E+04  0.7818609E-02  0.8044223E-01
       -1   -1    0    0    0  501  0.00000000000E+00  0.00000000000E+00  0.16367433330E+04  0.16367433330E+04  0.50400001928E-02 0. -1.
        1   -1    0    0  501    0  0.00000000000E+00  0.00000000000E+00 -0.22160756557E+04  0.22160756557E+04  0.50400001928E-02 0.  1.
    10030    2    1    2    0    0  0.00000000000E+00  0.00000000000E+00 -0.57933232274E+03  0.38528189887E+04  0.38090140744E+04 0.  0.
        1    1    3    3  502    0  0.70678815778E+03  0.32582245793E+03 -0.20478845588E+04  0.21907854619E+04  0.50400001928E-02 0.  1.
       -1    1    3    3    0  502 -0.70678815778E+03 -0.32582245793E+03  0.14685522360E+04  0.16620335268E+04  0.50400001928E-02 0. -1.
</event>
<event>
 5   0  0.3442126E-07  0.3758618E+04  0.7818609E-02  0.8055094E-01
        2   -1    0    0  501    0  0.00000000000E+00  0.00000000000E+00  0.23099167119E+04  0.23099167119E+04  0.25500000920E-02 0.  1.
       -2   -1    0    0    0  501  0.00000000000E+00  0.00000000000E+00 -0.15289741251E+04  0.15289741251E+04  0.25500000920E-02 0. -1.
    10030    2    1    2    0    0  0.00000000000E+00  0.00000000000E+00  0.78094258679E+03  0.38388908369E+04  0.37586183012E+04 0.  0.
        2    1    3    3  502    0 -0.11179723313E+04 -0.12994945357E+04  0.11771513366E+04  0.20794791298E+04  0.25500000920E-02 0. -1.
       -2    1    3    3    0  502  0.11179723313E+04  0.12994945357E+04 -0.39620874982E+03  0.17594117072E+04  0.25500000920E-02 0.  1.
</event>
<event>
 5   0  0.1085771E-07  0.3793384E+04  0.7818609E-02  0.8047576E-01
       -1   -1    0    0    0  501  0.00000000000E+00  0.00000000000E+00  0.23095805248E+04  0.23095805248E+04  0.50400001928E-02 0.  1.
        1   -1    0    0  501    0  0.00000000000E+00  0.00000000000E+00 -0.15576161232E+04  0.15576161232E+04  0.50400001928E-02 0. -1.
    10030    2    1    2    0    0  0.00000000000E+00  0.00000000000E+00  0.75196440162E+03  0.38671966479E+04  0.37933836416E+04 0.  0.
        1    1    3    3  502    0  0.72042663522E+03 -0.15959319019E+04  0.11191573366E+04  0.20781064256E+04  0.50400001928E-02 0.  1.
       -1    1    3    3    0  502 -0.72042663522E+03  0.15959319019E+04 -0.36719293498E+03  0.17890902223E+04  0.50400001928E-02 0. -1.
</event>
<event>
 5   0  0.1070988E-07  0.3744849E+04  0.7818609E-02  0.8058095E-01
       -1   -1    0    0    0  501  0.00000000000E+00  0.00000000000E+00  0.21301266057E+04  0.21301266057E+04  0.50400001928E-02 0. -1.
        1   -1    0    0  501    0  0.00000000000E+00  0.00000000000E+00 -0.16458988485E+04  0.16458988485E+04  0.50400001928E-02 0.  1.
    10030    2    1    2    0    0  0.00000000000E+00  0.00000000000E+00  0.48422775722E+03  0.37760254542E+04  0.37448486898E+04 0.  0.
        3    1    3    3  502    0 -0.10198684807E+04 -0.16079755048E+03 -0.13329357679E+04  0.16860324261E+04  0.10100000352E+00 0.  1.
       -3    1    3    3    0  502  0.10198684807E+04  0.16079755048E+03  0.18171635252E+04  0.20899930281E+04  0.10100000352E+00 0. -1.
</event>
<event>
 5   0  0.3327241E-07  0.3809481E+04  0.7818609E-02  0.8044123E-01
       -2   -1    0    0    0  501  0.00000000000E+00  0.00000000000E+00  0.13280204919E+04  0.13280204919E+04  0.25500000920E-02 0. -1.
        2   -1    0    0  501    0  0.00000000000E+00  0.00000000000E+00 -0.27319132508E+04  0.27319132508E+04  0.25500000920E-02 0.  1.
    10030    2    1    2    0    0  0.00000000000E+00  0.00000000000E+00 -0.14038927589E+04  0.40599337426E+04  0.38094812135E+04 0.  0.
        3    1    3    3  502    0  0.59757991914E+03 -0.10138686851E+04  0.89418361744E+03  0.14780378284E+04  0.10100000352E+00 0. -1.
       -3    1    3    3    0  502 -0.59757991914E+03  0.10138686851E+04 -0.22980763763E+04  0.25818959142E+04  0.10100000352E+00 0.  1.
</event>
<event>
 5   0  0.3509843E-07  0.3831870E+04  0.7818609E-02  0.8039350E-01
       -2   -1    0    0    0  501  0.00000000000E+00  0.00000000000E+00  0.12916904848E+04  0.12916904848E+04  0.25500000920E-02 0.  1.
        2   -1    0    0  501    0  0.00000000000E+00  0.00000000000E+00 -0.28418633056E+04  0.28418633056E+04  0.25500000920E-02 0. -1.
    10030    2    1    2    0    0  0.00000000000E+00  0.00000000000E+00 -0.15501728208E+04  0.41335537904E+04  0.38318704524E+04 0.  0.
        4    1    3    3  502    0 -0.19009465479E+04  0.23830157592E+03 -0.75295905898E+03  0.20584786559E+04  0.12699999809E+01 0.  1.
       -4    1    3    3    0  502  0.19009465479E+04 -0.23830157592E+03 -0.79721376181E+03  0.20750751346E+04  0.12699999809E+01 0. -1.
</event>
<event>
 5   0  0.1085771E-07  0.3834550E+04  0.7818609E-02  0.8038781E-01
       -1   -1    0    0    0  501  0.00000000000E+00  0.00000000000E+00  0.13814345806E+04  0.13814345806E+04  0.50400001928E-02 0.  1.
        1   -1    0    0  501    0  0.00000000000E+00  0.00000000000E+00 -0.26609602994E+04  0.26609602994E+04  0.50400001928E-02 0. -1.
    10030    2    1    2    0    0  0.00000000000E+00  0.00000000000E+00 -0.12795257188E+04  0.40423948800E+04  0.38345495564E+04 0.  0.
        1    1    3    3  502    0  0.14828399074E+04  0.20518521165E+03  0.62309502223E+03  0.16214692623E+04  0.50400001928E-02 0.  1.
       -1    1    3    3    0  502 -0.14828399074E+04 -0.20518521165E+03 -0.19026207411E+04  0.24209256177E+04  0.50400001928E-02 0. -1.
</event>
<event>
 5   0  0.1070988E-07  0.3821079E+04  0.7818609E-02  0.8041646E-01
        1   -1    0    0  501    0  0.00000000000E+00  0.00000000000E+00  0.12330201272E+04  0.12330201272E+04  0.50400001928E-02 0. -1.
       -1   -1    0    0    0  501  0.00000000000E+00  0.00000000000E+00 -0.29603424925E+04  0.29603424925E+04  0.50400001928E-02 0.  1.
    10030    2    1    2    0    0  0.00000000000E+00  0.00000000000E+00 -0.17273223653E+04  0.41933626197E+04  0.38210793641E+04 0.  0.
        5    1    3    3  502    0  0.71190743561E+03  0.10030599464E+04  0.74068754738E+03  0.14358208753E+04  0.46999998093E+01 0. -1.
       -5    1    3    3    0  502 -0.71190743561E+03 -0.10030599464E+04 -0.24680099127E+04  0.27575417444E+04  0.46999998093E+01 0.  1.
</event>
<event>
 5   0  0.3327241E-07  0.3835823E+04  0.7818609E-02  0.8038511E-01
        2   -1    0    0  501    0  0.00000000000E+00  0.00000000000E+00  0.26385122362E+04  0.26385122362E+04  0.25500000920E-02 0. -1.
       -2   -1    0    0    0  501  0.00000000000E+00  0.00000000000E+00 -0.13941132681E+04  0.13941132681E+04  0.25500000920E-02 0.  1.
    10030    2    1    2    0    0  0.00000000000E+00  0.00000000000E+00  0.12443989681E+04  0.40326255043E+04  0.38358232057E+04 0.  0.
        3    1    3    3  502    0 -0.46648876372E+03  0.16788152250E+04 -0.22039002326E+03  0.17563041021E+04  0.10100000352E+00 0.  1.
       -3    1    3    3    0  502  0.46648876372E+03 -0.16788152250E+04  0.14647889914E+04  0.22763214022E+04  0.10100000352E+00 0. -1.
</event>
<event>
 5   0  0.1084315E-07  0.3744049E+04  0.7818609E-02  0.8058269E-01
        1   -1    0    0  501    0  0.00000000000E+00  0.00000000000E+00  0.16251668247E+04  0.16251668247E+04  0.50400001928E-02 0.  1.
       -1   -1    0    0    0  501  0.00000000000E+00  0.00000000000E+00 -0.21563796214E+04  0.21563796214E+04  0.50400001928E-02 0. -1.
    10030    2    1    2    0    0  0.00000000000E+00  0.00000000000E+00 -0.53121279670E+03  0.37815464462E+04  0.37440494774E+04 0.  0.
        4    1    3    3  502    0  0.10810541462E+04  0.14025576480E+01  0.12780307430E+04  0.16739307713E+04  0.12699999809E+01 0.  1.
       -4    1    3    3    0  502 -0.10810541462E+04 -0.14025576480E+01 -0.18092435397E+04  0.21076156749E+04  0.12699999809E+01 0. -1.
</event>
<event>
 5   0  0.3327241E-07  0.3811628E+04  0.7818609E-02  0.8043664E-01
        2   -1    0    0  501    0  0.00000000000E+00  0.00000000000E+00  0.25956008640E+04  0.25956008640E+04  0.25500000920E-02 0. -1.
       -2   -1    0    0    0  501  0.00000000000E+00  0.00000000000E+00 -0.13993394206E+04  0.13993394206E+04  0.25500000920E-02 0.  1.
    10030    2    1    2    0    0  0.00000000000E+00  0.00000000000E+00  0.11962614434E+04  0.39949402846E+04  0.38116277936E+04 0.  0.
        3    1    3    3  502    0  0.50973351546E+03 -0.15663828996E+04  0.16027391505E+04  0.22982942456E+04  0.10100000352E+00 0. -1.
       -3    1    3    3    0  502 -0.50973351546E+03  0.15663828996E+04 -0.40647770710E+03  0.16966460390E+04  0.10100000352E+00 0.  1.
</event>
<event>
 5   0  0.1070988E-07  0.3800802E+04  0.7818609E-02  0.8045983E-01
        1   -1    0    0  501    0  0.00000000000E+00  0.00000000000E+00  0.25920154539E+04  0.25920154539E+04  0.50400001928E-02 0.  1.
       -1   -1    0    0    0  501  0.00000000000E+00  0.00000000000E+00 -0.13933267017E+04  0.13933267017E+04  0.50400001928E-02 0. -1.
    10030    2    1    2    0    0  0.00000000000E+00  0.00000000000E+00  0.11986887522E+04  0.39853421556E+04  0.38008022012E+04 0.  0.
        2    1    3    3  502    0  0.90194915485E+03  0.10705979496E+04  0.19469825181E+04  0.23980060828E+04  0.25500000920E-02 0.  1.
       -2    1    3    3    0  502 -0.90194915485E+03 -0.10705979496E+04 -0.74829376592E+03  0.15873360727E+04  0.25500000920E-02 0. -1.
</event>
<event>
 5   0  0.3377396E-07  0.3455656E+04  0.7818609E-02  0.8124380E-01
        2   -1    0    0  501    0  0.00000000000E+00  0.00000000000E+00  0.19995297314E+04  0.19995297314E+04  0.25500000920E-02 0. -1.
       -2   -1    0    0    0  501  0.00000000000E+00  0.00000000000E+00 -0.14930454618E+04  0.14930454618E+04  0.25500000920E-02 0.  1.
    10030    2    1    2    0    0  0.00000000000E+00  0.00000000000E+00  0.50648426968E+03  0.34925751932E+04  0.34556555333E+04 0.  0.
        5    1    3    3  502    0 -0.60855562324E+03 -0.51256839376E+03 -0.12968649858E+04  0.15214950497E+04  0.46999998093E+01 0.  1.
       -5    1    3    3    0  502  0.60855562324E+03  0.51256839376E+03  0.18033492555E+04  0.19710801435E+04  0.46999998093E+01 0. -1.
</event>
<event>
 5   0  0.1085771E-07  0.3798854E+04  0.7818609E-02  0.8046401E-01
        1   -1    0    0  501    0  0.00000000000E+00  0.00000000000E+00  0.18485021138E+04  0.18485021138E+04  0.50400001928E-02 0. -1.
       -1   -1    0    0    0  501  0.00000000000E+00  0.00000000000E+00 -0.19517543230E+04  0.19517543230E+04  0.50400001928E-02 0.  1.
    10030    2    1    2    0    0  0.00000000000E+00  0.00000000000E+00 -0.10325220926E+03  0.38002564368E+04  0.37988535069E+04 0.  0.
        1    1    3    3  502    0  0.13451722015E+04 -0.48751092579E+03 -0.13013539828E+04  0.19340830755E+04  0.50400001928E-02 0.  1.
       -1    1    3    3    0  502 -0.13451722015E+04  0.48751092579E+03  0.11981017736E+04  0.18661733613E+04  0.50400001928E-02 0. -1.
</event>
<event>
 5   0  0.1085771E-07  0.3807701E+04  0.7818609E-02  0.8044504E-01
        1   -1    0    0  501    0  0.00000000000E+00  0.00000000000E+00  0.18290703759E+04  0.18290703759E+04  0.50400001928E-02 0. -1.
       -1   -1    0    0    0  501  0.00000000000E+00  0.00000000000E+00 -0.19816882064E+04  0.19816882064E+04  0.50400001928E-02 0.  1.
    10030    2    1    2    0    0  0.00000000000E+00  0.00000000000E+00 -0.15261783053E+03  0.38107585823E+04  0.38077012449E+04 0.  0.
        1    1    3    3  502    0  0.38161108556E+03 -0.18050833535E+04  0.39384936387E+03  0.18865498284E+04  0.50400001928E-02 0. -1.
       -1    1    3    3    0  502 -0.38161108556E+03  0.18050833535E+04 -0.54646719440E+03  0.19242087538E+04  0.50400001928E-02 0.  1.
</event>
<event>
 5   0  0.3377396E-07  0.3147868E+04  0.7818609E-02  0.8202722E-01
        2   -1    0    0  501    0  0.00000000000E+00  0.00000000000E+00  0.18099710975E+04  0.18099710975E+04  0.25500000920E-02 0.  1.
       -2   -1    0    0    0  501  0.00000000000E+00  0.00000000000E+00 -0.13686781950E+04  0.13686781950E+04  0.25500000920E-02 0. -1.
    10030    2    1    2    0    0  0.00000000000E+00  0.00000000000E+00  0.44129290249E+03  0.31786492924E+04  0.31478678337E+04 0.  0.
        5    1    3    3  502    0  0.22790472449E+03  0.12754052917E+04 -0.68176264601E+03  0.14640429013E+04  0.46999998093E+01 0. -1.
       -5    1    3    3    0  502 -0.22790472449E+03 -0.12754052917E+04  0.11230555485E+04  0.17146063911E+04  0.46999998093E+01 0.  1.
</event>
<event>
 5   0  0.1084315E-07  0.3782007E+04  0.7818609E-02  0.8050027E-01
       -1   -1    0    0    0  501  0.00000000000E+00  0.00000000000E+00  0.13889974878E+04  0.13889974878E+04  0.50400001928E-02 0. -1.
        1   -1    0    0  501    0  0.00000000000E+00  0.00000000000E+00 -0.25744430349E+04  0.25744430350E+04  0.50400001928E-02 0.  1.
    10030    2    1    2    0    0  0.00000000000E+00  0.00000000000E+00 -0.11854455472E+04  0.39634405227E+04  0.37820073548E+04 0.  0.
        4    1    3    3  502    0  0.11523746770E+04 -0.17088425492E+03  0.96827276882E+03  0.15148341799E+04  0.12699999809E+01 0. -1.
       -4    1    3    3    0  502 -0.11523746770E+04  0.17088425492E+03 -0.21537183160E+04  0.24486063429E+04  0.12699999809E+01 0.  1.
</event>
<event>
 5   0  0.1085771E-07  0.3304966E+04  0.7818609E-02  0.8161633E-01
       -1   -1    0    0    0  501  0.00000000000E+00  0.00000000000E+00  0.16912155677E+04  0.16912155677E+04  0.50400001928E-02 0. -1.
        1   -1    0    0  501    0  0.00000000000E+00  0.00000000000E+00 -0.16146370250E+04  0.16146370250E+04  0.50400001928E-02 0.  1.
    10030    2    1    2    0    0  0.00000000000E+00  0.00000000000E+00  0.76578542707E+02  0.33058525928E+04  0.33049655205E+04 0.  0.
        1    1    3    3  502    0 -0.10956438211E+03 -0.12574043953E+04  0.11051725267E+04  0.16776401524E+04  0.50400001928E-02 0. -1.
       -1    1    3    3    0  502  0.10956438211E+03  0.12574043953E+04 -0.10285939840E+04  0.16282124404E+04  0.50400001928E-02 0.  1.
</event>
<event>
 5   0  0.3377396E-07  0.3809053E+04  0.7818609E-02  0.8044215E-01
       -2   -1    0    0    0  501  0.00000000000E+00  0.00000000000E+00  0.19248594043E+04  0.19248594043E+04  0.25500000920E-02 0. -1.
        2   -1    0    0  501    0  0.00000000000E+00  0.00000000000E+00 -0.18844080006E+04  0.18844080006E+04  0.25500000920E-02 0.  1.
    10030    2    1    2    0    0  0.00000000000E+00  0.00000000000E+00  0.40451403677E+02  0.38092674048E+04  0.38090526178E+04 0.  0.
        5    1    3    3  502    0  0.83786802907E+03  0.19520876421E+03  0.17194592585E+04  0.19226782173E+04  0.46999998093E+01 0. -1.
       -5    1    3    3    0  502 -0.83786802907E+03 -0.19520876421E+03 -0.16790078548E+04  0.18865891875E+04  0.46999998093E+01 0.  1.
</event>
<event>
 5   0  0.1070988E-07  0.3786187E+04  0.7818609E-02  0.8049126E-01
        1   -1    0    0  501    0  0.00000000000E+00  0.00000000000E+00  0.22273991755E+04  0.22273991755E+04  0.50400001928E-02 0.  1.
       -1   -1    0    0    0  501  0.00000000000E+00  0.00000000000E+00 -0.16089632370E+04  0.16089632370E+04  0.50400001928E-02 0. -1.
    10030    2    1    2    0    0  0.00000000000E+00  0.00000000000E+00  0.61843593851E+03  0.38363624126E+04  0.37861872049E+04 0.  0.
        5    1    3    3  502    0  0.51062342911E+03  0.14963343019E+04 -0.74574672978E+03  0.17481169596E+04  0.46999998093E+01 0. -1.
       -5    1    3    3    0  502 -0.51062342911E+03 -0.14963343019E+04  0.13641826683E+04  0.20882454530E+04  0.46999998093E+01 0.  1.
</event>
<event>
 5   0  0.3327241E-07  0.3768854E+04  0.7818609E-02  0.8052872E-01
        2   -1    0    0  501    0  0.00000000000E+00  0.00000000000E+00  0.24677458209E+04  0.24677458209E+04  0.25500000920E-02 0.  1.
       -2   -1    0    0    0  501  0.00000000000E+00  0.00000000000E+00 -0.14389914729E+04  0.14389914729E+04  0.25500000920E-02 0. -1.
    10030    2    1    2    0    0  0.00000000000E+00  0.00000000000E+00  0.10287543480E+04  0.39067372939E+04  0.37688540400E+04 0.  0.
        3    1    3    3  502    0 -0.74119663413E+02  0.64639071219E+03  0.23476239987E+04  0.24361143501E+04  0.10100000352E+00 0.  1.
       -3    1    3    3    0  502  0.74119663413E+02 -0.64639071219E+03 -0.13188696506E+04  0.14706229438E+04  0.10100000352E+00 0. -1.
</event>
<event>
 5   0  0.1070988E-07  0.3808013E+04  0.7818609E-02  0.8044438E-01
       -1   -1    0    0    0  501  0.00000000000E+00  0.00000000000E+00  0.16690496856E+04  0.16690496857E+04  0.50400001928E-02 0. -1.
        1   -1    0    0  501    0  0.00000000000E+00  0.00000000000E+00 -0.21720383900E+04  0.21720383900E+04  0.50400001928E-02 0.  1.
    10030    2    1    2    0    0  0.00000000000E+00  0.00000000000E+00 -0.50298870430E+03  0.38410880756E+04  0.38080126008E+04 0.  0.
        2    1    3    3  502    0 -0.12956382096E+03  0.18838762402E+04 -0.55248875723E+01  0.18883344504E+04  0.25500000920E-02 0. -1.
       -2    1    3    3    0  502  0.12956382096E+03 -0.18838762402E+04 -0.49746381673E+03  0.19527536253E+04  0.25500000920E-02 0.  1.
</event>
<event>
 5   0  0.1084315E-07  0.3820570E+04  0.7818609E-02  0.8041755E-01
       -1   -1    0    0    0  501  0.00000000000E+00  0.00000000000E+00  0.20365980447E+04  0.20365980447E+04  0.50400001928E-02 0. -1.
        1   -1    0    0  501    0  0.00000000000E+00  0.00000000000E+00 -0.17918062387E+04  0.17918062388E+04  0.50400001928E-02 0.  1.
    10030    2    1    2    0    0  0.00000000000E+00  0.00000000000E+00  0.24479180594E+03  0.38284042834E+04  0.38205701576E+04 0.  0.
        4    1    3    3  502    0 -0.18540628334E+03 -0.11959307552E+03 -0.17789957957E+04  0.17926253506E+04  0.12699999809E+01 0.  1.
       -4    1    3    3    0  502  0.18540628334E+03  0.11959307552E+03  0.20237876017E+04  0.20357789328E+04  0.12699999809E+01 0. -1.
</event>
<event>
 5   0  0.1085771E-07  0.3687446E+04  0.7818609E-02  0.8070750E-01
       -1   -1    0    0    0  501  0.00000000000E+00  0.00000000000E+00  0.18442913983E+04  0.18442913983E+04  0.50400001928E-02 0.  1.
        1   -1    0    0  501    0  0.00000000000E+00  0.00000000000E+00 -0.18431549000E+04  0.18431549000E+04  0.50400001928E-02 0. -1.
    10030    2    1    2    0    0  0.00000000000E+00  0.00000000000E+00  0.11364983267E+01  0.36874462983E+04  0.36874461232E+04 0.  0.
        1    1    3    3  502    0  0.52521986319E+03  0.11262064131E+04 -0.13614589585E+04  0.18433033623E+04  0.50400001928E-02 0. -1.
       -1    1    3    3    0  502 -0.52521986319E+03 -0.11262064131E+04  0.13625954568E+04  0.18441429361E+04  0.50400001928E-02 0.  1.
</event>
<event>
 5   0  0.1084315E-07  0.3816769E+04  0.7818609E-02  0.8042566E-01
       -1   -1    0    0    0  501  0.00000000000E+00  0.00000000000E+00  0.21050886546E+04  0.21050886546E+04  0.50400001928E-02 0.  1.
        1   -1    0    0  501    0  0.00000000000E+00  0.00000000000E+00 -0.17300609990E+04  0.17300609990E+04  0.50400001928E-02 0. -1.
    10030    2    1    2    0    0  0.00000000000E+00  0.00000000000E+00  0.37502765559E+03  0.38351496535E+04  0.38167691995E+04 0.  0.
        4    1    3    3  502    0 -0.10148292096E+04 -0.82320978064E+03 -0.12100029567E+04  0.17809158980E+04  0.12699999809E+01 0. -1.
       -4    1    3    3    0  502  0.10148292096E+04  0.82320978064E+03  0.15850306123E+04  0.20542337555E+04  0.12699999809E+01 0.  1.
</event>
<event>
 5   0  0.3442126E-07  0.3803908E+04  0.7818609E-02  0.8045317E-01
        2   -1    0    0  501    0  0.00000000000E+00  0.00000000000E+00  0.27311795422E+04  0.27311795422E+04  0.25500000920E-02 0.  1.
       -2   -1    0    0    0  501  0.00000000000E+00  0.00000000000E+00 -0.13244931204E+04  0.13244931204E+04  0.25500000920E-02 0. -1.
    10030    2    1    2    0    0  0.00000000000E+00  0.00000000000E+00  0.14066864218E+04  0.40556726626E+04  0.38039077350E+04 0.  0.
        2    1    3    3  502    0  0.28753254267E+03 -0.12215504169E+04  0.22271194482E+04  0.25563492369E+04  0.25500000920E-02 0.  1.
       -2    1    3    3    0  502 -0.28753254267E+03  0.12215504169E+04 -0.82043302642E+03  0.14993234257E+04  0.25500000920E-02 0. -1.
</event>
<event>
 5   0  0.3539010E-07  0.3817139E+04  0.7818609E-02  0.8042487E-01
       -2   -1    0    0    0  501  0.00000000000E+00  0.00000000000E+00  0.16889658380E+04  0.16889658380E+04  0.25500000920E-02 0.  1.
        2   -1    0    0  501    0  0.00000000000E+00  0.00000000000E+00 -0.21567268089E+04  0.21567268089E+04  0.25500000920E-02 0. -1.
    10030    2    1    2    0    0  0.00000000000E+00  0.00000000000E+00 -0.46776097091E+03  0.38456926468E+04  0.38171391916E+04 0.  0.
        1    1    3    3  502    0 -0.43964941290E+03 -0.17389461923E+04 -0.89099591650E+03  0.20027728751E+04  0.50400001928E-02 0.  1.
       -1    1    3    3    0  502  0.43964941290E+03  0.17389461923E+04  0.42323494559E+03  0.18429197718E+04  0.50400001928E-02 0. -1.
</event>
<event>
 5   0  0.3327241E-07  0.3784324E+04  0.7818609E-02  0.8049527E-01
        2   -1    0    0  501    0  0.00000000000E+00  0.00000000000E+00  0.23251661387E+04  0.23251661387E+04  0.25500000920E-02 0. -1.
       -2   -1    0    0    0  501  0.00000000000E+00  0.00000000000E+00 -0.15397939109E+04  0.15397939109E+04  0.25500000920E-02 0.  1.
    10030    2    1    2    0    0  0.00000000000E+00  0.00000000000E+00  0.78537222784E+03  0.38649600497E+04  0.37843238034E+04 0.  0.
        3    1    3    3  502    0  0.78318943497E+03 -0.73074058354E+03  0.19857003852E+04  0.22561856133E+04  0.10100000352E+00 0. -1.
       -3    1    3    3    0  502 -0.78318943497E+03  0.73074058354E+03 -0.12003281574E+04  0.16087744364E+04  0.10100000352E+00 0.  1.
</event>
<event>
 5   0  0.3539010E-07  0.3817820E+04  0.7818609E-02  0.8042342E-01
       -2   -1    0    0    0  501  0.00000000000E+00  0.00000000000E+00  0.23601635878E+04  0.23601635878E+04  0.25500000920E-02 0.  1.
        2   -1    0    0  501    0  0.00000000000E+00  0.00000000000E+00 -0.15439343183E+04  0.15439343183E+04  0.25500000920E-02 0. -1.
    10030    2    1    2    0    0  0.00000000000E+00  0.00000000000E+00  0.81622926954E+03  0.39040979062E+04  0.38178200901E+04 0.  0.
        1    1    3    3  502    0  0.72566299052E+03 -0.16549671751E+04  0.10371869375E+04  0.20835690221E+04  0.50400001928E-02 0.  1.
       -1    1    3    3    0  502 -0.72566299052E+03  0.16549671751E+04 -0.22095766795E+03  0.18205288840E+04  0.50400001928E-02 0. -1.
</event>
<event>
 5   0  0.3509843E-07  0.3798676E+04  0.7818609E-02  0.8046439E-01
        2   -1    0    0  501    0  0.00000000000E+00  0.00000000000E+00  0.14831176625E+04  0.14831176625E+04  0.25500000920E-02 0. -1.
       -2   -1    0    0    0  501  0.00000000000E+00  0.00000000000E+00 -0.24323660748E+04  0.24323660748E+04  0.25500000920E-02 0.  1.
    10030    2    1    2    0    0  0.00000000000E+00  0.00000000000E+00 -0.94924841225E+03  0.39154837373E+04  0.37986761311E+04 0.  0.
        4    1    3    3  502    0  0.60782406180E+03  0.17070894408E+04 -0.10612275960E+04  0.20999547787E+04  0.12699999809E+01 0.  1.
       -4    1    3    3    0  502 -0.60782406180E+03 -0.17070894408E+04  0.11197918371E+03  0.18155289586E+04  0.12699999809E+01 0. -1.
</event>
<event>
 5   0  0.1070988E-07  0.3686040E+04  0.7818609E-02  0.8071063E-01
        1   -1    0    0  501    0  0.00000000000E+00  0.00000000000E+00  0.23239048151E+04  0.23239048151E+04  0.50400001928E-02 0.  1.
       -1   -1    0    0    0  501  0.00000000000E+00  0.00000000000E+00 -0.14616447292E+04  0.14616447292E+04  0.50400001928E-02 0. -1.
    10030    2    1    2    0    0  0.00000000000E+00  0.00000000000E+00  0.86226008591E+03  0.37855495443E+04  0.36860402733E+04 0.  0.
        3    1    3    3  502    0 -0.86242331227E+03 -0.84179368328E+03  0.18631667222E+04  0.22189594002E+04  0.10100000352E+00 0.  1.
       -3    1    3    3    0  502  0.86242331227E+03  0.84179368328E+03 -0.10009066363E+04  0.15665901441E+04  0.10100000352E+00 0. -1.
</event>
<event>
 5   0  0.1085771E-07  0.3767385E+04  0.7818609E-02  0.8053190E-01
       -1   -1    0    0    0  501  0.00000000000E+00  0.00000000000E+00  0.12338444083E+04  0.12338444083E+04  0.50400001928E-02 0. -1.
        1   -1    0    0  501    0  0.00000000000E+00  0.00000000000E+00 -0.28758055753E+04  0.28758055753E+04  0.50400001928E-02 0.  1.
    10030    2    1    2    0    0  0.00000000000E+00  0.00000000000E+00 -0.16419611670E+04  0.41096499836E+04  0.37673845720E+04 0.  0.
        1    1    3    3  502    0  0.18820006292E+04  0.47466738604E+02 -0.89097513080E+03  0.20827904704E+04  0.50400001928E-02 0.  1.
       -1    1    3    3    0  502 -0.18820006292E+04 -0.47466738604E+02 -0.75098603617E+03  0.20268595132E+04  0.50400001928E-02 0. -1.
</event>
<event>
 5   0  0.1085771E-07  0.3880266E+04  0.7818609E-02  0.8029146E-01
       -1   -1    0    0    0  501  0.00000000000E+00  0.00000000000E+00  0.13707157192E+04  0.13707157192E+04  0.50400001928E-02 0.  1.
        1   -1    0    0  501    0  0.00000000000E+00  0.00000000000E+00 -0.27460954303E+04  0.27460954303E+04  0.50400001928E-02 0. -1.
    10030    2    1    2    0    0  0.00000000000E+00  0.00000000000E+00 -0.13753797112E+04  0.41168111495E+04  0.38802660593E+04 0.  0.
        1    1    3    3  502    0  0.77412312664E+03  0.13572058678E+04  0.53257300416E+03  0.16507296531E+04  0.50400001928E-02 0.  1.
       -1    1    3    3    0  502 -0.77412312664E+03 -0.13572058678E+04 -0.19079527153E+04  0.24660814964E+04  0.50400001928E-02 0. -1.
</event>
<event>
 5   0  0.1084315E-07  0.3699607E+04  0.7818609E-02  0.8068049E-01
        1   -1    0    0  501    0  0.00000000000E+00  0.00000000000E+00  0.20189284358E+04  0.20189284358E+04  0.50400001928E-02 0. -1.
       -1   -1    0    0    0  501  0.00000000000E+00  0.00000000000E+00 -0.16948459552E+04  0.16948459552E+04  0.50400001928E-02 0.  1.
    10030    2    1    2    0    0  0.00000000000E+00  0.00000000000E+00  0.32408248056E+03  0.37137743910E+04  0.36996068404E+04 0.  0.
        4    1    3    3  502    0  0.10455471518E+03 -0.80523676454E+03  0.18304629469E+04  0.20024819970E+04  0.12699999809E+01 0. -1.
       -4    1    3    3    0  502 -0.10455471518E+03  0.80523676454E+03 -0.15063804664E+04  0.17112923940E+04  0.12699999809E+01 0.  1.
</event>
<event>
 5   0  0.1070988E-07  0.3807438E+04  0.7818609E-02  0.8044561E-01
        1   -1    0    0  501    0  0.00000000000E+00  0.00000000000E+00  0.25599283707E+04  0.25599283707E+04  0.50400001928E-02 0. -1.
       -1   -1    0    0    0  501  0.00000000000E+00  0.00000000000E+00 -0.14157215863E+04  0.14157215863E+04  0.50400001928E-02 0.  1.
    10030    2    1    2    0    0  0.00000000000E+00  0.00000000000E+00  0.11442067845E+04  0.39756499570E+04  0.38074379069E+04 0.  0.
        3    1    3    3  502    0  0.21946767369E+03  0.33817078034E+03  0.25148449246E+04  0.25469531879E+04  0.10100000352E+00 0. -1.
       -3    1    3    3    0  502 -0.21946767369E+03 -0.33817078034E+03 -0.13706381402E+04  0.14286967691E+04  0.10100000352E+00 0.  1.
</event>
<event>
 5   0  0.3509843E-07  0.3808555E+04  0.7818609E-02  0.8044321E-01
        2   -1    0    0  501    0  0.00000000000E+00  0.00000000000E+00  0.12352883700E+04  0.12352883700E+04  0.25500000920E-02 0. -1.
       -2   -1    0    0    0  501  0.00000000000E+00  0.00000000000E+00 -0.29355678859E+04  0.29355678859E+04  0.25500000920E-02 0.  1.
    10030    2    1    2    0    0  0.00000000000E+00  0.00000000000E+00 -0.17002795159E+04  0.41708562560E+04  0.38085550378E+04 0.  0.
        4    1    3    3  502    0 -0.14547982133E+04 -0.10084442138E+04 -0.16189741478E+04  0.23988489902E+04  0.12699999809E+01 0.  1.
       -4    1    3    3    0  502  0.14547982133E+04  0.10084442138E+04 -0.81305368080E+02  0.17720072657E+04  0.12699999809E+01 0. -1.
</event>
<event>
 5   0  0.1070988E-07  0.3293172E+04  0.7818609E-02  0.8164635E-01
       -1   -1    0    0    0  501  0.00000000000E+00  0.00000000000E+00  0.15241649364E+04  0.15241649364E+04  0.50400001928E-02 0.  1.
        1   -1    0    0  501    0  0.00000000000E+00  0.00000000000E+00 -0.17788402809E+04  0.17788402809E+04  0.50400001928E-02 0. -1.
    10030    2    1    2    0    0  0.00000000000E+00  0.00000000000E+00 -0.25467534446E+03  0.33030052173E+04  0.32931723208E+04 0.  0.
        2    1    3    3  502    0  0.87970499257E+03  0.11166141469E+03  0.12642114213E+04  0.15442084261E+04  0.25500000920E-02 0.  1.
       -2    1    3    3    0  502 -0.87970499257E+03 -0.11166141469E+03 -0.15188867658E+04  0.17587967912E+04  0.25500000920E-02 0. -1.
</event>
<event>
 5   0  0.1070988E-07  0.3799503E+04  0.7818609E-02  0.8046261E-01
        1   -1    0    0  501    0  0.00000000000E+00  0.00000000000E+00  0.30996866045E+04  0.30996866045E+04  0.50400001928E-02 0. -1.
       -1   -1    0    0    0  501  0.00000000000E+00  0.00000000000E+00 -0.11643294053E+04  0.11643294053E+04  0.50400001928E-02 0.  1.
    10030    2    1    2    0    0  0.00000000000E+00  0.00000000000E+00  0.19353571992E+04  0.42640160098E+04  0.37995032627E+04 0.  0.
        3    1    3    3  502    0 -0.12629027499E+04 -0.13514537741E+04  0.14538961258E+04  0.23526930557E+04  0.10100000352E+00 0.  1.
       -3    1    3    3    0  502  0.12629027499E+04  0.13514537741E+04  0.48146107335E+03  0.19113229541E+04  0.10100000352E+00 0. -1.
</event>
<event>
 5   0  0.3377396E-07  0.3787804E+04  0.7818609E-02  0.8048777E-01
       -2   -1    0    0    0  501  0.00000000000E+00  0.00000000000E+00  0.18940581981E+04  0.18940581981E+04  0.25500000920E-02 0. -1.
        2   -1    0    0  501    0  0.00000000000E+00  0.00000000000E+00 -0.18937454919E+04  0.18937454919E+04  0.25500000920E-02 0.  1.
    10030    2    1    2    0    0  0.00000000000E+00  0.00000000000E+00  0.31270619536E+00  0.37878036899E+04  0.37878036770E+04 0.  0.
        5    1    3    3  502    0  0.12021590067E+03 -0.22981188646E+02  0.18900934183E+04  0.18940578707E+04  0.46999998093E+01 0. -1.
       -5    1    3    3    0  502 -0.12021590067E+03  0.22981188646E+02 -0.18897807121E+04  0.18937458192E+04  0.46999998093E+01 0.  1.
</event>
<event>
 5   0  0.1070988E-07  0.3724741E+04  0.7818609E-02  0.8062501E-01
       -1   -1    0    0    0  501  0.00000000000E+00  0.00000000000E+00  0.14003060849E+04  0.14003060849E+04  0.50400001928E-02 0. -1.
        1   -1    0    0  501    0  0.00000000000E+00  0.00000000000E+00 -0.24769035769E+04  0.24769035769E+04  0.50400001928E-02 0.  1.
    10030    2    1    2    0    0  0.00000000000E+00  0.00000000000E+00 -0.10765974920E+04  0.38772096619E+04  0.37247406087E+04 0.  0.
        2    1    3    3  502    0 -0.39071710363E+03 -0.36503797965E+03  0.13186853308E+04  0.14229699868E+04  0.25500000920E-02 0. -1.
       -2    1    3    3    0  502  0.39071710363E+03  0.36503797965E+03 -0.23952828228E+04  0.24542396751E+04  0.25500000920E-02 0.  1.
</event>
<event>
 5   0  0.1070988E-07  0.3744138E+04  0.7818609E-02  0.8058250E-01
       -1   -1    0    0    0  501  0.00000000000E+00  0.00000000000E+00  0.20003076564E+04  0.20003076564E+04  0.50400001928E-02 0.  1.
        1   -1    0    0  501    0  0.00000000000E+00  0.00000000000E+00 -0.17520519559E+04  0.17520519559E+04  0.50400001928E-02 0. -1.
    10030    2    1    2    0    0  0.00000000000E+00  0.00000000000E+00  0.24825570049E+03  0.37523596124E+04  0.37441383211E+04 0.  0.
        5    1    3    3  502    0 -0.12149776146E+04 -0.88081147047E+03  0.12457910771E+04  0.19503889223E+04  0.46999998093E+01 0.  1.
       -5    1    3    3    0  502  0.12149776146E+04  0.88081147047E+03 -0.99753537660E+03  0.18019706901E+04  0.46999998093E+01 0. -1.
</event>
<event>
 5   0  0.1070988E-07  0.3792811E+04  0.7818609E-02  0.8047699E-01
       -1   -1    0    0    0  501  0.00000000000E+00  0.00000000000E+00  0.24205664740E+04  0.24205664740E+04  0.50400001928E-02 0. -1.
        1   -1    0    0  501    0  0.00000000000E+00  0.00000000000E+00 -0.14857489303E+04  0.14857489303E+04  0.50400001928E-02 0.  1.
    10030    2    1    2    0    0  0.00000000000E+00  0.00000000000E+00  0.93481754368E+03  0.39063154044E+04  0.37928111208E+04 0.  0.
        5    1    3    3  502    0  0.14682695422E+04 -0.26390126562E+03  0.16732903034E+04  0.22417363484E+04  0.46999998093E+01 0. -1.
       -5    1    3    3    0  502 -0.14682695422E+04  0.26390126562E+03 -0.73847275967E+03  0.16645790559E+04  0.46999998093E+01 0.  1.
</event>
<event>
 5   0  0.3442126E-07  0.3833411E+04  0.7818609E-02  0.8039023E-01
        2   -1    0    0  501    0  0.00000000000E+00  0.00000000000E+00  0.16157316838E+04  0.16157316838E+04  0.25500000920E-02 0.  1.
       -2   -1    0    0    0  501  0.00000000000E+00  0.00000000000E+00 -0.22737438611E+04  0.22737438611E+04  0.25500000920E-02 0. -1.
    10030    2    1    2    0    0  0.00000000000E+00  0.00000000000E+00 -0.65801217727E+03  0.38894755449E+04  0.38334110123E+04 0.  0.
        2    1    3    3  502    0 -0.11587455286E+04 -0.14410746093E+04  0.18272401601E+03  0.18581644963E+04  0.25500000920E-02 0.  1.
       -2    1    3    3    0  502  0.11587455286E+04  0.14410746093E+04 -0.84073619329E+03  0.20313110486E+04  0.25500000920E-02 0. -1.
</event>
<event>
 5   0  0.3442126E-07  0.3743856E+04  0.7818609E-02  0.8058312E-01
       -2   -1    0    0    0  501  0.00000000000E+00  0.00000000000E+00  0.18073271923E+04  0.18073271923E+04  0.25500000920E-02 0.  1.
        2   -1    0    0  501    0  0.00000000000E+00  0.00000000000E+00 -0.19388378130E+04  0.19388378130E+04  0.25500000920E-02 0. -1.
    10030    2    1    2    0    0  0.00000000000E+00  0.00000000000E+00 -0.13151062066E+03  0.37461650053E+04  0.37438559272E+04 0.  0.
        2    1    3    3  502    0 -0.10238371595E+03 -0.57353662911E+03 -0.18458093965E+04  0.19355720132E+04  0.25500000920E-02 0. -1.
       -2    1    3    3    0  502  0.10238371595E+03  0.57353662911E+03  0.17142987758E+04  0.18105929921E+04  0.25500000920E-02 0.  1.
</event>
<event>
 5   0  0.3377396E-07  0.3612516E+04  0.7818609E-02  0.8087631E-01
       -2   -1    0    0    0  501  0.00000000000E+00  0.00000000000E+00  0.12924047507E+04  0.12924047507E+04  0.25500000920E-02 0. -1.
        2   -1    0    0  501    0  0.00000000000E+00  0.00000000000E+00 -0.25244162437E+04  0.25244162437E+04  0.25500000920E-02 0.  1.
    10030    2    1    2    0    0  0.00000000000E+00  0.00000000000E+00 -0.12320114931E+04  0.38168209944E+04  0.36125157694E+04 0.  0.
        5    1    3    3  502    0  0.14087471702E+04 -0.10401909693E+04 -0.10837381843E+04  0.20593873808E+04  0.46999998093E+01 0.  1.
       -5    1    3    3    0  502 -0.14087471702E+04  0.10401909693E+04 -0.14827330877E+03  0.17574336136E+04  0.46999998093E+01 0. -1.
</event>
<event>
 5   0  0.3509843E-07  0.3794782E+04  0.7818609E-02  0.8047276E-01
       -2   -1    0    0    0  501  0.00000000000E+00  0.00000000000E+00  0.12796212800E+04  0.12796212800E+04  0.25500000920E-02 0. -1.
        2   -1    0    0  501    0  0.00000000000E+00  0.00000000000E+00 -0.28134052208E+04  0.28134052208E+04  0.25500000920E-02 0.  1.
    10030    2    1    2    0    0  0.00000000000E+00  0.00000000000E+00 -0.15337839407E+04  0.40930265008E+04  0.37947823072E+04 0.  0.
        4    1    3    3  502    0  0.12335822104E+04  0.75446327180E+03  0.55813322071E+03  0.15499852268E+04  0.12699999809E+01 0. -1.
       -4    1    3    3    0  502 -0.12335822104E+04 -0.75446327180E+03 -0.20919171614E+04  0.25430412740E+04  0.12699999809E+01 0.  1.
</event>
<event>
 5   0  0.1070988E-07  0.3803616E+04  0.7818609E-02  0.8045379E-01
        1   -1    0    0  501    0  0.00000000000E+00  0.00000000000E+00  0.16505186984E+04  0.16505186984E+04  0.50400001928E-02 0.  1.
       -1   -1    0    0    0  501  0.00000000000E+00  0.00000000000E+00 -0.21913554842E+04  0.21913554843E+04  0.50400001928E-02 0. -1.
    10030    2    1    2    0    0  0.00000000000E+00  0.00000000000E+00 -0.54083678587E+03  0.38418741826E+04  0.38036157543E+04 0.  0.
        3    1    3    3  502    0  0.24765518064E+03 -0.42368636457E+03 -0.21262973478E+04  0.21821969768E+04  0.10100000352E+00 0. -1.
       -3    1    3    3    0  502 -0.24765518064E+03  0.42368636457E+03  0.15854605619E+04  0.16596772059E+04  0.10100000352E+00 0.  1.
</event>
<event>
 5   0  0.3509843E-07  0.3791093E+04  0.7818609E-02  0.8048069E-01
        2   -1    0    0  501    0  0.00000000000E+00  0.00000000000E+00  0.30633520816E+04  0.30633520816E+04  0.25500000920E-02 0.  1.
       -2   -1    0    0    0  501  0.00000000000E+00  0.00000000000E+00 -0.11729295001E+04  0.11729295001E+04  0.25500000920E-02 0. -1.
    10030    2    1    2    0    0  0.00000000000E+00  0.00000000000E+00  0.18904225815E+04  0.42362815816E+04  0.37910927320E+04 0.  0.
        4    1    3    3  502    0 -0.13988710162E+04 -0.91326383356E+03 -0.55624155434E+02  0.16715222431E+04  0.12699999809E+01 0. -1.
       -4    1    3    3    0  502  0.13988710162E+04  0.91326383356E+03  0.19460467369E+04  0.25647593386E+04  0.12699999809E+01 0.  1.
</event>
<event>
 5   0  0.1084315E-07  0.3732013E+04  0.7818609E-02  0.8060904E-01
       -1   -1    0    0    0  501  0.00000000000E+00  0.00000000000E+00  0.19857535680E+04  0.19857535680E+04  0.50400001928E-02 0.  1.
        1   -1    0    0  501    0  0.00000000000E+00  0.00000000000E+00 -0.17534801742E+04  0.17534801742E+04  0.50400001928E-02 0. -1.
    10030    2    1    2    0    0  0.00000000000E+00  0.00000000000E+00  0.23227339385E+03  0.37392337422E+04  0.37320126004E+04 0.  0.
        4    1    3    3  502    0 -0.99655961423E+03 -0.20620592727E+03  0.16832365642E+04  0.19669618433E+04  0.12699999809E+01 0.  1.
       -4    1    3    3    0  502  0.99655961423E+03  0.20620592727E+03 -0.14509631703E+04  0.17722718989E+04  0.12699999809E+01 0. -1.
</event>
<event>
 5   0  0.3539010E-07  0.3831859E+04  0.7818609E-02  0.8039352E-01
       -2   -1    0    0    0  501  0.00000000000E+00  0.00000000000E+00  0.18969311183E+04  0.18969311183E+04  0.25500000920E-02 0. -1.
        2   -1    0    0  501    0  0.00000000000E+00  0.00000000000E+00 -0.19351182528E+04  0.19351182528E+04  0.25500000920E-02 0.  1.
    10030    2    1    2    0    0  0.00000000000E+00  0.00000000000E+00 -0.38187134457E+02  0.38320493711E+04  0.38318590952E+04 0.  0.
        1    1    3    3  502    0  0.15374753173E+04 -0.38172147171E+03 -0.10967575812E+04  0.19267638219E+04  0.50400001928E-02 0.  1.
       -1    1    3    3    0  502 -0.15374753173E+04  0.38172147171E+03  0.10585704468E+04  0.19052855492E+04  0.50400001928E-02 0. -1.
</event>
<event>
 5   0  0.1070988E-07  0.3605951E+04  0.7818609E-02  0.8089130E-01
        1   -1    0    0  501    0  0.00000000000E+00  0.00000000000E+00  0.25713835062E+04  0.25713835062E+04  0.50400001928E-02 0. -1.
       -1   -1    0    0    0  501  0.00000000000E+00  0.00000000000E+00 -0.12641912259E+04  0.12641912259E+04  0.50400001928E-02 0.  1.
    10030    2    1    2    0    0  0.00000000000E+00  0.00000000000E+00  0.13071922803E+04  0.38355747322E+04  0.36059508966E+04 0.  0.
        3    1    3    3  502    0 -0.14544382986E+04 -0.10707008045E+03  0.17812293221E+04  0.23020931073E+04  0.10100000352E+00 0. -1.
       -3    1    3    3    0  502  0.14544382986E+04  0.10707008045E+03 -0.47403704181E+03  0.15334816249E+04  0.10100000352E+00 0.  1.
</event>
<event>
 5   0  0.3327241E-07  0.3815745E+04  0.7818609E-02  0.8042785E-01
        2   -1    0    0  501    0  0.00000000000E+00  0.00000000000E+00  0.21394675366E+04  0.21394675366E+04  0.25500000920E-02 0. -1.
       -2   -1    0    0    0  501  0.00000000000E+00  0.00000000000E+00 -0.17013471871E+04  0.17013471871E+04  0.25500000920E-02 0.  1.
    10030    2    1    2    0    0  0.00000000000E+00  0.00000000000E+00  0.43812034952E+03  0.38408147237E+04  0.38157447898E+04 0.  0.
        3    1    3    3  502    0 -0.24537598441E+02 -0.79073316275E+03  0.19665876869E+04  0.21197471945E+04  0.10100000352E+00 0. -1.
       -3    1    3    3    0  502  0.24537598441E+02  0.79073316275E+03 -0.15284673373E+04  0.17210675292E+04  0.10100000352E+00 0.  1.
</event>
<event>
 5   0  0.1070988E-07  0.3792427E+04  0.7818609E-02  0.8047782E-01
       -1   -1    0    0    0  501  0.00000000000E+00  0.00000000000E+00  0.21788320622E+04  0.21788320622E+04  0.50400001928E-02 0.  1.
        1   -1    0    0  501    0  0.00000000000E+00  0.00000000000E+00 -0.16502537182E+04  0.16502537182E+04  0.50400001928E-02 0. -1.
    10030    2    1    2    0    0  0.00000000000E+00  0.00000000000E+00  0.52857834401E+03  0.38290857804E+04  0.37924270392E+04 0.  0.
        5    1    3    3  502    0 -0.17775320563E+03  0.11185757740E+04  0.17997774061E+04  0.21265062346E+04  0.46999998093E+01 0.  1.
       -5    1    3    3    0  502  0.17775320563E+03 -0.11185757740E+04 -0.12711990620E+04  0.17025795458E+04  0.46999998093E+01 0. -1.
</event>
<event>
 5   0  0.3539010E-07  0.4042427E+04  0.7818609E-02  0.7996042E-01
       -2   -1    0    0    0  501  0.00000000000E+00  0.00000000000E+00  0.16121012554E+04  0.16121012554E+04  0.25500000920E-02 0.  1.
        2   -1    0    0  501    0  0.00000000000E+00  0.00000000000E+00 -0.25341485784E+04  0.25341485784E+04  0.25500000920E-02 0. -1.
    10030    2    1    2    0    0  0.00000000000E+00  0.00000000000E+00 -0.92204732297E+03  0.41462498338E+04  0.40424270456E+04 0.  0.
        1    1    3    3  502    0 -0.21396452994E+02  0.72805433783E+03  0.14728132009E+04  0.16430762769E+04  0.50400001928E-02 0.  1.
       -1    1    3    3    0  502  0.21396452994E+02 -0.72805433783E+03 -0.23948605239E+04  0.25031735569E+04  0.50400001928E-02 0. -1.
</event>
<event>
 5   0  0.3327241E-07  0.3829874E+04  0.7818609E-02  0.8039774E-01
        2   -1    0    0  501    0  0.00000000000E+00  0.00000000000E+00  0.25616064506E+04  0.25616064506E+04  0.25500000920E-02 0. -1.
       -2   -1    0    0    0  501  0.00000000000E+00  0.00000000000E+00 -0.14315174773E+04  0.14315174773E+04  0.25500000920E-02 0.  1.
    10030    2    1    2    0    0  0.00000000000E+00  0.00000000000E+00  0.11300889733E+04  0.39931239279E+04  0.38298743604E+04 0.  0.
        3    1    3    3  502    0  0.18620812734E+04 -0.32172600366E+03  0.88830895134E+03  0.20880486329E+04  0.10100000352E+00 0.  1.
       -3    1    3    3    0  502 -0.18620812734E+04  0.32172600366E+03  0.24178002194E+03  0.19050752950E+04  0.10100000352E+00 0. -1.
</event>
<event>
 5   0  0.1084315E-07  0.3788573E+04  0.7818609E-02  0.8048611E-01
        1   -1    0    0  501    0  0.00000000000E+00  0.00000000000E+00  0.28096692054E+04  0.28096692054E+04  0.50400001928E-02 0.  1.
       -1   -1    0    0    0  501  0.00000000000E+00  0.00000000000E+00 -0.12771333564E+04  0.12771333565E+04  0.50400001928E-02 0. -1.
    10030    2    1    2    0    0  0.00000000000E+00  0.00000000000E+00  0.15325358489E+04  0.40868025618E+04  0.37885734850E+04 0.  0.
        4    1    3    3  502    0  0.11709586444E+04  0.65705588186E+02 -0.83839877452E+03  0.14416572024E+04  0.12699999809E+01 0. -1.
       -4    1    3    3    0  502 -0.11709586444E+04 -0.65705588186E+02  0.23709346234E+04  0.26451453595E+04  0.12699999809E+01 0.  1.
</event>
<event>
 5   0  0.1084315E-07  0.3898018E+04  0.7818609E-02  0.8025442E-01
        1   -1    0    0  501    0  0.00000000000E+00  0.00000000000E+00  0.20718949683E+04  0.20718949683E+04  0.50400001928E-02 0.  1.
       -1   -1    0    0    0  501  0.00000000000E+00  0.00000000000E+00 -0.18334111572E+04  0.18334111572E+04  0.50400001928E-02 0. -1.
    10030    2    1    2    0    0  0.00000000000E+00  0.00000000000E+00  0.23848381109E+03  0.39053061255E+04  0.38980176251E+04 0.  0.
        4    1    3    3  502    0  0.16913024133E+04  0.33868569493E+03  0.10283645745E+04  0.20081701034E+04  0.12699999809E+01 0. -1.
       -4    1    3    3    0  502 -0.16913024133E+04 -0.33868569493E+03 -0.78988076342E+03  0.18971360221E+04  0.12699999809E+01 0.  1.
</event>
<event>
 5   0  0.3509843E-07  0.3806814E+04  0.7818609E-02  0.8044694E-01
        2   -1    0    0  501    0  0.00000000000E+00  0.00000000000E+00  0.24245636234E+04  0.24245636234E+04  0.25500000920E-02 0. -1.
       -2   -1    0    0    0  501  0.00000000000E+00  0.00000000000E+00 -0.14942720605E+04  0.14942720605E+04  0.25500000920E-02 0.  1.
    10030    2    1    2    0    0  0.00000000000E+00  0.00000000000E+00  0.93029156296E+03  0.39188356839E+04  0.38068137235E+04 0.  0.
        4    1    3    3  502    0 -0.33378416719E+03  0.18508690163E+04  0.16356050627E+03  0.18878245781E+04  0.12699999809E+01 0.  1.
       -4    1    3    3    0  502  0.33378416719E+03 -0.18508690163E+04  0.76673105669E+03  0.20310111058E+04  0.12699999809E+01 0. -1.
</event>
<event>
 5   0  0.3539010E-07  0.3682318E+04  0.7818609E-02  0.8071892E-01
        2   -1    0    0  501    0  0.00000000000E+00  0.00000000000E+00  0.21432243848E+04  0.21432243848E+04  0.25500000920E-02 0. -1.
       -2   -1    0    0    0  501  0.00000000000E+00  0.00000000000E+00 -0.15816669907E+04  0.15816669907E+04  0.25500000920E-02 0.  1.
    10030    2    1    2    0    0  0.00000000000E+00  0.00000000000E+00  0.56155739409E+03  0.37248913756E+04  0.36823184345E+04 0.  0.
        1    1    3    3  502    0 -0.80393856568E+03 -0.80864423873E+03  0.17430517564E+04  0.20828951361E+04  0.50400001928E-02 0. -1.
       -1    1    3    3    0  502  0.80393856568E+03  0.80864423873E+03 -0.11814943623E+04  0.16419962395E+04  0.50400001928E-02 0.  1.
</event>
<event>
 5   0  0.1085771E-07  0.3810842E+04  0.7818609E-02  0.8043832E-01
       -1   -1    0    0    0  501  0.00000000000E+00  0.00000000000E+00  0.15020113658E+04  0.15020113658E+04  0.50400001928E-02 0.  1.
        1   -1    0    0  501    0  0.00000000000E+00  0.00000000000E+00 -0.24171780251E+04  0.24171780252E+04  0.50400001928E-02 0. -1.
    10030    2    1    2    0    0  0.00000000000E+00  0.00000000000E+00 -0.91516665935E+03  0.39191893910E+04  0.38108418319E+04 0.  0.
        1    1    3    3  502    0 -0.56267333057E+03  0.95941278061E+03 -0.20486816087E+04  0.23311307330E+04  0.50400001928E-02 0. -1.
       -1    1    3    3    0  502  0.56267333057E+03 -0.95941278061E+03  0.11335149494E+04  0.15880586579E+04  0.50400001928E-02 0.  1.
</event>
<event>
 5   0  0.3377396E-07  0.3821575E+04  0.7818609E-02  0.8041541E-01
       -2   -1    0    0    0  501  0.00000000000E+00  0.00000000000E+00  0.15322788048E+04  0.15322788048E+04  0.25500000920E-02 0. -1.
        2   -1    0    0  501    0  0.00000000000E+00  0.00000000000E+00 -0.23827965238E+04  0.23827965238E+04  0.25500000920E-02 0.  1.
    10030    2    1    2    0    0  0.00000000000E+00  0.00000000000E+00 -0.85051771906E+03  0.39150753286E+04  0.38215748636E+04 0.  0.
        5    1    3    3  502    0 -0.15666791636E+04 -0.44456020266E+02 -0.15449902094E+04  0.22007900346E+04  0.46999998093E+01 0.  1.
       -5    1    3    3    0  502  0.15666791636E+04  0.44456020266E+02  0.69447249035E+03  0.17142852940E+04  0.46999998093E+01 0. -1.
</event>
<event>
 5   0  0.1084315E-07  0.3798788E+04  0.7818609E-02  0.8046415E-01
       -1   -1    0    0    0  501  0.00000000000E+00  0.00000000000E+00  0.26801296571E+04  0.26801296571E+04  0.50400001928E-02 0.  1.
        1   -1    0    0  501    0  0.00000000000E+00  0.00000000000E+00 -0.13460905702E+04  0.13460905702E+04  0.50400001928E-02 0. -1.
    10030    2    1    2    0    0  0.00000000000E+00  0.00000000000E+00  0.13340390869E+04  0.40262202273E+04  0.37987878374E+04 0.  0.
        4    1    3    3  502    0  0.34821096213E+03 -0.15047252942E+04 -0.50472219290E+03  0.16248677454E+04  0.12699999809E+01 0. -1.
       -4    1    3    3    0  502 -0.34821096213E+03  0.15047252942E+04  0.18387612798E+04  0.24013524819E+04  0.12699999809E+01 0.  1.
</event>
<event>
 5   0  0.1070988E-07  0.3769404E+04  0.7818609E-02  0.8052753E-01
        1   -1    0    0  501    0  0.00000000000E+00  0.00000000000E+00  0.23310712680E+04  0.23310712680E+04  0.50400001928E-02 0. -1.
       -1   -1    0    0    0  501  0.00000000000E+00  0.00000000000E+00 -0.15238064211E+04  0.15238064211E+04  0.50400001928E-02 0.  1.
    10030    2    1    2    0    0  0.00000000000E+00  0.00000000000E+00  0.80726484689E+03  0.38548776891E+04  0.37694038607E+04 0.  0.
        5    1    3    3  502    0 -0.95444929160E+03 -0.13665377228E+04 -0.49590399603E+03  0.17390634437E+04  0.46999998093E+01 0.  1.
       -5    1    3    3    0  502  0.95444929160E+03  0.13665377228E+04  0.13031688429E+04  0.21158142454E+04  0.46999998093E+01 0. -1.
</event>
<event>
 5   0  0.1070988E-07  0.3702213E+04  0.7818609E-02  0.8067472E-01
        1   -1    0    0  501    0  0.00000000000E+00  0.00000000000E+00  0.14565793649E+04  0.14565793649E+04  0.50400001928E-02 0.  1.
       -1   -1    0    0    0  501  0.00000000000E+00  0.00000000000E+00 -0.23524943109E+04  0.23524943109E+04  0.50400001928E-02 0. -1.
    10030    2    1    2    0    0  0.00000000000E+00  0.00000000000E+00 -0.89591494605E+03  0.38090736758E+04  0.37022126732E+04 0.  0.
        2    1    3    3  502    0  0.76319029748E+03  0.78457972634E+02 -0.21812131981E+04  0.23122080571E+04  0.25500000920E-02 0. -1.
       -2    1    3    3    0  502 -0.76319029748E+03 -0.78457972634E+02  0.12852982521E+04  0.14968656187E+04  0.25500000920E-02 0.  1.
</event>
<event>
 5   0  0.3509843E-07  0.3580954E+04  0.7818609E-02  0.8094868E-01
        2   -1    0    0  501    0  0.00000000000E+00  0.00000000000E+00  0.29675728221E+04  0.29675728221E+04  0.25500000920E-02 0. -1.
       -2   -1    0    0    0  501  0.00000000000E+00  0.00000000000E+00 -0.10802795732E+04  0.10802795732E+04  0.25500000920E-02 0.  1.
    10030    2    1    2    0    0  0.00000000000E+00  0.00000000000E+00  0.18872932489E+04  0.40478523953E+04  0.35809542313E+04 0.  0.
        4    1    3    3  502    0  0.17678356578E+04 -0.26258176975E+03  0.10654692174E+04  0.20807254420E+04  0.12699999809E+01 0. -1.
       -4    1    3    3    0  502 -0.17678356578E+04  0.26258176975E+03  0.82182403157E+03  0.19671269534E+04  0.12699999809E+01 0.  1.
</event>
<event>
 5   0  0.1085771E-07  0.3825594E+04  0.7818609E-02  0.8040685E-01
        1   -1    0    0  501    0  0.00000000000E+00  0.00000000000E+00  0.18226027172E+04  0.18226027172E+04  0.50400001928E-02 0.  1.
       -1   -1    0    0    0  501  0.00000000000E+00  0.00000000000E+00 -0.20074547441E+04  0.20074547441E+04  0.50400001928E-02 0. -1.
    10030    2    1    2    0    0  0.00000000000E+00  0.00000000000E+00 -0.18485202693E+03  0.38300574613E+04  0.38255940565E+04 0.  0.
        1    1    3    3  502    0  0.53575505233E+03  0.18347268017E+04 -0.16692087851E+03  0.19186241145E+04  0.50400001928E-02 0. -1.
       -1    1    3    3    0  502 -0.53575505233E+03 -0.18347268017E+04 -0.17931148421E+02  0.19114333468E+04  0.50400001928E-02 0.  1.
</event>
<event>
 5   0  0.1070988E-07  0.3806504E+04  0.7818609E-02  0.8044761E-01
       -1   -1    0    0    0  501  0.00000000000E+00  0.00000000000E+00  0.16080356790E+04  0.16080356790E+04  0.50400001928E-02 0.  1.
        1   -1    0    0  501    0  0.00000000000E+00  0.00000000000E+00 -0.22526663319E+04  0.22526663319E+04  0.50400001928E-02 0. -1.
    10030    2    1    2    0    0  0.00000000000E+00  0.00000000000E+00 -0.64463065290E+03  0.38607020110E+04  0.38065038209E+04 0.  0.
        5    1    3    3  502    0  0.12632976366E+04 -0.13570252792E+04 -0.75844631270E+03  0.20031728399E+04  0.46999998093E+01 0.  1.
       -5    1    3    3    0  502 -0.12632976366E+04  0.13570252792E+04  0.11381565979E+03  0.18575291711E+04  0.46999998093E+01 0. -1.
</event>
<event>
 5   0  0.3442126E-07  0.3787845E+04  0.7818609E-02  0.8048768E-01
        2   -1    0    0  501    0  0.00000000000E+00  0.00000000000E+00  0.17556703082E+04  0.17556703082E+04  0.25500000920E-02 0. -1.
       -2   -1    0    0    0  501  0.00000000000E+00  0.00000000000E+00 -0.20430614053E+04  0.20430614053E+04  0.25500000920E-02 0.  1.
    10030    2    1    2    0    0  0.00000000000E+00  0.00000000000E+00 -0.28739109712E+03  0.37987317136E+04  0.37878449003E+04 0.  0.
        2    1    3    3  502    0  0.12263851168E+04 -0.16151280353E+03 -0.15819846995E+04  0.20081788839E+04  0.25500000920E-02 0.  1.
       -2    1    3    3    0  502 -0.12263851168E+04  0.16151280353E+03  0.12945936024E+04  0.17905528296E+04  0.25500000920E-02 0. -1.
</event>
<event>
 5   0  0.3509843E-07  0.3611477E+04  0.7818609E-02  0.8087868E-01
       -2   -1    0    0    0  501  0.00000000000E+00  0.00000000000E+00  0.29623003896E+04  0.29623003896E+04  0.25500000920E-02 0. -1.
        2   -1    0    0  501    0  0.00000000000E+00  0.00000000000E+00 -0.11007295266E+04  0.11007295266E+04  0.25500000920E-02 0.  1.
    10030    2    1    2    0    0  0.00000000000E+00  0.00000000000E+00  0.18615708631E+04  0.40630299162E+04  0.36114769862E+04 0.  0.
        4    1    3    3  502    0 -0.18786935745E+03 -0.10864596815E+04 -0.67805089021E+03  0.12943894922E+04  0.12699999809E+01 0.  1.
       -4    1    3    3    0  502  0.18786935745E+03  0.10864596815E+04  0.25396217533E+04  0.27686404240E+04  0.12699999809E+01 0. -1.
</event>
<event>
 5   0  0.1070988E-07  0.3815708E+04  0.7818609E-02  0.8042792E-01
       -1   -1    0    0    0  501  0.00000000000E+00  0.00000000000E+00  0.33155355121E+04  0.33155355121E+04  0.50400001928E-02 0.  1.
        1   -1    0    0  501    0  0.00000000000E+00  0.00000000000E+00 -0.10978339574E+04  0.10978339575E+04  0.50400001928E-02 0. -1.
    10030    2    1    2    0    0  0.00000000000E+00  0.00000000000E+00  0.22177015546E+04  0.44133694695E+04  0.38157083077E+04 0.  0.
        5    1    3    3  502    0  0.48457308935E+03 -0.61239359348E+03 -0.90450210552E+03  0.11949824857E+04  0.46999998093E+01 0. -1.
       -5    1    3    3    0  502 -0.48457308935E+03  0.61239359348E+03  0.31222036601E+04  0.32183869838E+04  0.46999998093E+01 0.  1.
</event>
<event>
 5   0  0.3509843E-07  0.3145289E+04  0.7818609E-02  0.8203418E-01
       -2   -1    0    0    0  501  0.00000000000E+00  0.00000000000E+00  0.12970594418E+04  0.12970594418E+04  0.25500000920E-02 0.  1.
        2   -1    0    0  501    0  0.00000000000E+00  0.00000000000E+00 -0.19067823030E+04  0.19067823030E+04  0.25500000920E-02 0. -1.
    10030    2    1    2    0    0  0.00000000000E+00  0.00000000000E+00 -0.60972286125E+03  0.32038417448E+04  0.31452885334E+04 0.  0.
        4    1    3    3  502    0 -0.12291475008E+04  0.43413621012E+03  0.59124905463E+03  0.14313821590E+04  0.12699999809E+01 0.  1.
       -4    1    3    3    0  502  0.12291475008E+04 -0.43413621012E+03 -0.12009719159E+04  0.17724595858E+04  0.12699999809E+01 0. -1.
</event>
<event>
 5   0  0.1070988E-07  0.3800596E+04  0.7818609E-02  0.8046027E-01
        1   -1    0    0  501    0  0.00000000000E+00  0.00000000000E+00  0.24060837005E+04  0.24060837005E+04  0.50400001928E-02 0. -1.
       -1   -1    0    0    0  501  0.00000000000E+00  0.00000000000E+00 -0.15008337679E+04  0.15008337680E+04  0.50400001928E-02 0.  1.
    10030    2    1    2    0    0  0.00000000000E+00  0.00000000000E+00  0.90524993256E+03  0.39069174685E+04  0.38005955671E+04 0.  0.
        2    1    3    3  502    0 -0.84585209883E+03 -0.16086953482E+04 -0.11766051324E+03  0.18213210845E+04  0.25500000920E-02 0.  1.
       -2    1    3    3    0  502  0.84585209883E+03  0.16086953482E+04  0.10229104458E+04  0.20855963839E+04  0.25500000920E-02 0. -1.
</event>
<event>
 5   0  0.3377396E-07  0.3792151E+04  0.7818609E-02  0.8047841E-01
        2   -1    0    0  501    0  0.00000000000E+00  0.00000000000E+00  0.14733837261E+04  0.14733837261E+04  0.25500000920E-02 0. -1.
       -2   -1    0    0    0  501  0.00000000000E+00  0.00000000000E+00 -0.24400318419E+04  0.24400318419E+04  0.25500000920E-02 0.  1.
    10030    2    1    2    0    0  0.00000000000E+00  0.00000000000E+00 -0.96664811587E+03  0.39134155680E+04  0.37921514774E+04 0.  0.
        5    1    3    3  502    0 -0.15380887606E+04 -0.92211292100E+03 -0.11187004211E+04  0.21136513423E+04  0.46999998093E+01 0. -1.
       -5    1    3    3    0  502  0.15380887606E+04  0.92211292100E+03  0.15205230522E+03  0.17997642257E+04  0.46999998093E+01 0.  1.
</event>
<event>
 5   0  0.1084315E-07  0.3809921E+04  0.7818609E-02  0.8044029E-01
        1   -1    0    0  501    0  0.00000000000E+00  0.00000000000E+00  0.12275825352E+04  0.12275825352E+04  0.50400001928E-02 0.  1.
       -1   -1    0    0    0  501  0.00000000000E+00  0.00000000000E+00 -0.29561146923E+04  0.29561146923E+04  0.50400001928E-02 0. -1.
    10030    2    1    2    0    0  0.00000000000E+00  0.00000000000E+00 -0.17285321571E+04  0.41836972275E+04  0.38099211374E+04 0.  0.
        4    1    3    3  502    0  0.43591878106E+03  0.15619318934E+04 -0.19619419300E+04  0.25453632694E+04  0.12699999809E+01 0. -1.
       -4    1    3    3    0  502 -0.43591878106E+03 -0.15619318934E+04  0.23340977291E+03  0.16383339581E+04  0.12699999809E+01 0.  1.
</event>
<event>
 5   0  0.3327241E-07  0.3802958E+04  0.7818609E-02  0.8045520E-01
       -2   -1    0    0    0  501  0.00000000000E+00  0.00000000000E+00  0.20641076435E+04  0.20641076435E+04  0.25500000920E-02 0.  1.
        2   -1    0    0  501    0  0.00000000000E+00  0.00000000000E+00 -0.17516634286E+04  0.17516634286E+04  0.25500000920E-02 0. -1.
    10030    2    1    2    0    0  0.00000000000E+00  0.00000000000E+00  0.31244421488E+03  0.38157710721E+04  0.38029577288E+04 0.  0.
        3    1    3    3  502    0  0.10099966966E+04 -0.16110068266E+04  0.16988927902E+03  0.19090046359E+04  0.10100000352E+00 0.  1.
       -3    1    3    3    0  502 -0.10099966966E+04  0.16110068266E+04  0.14255493586E+03  0.19067664362E+04  0.10100000352E+00 0. -1.
</event>
<event>
 5   0  0.1070988E-07  0.3813903E+04  0.7818609E-02  0.8043178E-01
        1   -1    0    0  501    0  0.00000000000E+00  0.00000000000E+00  0.29106583561E+04  0.29106583561E+04  0.50400001928E-02 0. -1.
       -1   -1    0    0    0  501  0.00000000000E+00  0.00000000000E+00 -0.12493613438E+04  0.12493613438E+04  0.50400001928E-02 0.  1.
    10030    2    1    2    0    0  0.00000000000E+00  0.00000000000E+00  0.16612970123E+04  0.41600196999E+04  0.38139030062E+04 0.  0.
        2    1    3    3  502    0  0.62925104207E+03 -0.17081416477E+04  0.14503251210E+04  0.23274766850E+04  0.25500000920E-02 0.  1.
       -2    1    3    3    0  502 -0.62925104207E+03  0.17081416477E+04  0.21097189139E+03  0.18325430149E+04  0.25500000920E-02 0. -1.
</event>
<event>
 5   0  0.3442126E-07  0.3267324E+04  0.7818609E-02  0.8171260E-01
        2   -1    0    0  501    0  0.00000000000E+00  0.00000000000E+00  0.14617044462E+04  0.14617044462E+04  0.25500000920E-02 0. -1.
       -2   -1    0    0    0  501  0.00000000000E+00  0.00000000000E+00 -0.18258492603E+04  0.18258492603E+04  0.25500000920E-02 0.  1.
    10030    2    1    2    0    0  0.00000000000E+00  0.00000000000E+00 -0.36414481409E+03  0.32875537065E+04  0.32673242764E+04 0.  0.
        2    1    3    3  502    0 -0.86683473813E+03  0.48103761341E+03  0.11244478328E+04  0.14990605650E+04  0.25500000920E-02 0. -1.
       -2    1    3    3    0  502  0.86683473813E+03 -0.48103761341E+03 -0.14885926469E+04  0.17884931415E+04  0.25500000920E-02 0.  1.
</event>
<event>
 5   0  0.3509843E-07  0.3830821E+04  0.7818609E-02  0.8039573E-01
        2   -1    0    0  501    0  0.00000000000E+00  0.00000000000E+00  0.18761918138E+04  0.18761918138E+04  0.25500000920E-02 0.  1.
       -2   -1    0    0    0  501  0.00000000000E+00  0.00000000000E+00 -0.19554492961E+04  0.19554492961E+04  0.25500000920E-02 0. -1.
    10030    2    1    2    0    0  0.00000000000E+00  0.00000000000E+00 -0.79257482302E+02  0.38316411098E+04  0.38308213018E+04 0.  0.
        4    1    3    3  502    0 -0.66375054016E+02 -0.10741870250E+04  0.15451701631E+04  0.18830389954E+04  0.12699999809E+01 0.  1.
       -4    1    3    3    0  502  0.66375054016E+02  0.10741870250E+04 -0.16244276454E+04  0.19486021144E+04  0.12699999809E+01 0. -1.
</event>
<event>
 5   0  0.3377396E-07  0.3482500E+04  0.7818609E-02  0.8117950E-01
       -2   -1    0    0    0  501  0.00000000000E+00  0.00000000000E+00  0.11402248484E+04  0.11402248484E+04  0.25500000920E-02 0.  1.
        2   -1    0    0  501    0  0.00000000000E+00  0.00000000000E+00 -0.26590819199E+04  0.26590819199E+04  0.25500000920E-02 0. -1.
    10030    2    1    2    0    0  0.00000000000E+00  0.00000000000E+00 -0.15188570714E+04  0.37993067683E+04  0.34824998372E+04 0.  0.
        5    1    3    3  502    0 -0.91054050566E+01  0.56600646654E+03 -0.25558849976E+04  0.26178266634E+04  0.46999998093E+01 0. -1.
       -5    1    3    3    0  502  0.91054050566E+01 -0.56600646654E+03  0.10370279262E+04  0.11814801049E+04  0.46999998093E+01 0.  1.
</event>
<event>
 5   0  0.1085771E-07  0.3790332E+04  0.7818609E-02  0.8048233E-01
        1   -1    0    0  501    0  0.00000000000E+00  0.00000000000E+00  0.11805798903E+04  0.11805798903E+04  0.50400001928E-02 0. -1.
       -1   -1    0    0    0  501  0.00000000000E+00  0.00000000000E+00 -0.30422800639E+04  0.30422800639E+04  0.50400001928E-02 0.  1.
    10030    2    1    2    0    0  0.00000000000E+00  0.00000000000E+00 -0.18617001737E+04  0.42228599542E+04  0.37903322620E+04 0.  0.
        1    1    3    3  502    0  0.62501987050E+03 -0.11640454970E+04 -0.24445702190E+04  0.27787722673E+04  0.50400001928E-02 0. -1.
       -1    1    3    3    0  502 -0.62501987050E+03  0.11640454970E+04  0.58287004540E+03  0.14440876869E+04  0.50400001928E-02 0.  1.
</event>
<event>
 5   0  0.1070988E-07  0.3588903E+04  0.7818609E-02  0.8093038E-01
        1   -1    0    0  501    0  0.00000000000E+00  0.00000000000E+00  0.22330488615E+04  0.22330488615E+04  0.50400001928E-02 0. -1.
       -1   -1    0    0    0  501  0.00000000000E+00  0.00000000000E+00 -0.14420002627E+04  0.14420002627E+04  0.50400001928E-02 0.  1.
    10030    2    1    2    0    0  0.00000000000E+00  0.00000000000E+00  0.79104859878E+03  0.36750491243E+04  0.35889034788E+04 0.  0.
        2    1    3    3  502    0 -0.13471186090E+04 -0.59238127803E+03 -0.65596953284E+03  0.16111921528E+04  0.25500000920E-02 0.  1.
       -2    1    3    3    0  502  0.13471186090E+04  0.59238127803E+03  0.14470181316E+04  0.20638569714E+04  0.25500000920E-02 0. -1.
</event>
<event>
 5   0  0.3377396E-07  0.3793224E+04  0.7818609E-02  0.8047610E-01
        2   -1    0    0  501    0  0.00000000000E+00  0.00000000000E+00  0.19466831374E+04  0.19466831374E+04  0.25500000920E-02 0. -1.
       -2   -1    0    0    0  501  0.00000000000E+00  0.00000000000E+00 -0.18478290888E+04  0.18478290888E+04  0.25500000920E-02 0.  1.
    10030    2    1    2    0    0  0.00000000000E+00  0.00000000000E+00  0.98854048590E+02  0.37945122262E+04  0.37932243424E+04 0.  0.
        5    1    3    3  502    0  0.70373040946E+03 -0.13207390305E+04 -0.11160984108E+04  0.18668920238E+04  0.46999998093E+01 0.  1.
       -5    1    3    3    0  502 -0.70373040946E+03  0.13207390305E+04  0.12149524594E+04  0.19276202024E+04  0.46999998093E+01 0. -1.
</event>
<event>
 5   0  0.1070988E-07  0.3781811E+04  0.7818609E-02  0.8050069E-01
       -1   -1    0    0    0  501  0.00000000000E+00  0.00000000000E+00  0.24557526944E+04  0.24557526945E+04  0.50400001928E-02 0. -1.
        1   -1    0    0  501    0  0.00000000000E+00  0.00000000000E+00 -0.14559788427E+04  0.14559788427E+04  0.50400001928E-02 0.  1.
    10030    2    1    2    0    0  0.00000000000E+00  0.00000000000E+00  0.99977385178E+03  0.39117315371E+04  0.37818111883E+04 0.  0.
        3    1    3    3  502    0  0.16080022607E+04 -0.74573567281E+03 -0.18132058316E+03  0.17817604015E+04  0.10100000352E+00 0. -1.
       -3    1    3    3    0  502 -0.16080022607E+04  0.74573567281E+03  0.11810944349E+04  0.21299711356E+04  0.10100000352E+00 0.  1.
</event>
<event>
 5   0  0.3539010E-07  0.3854366E+04  0.7818609E-02  0.8034588E-01
       -2   -1    0    0    0  501  0.00000000000E+00  0.00000000000E+00  0.28143840023E+04  0.28143840023E+04  0.25500000920E-02 0. -1.
        2   -1    0    0  501    0  0.00000000000E+00  0.00000000000E+00 -0.13196616199E+04  0.13196616199E+04  0.25500000920E-02 0.  1.
    10030    2    1    2    0    0  0.00000000000E+00  0.00000000000E+00  0.14947223823E+04  0.41340456222E+04  0.38543661224E+04 0.  0.
        1    1    3    3  502    0  0.93253817075E+03  0.11753146214E+04  0.20446921836E+04  0.25360910916E+04  0.50400001928E-02 0. -1.
       -1    1    3    3    0  502 -0.93253817075E+03 -0.11753146214E+04 -0.54996980128E+03  0.15979545305E+04  0.50400001928E-02 0.  1.
</event>
<event>
 5   0  0.1085771E-07  0.3816507E+04  0.7818609E-02  0.8042622E-01
        1   -1    0    0  501    0  0.00000000000E+00  0.00000000000E+00  0.26550302771E+04  0.26550302771E+04  0.50400001928E-02 0.  1.
       -1   -1    0    0    0  501  0.00000000000E+00  0.00000000000E+00 -0.13715218388E+04  0.13715218388E+04  0.50400001928E-02 0. -1.
    10030    2    1    2    0    0  0.00000000000E+00  0.00000000000E+00  0.12835084383E+04  0.40265521159E+04  0.38165073079E+04 0.  0.
        1    1    3    3  502    0 -0.12133249310E+04 -0.12762019396E+04 -0.13395420907E+03  0.17660103367E+04  0.50400001928E-02 0. -1.
       -1    1    3    3    0  502  0.12133249310E+04  0.12762019396E+04  0.14174626474E+04  0.22605417792E+04  0.50400001928E-02 0.  1.
</event>
<event>
 5   0  0.3539010E-07  0.3794244E+04  0.7818609E-02  0.8047391E-01
       -2   -1    0    0    0  501  0.00000000000E+00  0.00000000000E+00  0.19226063389E+04  0.19226063389E+04  0.25500000920E-02 0.  1.
        2   -1    0    0  501    0  0.00000000000E+00  0.00000000000E+00 -0.18719759322E+04  0.18719759322E+04  0.25500000920E-02 0. -1.
    10030    2    1    2    0    0  0.00000000000E+00  0.00000000000E+00  0.50630406772E+02  0.37945822711E+04  0.37942444800E+04 0.  0.
        1    1    3    3  502    0 -0.14842423671E+04 -0.92049062446E+03  0.76618774245E+03  0.19071764603E+04  0.50400001928E-02 0. -1.
       -1    1    3    3    0  502  0.14842423671E+04  0.92049062446E+03 -0.71555733567E+03  0.18874058108E+04  0.50400001928E-02 0.  1.
</event>
<event>
 5   0  0.3327241E-07  0.3858297E+04  0.7818609E-02  0.8033759E-01
       -2   -1    0    0    0  501  0.00000000000E+00  0.00000000000E+00  0.16071903548E+04  0.16071903548E+04  0.25500000920E-02 0. -1.
        2   -1    0    0  501    0  0.00000000000E+00  0.00000000000E+00 -0.23156023744E+04  0.23156023744E+04  0.25500000920E-02 0.  1.
    10030    2    1    2    0    0  0.00000000000E+00  0.00000000000E+00 -0.70841201954E+03  0.39227927292E+04  0.38582969309E+04 0.  0.
        3    1    3    3  502    0 -0.18659784404E+04  0.48945924981E+03 -0.36738001673E+03  0.19637754413E+04  0.10100000352E+00 0. -1.
       -3    1    3    3    0  502  0.18659784404E+04 -0.48945924981E+03 -0.34103200281E+03  0.19590172879E+04  0.10100000352E+00 0.  1.
</event>
<event>
 5   0  0.3377396E-07  0.3784397E+04  0.7818609E-02  0.8049512E-01
        2   -1    0    0  501    0  0.00000000000E+00  0.00000000000E+00  0.23195638848E+04  0.23195638848E+04  0.25500000920E-02 0.  1.
       -2   -1    0    0    0  501  0.00000000000E+00  0.00000000000E+00 -0.15435724272E+04  0.15435724273E+04  0.25500000920E-02 0. -1.
    10030    2    1    2    0    0  0.00000000000E+00  0.00000000000E+00  0.77599145751E+03  0.38631363120E+04  0.37843968374E+04 0.  0.
        5    1    3    3  502    0  0.87081200193E+03  0.14160144537E+04  0.13106727032E+04  0.21169070600E+04  0.46999998093E+01 0. -1.
       -5    1    3    3    0  502 -0.87081200193E+03 -0.14160144537E+04 -0.53468124570E+03  0.17462292520E+04  0.46999998093E+01 0.  1.
</event>
<event>
 5   0  0.3327241E-07  0.3786608E+04  0.7818609E-02  0.8049035E-01
       -2   -1    0    0    0  501  0.00000000000E+00  0.00000000000E+00  0.13959233346E+04  0.13959233346E+04  0.25500000920E-02 0.  1.
        2   -1    0    0  501    0  0.00000000000E+00  0.00000000000E+00 -0.25679067297E+04  0.25679067297E+04  0.25500000920E-02 0. -1.
    10030    2    1    2    0    0  0.00000000000E+00  0.00000000000E+00 -0.11719833951E+04  0.39638300643E+04  0.37866084693E+04 0.  0.
        3    1    3    3  502    0 -0.67819244768E+03 -0.47481667403E+03 -0.23683872558E+04  0.25089149196E+04  0.10100000352E+00 0. -1.
       -3    1    3    3    0  502  0.67819244768E+03  0.47481667403E+03  0.11964038607E+04  0.14549151447E+04  0.10100000352E+00 0.  1.
</event>
<event>
 5   0  0.1084315E-07  0.3451638E+04  0.7818609E-02  0.8125348E-01
        1   -1    0    0  501    0  0.00000000000E+00  0.00000000000E+00  0.23155764101E+04  0.23155764101E+04  0.50400001928E-02 0.  1.
       -1   -1    0    0    0  501  0.00000000000E+00  0.00000000000E+00 -0.12862678059E+04  0.12862678059E+04  0.50400001928E-02 0. -1.
    10030    2    1    2    0    0  0.00000000000E+00  0.00000000000E+00  0.10293086042E+04  0.36018442161E+04  0.34516380972E+04 0.  0.
        4    1    3    3  502    0  0.16524751181E+04  0.53512643946E+02  0.10310764296E+04  0.19485014333E+04  0.12699999809E+01 0.  1.
       -4    1    3    3    0  502 -0.16524751181E+04 -0.53512643946E+02 -0.17678254223E+01  0.16533427827E+04  0.12699999809E+01 0. -1.
</event>
<event>
 5   0  0.1070988E-07  0.3597347E+04  0.7818609E-02  0.8091100E-01
       -1   -1    0    0    0  501  0.00000000000E+00  0.00000000000E+00  0.12870321650E+04  0.12870321650E+04  0.50400001928E-02 0.  1.
        1   -1    0    0  501    0  0.00000000000E+00  0.00000000000E+00 -0.25137107026E+04  0.25137107026E+04  0.50400001928E-02 0. -1.
    10030    2    1    2    0    0  0.00000000000E+00  0.00000000000E+00 -0.12266785376E+04  0.38007428676E+04  0.35973470935E+04 0.  0.
        3    1    3    3  502    0  0.87384403993E+02 -0.15295017188E+04  0.38239898431E+03  0.15789998529E+04  0.10100000352E+00 0. -1.
       -3    1    3    3    0  502 -0.87384403993E+02  0.15295017188E+04 -0.16090775219E+04  0.22217430147E+04  0.10100000352E+00 0.  1.
</event>
<event>
 5   0  0.1070988E-07  0.3408396E+04  0.7818609E-02  0.8135849E-01
       -1   -1    0    0    0  501  0.00000000000E+00  0.00000000000E+00  0.20319486816E+04  0.20319486816E+04  0.50400001928E-02 0. -1.
        1   -1    0    0  501    0  0.00000000000E+00  0.00000000000E+00 -0.14293128734E+04  0.14293128734E+04  0.50400001928E-02 0.  1.
    10030    2    1    2    0    0  0.00000000000E+00  0.00000000000E+00  0.60263580814E+03  0.34612615550E+04  0.34083957568E+04 0.  0.
        2    1    3    3  502    0 -0.15423174825E+03  0.12125770479E+04  0.15072381315E+04  0.19405920010E+04  0.25500000920E-02 0. -1.
       -2    1    3    3    0  502  0.15423174825E+03 -0.12125770479E+04 -0.90460232337E+03  0.15206695541E+04  0.25500000920E-02 0.  1.
</event>
<event>
 5   0  0.1085771E-07  0.3547123E+04  0.7818609E-02  0.8102712E-01
        1   -1    0    0  501    0  0.00000000000E+00  0.00000000000E+00  0.29948790502E+04  0.29948790502E+04  0.50400001928E-02 0.  1.
       -1   -1    0    0    0  501  0.00000000000E+00  0.00000000000E+00 -0.10502995686E+04  0.10502995686E+04  0.50400001928E-02 0. -1.
    10030    2    1    2    0    0  0.00000000000E+00  0.00000000000E+00  0.19445794815E+04  0.40451786188E+04  0.35471228761E+04 0.  0.
        1    1    3    3  502    0  0.66172431060E+03  0.40855320459E+03  0.27900656093E+04  0.28964220839E+04  0.50400001928E-02 0. -1.
       -1    1    3    3    0  502 -0.66172431060E+03 -0.40855320459E+03 -0.84548612773E+03  0.11487565349E+04  0.50400001928E-02 0.  1.
</event>
<event>
 5   0  0.3539010E-07  0.4022000E+04  0.7818609E-02  0.8000123E-01
        2   -1    0    0  501    0  0.00000000000E+00  0.00000000000E+00  0.17308881919E+04  0.17308881919E+04  0.25500000920E-02 0.  1.
       -2   -1    0    0    0  501  0.00000000000E+00  0.00000000000E+00 -0.23364421339E+04  0.23364421339E+04  0.25500000920E-02 0. -1.
    10030    2    1    2    0    0  0.00000000000E+00  0.00000000000E+00 -0.60555394206E+03  0.40673303258E+04  0.40219995528E+04 0.  0.
        1    1    3    3  502    0 -0.73825240554E+03 -0.18400098125E+04  0.37868746256E+02  0.19829490075E+04  0.50400001928E-02 0. -1.
       -1    1    3    3    0  502  0.73825240554E+03  0.18400098125E+04 -0.64342268832E+03  0.20843813183E+04  0.50400001928E-02 0.  1.
</event>
<event>
 5   0  0.1070988E-07  0.3765502E+04  0.7818609E-02  0.8053599E-01
       -1   -1    0    0    0  501  0.00000000000E+00  0.00000000000E+00  0.13306391342E+04  0.13306391342E+04  0.50400001928E-02 0. -1.
        1   -1    0    0  501    0  0.00000000000E+00  0.00000000000E+00 -0.26639465848E+04  0.26639465848E+04  0.50400001928E-02 0.  1.
    10030    2    1    2    0    0  0.00000000000E+00  0.00000000000E+00 -0.13333074506E+04  0.39945857190E+04  0.37655021324E+04 0.  0.
        3    1    3    3  502    0 -0.13128390815E+03 -0.14510657011E+04  0.59833631348E+03  0.15750661852E+04  0.10100000352E+00 0. -1.
       -3    1    3    3    0  502  0.13128390815E+03  0.14510657011E+04 -0.19316437641E+04  0.24195195339E+04  0.10100000352E+00 0.  1.
</event>
<event>
 5   0  0.3442126E-07  0.3668895E+04  0.7818609E-02  0.8074890E-01
       -2   -1    0    0    0  501  0.00000000000E+00  0.00000000000E+00  0.13003900346E+04  0.13003900346E+04  0.25500000920E-02 0.  1.
        2   -1    0    0  501    0  0.00000000000E+00  0.00000000000E+00 -0.25878373906E+04  0.25878373906E+04  0.25500000920E-02 0. -1.
    10030    2    1    2    0    0  0.00000000000E+00  0.00000000000E+00 -0.12874473560E+04  0.38882274253E+04  0.36688951765E+04 0.  0.
        2    1    3    3  502    0  0.72395083827E+02  0.69984856695E+03 -0.24391603099E+04  0.25386082964E+04  0.25500000920E-02 0. -1.
       -2    1    3    3    0  502 -0.72395083827E+02 -0.69984856695E+03  0.11517129539E+04  0.13496191289E+04  0.25500000920E-02 0.  1.
</event>
<event>
 5   0  0.1070988E-07  0.3818240E+04  0.7818609E-02  0.8042252E-01
        1   -1    0    0  501    0  0.00000000000E+00  0.00000000000E+00  0.22669487224E+04  0.22669487224E+04  0.50400001928E-02 0. -1.
       -1   -1    0    0    0  501  0.00000000000E+00  0.00000000000E+00 -0.16077732270E+04  0.16077732270E+04  0.50400001928E-02 0.  1.
    10030    2    1    2    0    0  0.00000000000E+00  0.00000000000E+00  0.65917549540E+03  0.38747219495E+04  0.38182401511E+04 0.  0.
        5    1    3    3  502    0  0.12975294341E+04  0.75234386035E+03 -0.86903376083E+03  0.17334490716E+04  0.46999998093E+01 0.  1.
       -5    1    3    3    0  502 -0.12975294341E+04 -0.75234386035E+03  0.15282092562E+04  0.21412728778E+04  0.46999998093E+01 0. -1.
</event>
<event>
 5   0  0.3509843E-07  0.3835021E+04  0.7818609E-02  0.8038681E-01
        2   -1    0    0  501    0  0.00000000000E+00  0.00000000000E+00  0.15839759194E+04  0.15839759194E+04  0.25500000920E-02 0. -1.
       -2   -1    0    0    0  501  0.00000000000E+00  0.00000000000E+00 -0.23212766961E+04  0.23212766961E+04  0.25500000920E-02 0.  1.
    10030    2    1    2    0    0  0.00000000000E+00  0.00000000000E+00 -0.73730077671E+03  0.39052526156E+04  0.38350209330E+04 0.  0.
        4    1    3    3  502    0 -0.13059089135E+04 -0.11747162148E+04 -0.11518176885E+04  0.21004861047E+04  0.12699999809E+01 0.  1.
       -4    1    3    3    0  502  0.13059089135E+04  0.11747162148E+04  0.41451691182E+03  0.18047665109E+04  0.12699999809E+01 0. -1.
</event>
<event>
 5   0  0.3539010E-07  0.3792506E+04  0.7818609E-02  0.8047765E-01
        2   -1    0    0  501    0  0.00000000000E+00  0.00000000000E+00  0.20575311094E+04  0.20575311094E+04  0.25500000920E-02 0.  1.
       -2   -1    0    0    0  501  0.00000000000E+00  0.00000000000E+00 -0.17476163215E+04  0.17476163215E+04  0.25500000920E-02 0. -1.
    10030    2    1    2    0    0  0.00000000000E+00  0.00000000000E+00  0.30991478792E+03  0.38051474310E+04  0.37925057410E+04 0.  0.
        1    1    3    3  502    0 -0.14714925925E+04 -0.11852654551E+04  0.31558570265E+03  0.19156562804E+04  0.50400001928E-02 0. -1.
       -1    1    3    3    0  502  0.14714925925E+04  0.11852654551E+04 -0.56709147337E+01  0.18894911506E+04  0.50400001928E-02 0.  1.
</event>
<event>
 5   0  0.3327241E-07  0.3781727E+04  0.7818609E-02  0.8050088E-01
        2   -1    0    0  501    0  0.00000000000E+00  0.00000000000E+00  0.26670924833E+04  0.26670924833E+04  0.25500000920E-02 0. -1.
       -2   -1    0    0    0  501  0.00000000000E+00  0.00000000000E+00 -0.13405476677E+04  0.13405476677E+04  0.25500000920E-02 0.  1.
    10030    2    1    2    0    0  0.00000000000E+00  0.00000000000E+00  0.13265448156E+04  0.40076401510E+04  0.37817269113E+04 0.  0.
        3    1    3    3  502    0 -0.75622200794E+03  0.13931067965E+04 -0.42920725505E+03  0.16422049658E+04  0.10100000352E+00 0.  1.
       -3    1    3    3    0  502  0.75622200794E+03 -0.13931067965E+04  0.17557520707E+04  0.23654351852E+04  0.10100000352E+00 0. -1.
</event>
<event>
 5   0  0.1084315E-07  0.3803958E+04  0.7818609E-02  0.8045306E-01
       -1   -1    0    0    0  501  0.00000000000E+00  0.00000000000E+00  0.15841800751E+04  0.15841800751E+04  0.50400001928E-02 0. -1.
        1   -1    0    0  501    0  0.00000000000E+00  0.00000000000E+00 -0.22835311867E+04  0.22835311867E+04  0.50400001928E-02 0.  1.
    10030    2    1    2    0    0  0.00000000000E+00  0.00000000000E+00 -0.69935111161E+03  0.38677112619E+04  0.38039582579E+04 0.  0.
        4    1    3    3  502    0 -0.11615851411E+04 -0.18187609008E+03  0.11704273999E+04  0.16589939311E+04  0.12699999809E+01 0. -1.
       -4    1    3    3    0  502  0.11615851411E+04  0.18187609008E+03 -0.18697785115E+04  0.22087173308E+04  0.12699999809E+01 0.  1.
</event>
<event>
 5   0  0.3509843E-07  0.3778071E+04  0.7818609E-02  0.8050877E-01
       -2   -1    0    0    0  501  0.00000000000E+00  0.00000000000E+00  0.14824848323E+04  0.14824848323E+04  0.25500000920E-02 0.  1.
        2   -1    0    0  501    0  0.00000000000E+00  0.00000000000E+00 -0.24070770790E+04  0.24070770790E+04  0.25500000920E-02 0. -1.
    10030    2    1    2    0    0  0.00000000000E+00  0.00000000000E+00 -0.92459224667E+03  0.38895619113E+04  0.37780710739E+04 0.  0.
        4    1    3    3  502    0 -0.12271462689E+04 -0.10666975067E+03 -0.19367568820E+04  0.22952767227E+04  0.12699999809E+01 0. -1.
       -4    1    3    3    0  502  0.12271462689E+04  0.10666975067E+03  0.10121646353E+04  0.15942851887E+04  0.12699999809E+01 0.  1.
</event>
<event>
 5   0  0.3509843E-07  0.3792426E+04  0.7818609E-02  0.8047782E-01
       -2   -1    0    0    0  501  0.00000000000E+00  0.00000000000E+00  0.24646643537E+04  0.24646643537E+04  0.25500000920E-02 0.  1.
        2   -1    0    0  501    0  0.00000000000E+00  0.00000000000E+00 -0.14588694940E+04  0.14588694940E+04  0.25500000920E-02 0. -1.
    10030    2    1    2    0    0  0.00000000000E+00  0.00000000000E+00  0.10057948596E+04  0.39235338477E+04  0.37924259458E+04 0.  0.
        4    1    3    3  502    0 -0.80338486388E+02  0.74823494437E+03 -0.12977650400E+04  0.15001684959E+04  0.12699999809E+01 0. -1.
       -4    1    3    3    0  502  0.80338486388E+02 -0.74823494437E+03  0.23035598996E+04  0.24233653518E+04  0.12699999809E+01 0.  1.
</event>
<event>
 5   0  0.1070988E-07  0.3124001E+04  0.7818609E-02  0.8209182E-01
        1   -1    0    0  501    0  0.00000000000E+00  0.00000000000E+00  0.30380340295E+04  0.30380340295E+04  0.50400001928E-02 0. -1.
       -1   -1    0    0    0  501  0.00000000000E+00  0.00000000000E+00 -0.80309989450E+03  0.80309989451E+03  0.50400001928E-02 0.  1.
    10030    2    1    2    0    0  0.00000000000E+00  0.00000000000E+00  0.22349341350E+04  0.38411339240E+04  0.31240005177E+04 0.  0.
        2    1    3    3  502    0  0.89375602747E+02  0.13398698449E+04  0.13643414392E+03  0.13497605252E+04  0.25500000920E-02 0.  1.
       -2    1    3    3    0  502 -0.89375602747E+02 -0.13398698449E+04  0.20984999911E+04  0.24913733988E+04  0.25500000920E-02 0. -1.
</event>
<event>
 5   0  0.3539010E-07  0.3853245E+04  0.7818609E-02  0.8034824E-01
        2   -1    0    0  501    0  0.00000000000E+00  0.00000000000E+00  0.21527812259E+04  0.21527812259E+04  0.25500000920E-02 0. -1.
       -2   -1    0    0    0  501  0.00000000000E+00  0.00000000000E+00 -0.17242226294E+04  0.17242226294E+04  0.25500000920E-02 0.  1.
    10030    2    1    2    0    0  0.00000000000E+00  0.00000000000E+00  0.42855859649E+03  0.38770038554E+04  0.38532449214E+04 0.  0.
        1    1    3    3  502    0  0.44845704250E+03  0.22888538352E+03  0.20854157661E+04  0.21453347420E+04  0.50400001928E-02 0. -1.
       -1    1    3    3    0  502 -0.44845704250E+03 -0.22888538352E+03 -0.16568571696E+04  0.17316691134E+04  0.50400001928E-02 0.  1.
</event>
<event>
 5   0  0.1070988E-07  0.3705757E+04  0.7818609E-02  0.8066687E-01
        1   -1    0    0  501    0  0.00000000000E+00  0.00000000000E+00  0.14607992669E+04  0.14607992669E+04  0.50400001928E-02 0.  1.
       -1   -1    0    0    0  501  0.00000000000E+00  0.00000000000E+00 -0.23501916512E+04  0.23501916512E+04  0.50400001928E-02 0. -1.
    10030    2    1    2    0    0  0.00000000000E+00  0.00000000000E+00 -0.88939238428E+03  0.38109909181E+04  0.37057567331E+04 0.  0.
        5    1    3    3  502    0 -0.30443613609E+03  0.45456922650E+03 -0.22652274619E+04  0.23303630805E+04  0.46999998093E+01 0. -1.
       -5    1    3    3    0  502  0.30443613609E+03 -0.45456922650E+03  0.13758350777E+04  0.14806278376E+04  0.46999998093E+01 0.  1.
</event>
<event>
 5   0  0.1070988E-07  0.3773249E+04  0.7818609E-02  0.8051920E-01
       -1   -1    0    0    0  501  0.00000000000E+00  0.00000000000E+00  0.21484807559E+04  0.21484807560E+04  0.50400001928E-02 0. -1.
        1   -1    0    0  501    0  0.00000000000E+00  0.00000000000E+00 -0.16566828063E+04  0.16566828063E+04  0.50400001928E-02 0.  1.
    10030    2    1    2    0    0  0.00000000000E+00  0.00000000000E+00  0.49179794962E+03  0.38051635623E+04  0.37732485357E+04 0.  0.
        5    1    3    3  502    0  0.13640414413E+04  0.12426000286E+04  0.64250029504E+03  0.19538404755E+04  0.46999998093E+01 0.  1.
       -5    1    3    3    0  502 -0.13640414413E+04 -0.12426000286E+04 -0.15070234542E+03  0.18513230868E+04  0.46999998093E+01 0. -1.
</event>
<event>
 5   0  0.1070988E-07  0.3830452E+04  0.7818609E-02  0.8039651E-01
       -1   -1    0    0    0  501  0.00000000000E+00  0.00000000000E+00  0.18427724470E+04  0.18427724470E+04  0.50400001928E-02 0.  1.
        1   -1    0    0  501    0  0.00000000000E+00  0.00000000000E+00 -0.19905278531E+04  0.19905278531E+04  0.50400001928E-02 0. -1.
    10030    2    1    2    0    0  0.00000000000E+00  0.00000000000E+00 -0.14775540617E+03  0.38333003001E+04  0.38304516092E+04 0.  0.
        5    1    3    3  502    0  0.32549340488E+03  0.10401841142E+04  0.15021391604E+04  0.18559022322E+04  0.46999998093E+01 0.  1.
       -5    1    3    3    0  502 -0.32549340488E+03 -0.10401841142E+04 -0.16498945666E+04  0.19773980679E+04  0.46999998093E+01 0. -1.
</event>
<event>
 5   0  0.1070988E-07  0.3830939E+04  0.7818609E-02  0.8039548E-01
       -1   -1    0    0    0  501  0.00000000000E+00  0.00000000000E+00  0.18456261421E+04  0.18456261421E+04  0.50400001928E-02 0. -1.
        1   -1    0    0  501    0  0.00000000000E+00  0.00000000000E+00 -0.19879557622E+04  0.19879557622E+04  0.50400001928E-02 0.  1.
    10030    2    1    2    0    0  0.00000000000E+00  0.00000000000E+00 -0.14232962017E+03  0.38335819043E+04  0.38309388531E+04 0.  0.
        2    1    3    3  502    0  0.87635909009E+03  0.12417262946E+04  0.10954584022E+04  0.18734776637E+04  0.25500000920E-02 0. -1.
       -2    1    3    3    0  502 -0.87635909009E+03 -0.12417262946E+04 -0.12377880224E+04  0.19601042406E+04  0.25500000920E-02 0.  1.
</event>
<event>
 5   0  0.3327241E-07  0.3805241E+04  0.7818609E-02  0.8045031E-01
        2   -1    0    0  501    0  0.00000000000E+00  0.00000000000E+00  0.25131630805E+04  0.25131630805E+04  0.25500000920E-02 0. -1.
       -2   -1    0    0    0  501  0.00000000000E+00  0.00000000000E+00 -0.14404021040E+04  0.14404021040E+04  0.25500000920E-02 0.  1.
    10030    2    1    2    0    0  0.00000000000E+00  0.00000000000E+00  0.10727609764E+04  0.39535651845E+04  0.38052413268E+04 0.  0.
        3    1    3    3  502    0 -0.17804187339E+03  0.80711099153E+03  0.23168999202E+04  0.24599090048E+04  0.10100000352E+00 0. -1.
       -3    1    3    3    0  502  0.17804187339E+03 -0.80711099153E+03 -0.12441389438E+04  0.14936561796E+04  0.10100000352E+00 0.  1.
</event>
<event>
 5   0  0.3377396E-07  0.3869787E+04  0.7818609E-02  0.8031342E-01
       -2   -1    0    0    0  501  0.00000000000E+00  0.00000000000E+00  0.18224281554E+04  0.18224281554E+04  0.25500000920E-02 0. -1.
        2   -1    0    0  501    0  0.00000000000E+00  0.00000000000E+00 -0.20542994455E+04  0.20542994455E+04  0.25500000920E-02 0.  1.
    10030    2    1    2    0    0  0.00000000000E+00  0.00000000000E+00 -0.23187129011E+03  0.38767276009E+04  0.38697871513E+04 0.  0.
        5    1    3    3  502    0 -0.45211539079E+03  0.10460977465E+04  0.14505382689E+04  0.18446712936E+04  0.46999998093E+01 0. -1.
       -5    1    3    3    0  502  0.45211539079E+03 -0.10460977465E+04 -0.16824095590E+04  0.20320563073E+04  0.46999998093E+01 0.  1.
</event>
<event>
 5   0  0.3442126E-07  0.3776159E+04  0.7818609E-02  0.8051290E-01
        2   -1    0    0  501    0  0.00000000000E+00  0.00000000000E+00  0.23872041382E+04  0.23872041382E+04  0.25500000920E-02 0. -1.
       -2   -1    0    0    0  501  0.00000000000E+00  0.00000000000E+00 -0.14933137479E+04  0.14933137479E+04  0.25500000920E-02 0.  1.
    10030    2    1    2    0    0  0.00000000000E+00  0.00000000000E+00  0.89389039030E+03  0.38805178861E+04  0.37761592967E+04 0.  0.
        2    1    3    3  502    0  0.16230519114E+04  0.82775914764E+03  0.95597483851E+03  0.20575156392E+04  0.25500000920E-02 0. -1.
       -2    1    3    3    0  502 -0.16230519114E+04 -0.82775914764E+03 -0.62084448206E+02  0.18230022469E+04  0.25500000920E-02 0.  1.
</event>
<event>
 5   0  0.1084315E-07  0.3812166E+04  0.7818609E-02  0.8043549E-01
        1   -1    0    0  501    0  0.00000000000E+00  0.00000000000E+00  0.33888561670E+04  0.33888561670E+04  0.50400001928E-02 0. -1.
       -1   -1    0    0    0  501  0.00000000000E+00  0.00000000000E+00 -0.10720882098E+04  0.10720882098E+04  0.50400001928E-02 0.  1.
    10030    2    1    2    0    0  0.00000000000E+00  0.00000000000E+00  0.23167679572E+04  0.44609443768E+04  0.38121661776E+04 0.  0.
        4    1    3    3  502    0 -0.18861755465E+04  0.47905613352E+02  0.14749793471E+04  0.23948943249E+04  0.12699999809E+01 0. -1.
       -4    1    3    3    0  502  0.18861755465E+04 -0.47905613352E+02  0.84178861010E+03  0.20660500519E+04  0.12699999809E+01 0.  1.
</event>
<event>
 5   0  0.3539010E-07  0.3763336E+04  0.7818609E-02  0.8054069E-01
        2   -1    0    0  501    0  0.00000000000E+00  0.00000000000E+00  0.17688229192E+04  0.17688229192E+04  0.25500000920E-02 0.  1.
       -2   -1    0    0    0  501  0.00000000000E+00  0.00000000000E+00 -0.20017126985E+04  0.20017126985E+04  0.25500000920E-02 0. -1.
    10030    2    1    2    0    0  0.00000000000E+00  0.00000000000E+00 -0.23288977928E+03  0.37705356177E+04  0.37633364446E+04 0.  0.
        1    1    3    3  502    0 -0.32032745809E+03 -0.26303615662E+03 -0.19554063065E+04  0.19988525517E+04  0.50400001928E-02 0. -1.
       -1    1    3    3    0  502  0.32032745809E+03  0.26303615662E+03  0.17225165272E+04  0.17716830660E+04  0.50400001928E-02 0.  1.
</event>
<event>
 5   0  0.1070988E-07  0.3648493E+04  0.7818609E-02  0.8079473E-01
       -1   -1    0    0    0  501  0.00000000000E+00  0.00000000000E+00  0.22443292037E+04  0.22443292037E+04  0.50400001928E-02 0.  1.
        1   -1    0    0  501    0  0.00000000000E+00  0.00000000000E+00 -0.14827927838E+04  0.14827927838E+04  0.50400001928E-02 0. -1.
    10030    2    1    2    0    0  0.00000000000E+00  0.00000000000E+00  0.76153641989E+03  0.37271219875E+04  0.36484929204E+04 0.  0.
        2    1    3    3  502    0 -0.55108469254E+03  0.34249251171E+03 -0.13609328980E+04  0.15076915506E+04  0.25500000920E-02 0. -1.
       -2    1    3    3    0  502  0.55108469254E+03 -0.34249251171E+03  0.21224693178E+04  0.22194304369E+04  0.25500000920E-02 0.  1.
</event>
<event>
 5   0  0.1085771E-07  0.3291907E+04  0.7818609E-02  0.8164958E-01
       -1   -1    0    0    0  501  0.00000000000E+00  0.00000000000E+00  0.19153212751E+04  0.19153212751E+04  0.50400001928E-02 0. -1.
        1   -1    0    0  501    0  0.00000000000E+00  0.00000000000E+00 -0.14144689423E+04  0.14144689423E+04  0.50400001928E-02 0.  1.
    10030    2    1    2    0    0  0.00000000000E+00  0.00000000000E+00  0.50085233272E+03  0.33297902174E+04  0.32919067169E+04 0.  0.
        1    1    3    3  502    0 -0.14396545821E+04 -0.67457957551E+02  0.10545633569E+04  0.17858498720E+04  0.50400001928E-02 0. -1.
       -1    1    3    3    0  502  0.14396545821E+04  0.67457957551E+02 -0.55371102418E+03  0.15439403454E+04  0.50400001928E-02 0.  1.
</event>
<event>
 5   0  0.1070988E-07  0.3075829E+04  0.7818609E-02  0.8222403E-01
        1   -1    0    0  501    0  0.00000000000E+00  0.00000000000E+00  0.23596709403E+04  0.23596709403E+04  0.50400001928E-02 0.  1.
       -1   -1    0    0    0  501  0.00000000000E+00  0.00000000000E+00 -0.10023350490E+04  0.10023350490E+04  0.50400001928E-02 0. -1.
    10030    2    1    2    0    0  0.00000000000E+00  0.00000000000E+00  0.13573358913E+04  0.33620059893E+04  0.30758289208E+04 0.  0.
        3    1    3    3  502    0  0.83350915774E+03  0.63861727683E+03  0.19068737588E+04  0.21768640482E+04  0.10100000352E+00 0.  1.
       -3    1    3    3    0  502 -0.83350915774E+03 -0.63861727683E+03 -0.54953786754E+03  0.11851419410E+04  0.10100000352E+00 0. -1.
</event>
<event>
 5   0  0.1070988E-07  0.3786562E+04  0.7818609E-02  0.8049045E-01
       -1   -1    0    0    0  501  0.00000000000E+00  0.00000000000E+00  0.29522561898E+04  0.29522561898E+04  0.50400001928E-02 0. -1.
        1   -1    0    0  501    0  0.00000000000E+00  0.00000000000E+00 -0.12141608251E+04  0.12141608252E+04  0.50400001928E-02 0.  1.
    10030    2    1    2    0    0  0.00000000000E+00  0.00000000000E+00  0.17380953646E+04  0.41664170149E+04  0.37865624577E+04 0.  0.
        2    1    3    3  502    0  0.20836547587E+03  0.64580813845E+03  0.28138487028E+04  0.28945170315E+04  0.25500000920E-02 0. -1.
       -2    1    3    3    0  502 -0.20836547587E+03 -0.64580813845E+03 -0.10757533382E+04  0.12718999834E+04  0.25500000920E-02 0.  1.
</event>
<event>
 5   0  0.1070988E-07  0.3793409E+04  0.7818609E-02  0.8047571E-01
        1   -1    0    0  501    0  0.00000000000E+00  0.00000000000E+00  0.11716004176E+04  0.11716004176E+04  0.50400001928E-02 0. -1.
       -1   -1    0    0    0  501  0.00000000000E+00  0.00000000000E+00 -0.30705755465E+04  0.30705755465E+04  0.50400001928E-02 0.  1.
    10030    2    1    2    0    0  0.00000000000E+00  0.00000000000E+00 -0.18989751289E+04  0.42421759641E+04  0.37934088061E+04 0.  0.
        3    1    3    3  502    0  0.30671553364E+02 -0.37251170026E+03 -0.30289823104E+04  0.30519566770E+04  0.10100000352E+00 0.  1.
       -3    1    3    3    0  502 -0.30671553364E+02  0.37251170026E+03  0.11300071815E+04  0.11902192871E+04  0.10100000352E+00 0. -1.
</event>
<event>
 5   0  0.1085771E-07  0.3817095E+04  0.7818609E-02  0.8042496E-01
        1   -1    0    0  501    0  0.00000000000E+00  0.00000000000E+00  0.23759557688E+04  0.23759557688E+04  0.50400001928E-02 0. -1.
       -1   -1    0    0    0  501  0.00000000000E+00  0.00000000000E+00 -0.15330900728E+04  0.15330900729E+04  0.50400001928E-02 0.  1.
    10030    2    1    2    0    0  0.00000000000E+00  0.00000000000E+00  0.84286569598E+03  0.39090458417E+04  0.38170953369E+04 0.  0.
        1    1    3    3  502    0 -0.43809284571E+02  0.16890398120E+04  0.13303830357E+04  0.21505101166E+04  0.50400001928E-02 0. -1.
       -1    1    3    3    0  502  0.43809284571E+02 -0.16890398120E+04 -0.48751733974E+03  0.17585357251E+04  0.50400001928E-02 0.  1.
</event>
<event>
 5   0  0.1070988E-07  0.3781049E+04  0.7818609E-02  0.8050234E-01
       -1   -1    0    0    0  501  0.00000000000E+00  0.00000000000E+00  0.21346019170E+04  0.21346019170E+04  0.50400001928E-02 0.  1.
        1   -1    0    0  501    0  0.00000000000E+00  0.00000000000E+00 -0.16743560485E+04  0.16743560485E+04  0.50400001928E-02 0. -1.
    10030    2    1    2    0    0  0.00000000000E+00  0.00000000000E+00  0.46024586845E+03  0.38089579655E+04  0.37810493945E+04 0.  0.
        2    1    3    3  502    0  0.15635143548E+04 -0.25848197806E+03 -0.80835638804E+03  0.17789969423E+04  0.25500000920E-02 0. -1.
       -2    1    3    3    0  502 -0.15635143548E+04  0.25848197806E+03  0.12686022565E+04  0.20299610232E+04  0.25500000920E-02 0.  1.
</event>
<event>
 5   0  0.3442126E-07  0.3769058E+04  0.7818609E-02  0.8052828E-01
        2   -1    0    0  501    0  0.00000000000E+00  0.00000000000E+00  0.24089630537E+04  0.24089630537E+04  0.25500000920E-02 0.  1.
       -2   -1    0    0    0  501  0.00000000000E+00  0.00000000000E+00 -0.14742650544E+04  0.14742650544E+04  0.25500000920E-02 0. -1.
    10030    2    1    2    0    0  0.00000000000E+00  0.00000000000E+00  0.93469799933E+03  0.38832281081E+04  0.37690582629E+04 0.  0.
        2    1    3    3  502    0 -0.17772035819E+04  0.53456918919E+03  0.80473324715E+03  0.20228228763E+04  0.25500000920E-02 0.  1.
       -2    1    3    3    0  502  0.17772035819E+04 -0.53456918919E+03  0.12996475218E+03  0.18604052318E+04  0.25500000920E-02 0. -1.
</event>
<event>
 5   0  0.1070988E-07  0.3349805E+04  0.7818609E-02  0.8150337E-01
       -1   -1    0    0    0  501  0.00000000000E+00  0.00000000000E+00  0.11481485178E+04  0.11481485178E+04  0.50400001928E-02 0.  1.
        1   -1    0    0  501    0  0.00000000000E+00  0.00000000000E+00 -0.24433230050E+04  0.24433230050E+04  0.50400001928E-02 0. -1.
    10030    2    1    2    0    0  0.00000000000E+00  0.00000000000E+00 -0.12951744872E+04  0.35914715229E+04  0.33498045834E+04 0.  0.
        2    1    3    3  502    0 -0.11436749904E+04 -0.91663986745E+03  0.22149512839E+03  0.14823229143E+04  0.25500000920E-02 0.  1.
       -2    1    3    3    0  502  0.11436749904E+04  0.91663986745E+03 -0.15166696156E+04  0.21091486086E+04  0.25500000920E-02 0. -1.
</event>
<event>
 5   0  0.1070988E-07  0.3717631E+04  0.7818609E-02  0.8064066E-01
        1   -1    0    0  501    0  0.00000000000E+00  0.00000000000E+00  0.22023104941E+04  0.22023104941E+04  0.50400001928E-02 0. -1.
       -1   -1    0    0    0  501  0.00000000000E+00  0.00000000000E+00 -0.15688956364E+04  0.15688956364E+04  0.50400001928E-02 0.  1.
    10030    2    1    2    0    0  0.00000000000E+00  0.00000000000E+00  0.63341485774E+03  0.37712061305E+04  0.37176311404E+04 0.  0.
        5    1    3    3  502    0 -0.66978808200E+03 -0.81281297420E+03  0.18704104209E+04  0.21465642871E+04  0.46999998093E+01 0. -1.
       -5    1    3    3    0  502  0.66978808200E+03  0.81281297420E+03 -0.12369955632E+04  0.16246418434E+04  0.46999998093E+01 0.  1.
</event>
<event>
 5   0  0.3327241E-07  0.3826060E+04  0.7818609E-02  0.8040585E-01
       -2   -1    0    0    0  501  0.00000000000E+00  0.00000000000E+00  0.11131991663E+04  0.11131991663E+04  0.25500000920E-02 0. -1.
        2   -1    0    0  501    0  0.00000000000E+00  0.00000000000E+00 -0.32875379506E+04  0.32875379506E+04  0.25500000920E-02 0.  1.
    10030    2    1    2    0    0  0.00000000000E+00  0.00000000000E+00 -0.21743387843E+04  0.44007371169E+04  0.38260603790E+04 0.  0.
        3    1    3    3  502    0  0.34325184170E+02 -0.88669350554E+03 -0.30365070039E+04  0.31635072919E+04  0.10100000352E+00 0.  1.
       -3    1    3    3    0  502 -0.34325184170E+02  0.88669350554E+03  0.86216821956E+03  0.12372298251E+04  0.10100000352E+00 0. -1.
</event>
<event>
 5   0  0.3327241E-07  0.3861449E+04  0.7818609E-02  0.8033095E-01
        2   -1    0    0  501    0  0.00000000000E+00  0.00000000000E+00  0.22228660366E+04  0.22228660366E+04  0.25500000920E-02 0. -1.
       -2   -1    0    0    0  501  0.00000000000E+00  0.00000000000E+00 -0.16769775127E+04  0.16769775127E+04  0.25500000920E-02 0.  1.
    10030    2    1    2    0    0  0.00000000000E+00  0.00000000000E+00  0.54588852388E+03  0.38998435493E+04  0.38614486179E+04 0.  0.
        3    1    3    3  502    0 -0.14532510897E+04  0.10225955358E+04 -0.48958353551E+03  0.18431853970E+04  0.10100000352E+00 0.  1.
       -3    1    3    3    0  502  0.14532510897E+04 -0.10225955358E+04  0.10354720594E+04  0.20566581523E+04  0.10100000352E+00 0. -1.
</event>
<event>
 5   0  0.3509843E-07  0.3608445E+04  0.7818609E-02  0.8088560E-01
       -2   -1    0    0    0  501  0.00000000000E+00  0.00000000000E+00  0.14254153465E+04  0.14254153465E+04  0.25500000920E-02 0.  1.
        2   -1    0    0  501    0  0.00000000000E+00  0.00000000000E+00 -0.22836989753E+04  0.22836989753E+04  0.25500000920E-02 0. -1.
    10030    2    1    2    0    0  0.00000000000E+00  0.00000000000E+00 -0.85828362886E+03  0.37091143218E+04  0.36084454083E+04 0.  0.
        4    1    3    3  502    0 -0.41730550971E+03  0.47993679442E+03  0.13063736346E+04  0.14529614245E+04  0.12699999809E+01 0.  1.
       -4    1    3    3    0  502  0.41730550971E+03 -0.47993679442E+03 -0.21646572634E+04  0.22561528973E+04  0.12699999809E+01 0. -1.
</event>
<event>
 5   0  0.3327241E-07  0.3882130E+04  0.7818609E-02  0.8028756E-01
        2   -1    0    0  501    0  0.00000000000E+00  0.00000000000E+00  0.19060681601E+04  0.19060681601E+04  0.25500000920E-02 0.  1.
       -2   -1    0    0    0  501  0.00000000000E+00  0.00000000000E+00 -0.19767045167E+04  0.19767045167E+04  0.25500000920E-02 0. -1.
    10030    2    1    2    0    0  0.00000000000E+00  0.00000000000E+00 -0.70636356597E+02  0.38827726769E+04  0.38821301067E+04 0.  0.
        3    1    3    3  502    0 -0.17927039440E+03 -0.16865680527E+04 -0.97944680797E+03  0.19585621589E+04  0.10100000352E+00 0. -1.
       -3    1    3    3    0  502  0.17927039440E+03  0.16865680527E+04  0.90881045137E+03  0.19242105179E+04  0.10100000352E+00 0.  1.
</event>
<event>
 5   0  0.3539010E-07  0.3820228E+04  0.7818609E-02  0.8041828E-01
        2   -1    0    0  501    0  0.00000000000E+00  0.00000000000E+00  0.13701758446E+04  0.13701758446E+04  0.25500000920E-02 0. -1.
       -2   -1    0    0    0  501  0.00000000000E+00  0.00000000000E+00 -0.26628233630E+04  0.26628233630E+04  0.25500000920E-02 0.  1.
    10030    2    1    2    0    0  0.00000000000E+00  0.00000000000E+00 -0.12926475185E+04  0.40329992076E+04  0.38202283965E+04 0.  0.
        1    1    3    3  502    0  0.79788495326E+03 -0.30569547371E+03 -0.24498237188E+04  0.25945532128E+04  0.50400001928E-02 0.  1.
       -1    1    3    3    0  502 -0.79788495326E+03  0.30569547371E+03  0.11571762003E+04  0.14384459948E+04  0.50400001928E-02 0. -1.
</event>
<event>
 5   0  0.3377396E-07  0.3789484E+04  0.7818609E-02  0.8048415E-01
        2   -1    0    0  501    0  0.00000000000E+00  0.00000000000E+00  0.16647081275E+04  0.16647081275E+04  0.25500000920E-02 0. -1.
       -2   -1    0    0    0  501  0.00000000000E+00  0.00000000000E+00 -0.21565627908E+04  0.21565627908E+04  0.25500000920E-02 0.  1.
    10030    2    1    2    0    0  0.00000000000E+00  0.00000000000E+00 -0.49185466336E+03  0.38212709183E+04  0.37894841894E+04 0.  0.
        5    1    3    3  502    0 -0.10752688162E+04  0.15360479206E+04  0.29085968089E+02  0.18752371383E+04  0.46999998093E+01 0.  1.
       -5    1    3    3    0  502  0.10752688162E+04 -0.15360479206E+04 -0.52094063145E+03  0.19460337800E+04  0.46999998093E+01 0. -1.
</event>
<event>
 5   0  0.3377396E-07  0.3827881E+04  0.7818609E-02  0.8040198E-01
        2   -1    0    0  501    0  0.00000000000E+00  0.00000000000E+00  0.25206458132E+04  0.25206458132E+04  0.25500000920E-02 0.  1.
       -2   -1    0    0    0  501  0.00000000000E+00  0.00000000000E+00 -0.14532660544E+04  0.14532660544E+04  0.25500000920E-02 0. -1.
    10030    2    1    2    0    0  0.00000000000E+00  0.00000000000E+00  0.10673797589E+04  0.39739118676E+04  0.38278813960E+04 0.  0.
        5    1    3    3  502    0  0.45671891526E+03  0.17762032882E+04 -0.34602319014E+02  0.18343145039E+04  0.46999998093E+01 0. -1.
       -5    1    3    3    0  502 -0.45671891526E+03 -0.17762032882E+04  0.11019820779E+04  0.21395973637E+04  0.46999998093E+01 0.  1.
</event>
<event>
 5   0  0.1070988E-07  0.3271549E+04  0.7818609E-02  0.8170173E-01
       -1   -1    0    0    0  501  0.00000000000E+00  0.00000000000E+00  0.17564117255E+04  0.17564117255E+04  0.50400001928E-02 0.  1.
        1   -1    0    0  501    0  0.00000000000E+00  0.00000000000E+00 -0.15234229737E+04  0.15234229737E+04  0.50400001928E-02 0. -1.
    10030    2    1    2    0    0  0.00000000000E+00  0.00000000000E+00  0.23298875184E+03  0.32798346992E+04  0.32715488527E+04 0.  0.
        5    1    3    3  502    0 -0.15018230019E+04 -0.48562165459E+03 -0.31405246699E+03  0.16093327072E+04  0.46999998093E+01 0. -1.
       -5    1    3    3    0  502  0.15018230019E+04  0.48562165459E+03  0.54704121883E+03  0.16705019920E+04  0.46999998093E+01 0.  1.
</event>
<event>
 5   0  0.1085771E-07  0.3761376E+04  0.7818609E-02  0.8054495E-01
       -1   -1    0    0    0  501  0.00000000000E+00  0.00000000000E+00  0.21340961847E+04  0.21340961847E+04  0.50400001928E-02 0.  1.
        1   -1    0    0  501    0  0.00000000000E+00  0.00000000000E+00 -0.16573698805E+04  0.16573698805E+04  0.50400001928E-02 0. -1.
    10030    2    1    2    0    0  0.00000000000E+00  0.00000000000E+00  0.47672630418E+03  0.37914660653E+04  0.37613756732E+04 0.  0.
        1    1    3    3  502    0 -0.55472567496E+03 -0.62463651588E+03  0.19368041085E+04  0.21092893367E+04  0.50400001928E-02 0.  1.
       -1    1    3    3    0  502  0.55472567496E+03  0.62463651588E+03 -0.14600778043E+04  0.16821767285E+04  0.50400001928E-02 0. -1.
</event>
<event>
 5   0  0.1070988E-07  0.3797675E+04  0.7818609E-02  0.8046654E-01
        1   -1    0    0  501    0  0.00000000000E+00  0.00000000000E+00  0.27062111943E+04  0.27062111944E+04  0.50400001928E-02 0. -1.
       -1   -1    0    0    0  501  0.00000000000E+00  0.00000000000E+00 -0.13323363943E+04  0.13323363943E+04  0.50400001928E-02 0.  1.
    10030    2    1    2    0    0  0.00000000000E+00  0.00000000000E+00  0.13738748000E+04  0.40385475887E+04  0.37976749018E+04 0.  0.
        3    1    3    3  502    0 -0.47362405081E+03  0.18388037837E+04  0.69548183804E+03  0.20221805295E+04  0.10100000352E+00 0.  1.
       -3    1    3    3    0  502  0.47362405081E+03 -0.18388037837E+04  0.67839296197E+03  0.20163670592E+04  0.10100000352E+00 0. -1.
</event>
<event>
 5   0  0.1085771E-07  0.3580858E+04  0.7818609E-02  0.8094891E-01
        1   -1    0    0  501    0  0.00000000000E+00  0.00000000000E+00  0.14935140913E+04  0.14935140914E+04  0.50400001928E-02 0.  1.
       -1   -1    0    0    0  501  0.00000000000E+00  0.00000000000E+00 -0.21463709674E+04  0.21463709674E+04  0.50400001928E-02 0. -1.
    10030    2    1    2    0    0  0.00000000000E+00  0.00000000000E+00 -0.65285687601E+03  0.36398850587E+04  0.35808575984E+04 0.  0.
        1    1    3    3  502    0  0.88762993667E+03 -0.14270438640E+04 -0.95409748646E+03  0.19325224728E+04  0.50400001928E-02 0. -1.
       -1    1    3    3    0  502 -0.88762993667E+03  0.14270438640E+04  0.30124061045E+03  0.17073625859E+04  0.50400001928E-02 0.  1.
</event>
<event>
 5   0  0.1084315E-07  0.3804691E+04  0.7818609E-02  0.8045149E-01
       -1   -1    0    0    0  501  0.00000000000E+00  0.00000000000E+00  0.15048482557E+04  0.15048482557E+04  0.50400001928E-02 0.  1.
        1   -1    0    0  501    0  0.00000000000E+00  0.00000000000E+00 -0.24048391032E+04  0.24048391032E+04  0.50400001928E-02 0. -1.
    10030    2    1    2    0    0  0.00000000000E+00  0.00000000000E+00 -0.89999084754E+03  0.39096873589E+04  0.38046907520E+04 0.  0.
        4    1    3    3  502    0 -0.92701449184E+02 -0.15132587395E+04 -0.16307798433E+04  0.22266544594E+04  0.12699999809E+01 0. -1.
       -4    1    3    3    0  502  0.92701449184E+02  0.15132587395E+04  0.73078899574E+03  0.16830328995E+04  0.12699999809E+01 0.  1.
</event>
<event>
 5   0  0.3509843E-07  0.3829379E+04  0.7818609E-02  0.8039879E-01
        2   -1    0    0  501    0  0.00000000000E+00  0.00000000000E+00  0.13554250244E+04  0.13554250244E+04  0.25500000920E-02 0.  1.
       -2   -1    0    0    0  501  0.00000000000E+00  0.00000000000E+00 -0.27047133909E+04  0.27047133909E+04  0.25500000920E-02 0. -1.
    10030    2    1    2    0    0  0.00000000000E+00  0.00000000000E+00 -0.13492883666E+04  0.40601384153E+04  0.38293791736E+04 0.  0.
        4    1    3    3  502    0  0.15586970068E+04  0.11111537521E+04 -0.72006963473E+03  0.20451652529E+04  0.12699999809E+01 0. -1.
       -4    1    3    3    0  502 -0.15586970068E+04 -0.11111537521E+04 -0.62921873182E+03  0.20149731624E+04  0.12699999809E+01 0.  1.
</event>
<event>
 5   0  0.3377396E-07  0.3883291E+04  0.7818609E-02  0.8028513E-01
       -2   -1    0    0    0  501  0.00000000000E+00  0.00000000000E+00  0.23132426950E+04  0.23132426950E+04  0.25500000920E-02 0.  1.
        2   -1    0    0  501    0  0.00000000000E+00  0.00000000000E+00 -0.16297416990E+04  0.16297416990E+04  0.25500000920E-02 0. -1.
    10030    2    1    2    0    0  0.00000000000E+00  0.00000000000E+00  0.68350099601E+03  0.39429843940E+04  0.38832914286E+04 0.  0.
        5    1    3    3  502    0 -0.11838573297E+04 -0.99197604208E+03  0.15364557854E+04  0.21785897080E+04  0.46999998093E+01 0.  1.
       -5    1    3    3    0  502  0.11838573297E+04  0.99197604208E+03 -0.85295478942E+03  0.17643946860E+04  0.46999998093E+01 0. -1.
</event>
<event>
 5   0  0.1085771E-07  0.3751918E+04  0.7818609E-02  0.8056553E-01
       -1   -1    0    0    0  501  0.00000000000E+00  0.00000000000E+00  0.19948677254E+04  0.19948677254E+04  0.50400001928E-02 0.  1.
        1   -1    0    0  501    0  0.00000000000E+00  0.00000000000E+00 -0.17641382922E+04  0.17641382922E+04  0.50400001928E-02 0. -1.
    10030    2    1    2    0    0  0.00000000000E+00  0.00000000000E+00  0.23072943316E+03  0.37590060176E+04  0.37519181986E+04 0.  0.
        1    1    3    3  502    0  0.16193571325E+04 -0.21699999913E+03 -0.80823143958E+03  0.18228122728E+04  0.50400001928E-02 0. -1.
       -1    1    3    3    0  502 -0.16193571325E+04  0.21699999913E+03  0.10389608727E+04  0.19361937447E+04  0.50400001928E-02 0.  1.
</event>
<event>
 5   0  0.3327241E-07  0.3721135E+04  0.7818609E-02  0.8063294E-01
       -2   -1    0    0    0  501  0.00000000000E+00  0.00000000000E+00  0.26267714469E+04  0.26267714469E+04  0.25500000920E-02 0.  1.
        2   -1    0    0  501    0  0.00000000000E+00  0.00000000000E+00 -0.13178577477E+04  0.13178577477E+04  0.25500000920E-02 0. -1.
    10030    2    1    2    0    0  0.00000000000E+00  0.00000000000E+00  0.13089136992E+04  0.39446291946E+04  0.37211348284E+04 0.  0.
        3    1    3    3  502    0  0.28665853102E+03  0.92859825202E+03  0.23363305221E+04  0.25303968356E+04  0.10100000352E+00 0.  1.
       -3    1    3    3    0  502 -0.28665853102E+03 -0.92859825202E+03 -0.10274168229E+04  0.14142323590E+04  0.10100000352E+00 0. -1.
</event>
<event>
 5   0  0.3539010E-07  0.3721889E+04  0.7818609E-02  0.8063128E-01
        2   -1    0    0  501    0  0.00000000000E+00  0.00000000000E+00  0.21417915511E+04  0.21417915511E+04  0.25500000920E-02 0.  1.
       -2   -1    0    0    0  501  0.00000000000E+00  0.00000000000E+00 -0.16169245255E+04  0.16169245255E+04  0.25500000920E-02 0. -1.
    10030    2    1    2    0    0  0.00000000000E+00  0.00000000000E+00  0.52486702559E+03  0.37587160766E+04  0.37218894597E+04 0.  0.
        1    1    3    3  502    0  0.11222502413E+03  0.58254935052E+03 -0.15188662945E+04  0.16306173746E+04  0.50400001928E-02 0. -1.
       -1    1    3    3    0  502 -0.11222502413E+03 -0.58254935052E+03  0.20437333201E+04  0.21280987020E+04  0.50400001928E-02 0.  1.
</event>
<event>
 5   0  0.3442126E-07  0.3780358E+04  0.7818609E-02  0.8050383E-01
       -2   -1    0    0    0  501  0.00000000000E+00  0.00000000000E+00  0.28408793865E+04  0.28408793865E+04  0.25500000920E-02 0.  1.
        2   -1    0    0  501    0  0.00000000000E+00  0.00000000000E+00 -0.12576302538E+04  0.12576302538E+04  0.25500000920E-02 0. -1.
    10030    2    1    2    0    0  0.00000000000E+00  0.00000000000E+00  0.15832491327E+04  0.40985096403E+04  0.37803575830E+04 0.  0.
        2    1    3    3  502    0 -0.26646224173E+03  0.44904916348E+03 -0.11778868856E+04  0.12884350169E+04  0.25500000920E-02 0. -1.
       -2    1    3    3    0  502  0.26646224173E+03 -0.44904916348E+03  0.27611360183E+04  0.28100746234E+04  0.25500000920E-02 0.  1.
</event>
<event>
 5   0  0.1070988E-07  0.3790384E+04  0.7818609E-02  0.8048222E-01
       -1   -1    0    0    0  501  0.00000000000E+00  0.00000000000E+00  0.14330534519E+04  0.14330534519E+04  0.50400001928E-02 0.  1.
        1   -1    0    0  501    0  0.00000000000E+00  0.00000000000E+00 -0.25063629013E+04  0.25063629013E+04  0.50400001928E-02 0. -1.
    10030    2    1    2    0    0  0.00000000000E+00  0.00000000000E+00 -0.10733094494E+04  0.39394163532E+04  0.37903836257E+04 0.  0.
        2    1    3    3  502    0  0.62903336337E+03 -0.17709189623E+04 -0.28225494517E+03  0.19003959580E+04  0.25500000920E-02 0. -1.
       -2    1    3    3    0  502 -0.62903336337E+03  0.17709189623E+04 -0.79105450425E+03  0.20390203952E+04  0.25500000920E-02 0.  1.
</event>
<event>
 5   0  0.1084315E-07  0.3810792E+04  0.7818609E-02  0.8043843E-01
        1   -1    0    0  501    0  0.00000000000E+00  0.00000000000E+00  0.25173656495E+04  0.25173656495E+04  0.50400001928E-02 0.  1.
       -1   -1    0    0    0  501  0.00000000000E+00  0.00000000000E+00 -0.14421959390E+04  0.14421959390E+04  0.50400001928E-02 0. -1.
    10030    2    1    2    0    0  0.00000000000E+00  0.00000000000E+00  0.10751697105E+04  0.39595615886E+04  0.38107923149E+04 0.  0.
        4    1    3    3  502    0  0.25721498929E+03  0.16937652849E+04  0.14041286962E+04  0.22150799984E+04  0.12699999809E+01 0.  1.
       -4    1    3    3    0  502 -0.25721498929E+03 -0.16937652849E+04 -0.32895898572E+03  0.17444815901E+04  0.12699999809E+01 0. -1.
</event>
<event>
 5   0  0.3377396E-07  0.3680942E+04  0.7818609E-02  0.8072198E-01
       -2   -1    0    0    0  501  0.00000000000E+00  0.00000000000E+00  0.21428658617E+04  0.21428658617E+04  0.25500000920E-02 0.  1.
        2   -1    0    0  501    0  0.00000000000E+00  0.00000000000E+00 -0.15807492097E+04  0.15807492097E+04  0.25500000920E-02 0. -1.
    10030    2    1    2    0    0  0.00000000000E+00  0.00000000000E+00  0.56211665200E+03  0.37236150713E+04  0.36809420084E+04 0.  0.
        5    1    3    3  502    0  0.17284747580E+04  0.26810416885E+03 -0.29812312671E+03  0.17743743470E+04  0.46999998093E+01 0. -1.
       -5    1    3    3    0  502 -0.17284747580E+04 -0.26810416885E+03  0.86023977871E+03  0.19492407243E+04  0.46999998093E+01 0.  1.
</event>
<event>
 5   0  0.1070988E-07  0.3791943E+04  0.7818609E-02  0.8047886E-01
       -1   -1    0    0    0  501  0.00000000000E+00  0.00000000000E+00  0.19570637440E+04  0.19570637440E+04  0.50400001928E-02 0.  1.
        1   -1    0    0  501    0  0.00000000000E+00  0.00000000000E+00 -0.18367861205E+04  0.18367861205E+04  0.50400001928E-02 0. -1.
    10030    2    1    2    0    0  0.00000000000E+00  0.00000000000E+00  0.12027762347E+03  0.37938498645E+04  0.37919427854E+04 0.  0.
        2    1    3    3  502    0 -0.35861464838E+03 -0.13430595361E+04  0.13500871020E+04  0.19378205713E+04  0.25500000920E-02 0.  1.
       -2    1    3    3    0  502  0.35861464838E+03  0.13430595361E+04 -0.12298094785E+04  0.18560292932E+04  0.25500000920E-02 0. -1.
</event>
<event>
 5   0  0.1070988E-07  0.3739566E+04  0.7818609E-02  0.8059250E-01
       -1   -1    0    0    0  501  0.00000000000E+00  0.00000000000E+00  0.19163970594E+04  0.19163970594E+04  0.50400001928E-02 0.  1.
        1   -1    0    0  501    0  0.00000000000E+00  0.00000000000E+00 -0.18243026551E+04  0.18243026552E+04  0.50400001928E-02 0. -1.
    10030    2    1    2    0    0  0.00000000000E+00  0.00000000000E+00  0.92094404284E+02  0.37406997146E+04  0.37395658806E+04 0.  0.
        5    1    3    3  502    0  0.13408508140E+03 -0.15652146416E+04 -0.96825751463E+03  0.18453781152E+04  0.46999998093E+01 0. -1.
       -5    1    3    3    0  502 -0.13408508140E+03  0.15652146416E+04  0.10603519189E+04  0.18953215994E+04  0.46999998093E+01 0.  1.
</event>
<event>
 5   0  0.1084315E-07  0.3833190E+04  0.7818609E-02  0.8039070E-01
        1   -1    0    0  501    0  0.00000000000E+00  0.00000000000E+00  0.16402363327E+04  0.16402363327E+04  0.50400001928E-02 0.  1.
       -1   -1    0    0    0  501  0.00000000000E+00  0.00000000000E+00 -0.22395165980E+04  0.22395165980E+04  0.50400001928E-02 0. -1.
    10030    2    1    2    0    0  0.00000000000E+00  0.00000000000E+00 -0.59928026536E+03  0.38797529307E+04  0.38331900509E+04 0.  0.
        4    1    3    3  502    0  0.18639272426E+04 -0.43179513598E+03 -0.18574287121E+03  0.19222834943E+04  0.12699999809E+01 0.  1.
       -4    1    3    3    0  502 -0.18639272426E+04  0.43179513598E+03 -0.41353739415E+03  0.19574694364E+04  0.12699999809E+01 0. -1.
</event>
<event>
 5   0  0.1070988E-07  0.3841856E+04  0.7818609E-02  0.8037232E-01
        1   -1    0    0  501    0  0.00000000000E+00  0.00000000000E+00  0.18402300232E+04  0.18402300232E+04  0.50400001928E-02 0.  1.
       -1   -1    0    0    0  501  0.00000000000E+00  0.00000000000E+00 -0.20051651194E+04  0.20051651194E+04  0.50400001928E-02 0. -1.
    10030    2    1    2    0    0  0.00000000000E+00  0.00000000000E+00 -0.16493509617E+03  0.38453951426E+04  0.38418563503E+04 0.  0.
        3    1    3    3  502    0  0.11757725987E+04  0.87200793761E+03  0.11625133642E+04  0.18692983655E+04  0.10100000352E+00 0.  1.
       -3    1    3    3    0  502 -0.11757725987E+04 -0.87200793761E+03 -0.13274484604E+04  0.19760967771E+04  0.10100000352E+00 0. -1.
</event>
<event>
 5   0  0.1070988E-07  0.3887511E+04  0.7818609E-02  0.8027632E-01
        1   -1    0    0  501    0  0.00000000000E+00  0.00000000000E+00  0.18848476745E+04  0.18848476745E+04  0.50400001928E-02 0. -1.
       -1   -1    0    0    0  501  0.00000000000E+00  0.00000000000E+00 -0.20045044360E+04  0.20045044360E+04  0.50400001928E-02 0.  1.
    10030    2    1    2    0    0  0.00000000000E+00  0.00000000000E+00 -0.11965676156E+03  0.38893521105E+04  0.38875110416E+04 0.  0.
        5    1    3    3  502    0  0.13862149098E+04  0.69274524348E+03 -0.12337022847E+04  0.19807905406E+04  0.46999998093E+01 0.  1.
       -5    1    3    3    0  502 -0.13862149098E+04 -0.69274524348E+03  0.11140455231E+04  0.19085615699E+04  0.46999998093E+01 0. -1.
</event>
<event>
 5   0  0.1085771E-07  0.3827915E+04  0.7818609E-02  0.8040191E-01
       -1   -1    0    0    0  501  0.00000000000E+00  0.00000000000E+00  0.26838874517E+04  0.26838874517E+04  0.50400001928E-02 0. -1.
        1   -1    0    0  501    0  0.00000000000E+00  0.00000000000E+00 -0.13648982176E+04  0.13648982176E+04  0.50400001928E-02 0.  1.
    10030    2    1    2    0    0  0.00000000000E+00  0.00000000000E+00  0.13189892342E+04  0.40487856693E+04  0.38279149411E+04 0.  0.
        1    1    3    3  502    0 -0.82981707087E+03 -0.17245338826E+04  0.63316413576E+03  0.20158150476E+04  0.50400001928E-02 0.  1.
       -1    1    3    3    0  502  0.82981707087E+03  0.17245338826E+04  0.68582509840E+03  0.20329706217E+04  0.50400001928E-02 0. -1.
</event>
<event>
 5   0  0.3539010E-07  0.3522220E+04  0.7818609E-02  0.8108544E-01
        2   -1    0    0  501    0  0.00000000000E+00  0.00000000000E+00  0.24777975137E+04  0.24777975137E+04  0.25500000920E-02 0. -1.
       -2   -1    0    0    0  501  0.00000000000E+00  0.00000000000E+00 -0.12517195956E+04  0.12517195956E+04  0.25500000920E-02 0.  1.
    10030    2    1    2    0    0  0.00000000000E+00  0.00000000000E+00  0.12260779181E+04  0.37295171094E+04  0.35222195854E+04 0.  0.
        1    1    3    3  502    0 -0.62435906540E+03  0.95700041396E+03 -0.80591802771E+03  0.13982767617E+04  0.50400001928E-02 0.  1.
       -1    1    3    3    0  502  0.62435906540E+03 -0.95700041396E+03  0.20319959458E+04  0.23312403477E+04  0.50400001928E-02 0. -1.
</event>
<event>
 5   0  0.1085771E-07  0.3783913E+04  0.7818609E-02  0.8049616E-01
        1   -1    0    0  501    0  0.00000000000E+00  0.00000000000E+00  0.23113359148E+04  0.23113359148E+04  0.50400001928E-02 0.  1.
       -1   -1    0    0    0  501  0.00000000000E+00  0.00000000000E+00 -0.15486709744E+04  0.15486709744E+04  0.50400001928E-02 0. -1.
    10030    2    1    2    0    0  0.00000000000E+00  0.00000000000E+00  0.76266494046E+03  0.38600068892E+04  0.37839127069E+04 0.  0.
        1    1    3    3  502    0  0.68923201056E+03 -0.40221773200E+03 -0.13685884134E+04  0.15842519097E+04  0.50400001928E-02 0. -1.
       -1    1    3    3    0  502 -0.68923201056E+03  0.40221773200E+03  0.21312533538E+04  0.22757549795E+04  0.50400001928E-02 0.  1.
</event>
<event>
 5   0  0.3539010E-07  0.3432791E+04  0.7818609E-02  0.8129905E-01
       -2   -1    0    0    0  501  0.00000000000E+00  0.00000000000E+00  0.14064391388E+04  0.14064391388E+04  0.25500000920E-02 0.  1.
        2   -1    0    0  501    0  0.00000000000E+00  0.00000000000E+00 -0.20946609425E+04  0.20946609425E+04  0.25500000920E-02 0. -1.
    10030    2    1    2    0    0  0.00000000000E+00  0.00000000000E+00 -0.68822180371E+03  0.35011000814E+04  0.34327907784E+04 0.  0.
        1    1    3    3  502    0 -0.44133159610E+03 -0.12294477433E+04 -0.14796840277E+04  0.19737730754E+04  0.50400001928E-02 0. -1.
       -1    1    3    3    0  502  0.44133159610E+03  0.12294477433E+04  0.79146222402E+03  0.15273270060E+04  0.50400001928E-02 0.  1.
</event>
<event>
 5   0  0.3377396E-07  0.3779354E+04  0.7818609E-02  0.8050600E-01
       -2   -1    0    0    0  501  0.00000000000E+00  0.00000000000E+00  0.24581002230E+04  0.24581002230E+04  0.25500000920E-02 0.  1.
        2   -1    0    0  501    0  0.00000000000E+00  0.00000000000E+00 -0.14526987269E+04  0.14526987269E+04  0.25500000920E-02 0. -1.
    10030    2    1    2    0    0  0.00000000000E+00  0.00000000000E+00  0.10054014961E+04  0.39107989500E+04  0.37793539472E+04 0.  0.
        5    1    3    3  502    0 -0.10868463866E+04  0.13293117706E+04 -0.31376088719E+03  0.17455007407E+04  0.46999998093E+01 0. -1.
       -5    1    3    3    0  502  0.10868463866E+04 -0.13293117706E+04  0.13191623833E+04  0.21652982093E+04  0.46999998093E+01 0.  1.
</event>
<event>
 5   0  0.1070988E-07  0.3787578E+04  0.7818609E-02  0.8048826E-01
       -1   -1    0    0    0  501  0.00000000000E+00  0.00000000000E+00  0.16424289072E+04  0.16424289072E+04  0.50400001928E-02 0. -1.
        1   -1    0    0  501    0  0.00000000000E+00  0.00000000000E+00 -0.21836176270E+04  0.21836176270E+04  0.50400001928E-02 0.  1.
    10030    2    1    2    0    0  0.00000000000E+00  0.00000000000E+00 -0.54118871977E+03  0.38260465342E+04  0.37875779664E+04 0.  0.
        2    1    3    3  502    0  0.16034464143E+04 -0.86836554855E+03  0.24580964528E+03  0.18399786713E+04  0.25500000920E-02 0. -1.
       -2    1    3    3    0  502 -0.16034464143E+04  0.86836554855E+03 -0.78699836505E+03  0.19860678629E+04  0.25500000920E-02 0.  1.
</event>
<event>
 5   0  0.1085771E-07  0.3781307E+04  0.7818609E-02  0.8050178E-01
       -1   -1    0    0    0  501  0.00000000000E+00  0.00000000000E+00  0.18695431917E+04  0.18695431918E+04  0.50400001928E-02 0. -1.
        1   -1    0    0  501    0  0.00000000000E+00  0.00000000000E+00 -0.19120021093E+04  0.19120021093E+04  0.50400001928E-02 0.  1.
    10030    2    1    2    0    0  0.00000000000E+00  0.00000000000E+00 -0.42458917562E+02  0.37815453011E+04  0.37813069307E+04 0.  0.
        1    1    3    3  502    0 -0.13674669821E+04  0.37460028500E+03  0.12295608647E+04  0.18767288671E+04  0.50400001928E-02 0. -1.
       -1    1    3    3    0  502  0.13674669821E+04 -0.37460028500E+03 -0.12720197823E+04  0.19048164340E+04  0.50400001928E-02 0.  1.
</event>
<event>
 5   0  0.3442126E-07  0.3835145E+04  0.7818609E-02  0.8038655E-01
        2   -1    0    0  501    0  0.00000000000E+00  0.00000000000E+00  0.13703848207E+04  0.13703848207E+04  0.25500000920E-02 0. -1.
       -2   -1    0    0    0  501  0.00000000000E+00  0.00000000000E+00 -0.26832499915E+04  0.26832499915E+04  0.25500000920E-02 0.  1.
    10030    2    1    2    0    0  0.00000000000E+00  0.00000000000E+00 -0.13128651708E+04  0.40536348122E+04  0.38351453994E+04 0.  0.
        2    1    3    3  502    0  0.95094591497E+03  0.43221548117E+03 -0.23561436098E+04  0.25773088805E+04  0.25500000920E-02 0.  1.
       -2    1    3    3    0  502 -0.95094591497E+03 -0.43221548117E+03  0.10432784390E+04  0.14763259317E+04  0.25500000920E-02 0. -1.
</event>
<event>
 5   0  0.1070988E-07  0.3809876E+04  0.7818609E-02  0.8044039E-01
       -1   -1    0    0    0  501  0.00000000000E+00  0.00000000000E+00  0.12931123483E+04  0.12931123483E+04  0.50400001928E-02 0.  1.
        1   -1    0    0  501    0  0.00000000000E+00  0.00000000000E+00 -0.28062444120E+04  0.28062444120E+04  0.50400001928E-02 0. -1.
    10030    2    1    2    0    0  0.00000000000E+00  0.00000000000E+00 -0.15131320638E+04  0.40993567603E+04  0.38098762718E+04 0.  0.
        3    1    3    3  502    0  0.14768714316E+04  0.56098975350E+01  0.53801852050E+03  0.15718284369E+04  0.10100000352E+00 0.  1.
       -3    1    3    3    0  502 -0.14768714316E+04 -0.56098975350E+01 -0.20511505843E+04  0.25275283235E+04  0.10100000352E+00 0. -1.
</event>
<event>
 5   0  0.1070988E-07  0.3160014E+04  0.7818609E-02  0.8199458E-01
        1   -1    0    0  501    0  0.00000000000E+00  0.00000000000E+00  0.17673365977E+04  0.17673365977E+04  0.50400001928E-02 0.  1.
       -1   -1    0    0    0  501  0.00000000000E+00  0.00000000000E+00 -0.14125335130E+04  0.14125335130E+04  0.50400001928E-02 0. -1.
    10030    2    1    2    0    0  0.00000000000E+00  0.00000000000E+00  0.35480308475E+03  0.31798701107E+04  0.31600140335E+04 0.  0.
        3    1    3    3  502    0 -0.15256836988E+04  0.32947131833E+02  0.58939558026E+03  0.16359044662E+04  0.10100000352E+00 0. -1.
       -3    1    3    3    0  502  0.15256836988E+04 -0.32947131833E+02 -0.23459249552E+03  0.15439656445E+04  0.10100000352E+00 0.  1.
</event>
<event>
 5   0  0.3442126E-07  0.3784982E+04  0.7818609E-02  0.8049385E-01
        2   -1    0    0  501    0  0.00000000000E+00  0.00000000000E+00  0.13652418047E+04  0.13652418047E+04  0.25500000920E-02 0. -1.
       -2   -1    0    0    0  501  0.00000000000E+00  0.00000000000E+00 -0.26233605242E+04  0.26233605242E+04  0.25500000920E-02 0.  1.
    10030    2    1    2    0    0  0.00000000000E+00  0.00000000000E+00 -0.12581187195E+04  0.39886023289E+04  0.37849816149E+04 0.  0.
        2    1    3    3  502    0 -0.68041108674E+03 -0.14506705086E+04 -0.16902686826E+04  0.23290367947E+04  0.25500000920E-02 0.  1.
       -2    1    3    3    0  502  0.68041108674E+03  0.14506705086E+04  0.43214996312E+03  0.16595655342E+04  0.25500000920E-02 0. -1.
</event>
<event>
 5   0  0.1070988E-07  0.3801111E+04  0.7818609E-02  0.8045916E-01
       -1   -1    0    0    0  501  0.00000000000E+00  0.00000000000E+00  0.14475411009E+04  0.14475411009E+04  0.50400001928E-02 0. -1.
        1   -1    0    0  501    0  0.00000000000E+00  0.00000000000E+00 -0.24953428990E+04  0.24953428990E+04  0.50400001928E-02 0.  1.
    10030    2    1    2    0    0  0.00000000000E+00  0.00000000000E+00 -0.10478017982E+04  0.39428839999E+04  0.38011111045E+04 0.  0.
        5    1    3    3  502    0  0.11278117298E+04  0.11846591471E+04  0.48003653039E+03  0.17046506249E+04  0.46999998093E+01 0. -1.
       -5    1    3    3    0  502 -0.11278117298E+04 -0.11846591471E+04 -0.15278383286E+04  0.22382333750E+04  0.46999998093E+01 0.  1.
</event>
<event>
 5   0  0.3327241E-07  0.3804314E+04  0.7818609E-02  0.8045230E-01
        2   -1    0    0  501    0  0.00000000000E+00  0.00000000000E+00  0.14101191964E+04  0.14101191964E+04  0.25500000920E-02 0. -1.
       -2   -1    0    0    0  501  0.00000000000E+00  0.00000000000E+00 -0.25658831664E+04  0.25658831664E+04  0.25500000920E-02 0.  1.
    10030    2    1    2    0    0  0.00000000000E+00  0.00000000000E+00 -0.11557639699E+04  0.39760023628E+04  0.38043139243E+04 0.  0.
        3    1    3    3  502    0 -0.13486563935E+04  0.80220527339E+03 -0.17014786826E+04  0.23146138092E+04  0.10100000352E+00 0.  1.
       -3    1    3    3    0  502  0.13486563935E+04 -0.80220527339E+03  0.54571471262E+03  0.16613885536E+04  0.10100000352E+00 0. -1.
</event>
<event>
 5   0  0.3327241E-07  0.3802035E+04  0.7818609E-02  0.8045718E-01
        2   -1    0    0  501    0  0.00000000000E+00  0.00000000000E+00  0.19505759822E+04  0.19505759822E+04  0.25500000920E-02 0. -1.
       -2   -1    0    0    0  501  0.00000000000E+00  0.00000000000E+00 -0.18527180084E+04  0.18527180085E+04  0.25500000920E-02 0.  1.
    10030    2    1    2    0    0  0.00000000000E+00  0.00000000000E+00  0.97857973788E+02  0.38032939907E+04  0.38020348495E+04 0.  0.
        3    1    3    3  502    0 -0.90990566196E+03 -0.10982463762E+04  0.13062437343E+04  0.19339974457E+04  0.10100000352E+00 0. -1.
       -3    1    3    3    0  502  0.90990566196E+03  0.10982463762E+04 -0.12083857605E+04  0.18692965449E+04  0.10100000352E+00 0.  1.
</event>
<event>
 5   0  0.3442126E-07  0.3825059E+04  0.7818609E-02  0.8040799E-01
       -2   -1    0    0    0  501  0.00000000000E+00  0.00000000000E+00  0.18588267444E+04  0.18588267444E+04  0.25500000920E-02 0. -1.
        2   -1    0    0  501    0  0.00000000000E+00  0.00000000000E+00 -0.19677832577E+04  0.19677832577E+04  0.25500000920E-02 0.  1.
    10030    2    1    2    0    0  0.00000000000E+00  0.00000000000E+00 -0.10895651330E+03  0.38266100022E+04  0.38250585076E+04 0.  0.
        2    1    3    3  502    0 -0.44419613177E+03 -0.21232277990E+03  0.17943452035E+04  0.18606627517E+04  0.25500000920E-02 0. -1.
       -2    1    3    3    0  502  0.44419613177E+03  0.21232277990E+03 -0.19033017168E+04  0.19659472504E+04  0.25500000920E-02 0.  1.
</event>
<event>
 5   0  0.1084315E-07  0.3714786E+04  0.7818609E-02  0.8064693E-01
       -1   -1    0    0    0  501  0.00000000000E+00  0.00000000000E+00  0.15166448687E+04  0.15166448687E+04  0.50400001928E-02 0. -1.
        1   -1    0    0  501    0  0.00000000000E+00  0.00000000000E+00 -0.22746975467E+04  0.22746975467E+04  0.50400001928E-02 0.  1.
    10030    2    1    2    0    0  0.00000000000E+00  0.00000000000E+00 -0.75805267800E+03  0.37913424154E+04  0.37147857876E+04 0.  0.
        4    1    3    3  502    0  0.19406357655E+03 -0.11341978042E+04  0.11090481328E+04  0.15981410153E+04  0.12699999809E+01 0. -1.
       -4    1    3    3    0  502 -0.19406357655E+03  0.11341978042E+04 -0.18671008108E+04  0.21932014001E+04  0.12699999809E+01 0.  1.
</event>
<event>
 5   0  0.3539010E-07  0.3809486E+04  0.7818609E-02  0.8044122E-01
       -2   -1    0    0    0  501  0.00000000000E+00  0.00000000000E+00  0.22394305019E+04  0.22394305019E+04  0.25500000920E-02 0. -1.
        2   -1    0    0  501    0  0.00000000000E+00  0.00000000000E+00 -0.16200755686E+04  0.16200755686E+04  0.25500000920E-02 0.  1.
    10030    2    1    2    0    0  0.00000000000E+00  0.00000000000E+00  0.61935493336E+03  0.38595060705E+04  0.38094863925E+04 0.  0.
        1    1    3    3  502    0 -0.15103700717E+04 -0.98822726792E+03  0.92613687036E+03  0.20286794693E+04  0.50400001928E-02 0. -1.
       -1    1    3    3    0  502  0.15103700717E+04  0.98822726792E+03 -0.30678193700E+03  0.18308266012E+04  0.50400001928E-02 0.  1.
</event>
<event>
 5   0  0.3442126E-07  0.3792249E+04  0.7818609E-02  0.8047820E-01
        2   -1    0    0  501    0  0.00000000000E+00  0.00000000000E+00  0.22048958396E+04  0.22048958396E+04  0.25500000920E-02 0. -1.
       -2   -1    0    0    0  501  0.00000000000E+00  0.00000000000E+00 -0.16305934668E+04  0.16305934668E+04  0.25500000920E-02 0.  1.
    10030    2    1    2    0    0  0.00000000000E+00  0.00000000000E+00  0.57430237282E+03  0.38354893064E+04  0.37922493330E+04 0.  0.
        2    1    3    3  502    0  0.15993939721E+04 -0.57225882756E+03  0.11392222768E+04  0.20453284919E+04  0.25500000920E-02 0.  1.
       -2    1    3    3    0  502 -0.15993939721E+04  0.57225882756E+03 -0.56491990396E+03  0.17901608145E+04  0.25500000920E-02 0. -1.
</event>
<event>
 5   0  0.3539010E-07  0.3797204E+04  0.7818609E-02  0.8046755E-01
       -2   -1    0    0    0  501  0.00000000000E+00  0.00000000000E+00  0.14405448298E+04  0.14405448298E+04  0.25500000920E-02 0.  1.
        2   -1    0    0  501    0  0.00000000000E+00  0.00000000000E+00 -0.25023099944E+04  0.25023099944E+04  0.25500000920E-02 0. -1.
    10030    2    1    2    0    0  0.00000000000E+00  0.00000000000E+00 -0.10617651647E+04  0.39428548242E+04  0.37972040898E+04 0.  0.
        1    1    3    3  502    0 -0.10627975124E+04  0.60065741578E+03 -0.20407419675E+04  0.23780150675E+04  0.50400001928E-02 0. -1.
       -1    1    3    3    0  502  0.10627975124E+04 -0.60065741578E+03  0.97897680281E+03  0.15648397567E+04  0.50400001928E-02 0.  1.
</event>
<event>
 5   0  0.3327241E-07  0.3787610E+04  0.7818609E-02  0.8048819E-01
        2   -1    0    0  501    0  0.00000000000E+00  0.00000000000E+00  0.26664080883E+04  0.26664080883E+04  0.25500000920E-02 0. -1.
       -2   -1    0    0    0  501  0.00000000000E+00  0.00000000000E+00 -0.13450669058E+04  0.13450669058E+04  0.25500000920E-02 0.  1.
    10030    2    1    2    0    0  0.00000000000E+00  0.00000000000E+00  0.13213411826E+04  0.40114749941E+04  0.37876099466E+04 0.  0.
        3    1    3    3  502    0  0.18846106350E+04  0.16685917694E+03  0.74863390403E+03  0.20347117641E+04  0.10100000352E+00 0.  1.
       -3    1    3    3    0  502 -0.18846106350E+04 -0.16685917694E+03  0.57270727853E+03  0.19767632300E+04  0.10100000352E+00 0. -1.
</event>
<event>
 5   0  0.1070988E-07  0.3773030E+04  0.7818609E-02  0.8051967E-01
        1   -1    0    0  501    0  0.00000000000E+00  0.00000000000E+00  0.20234590946E+04  0.20234590946E+04  0.50400001928E-02 0. -1.
       -1   -1    0    0    0  501  0.00000000000E+00  0.00000000000E+00 -0.17588393500E+04  0.17588393500E+04  0.50400001928E-02 0.  1.
    10030    2    1    2    0    0  0.00000000000E+00  0.00000000000E+00  0.26461974465E+03  0.37822984446E+04  0.37730303358E+04 0.  0.
        2    1    3    3  502    0  0.12855262295E+04 -0.13750387859E+04  0.69822547808E+01  0.18823809660E+04  0.25500000920E-02 0. -1.
       -2    1    3    3    0  502 -0.12855262295E+04  0.13750387859E+04  0.25763748987E+03  0.18999174786E+04  0.25500000920E-02 0.  1.
</event>
<event>
 5   0  0.3327241E-07  0.3727258E+04  0.7818609E-02  0.8061948E-01
        2   -1    0    0  501    0  0.00000000000E+00  0.00000000000E+00  0.15372673148E+04  0.15372673148E+04  0.25500000920E-02 0.  1.
       -2   -1    0    0    0  501  0.00000000000E+00  0.00000000000E+00 -0.22592768770E+04  0.22592768770E+04  0.25500000920E-02 0. -1.
    10030    2    1    2    0    0  0.00000000000E+00  0.00000000000E+00 -0.72200956222E+03  0.37965441918E+04  0.37272577040E+04 0.  0.
        3    1    3    3  502    0  0.17813033457E+04  0.42174043890E+03 -0.71708273923E+03  0.19659893876E+04  0.10100000352E+00 0.  1.
       -3    1    3    3    0  502 -0.17813033457E+04 -0.42174043890E+03 -0.49268229833E+01  0.18305548041E+04  0.10100000352E+00 0. -1.
</event>
<event>
 5   0  0.3509843E-07  0.3757190E+04  0.7818609E-02  0.8055405E-01
       -2   -1    0    0    0  501  0.00000000000E+00  0.00000000000E+00  0.19171859201E+04  0.19171859201E+04  0.25500000920E-02 0.  1.
        2   -1    0    0  501    0  0.00000000000E+00  0.00000000000E+00 -0.18407813609E+04  0.18407813609E+04  0.25500000920E-02 0. -1.
    10030    2    1    2    0    0  0.00000000000E+00  0.00000000000E+00  0.76404559245E+02  0.37579672810E+04  0.37571904967E+04 0.  0.
        4    1    3    3  502    0  0.16930539232E+04  0.45115841524E+03 -0.63953872066E+03  0.18652042490E+04  0.12699999809E+01 0.  1.
       -4    1    3    3    0  502 -0.16930539232E+04 -0.45115841524E+03  0.71594327991E+03  0.18927630320E+04  0.12699999809E+01 0. -1.
</event>
<event>
 5   0  0.1085771E-07  0.3812264E+04  0.7818609E-02  0.8043528E-01
        1   -1    0    0  501    0  0.00000000000E+00  0.00000000000E+00  0.13756305379E+04  0.13756305379E+04  0.50400001928E-02 0. -1.
       -1   -1    0    0    0  501  0.00000000000E+00  0.00000000000E+00 -0.26412177990E+04  0.26412177990E+04  0.50400001928E-02 0.  1.
    10030    2    1    2    0    0  0.00000000000E+00  0.00000000000E+00 -0.12655872611E+04  0.40168483369E+04  0.38122643463E+04 0.  0.
        1    1    3    3  502    0 -0.11193515859E+04  0.14843819313E+04 -0.10760874978E+04  0.21480926409E+04  0.50400001928E-02 0.  1.
       -1    1    3    3    0  502  0.11193515859E+04 -0.14843819313E+04 -0.18949976328E+03  0.18687556960E+04  0.50400001928E-02 0. -1.
</event>
<event>
 5   0  0.1070988E-07  0.3686663E+04  0.7818609E-02  0.8070924E-01
       -1   -1    0    0    0  501  0.00000000000E+00  0.00000000000E+00  0.33277447022E+04  0.33277447022E+04  0.50400001928E-02 0.  1.
        1   -1    0    0  501    0  0.00000000000E+00  0.00000000000E+00 -0.10210729667E+04  0.10210729667E+04  0.50400001928E-02 0. -1.
    10030    2    1    2    0    0  0.00000000000E+00  0.00000000000E+00  0.23066717355E+04  0.43488176689E+04  0.36866625317E+04 0.  0.
        2    1    3    3  502    0  0.10923771258E+04  0.88700688673E+03 -0.25124088824E+03  0.14294023178E+04  0.25500000920E-02 0. -1.
       -2    1    3    3    0  502 -0.10923771258E+04 -0.88700688673E+03  0.25579126237E+04  0.29194153512E+04  0.25500000920E-02 0.  1.
</event>
<event>
 5   0  0.1070988E-07  0.3743598E+04  0.7818609E-02  0.8058368E-01
        1   -1    0    0  501    0  0.00000000000E+00  0.00000000000E+00  0.20176824229E+04  0.20176824229E+04  0.50400001928E-02 0.  1.
       -1   -1    0    0    0  501  0.00000000000E+00  0.00000000000E+00 -0.17364629111E+04  0.17364629111E+04  0.50400001928E-02 0. -1.
    10030    2    1    2    0    0  0.00000000000E+00  0.00000000000E+00  0.28121951178E+03  0.37541453340E+04  0.37435975712E+04 0.  0.
        5    1    3    3  502    0 -0.18176095509E+03  0.54290453407E+03  0.19277156615E+04  0.20109430971E+04  0.46999998093E+01 0.  1.
       -5    1    3    3    0  502  0.18176095509E+03 -0.54290453407E+03 -0.16464961498E+04  0.17432022370E+04  0.46999998093E+01 0. -1.
</event>
<event>
 5   0  0.1070988E-07  0.3781772E+04  0.7818609E-02  0.8050078E-01
       -1   -1    0    0    0  501  0.00000000000E+00  0.00000000000E+00  0.29080832043E+04  0.29080832043E+04  0.50400001928E-02 0. -1.
        1   -1    0    0  501    0  0.00000000000E+00  0.00000000000E+00 -0.12294869641E+04  0.12294869641E+04  0.50400001928E-02 0.  1.
    10030    2    1    2    0    0  0.00000000000E+00  0.00000000000E+00  0.16785962401E+04  0.41375701684E+04  0.37817722778E+04 0.  0.
        3    1    3    3  502    0 -0.89562889936E+03 -0.44496283129E+03  0.25950556123E+04  0.27810891190E+04  0.10100000352E+00 0. -1.
       -3    1    3    3    0  502  0.89562889936E+03  0.44496283129E+03 -0.91645937212E+03  0.13564810495E+04  0.10100000352E+00 0.  1.
</event>
<event>
 5   0  0.3509843E-07  0.3777593E+04  0.7818609E-02  0.8050981E-01
       -2   -1    0    0    0  501  0.00000000000E+00  0.00000000000E+00  0.17277380353E+04  0.17277380354E+04  0.25500000920E-02 0.  1.
        2   -1    0    0  501    0  0.00000000000E+00  0.00000000000E+00 -0.20648681928E+04  0.20648681928E+04  0.25500000920E-02 0. -1.
    10030    2    1    2    0    0  0.00000000000E+00  0.00000000000E+00 -0.33713015748E+03  0.37926062282E+04  0.37775925216E+04 0.  0.
        4    1    3    3  502    0  0.17537641898E+04 -0.68973017238E+03 -0.29608626158E+03  0.19076386533E+04  0.12699999809E+01 0.  1.
       -4    1    3    3    0  502 -0.17537641898E+04  0.68973017238E+03 -0.41043895899E+02  0.18849675749E+04  0.12699999809E+01 0. -1.
</event>
<event>
 5   0  0.1085771E-07  0.3747055E+04  0.7818609E-02  0.8057613E-01
        1   -1    0    0  501    0  0.00000000000E+00  0.00000000000E+00  0.20165013906E+04  0.20165013906E+04  0.50400001928E-02 0.  1.
       -1   -1    0    0    0  501  0.00000000000E+00  0.00000000000E+00 -0.17406905192E+04  0.17406905192E+04  0.50400001928E-02 0. -1.
    10030    2    1    2    0    0  0.00000000000E+00  0.00000000000E+00  0.27581087142E+03  0.37571919097E+04  0.37470547647E+04 0.  0.
        1    1    3    3  502    0  0.10040572071E+04 -0.77236031678E+03 -0.12462033912E+04  0.17769902156E+04  0.50400001928E-02 0. -1.
       -1    1    3    3    0  502 -0.10040572071E+04  0.77236031678E+03  0.15220142626E+04  0.19802016942E+04  0.50400001928E-02 0.  1.
</event>
<event>
 5   0  0.3377396E-07  0.3731532E+04  0.7818609E-02  0.8061010E-01
       -2   -1    0    0    0  501  0.00000000000E+00  0.00000000000E+00  0.11350338135E+04  0.11350338135E+04  0.25500000920E-02 0. -1.
        2   -1    0    0  501    0  0.00000000000E+00  0.00000000000E+00 -0.30669416330E+04  0.30669416330E+04  0.25500000920E-02 0.  1.
    10030    2    1    2    0    0  0.00000000000E+00  0.00000000000E+00 -0.19319078195E+04  0.42019754466E+04  0.37315318343E+04 0.  0.
        5    1    3    3  502    0  0.37107985178E+03 -0.10253245520E+04 -0.26707807217E+04  0.28848019770E+04  0.46999998093E+01 0.  1.
       -5    1    3    3    0  502 -0.37107985178E+03  0.10253245520E+04  0.73887290219E+03  0.13171734696E+04  0.46999998093E+01 0. -1.
</event>
<event>
 5   0  0.3377396E-07  0.3761899E+04  0.7818609E-02  0.8054381E-01
       -2   -1    0    0    0  501  0.00000000000E+00  0.00000000000E+00  0.16548530375E+04  0.16548530375E+04  0.25500000920E-02 0. -1.
        2   -1    0    0  501    0  0.00000000000E+00  0.00000000000E+00 -0.21379370646E+04  0.21379370646E+04  0.25500000920E-02 0.  1.
    10030    2    1    2    0    0  0.00000000000E+00  0.00000000000E+00 -0.48308402707E+03  0.37927901021E+04  0.37618993317E+04 0.  0.
        5    1    3    3  502    0 -0.12517505056E+04 -0.87641607361E+03  0.86426197477E+03  0.17555498607E+04  0.46999998093E+01 0. -1.
       -5    1    3    3    0  502  0.12517505056E+04  0.87641607361E+03 -0.13473460018E+04  0.20372402414E+04  0.46999998093E+01 0.  1.
</event>
<event>
 5   0  0.3377396E-07  0.3794234E+04  0.7818609E-02  0.8047393E-01
       -2   -1    0    0    0  501  0.00000000000E+00  0.00000000000E+00  0.19614463223E+04  0.19614463223E+04  0.25500000920E-02 0. -1.
        2   -1    0    0  501    0  0.00000000000E+00  0.00000000000E+00 -0.18348977140E+04  0.18348977140E+04  0.25500000920E-02 0.  1.
    10030    2    1    2    0    0  0.00000000000E+00  0.00000000000E+00  0.12654860833E+03  0.37963440363E+04  0.37942342431E+04 0.  0.
        5    1    3    3  502    0  0.69255015713E+03  0.17660342067E+04  0.86281514942E+02  0.18989389482E+04  0.46999998093E+01 0. -1.
       -5    1    3    3    0  502 -0.69255015713E+03 -0.17660342067E+04  0.40267093386E+02  0.18974050880E+04  0.46999998093E+01 0.  1.
</event>
<event>
 5   0  0.3442126E-07  0.3777653E+04  0.7818609E-02  0.8050968E-01
        2   -1    0    0  501    0  0.00000000000E+00  0.00000000000E+00  0.24428520617E+04  0.24428520617E+04  0.25500000920E-02 0. -1.
       -2   -1    0    0    0  501  0.00000000000E+00  0.00000000000E+00 -0.14604505479E+04  0.14604505479E+04  0.25500000920E-02 0.  1.
    10030    2    1    2    0    0  0.00000000000E+00  0.00000000000E+00  0.98240151382E+03  0.39033026095E+04  0.37776525154E+04 0.  0.
        2    1    3    3  502    0  0.42913919488E+02  0.18735916164E+04  0.24782989169E+03  0.18903985836E+04  0.25500000920E-02 0.  1.
       -2    1    3    3    0  502 -0.42913919488E+02 -0.18735916164E+04  0.73457162213E+03  0.20129040260E+04  0.25500000920E-02 0. -1.
</event>
<event>
 5   0  0.1084315E-07  0.3810847E+04  0.7818609E-02  0.8043831E-01
       -1   -1    0    0    0  501  0.00000000000E+00  0.00000000000E+00  0.13103470941E+04  0.13103470941E+04  0.50400001928E-02 0. -1.
        1   -1    0    0  501    0  0.00000000000E+00  0.00000000000E+00 -0.27707459477E+04  0.27707459477E+04  0.50400001928E-02 0.  1.
    10030    2    1    2    0    0  0.00000000000E+00  0.00000000000E+00 -0.14603988536E+04  0.40810930418E+04  0.38108470980E+04 0.  0.
        4    1    3    3  502    0 -0.54019382805E+03 -0.11210539632E+04 -0.22754617320E+04  0.25935109537E+04  0.12699999809E+01 0.  1.
       -4    1    3    3    0  502  0.54019382805E+03  0.11210539632E+04  0.81506287839E+03  0.14875820881E+04  0.12699999809E+01 0. -1.
</event>
<event>
 5   0  0.3539010E-07  0.3692865E+04  0.7818609E-02  0.8069545E-01
        2   -1    0    0  501    0  0.00000000000E+00  0.00000000000E+00  0.20922914455E+04  0.20922914455E+04  0.25500000920E-02 0.  1.
       -2   -1    0    0    0  501  0.00000000000E+00  0.00000000000E+00 -0.16294634292E+04  0.16294634292E+04  0.25500000920E-02 0. -1.
    10030    2    1    2    0    0  0.00000000000E+00  0.00000000000E+00  0.46282801628E+03  0.37217548748E+04  0.36928646841E+04 0.  0.
        1    1    3    3  502    0  0.13609505273E+03 -0.14005260588E+04  0.14363076012E+04  0.20107149550E+04  0.50400001928E-02 0. -1.
       -1    1    3    3    0  502 -0.13609505273E+03  0.14005260588E+04 -0.97347958493E+03  0.17110399198E+04  0.50400001928E-02 0.  1.
</event>
<event>
 5   0  0.3377396E-07  0.3822148E+04  0.7818609E-02  0.8041419E-01
       -2   -1    0    0    0  501  0.00000000000E+00  0.00000000000E+00  0.15776748476E+04  0.15776748476E+04  0.25500000920E-02 0.  1.
        2   -1    0    0  501    0  0.00000000000E+00  0.00000000000E+00 -0.23149277116E+04  0.23149277116E+04  0.25500000920E-02 0. -1.
    10030    2    1    2    0    0  0.00000000000E+00  0.00000000000E+00 -0.73725286395E+03  0.38926025592E+04  0.38221476814E+04 0.  0.
        5    1    3    3  502    0  0.14815215063E+04  0.11149996659E+04 -0.83981108379E+03  0.20355429190E+04  0.46999998093E+01 0.  1.
       -5    1    3    3    0  502 -0.14815215063E+04 -0.11149996659E+04  0.10255821985E+03  0.18570596402E+04  0.46999998093E+01 0. -1.
</event>
<event>
 5   0  0.3509843E-07  0.3190254E+04  0.7818609E-02  0.8191396E-01
        2   -1    0    0  501    0  0.00000000000E+00  0.00000000000E+00  0.14442041973E+04  0.14442041973E+04  0.25500000920E-02 0. -1.
       -2   -1    0    0    0  501  0.00000000000E+00  0.00000000000E+00 -0.17618214603E+04  0.17618214603E+04  0.25500000920E-02 0.  1.
    10030    2    1    2    0    0  0.00000000000E+00  0.00000000000E+00 -0.31761726300E+03  0.32060256577E+04  0.31902538758E+04 0.  0.
        4    1    3    3  502    0 -0.94697297359E+02 -0.10513683560E+04  0.10429651516E+04  0.14839544867E+04  0.12699999809E+01 0. -1.
       -4    1    3    3    0  502  0.94697297359E+02  0.10513683560E+04 -0.13605824146E+04  0.17220711710E+04  0.12699999809E+01 0.  1.
</event>
<event>
 5   0  0.3377396E-07  0.3803254E+04  0.7818609E-02  0.8045457E-01
        2   -1    0    0  501    0  0.00000000000E+00  0.00000000000E+00  0.29058648328E+04  0.29058648328E+04  0.25500000920E-02 0.  1.
       -2   -1    0    0    0  501  0.00000000000E+00  0.00000000000E+00 -0.12444434075E+04  0.12444434075E+04  0.25500000920E-02 0. -1.
    10030    2    1    2    0    0  0.00000000000E+00  0.00000000000E+00  0.16614214253E+04  0.41503082403E+04  0.38032535199E+04 0.  0.
        5    1    3    3  502    0 -0.14930850025E+04  0.68123962783E+03  0.18789785913E+04  0.24947891478E+04  0.46999998093E+01 0.  1.
       -5    1    3    3    0  502  0.14930850025E+04 -0.68123962783E+03 -0.21755716602E+03  0.16555190925E+04  0.46999998093E+01 0. -1.
</event>
<event>
 5   0  0.3377396E-07  0.3853705E+04  0.7818609E-02  0.8034727E-01
       -2   -1    0    0    0  501  0.00000000000E+00  0.00000000000E+00  0.13633925802E+04  0.13633925802E+04  0.25500000920E-02 0.  1.
        2   -1    0    0  501    0  0.00000000000E+00  0.00000000000E+00 -0.27231780997E+04  0.27231780997E+04  0.25500000920E-02 0. -1.
    10030    2    1    2    0    0  0.00000000000E+00  0.00000000000E+00 -0.13597855195E+04  0.40865706799E+04  0.38537051344E+04 0.  0.
        5    1    3    3  502    0 -0.94712678070E+03 -0.54189913619E+03  0.10041615002E+04  0.14829248871E+04  0.46999998093E+01 0.  1.
       -5    1    3    3    0  502  0.94712678070E+03  0.54189913619E+03 -0.23639470196E+04  0.26036457928E+04  0.46999998093E+01 0. -1.
</event>
<event>
 5   0  0.1084315E-07  0.4029259E+04  0.7818609E-02  0.7998670E-01
       -1   -1    0    0    0  501  0.00000000000E+00  0.00000000000E+00  0.20092306507E+04  0.20092306507E+04  0.50400001928E-02 0. -1.
        1   -1    0    0  501    0  0.00000000000E+00  0.00000000000E+00 -0.20200431295E+04  0.20200431295E+04  0.50400001928E-02 0.  1.
    10030    2    1    2    0    0  0.00000000000E+00  0.00000000000E+00 -0.10812478855E+02  0.40292737802E+04  0.40292592726E+04 0.  0.
        4    1    3    3  502    0  0.25324294047E+03 -0.19877714811E+04 -0.21364606006E+03  0.20151956977E+04  0.12699999809E+01 0.  1.
       -4    1    3    3    0  502 -0.25324294047E+03  0.19877714811E+04  0.20283358120E+03  0.20140780825E+04  0.12699999809E+01 0. -1.
</event>
<event>
 5   0  0.1070988E-07  0.3792335E+04  0.7818609E-02  0.8047802E-01
       -1   -1    0    0    0  501  0.00000000000E+00  0.00000000000E+00  0.29102030598E+04  0.29102030598E+04  0.50400001928E-02 0.  1.
        1   -1    0    0  501    0  0.00000000000E+00  0.00000000000E+00 -0.12354640299E+04  0.12354640300E+04  0.50400001928E-02 0. -1.
    10030    2    1    2    0    0  0.00000000000E+00  0.00000000000E+00  0.16747390298E+04  0.41456670897E+04  0.37923350064E+04 0.  0.
        3    1    3    3  502    0 -0.12120359024E+03  0.14466990572E+04  0.21707783297E+04  0.26114951732E+04  0.10100000352E+00 0.  1.
       -3    1    3    3    0  502  0.12120359024E+03 -0.14466990572E+04 -0.49603929992E+03  0.15341719166E+04  0.10100000352E+00 0. -1.
</event>
<event>
 5   0  0.1070988E-07  0.3818012E+04  0.7818609E-02  0.8042300E-01
       -3   -1    0    0    0  501  0.00000000000E+00  0.00000000000E+00  0.21634479213E+04  0.21634479236E+04  0.10100000352E+00 0. -1.
        3   -1    0    0  501    0  0.00000000000E+00  0.00000000000E+00 -0.16844892306E+04  0.16844892336E+04  0.10100000352E+00 0.  1.
    10030    2    1    2    0    0  0.00000000000E+00  0.00000000000E+00  0.47895869069E+03  0.38479371572E+04  0.38180124330E+04 0.  0.
        4    1    3    3  502    0  0.44469851612E+03 -0.96953434876E+03  0.18350967875E+04  0.21225775500E+04  0.12699999809E+01 0. -1.
       -4    1    3    3    0  502 -0.44469851612E+03  0.96953434876E+03 -0.13561380968E+04  0.17253596072E+04  0.12699999809E+01 0.  1.
</event>
<event>
 5   0  0.3539010E-07  0.3835304E+04  0.7818609E-02  0.8038621E-01
        2   -1    0    0  501    0  0.00000000000E+00  0.00000000000E+00  0.29244623830E+04  0.29244623830E+04  0.25500000920E-02 0. -1.
       -2   -1    0    0    0  501  0.00000000000E+00  0.00000000000E+00 -0.12574584967E+04  0.12574584967E+04  0.25500000920E-02 0.  1.
    10030    2    1    2    0    0  0.00000000000E+00  0.00000000000E+00  0.16670038863E+04  0.41819208798E+04  0.38353044583E+04 0.  0.
        1    1    3    3  502    0  0.60072205768E+03  0.13606325500E+04  0.21533524378E+04  0.26170813224E+04  0.50400001928E-02 0. -1.
       -1    1    3    3    0  502 -0.60072205768E+03 -0.13606325500E+04 -0.48634855147E+03  0.15648395574E+04  0.50400001928E-02 0.  1.
</event>
<event>
 5   0  0.3377396E-07  0.3319414E+04  0.7818609E-02  0.8157973E-01
       -2   -1    0    0    0  501  0.00000000000E+00  0.00000000000E+00  0.13930367152E+04  0.13930367152E+04  0.25500000920E-02 0.  1.
        2   -1    0    0  501    0  0.00000000000E+00  0.00000000000E+00 -0.19774259764E+04  0.19774259764E+04  0.25500000920E-02 0. -1.
    10030    2    1    2    0    0  0.00000000000E+00  0.00000000000E+00 -0.58438926121E+03  0.33704626917E+04  0.33194137957E+04 0.  0.
        5    1    3    3  502    0  0.11071343486E+04 -0.29662979778E+03  0.92662771442E+03  0.14739052595E+04  0.46999998093E+01 0.  1.
       -5    1    3    3    0  502 -0.11071343486E+04  0.29662979778E+03 -0.15110169756E+04  0.18965574322E+04  0.46999998093E+01 0. -1.
</event>
<event>
 5   0  0.1070988E-07  0.3781415E+04  0.7818609E-02  0.8050155E-01
       -3   -1    0    0    0  501  0.00000000000E+00  0.00000000000E+00  0.19743135115E+04  0.19743135141E+04  0.10100000352E+00 0.  1.
        3   -1    0    0  501    0  0.00000000000E+00  0.00000000000E+00 -0.18106420510E+04  0.18106420538E+04  0.10100000352E+00 0. -1.
    10030    2    1    2    0    0  0.00000000000E+00  0.00000000000E+00  0.16367146049E+03  0.37849555679E+04  0.37814151192E+04 0.  0.
        4    1    3    3  502    0 -0.46831118394E+02 -0.80352738342E+03 -0.16305916222E+04  0.18184279092E+04  0.12699999809E+01 0. -1.
       -4    1    3    3    0  502  0.46831118394E+02  0.80352738342E+03  0.17942630827E+04  0.19665276587E+04  0.12699999809E+01 0.  1.
</event>
<event>
 5   0  0.1085771E-07  0.3751051E+04  0.7818609E-02  0.8056742E-01
        1   -1    0    0  501    0  0.00000000000E+00  0.00000000000E+00  0.17179620983E+04  0.17179620983E+04  0.50400001928E-02 0. -1.
       -1   -1    0    0    0  501  0.00000000000E+00  0.00000000000E+00 -0.20475396823E+04  0.20475396823E+04  0.50400001928E-02 0.  1.
    10030    2    1    2    0    0  0.00000000000E+00  0.00000000000E+00 -0.32957758401E+03  0.37655017805E+04  0.37510508228E+04 0.  0.
        1    1    3    3  502    0 -0.51736903658E+03  0.15661902136E+04  0.73138395043E+03  0.18043128853E+04  0.50400001928E-02 0. -1.
       -1    1    3    3    0  502  0.51736903658E+03 -0.15661902136E+04 -0.10609615344E+04  0.19611888952E+04  0.50400001928E-02 0.  1.
</event>
<event>
 5   0  0.3509843E-07  0.3843131E+04  0.7818609E-02  0.8036962E-01
       -2   -1    0    0    0  501  0.00000000000E+00  0.00000000000E+00  0.25622329013E+04  0.25622329013E+04  0.25500000920E-02 0.  1.
        2   -1    0    0  501    0  0.00000000000E+00  0.00000000000E+00 -0.14410923018E+04  0.14410923018E+04  0.25500000920E-02 0. -1.
    10030    2    1    2    0    0  0.00000000000E+00  0.00000000000E+00  0.11211405995E+04  0.40033252030E+04  0.38431310721E+04 0.  0.
        4    1    3    3  502    0 -0.34043401070E+03 -0.96733578911E+03  0.22533548021E+04  0.24757308662E+04  0.12699999809E+01 0.  1.
       -4    1    3    3    0  502  0.34043401070E+03  0.96733578911E+03 -0.11322142026E+04  0.15275943369E+04  0.12699999809E+01 0. -1.
</event>
<event>
 5   0  0.1085771E-07  0.3803771E+04  0.7818609E-02  0.8045346E-01
        1   -1    0    0  501    0  0.00000000000E+00  0.00000000000E+00  0.14274007676E+04  0.14274007676E+04  0.50400001928E-02 0. -1.
       -1   -1    0    0    0  501  0.00000000000E+00  0.00000000000E+00 -0.25340944924E+04  0.25340944924E+04  0.50400001928E-02 0.  1.
    10030    2    1    2    0    0  0.00000000000E+00  0.00000000000E+00 -0.11066937248E+04  0.39614952600E+04  0.38037709834E+04 0.  0.
        1    1    3    3  502    0  0.37054455341E+03  0.14038599534E+04  0.72602118260E+03  0.16233400114E+04  0.50400001928E-02 0. -1.
       -1    1    3    3    0  502 -0.37054455341E+03 -0.14038599534E+04 -0.18327149074E+04  0.23381552486E+04  0.50400001928E-02 0.  1.
</event>
<event>
 5   0  0.3509843E-07  0.3886526E+04  0.7818609E-02  0.8027837E-01
       -2   -1    0    0    0  501  0.00000000000E+00  0.00000000000E+00  0.16876605686E+04  0.16876605686E+04  0.25500000920E-02 0.  1.
        2   -1    0    0  501    0  0.00000000000E+00  0.00000000000E+00 -0.22375776952E+04  0.22375776952E+04  0.25500000920E-02 0. -1.
    10030    2    1    2    0    0  0.00000000000E+00  0.00000000000E+00 -0.54991712660E+03  0.39252382639E+04  0.38865262873E+04 0.  0.
        4    1    3    3  502    0 -0.10391533435E+04 -0.13142496800E+04  0.71931574899E+03  0.18233235182E+04  0.12699999809E+01 0.  1.
       -4    1    3    3    0  502  0.10391533435E+04  0.13142496800E+04 -0.12692328756E+04  0.21019147456E+04  0.12699999809E+01 0. -1.
</event>
<event>
 5   0  0.3539010E-07  0.3815917E+04  0.7818609E-02  0.8042748E-01
        2   -1    0    0  501    0  0.00000000000E+00  0.00000000000E+00  0.25762460518E+04  0.25762460518E+04  0.25500000920E-02 0.  1.
       -2   -1    0    0    0  501  0.00000000000E+00  0.00000000000E+00 -0.14130269829E+04  0.14130269829E+04  0.25500000920E-02 0. -1.
    10030    2    1    2    0    0  0.00000000000E+00  0.00000000000E+00  0.11632190689E+04  0.39892730347E+04  0.38159167632E+04 0.  0.
        1    1    3    3  502    0 -0.14995783575E+02 -0.17028775365E+04  0.14810974706E+04  0.22569152610E+04  0.50400001928E-02 0.  1.
       -1    1    3    3    0  502  0.14995783575E+02  0.17028775365E+04 -0.31787840172E+03  0.17323577737E+04  0.50400001928E-02 0. -1.
</event>
<event>
 5   0  0.1070988E-07  0.3815289E+04  0.7818609E-02  0.8042882E-01
        1   -1    0    0  501    0  0.00000000000E+00  0.00000000000E+00  0.19391144381E+04  0.19391144381E+04  0.50400001928E-02 0.  1.
       -1   -1    0    0    0  501  0.00000000000E+00  0.00000000000E+00 -0.18766856580E+04  0.18766856580E+04  0.50400001928E-02 0. -1.
    10030    2    1    2    0    0  0.00000000000E+00  0.00000000000E+00  0.62428780078E+02  0.38158000962E+04  0.38152893758E+04 0.  0.
        2    1    3    3  502    0  0.72626902554E+03 -0.43848815789E+03 -0.16776306374E+04  0.18799423177E+04  0.25500000920E-02 0. -1.
       -2    1    3    3    0  502 -0.72626902554E+03  0.43848815789E+03  0.17400594175E+04  0.19358577785E+04  0.25500000920E-02 0.  1.
</event>
<event>
 5   0  0.1085771E-07  0.3719450E+04  0.7818609E-02  0.8063665E-01
       -1   -1    0    0    0  501  0.00000000000E+00  0.00000000000E+00  0.19900390940E+04  0.19900390940E+04  0.50400001928E-02 0. -1.
        1   -1    0    0  501    0  0.00000000000E+00  0.00000000000E+00 -0.17379438624E+04  0.17379438624E+04  0.50400001928E-02 0.  1.
    10030    2    1    2    0    0  0.00000000000E+00  0.00000000000E+00  0.25209523157E+03  0.37279829564E+04  0.37194495449E+04 0.  0.
        1    1    3    3  502    0  0.16727003737E+04  0.72271996388E+03 -0.24672709159E+03  0.18387835501E+04  0.50400001928E-02 0.  1.
       -1    1    3    3    0  502 -0.16727003737E+04 -0.72271996388E+03  0.49882232316E+03  0.18891994063E+04  0.50400001928E-02 0. -1.
</event>
<event>
 5   0  0.3509843E-07  0.3922827E+04  0.7818609E-02  0.8020298E-01
        2   -1    0    0  501    0  0.00000000000E+00  0.00000000000E+00  0.23597096935E+04  0.23597096935E+04  0.25500000920E-02 0. -1.
       -2   -1    0    0    0  501  0.00000000000E+00  0.00000000000E+00 -0.16303461263E+04  0.16303461263E+04  0.25500000920E-02 0.  1.
    10030    2    1    2    0    0  0.00000000000E+00  0.00000000000E+00  0.72936356715E+03  0.39900558198E+04  0.39228273263E+04 0.  0.
        4    1    3    3  502    0 -0.87126167011E+02 -0.55208622579E+03 -0.15476323732E+04  0.16454658141E+04  0.12699999809E+01 0.  1.
       -4    1    3    3    0  502  0.87126167011E+02  0.55208622579E+03  0.22769959404E+04  0.23445900057E+04  0.12699999809E+01 0. -1.
</event>
<event>
 5   0  0.1084315E-07  0.3900675E+04  0.7818609E-02  0.8024889E-01
       -1   -1    0    0    0  501  0.00000000000E+00  0.00000000000E+00  0.21011623018E+04  0.21011623018E+04  0.50400001928E-02 0. -1.
        1   -1    0    0  501    0  0.00000000000E+00  0.00000000000E+00 -0.18103392019E+04  0.18103392019E+04  0.50400001928E-02 0.  1.
    10030    2    1    2    0    0  0.00000000000E+00  0.00000000000E+00  0.29082309984E+03  0.39115015037E+04  0.39006750619E+04 0.  0.
        4    1    3    3  502    0 -0.13179468737E+04  0.14181418218E+04  0.38208502155E+03  0.19733476038E+04  0.12699999809E+01 0. -1.
       -4    1    3    3    0  502  0.13179468737E+04 -0.14181418218E+04 -0.91261921711E+02  0.19381539000E+04  0.12699999809E+01 0.  1.
</event>
<event>
 5   0  0.3509843E-07  0.3809339E+04  0.7818609E-02  0.8044154E-01
        2   -1    0    0  501    0  0.00000000000E+00  0.00000000000E+00  0.17111408251E+04  0.17111408251E+04  0.25500000920E-02 0.  1.
       -2   -1    0    0    0  501  0.00000000000E+00  0.00000000000E+00 -0.21200858576E+04  0.21200858576E+04  0.25500000920E-02 0. -1.
    10030    2    1    2    0    0  0.00000000000E+00  0.00000000000E+00 -0.40894503244E+03  0.38312266827E+04  0.38093387687E+04 0.  0.
        4    1    3    3  502    0 -0.78005726618E+03 -0.93658460336E+03  0.12675229749E+04  0.17584925825E+04  0.12699999809E+01 0.  1.
       -4    1    3    3    0  502  0.78005726618E+03  0.93658460336E+03 -0.16764680073E+04  0.20727341002E+04  0.12699999809E+01 0. -1.
</event>
<event>
 5   0  0.1070988E-07  0.3814920E+04  0.7818609E-02  0.8042961E-01
       -1   -1    0    0    0  501  0.00000000000E+00  0.00000000000E+00  0.17814256519E+04  0.17814256519E+04  0.50400001928E-02 0. -1.
        1   -1    0    0  501    0  0.00000000000E+00  0.00000000000E+00 -0.20424116889E+04  0.20424116889E+04  0.50400001928E-02 0.  1.
    10030    2    1    2    0    0  0.00000000000E+00  0.00000000000E+00 -0.26098603705E+03  0.38238373408E+04  0.38149204838E+04 0.  0.
        2    1    3    3  502    0  0.12581195045E+04  0.44250426533E+03  0.12364136179E+04  0.18186240257E+04  0.25500000920E-02 0. -1.
       -2    1    3    3    0  502 -0.12581195045E+04 -0.44250426533E+03 -0.14973996549E+04  0.20052133151E+04  0.25500000920E-02 0.  1.
</event>
<event>
 5   0  0.3539010E-07  0.3795626E+04  0.7818609E-02  0.8047094E-01
        2   -1    0    0  501    0  0.00000000000E+00  0.00000000000E+00  0.12690081619E+04  0.12690081619E+04  0.25500000920E-02 0. -1.
       -2   -1    0    0    0  501  0.00000000000E+00  0.00000000000E+00 -0.28381959149E+04  0.28381959149E+04  0.25500000920E-02 0.  1.
    10030    2    1    2    0    0  0.00000000000E+00  0.00000000000E+00 -0.15691877530E+04  0.41072040769E+04  0.37956257883E+04 0.  0.
        1    1    3    3  502    0 -0.21476528323E+02 -0.64359078432E+03  0.11471765925E+04  0.13155548158E+04  0.50400001928E-02 0. -1.
       -1    1    3    3    0  502  0.21476528323E+02  0.64359078432E+03 -0.27163643455E+04  0.27916492611E+04  0.50400001928E-02 0.  1.
</event>
<event>
 5   0  0.1070988E-07  0.3808273E+04  0.7818609E-02  0.8044382E-01
       -1   -1    0    0    0  501  0.00000000000E+00  0.00000000000E+00  0.28503758686E+04  0.28503758686E+04  0.50400001928E-02 0.  1.
        1   -1    0    0  501    0  0.00000000000E+00  0.00000000000E+00 -0.12720204791E+04  0.12720204791E+04  0.50400001928E-02 0. -1.
    10030    2    1    2    0    0  0.00000000000E+00  0.00000000000E+00  0.15783553895E+04  0.41223963477E+04  0.38082733505E+04 0.  0.
        3    1    3    3  502    0  0.17422476687E+04 -0.37421953795E+03  0.62807888159E+02  0.17830905873E+04  0.10100000352E+00 0.  1.
       -3    1    3    3    0  502 -0.17422476687E+04  0.37421953795E+03  0.15155475013E+04  0.23393057604E+04  0.10100000352E+00 0. -1.
</event>
<event>
 5   0  0.1085771E-07  0.3792285E+04  0.7818609E-02  0.8047813E-01
        1   -1    0    0  501    0  0.00000000000E+00  0.00000000000E+00  0.27347540000E+04  0.27347540000E+04  0.50400001928E-02 0.  1.
       -1   -1    0    0    0  501  0.00000000000E+00  0.00000000000E+00 -0.13146907962E+04  0.13146907962E+04  0.50400001928E-02 0. -1.
    10030    2    1    2    0    0  0.00000000000E+00  0.00000000000E+00  0.14200632038E+04  0.40494447961E+04  0.37922847538E+04 0.  0.
        1    1    3    3  502    0  0.74173384188E+03 -0.59231279207E+03  0.24627887208E+04  0.26393809538E+04  0.50400001928E-02 0.  1.
       -1    1    3    3    0  502 -0.74173384188E+03  0.59231279207E+03 -0.10427255170E+04  0.14100638424E+04  0.50400001928E-02 0. -1.
</event>
<event>
 5   0  0.1070988E-07  0.3683811E+04  0.7818609E-02  0.8071559E-01
       -1   -1    0    0    0  501  0.00000000000E+00  0.00000000000E+00  0.28460882925E+04  0.28460882925E+04  0.50400001928E-02 0.  1.
        1   -1    0    0  501    0  0.00000000000E+00  0.00000000000E+00 -0.11920273946E+04  0.11920273946E+04  0.50400001928E-02 0. -1.
    10030    2    1    2    0    0  0.00000000000E+00  0.00000000000E+00  0.16540608979E+04  0.40381156872E+04  0.36838106424E+04 0.  0.
        3    1    3    3  502    0  0.10231184595E+04  0.90093600068E+03  0.21847701691E+04  0.25752044116E+04  0.10100000352E+00 0.  1.
       -3    1    3    3    0  502 -0.10231184595E+04 -0.90093600068E+03 -0.53070927118E+03  0.14629112756E+04  0.10100000352E+00 0. -1.
</event>
<event>
 5   0  0.3327241E-07  0.3826655E+04  0.7818609E-02  0.8040459E-01
        2   -1    0    0  501    0  0.00000000000E+00  0.00000000000E+00  0.21718519154E+04  0.21718519154E+04  0.25500000920E-02 0. -1.
       -2   -1    0    0    0  501  0.00000000000E+00  0.00000000000E+00 -0.16855762057E+04  0.16855762057E+04  0.25500000920E-02 0.  1.
    10030    2    1    2    0    0  0.00000000000E+00  0.00000000000E+00  0.48627570975E+03  0.38574281211E+04  0.38266548895E+04 0.  0.
        3    1    3    3  502    0 -0.63917241776E+03  0.16784014600E+04 -0.42190168416E+03  0.18448777417E+04  0.10100000352E+00 0.  1.
       -3    1    3    3    0  502  0.63917241776E+03 -0.16784014600E+04  0.90817739391E+03  0.20125503794E+04  0.10100000352E+00 0. -1.
</event>
<event>
 5   0  0.3442126E-07  0.3802666E+04  0.7818609E-02  0.8045583E-01
        2   -1    0    0  501    0  0.00000000000E+00  0.00000000000E+00  0.18280777903E+04  0.18280777903E+04  0.25500000920E-02 0. -1.
       -2   -1    0    0    0  501  0.00000000000E+00  0.00000000000E+00 -0.19775241396E+04  0.19775241396E+04  0.25500000920E-02 0.  1.
    10030    2    1    2    0    0  0.00000000000E+00  0.00000000000E+00 -0.14944634937E+03  0.38056019299E+04  0.38026664115E+04 0.  0.
        2    1    3    3  502    0  0.16292247493E+04 -0.39656454873E+03  0.82231202615E+03  0.18675743074E+04  0.25500000920E-02 0. -1.
       -2    1    3    3    0  502 -0.16292247493E+04  0.39656454873E+03 -0.97175837552E+03  0.19380276225E+04  0.25500000920E-02 0.  1.
</event>
<event>
 5   0  0.1084315E-07  0.3771833E+04  0.7818609E-02  0.8052227E-01
        1   -1    0    0  501    0  0.00000000000E+00  0.00000000000E+00  0.16212654093E+04  0.16212654093E+04  0.50400001928E-02 0.  1.
       -1   -1    0    0    0  501  0.00000000000E+00  0.00000000000E+00 -0.21937688500E+04  0.21937688500E+04  0.50400001928E-02 0. -1.
    10030    2    1    2    0    0  0.00000000000E+00  0.00000000000E+00 -0.57250344067E+03  0.38150342593E+04  0.37718332691E+04 0.  0.
        4    1    3    3  502    0 -0.15627602294E+04  0.94919342490E+03 -0.75359608451E+03  0.19776492014E+04  0.12699999809E+01 0. -1.
       -4    1    3    3    0  502  0.15627602294E+04 -0.94919342490E+03  0.18109264384E+03  0.18373850579E+04  0.12699999809E+01 0.  1.
</event>
<event>
 5   0  0.3539010E-07  0.3788118E+04  0.7818609E-02  0.8048710E-01
        2   -1    0    0  501    0  0.00000000000E+00  0.00000000000E+00  0.19153944588E+04  0.19153944588E+04  0.25500000920E-02 0.  1.
       -2   -1    0    0    0  501  0.00000000000E+00  0.00000000000E+00 -0.18729608861E+04  0.18729608861E+04  0.25500000920E-02 0. -1.
    10030    2    1    2    0    0  0.00000000000E+00  0.00000000000E+00  0.42433572761E+02  0.37883553449E+04  0.37881176871E+04 0.  0.
        1    1    3    3  502    0  0.17917941091E+03  0.12117377843E+04 -0.14235347717E+04  0.18779949322E+04  0.50400001928E-02 0. -1.
       -1    1    3    3    0  502 -0.17917941091E+03 -0.12117377843E+04  0.14659683445E+04  0.19103604127E+04  0.50400001928E-02 0.  1.
</event>
<event>
 5   0  0.3377396E-07  0.3796789E+04  0.7818609E-02  0.8046844E-01
        2   -1    0    0  501    0  0.00000000000E+00  0.00000000000E+00  0.25342974988E+04  0.25342974988E+04  0.25500000920E-02 0. -1.
       -2   -1    0    0    0  501  0.00000000000E+00  0.00000000000E+00 -0.14220518627E+04  0.14220518627E+04  0.25500000920E-02 0.  1.
    10030    2    1    2    0    0  0.00000000000E+00  0.00000000000E+00  0.11122456361E+04  0.39563493615E+04  0.37967894220E+04 0.  0.
        5    1    3    3  502    0 -0.16398550461E+04 -0.91031185679E+03  0.86186107557E+03  0.20641266561E+04  0.46999998093E+01 0. -1.
       -5    1    3    3    0  502  0.16398550461E+04  0.91031185679E+03  0.25038456057E+03  0.18922227054E+04  0.46999998093E+01 0.  1.
</event>
<event>
 5   0  0.1084315E-07  0.3765397E+04  0.7818609E-02  0.8053622E-01
       -1   -1    0    0    0  501  0.00000000000E+00  0.00000000000E+00  0.19012055744E+04  0.19012055744E+04  0.50400001928E-02 0.  1.
        1   -1    0    0  501    0  0.00000000000E+00  0.00000000000E+00 -0.18643714133E+04  0.18643714133E+04  0.50400001928E-02 0. -1.
    10030    2    1    2    0    0  0.00000000000E+00  0.00000000000E+00  0.36834161143E+02  0.37655769877E+04  0.37653968310E+04 0.  0.
        4    1    3    3  502    0 -0.17032666237E+04 -0.15133017315E+03 -0.76936022229E+03  0.18750826054E+04  0.12699999809E+01 0. -1.
       -4    1    3    3    0  502  0.17032666237E+04  0.15133017315E+03  0.80619438343E+03  0.18904943823E+04  0.12699999809E+01 0.  1.
</event>
<event>
 5   0  0.3539010E-07  0.3108524E+04  0.7818609E-02  0.8213403E-01
        2   -1    0    0  501    0  0.00000000000E+00  0.00000000000E+00  0.15004000689E+04  0.15004000689E+04  0.25500000920E-02 0.  1.
       -2   -1    0    0    0  501  0.00000000000E+00  0.00000000000E+00 -0.16100569728E+04  0.16100569728E+04  0.25500000920E-02 0. -1.
    10030    2    1    2    0    0  0.00000000000E+00  0.00000000000E+00 -0.10965690393E+03  0.31104570416E+04  0.31085235034E+04 0.  0.
        1    1    3    3  502    0 -0.92317748602E+03  0.94288754392E+03  0.76692289536E+03  0.15262582739E+04  0.50400001928E-02 0.  1.
       -1    1    3    3    0  502  0.92317748602E+03 -0.94288754392E+03 -0.87657979929E+03  0.15841987677E+04  0.50400001928E-02 0. -1.
</event>
<event>
 5   0  0.1085771E-07  0.3823791E+04  0.7818609E-02  0.8041069E-01
        1   -1    0    0  501    0  0.00000000000E+00  0.00000000000E+00  0.15471819416E+04  0.15471819416E+04  0.50400001928E-02 0.  1.
       -1   -1    0    0    0  501  0.00000000000E+00  0.00000000000E+00 -0.23625817691E+04  0.23625817691E+04  0.50400001928E-02 0. -1.
    10030    2    1    2    0    0  0.00000000000E+00  0.00000000000E+00 -0.81539982747E+03  0.39097637107E+04  0.38237907101E+04 0.  0.
        1    1    3    3  502    0  0.15156852828E+04  0.85124551623E+03  0.40607318078E+03  0.17851656039E+04  0.50400001928E-02 0.  1.
       -1    1    3    3    0  502 -0.15156852828E+04 -0.85124551623E+03 -0.12214730082E+04  0.21245981067E+04  0.50400001928E-02 0. -1.
</event>
<event>
 5   0  0.3539010E-07  0.3783804E+04  0.7818609E-02  0.8049640E-01
        2   -1    0    0  501    0  0.00000000000E+00  0.00000000000E+00  0.21984191130E+04  0.21984191130E+04  0.25500000920E-02 0.  1.
       -2   -1    0    0    0  501  0.00000000000E+00  0.00000000000E+00 -0.16281209642E+04  0.16281209642E+04  0.25500000920E-02 0. -1.
    10030    2    1    2    0    0  0.00000000000E+00  0.00000000000E+00  0.57029814885E+03  0.38265400772E+04  0.37838035075E+04 0.  0.
        1    1    3    3  502    0 -0.21501757112E+03  0.18077400479E+04 -0.23557987280E+03  0.18356618733E+04  0.50400001928E-02 0. -1.
       -1    1    3    3    0  502  0.21501757112E+03 -0.18077400479E+04  0.80587802165E+03  0.19908782038E+04  0.50400001928E-02 0.  1.
</event>
<event>
 5   0  0.1084315E-07  0.3819445E+04  0.7818609E-02  0.8041995E-01
       -1   -1    0    0    0  501  0.00000000000E+00  0.00000000000E+00  0.31952617106E+04  0.31952617106E+04  0.50400001928E-02 0. -1.
        1   -1    0    0  501    0  0.00000000000E+00  0.00000000000E+00 -0.11413899146E+04  0.11413899146E+04  0.50400001928E-02 0.  1.
    10030    2    1    2    0    0  0.00000000000E+00  0.00000000000E+00  0.20538717960E+04  0.43366516252E+04  0.38194447193E+04 0.  0.
        4    1    3    3  502    0  0.37305464219E+03  0.67019358554E+02  0.31521256558E+04  0.31748321410E+04  0.12699999809E+01 0. -1.
       -4    1    3    3    0  502 -0.37305464219E+03 -0.67019358554E+02 -0.10982538598E+04  0.11618194842E+04  0.12699999809E+01 0.  1.
</event>
<event>
 5   0  0.3442126E-07  0.3846647E+04  0.7818609E-02  0.8036218E-01
        2   -1    0    0  501    0  0.00000000000E+00  0.00000000000E+00  0.16258004499E+04  0.16258004499E+04  0.25500000920E-02 0.  1.
       -2   -1    0    0    0  501  0.00000000000E+00  0.00000000000E+00 -0.22752935633E+04  0.22752935633E+04  0.25500000920E-02 0. -1.
    10030    2    1    2    0    0  0.00000000000E+00  0.00000000000E+00 -0.64949311338E+03  0.39010940133E+04  0.38466470069E+04 0.  0.
        2    1    3    3  502    0 -0.71292937785E+03  0.11157768919E+04 -0.17394635752E+04  0.21860832326E+04  0.25500000920E-02 0. -1.
       -2    1    3    3    0  502  0.71292937785E+03 -0.11157768919E+04  0.10899704618E+04  0.17150107807E+04  0.25500000920E-02 0.  1.
</event>
<event>
 5   0  0.3442126E-07  0.3722527E+04  0.7818609E-02  0.8062988E-01
       -2   -1    0    0    0  501  0.00000000000E+00  0.00000000000E+00  0.14478228168E+04  0.14478228168E+04  0.25500000920E-02 0.  1.
        2   -1    0    0  501    0  0.00000000000E+00  0.00000000000E+00 -0.23927669219E+04  0.23927669219E+04  0.25500000920E-02 0. -1.
    10030    2    1    2    0    0  0.00000000000E+00  0.00000000000E+00 -0.94494410505E+03  0.38405897387E+04  0.37225273913E+04 0.  0.
        2    1    3    3  502    0  0.18273036128E+04 -0.45209324571E+02 -0.11031169172E+03  0.18311884244E+04  0.25500000920E-02 0. -1.
       -2    1    3    3    0  502 -0.18273036128E+04  0.45209324571E+02 -0.83463241333E+03  0.20094013143E+04  0.25500000920E-02 0.  1.
</event>
<event>
 5   0  0.1085771E-07  0.3819607E+04  0.7818609E-02  0.8041960E-01
       -1   -1    0    0    0  501  0.00000000000E+00  0.00000000000E+00  0.23538366219E+04  0.23538366219E+04  0.50400001928E-02 0. -1.
        1   -1    0    0  501    0  0.00000000000E+00  0.00000000000E+00 -0.15495336818E+04  0.15495336818E+04  0.50400001928E-02 0.  1.
    10030    2    1    2    0    0  0.00000000000E+00  0.00000000000E+00  0.80430294010E+03  0.39033703037E+04  0.38196068526E+04 0.  0.
        1    1    3    3  502    0 -0.84696620052E+03  0.13722004686E+04  0.14478525335E+04  0.21671554697E+04  0.50400001928E-02 0. -1.
       -1    1    3    3    0  502  0.84696620052E+03 -0.13722004686E+04 -0.64354959341E+03  0.17362148341E+04  0.50400001928E-02 0.  1.
</event>
<event>
 5   0  0.1070988E-07  0.3910081E+04  0.7818609E-02  0.8022936E-01
       -1   -1    0    0    0  501  0.00000000000E+00  0.00000000000E+00  0.18099589572E+04  0.18099589572E+04  0.50400001928E-02 0.  1.
        1   -1    0    0  501    0  0.00000000000E+00  0.00000000000E+00 -0.21117509581E+04  0.21117509581E+04  0.50400001928E-02 0. -1.
    10030    2    1    2    0    0  0.00000000000E+00  0.00000000000E+00 -0.30179200093E+03  0.39217099153E+04  0.39100805935E+04 0.  0.
        5    1    3    3  502    0 -0.96897174731E+03 -0.40730036414E+03 -0.18042406614E+04  0.20880867530E+04  0.46999998093E+01 0. -1.
       -5    1    3    3    0  502  0.96897174731E+03  0.40730036414E+03  0.15024486605E+04  0.18336231623E+04  0.46999998093E+01 0.  1.
</event>
<event>
 5   0  0.1070988E-07  0.3731012E+04  0.7818609E-02  0.8061124E-01
        1   -1    0    0  501    0  0.00000000000E+00  0.00000000000E+00  0.18880113430E+04  0.18880113430E+04  0.50400001928E-02 0.  1.
       -1   -1    0    0    0  501  0.00000000000E+00  0.00000000000E+00 -0.18432686640E+04  0.18432686640E+04  0.50400001928E-02 0. -1.
    10030    2    1    2    0    0  0.00000000000E+00  0.00000000000E+00  0.44742678982E+02  0.37312800069E+04  0.37310117372E+04 0.  0.
        2    1    3    3  502    0 -0.18488948034E+01 -0.31687090206E+03  0.18608999891E+04  0.18876862442E+04  0.25500000920E-02 0.  1.
       -2    1    3    3    0  502  0.18488948034E+01  0.31687090206E+03 -0.18161573101E+04  0.18435937628E+04  0.25500000920E-02 0. -1.
</event>
<event>
 5   0  0.3327241E-07  0.3869431E+04  0.7818609E-02  0.8031417E-01
       -2   -1    0    0    0  501  0.00000000000E+00  0.00000000000E+00  0.19521761436E+04  0.19521761436E+04  0.25500000920E-02 0.  1.
        2   -1    0    0  501    0  0.00000000000E+00  0.00000000000E+00 -0.19174114346E+04  0.19174114346E+04  0.25500000920E-02 0. -1.
    10030    2    1    2    0    0  0.00000000000E+00  0.00000000000E+00  0.34764708934E+02  0.38695875782E+04  0.38694314105E+04 0.  0.
        3    1    3    3  502    0 -0.50794809636E+03 -0.18643811722E+04 -0.78519513642E+02  0.19339321984E+04  0.10100000352E+00 0. -1.
       -3    1    3    3    0  502  0.50794809636E+03  0.18643811722E+04  0.11328422258E+03  0.19356553798E+04  0.10100000352E+00 0.  1.
</event>
<event>
 5   0  0.1070988E-07  0.3772550E+04  0.7818609E-02  0.8052071E-01
        1   -1    0    0  501    0  0.00000000000E+00  0.00000000000E+00  0.22695009059E+04  0.22695009059E+04  0.50400001928E-02 0.  1.
       -1   -1    0    0    0  501  0.00000000000E+00  0.00000000000E+00 -0.15677599199E+04  0.15677599199E+04  0.50400001928E-02 0. -1.
    10030    2    1    2    0    0  0.00000000000E+00  0.00000000000E+00  0.70174098605E+03  0.38372608258E+04  0.37725495668E+04 0.  0.
        2    1    3    3  502    0 -0.57765298783E+03  0.27968557462E+03 -0.14532867707E+04  0.15886942541E+04  0.25500000920E-02 0. -1.
       -2    1    3    3    0  502  0.57765298783E+03 -0.27968557462E+03  0.21550277568E+04  0.22485665717E+04  0.25500000920E-02 0.  1.
</event>
<event>
 5   0  0.1085771E-07  0.3572169E+04  0.7818609E-02  0.8096897E-01
       -1   -1    0    0    0  501  0.00000000000E+00  0.00000000000E+00  0.17902351367E+04  0.17902351367E+04  0.50400001928E-02 0.  1.
        1   -1    0    0  501    0  0.00000000000E+00  0.00000000000E+00 -0.17819434806E+04  0.17819434806E+04  0.50400001928E-02 0. -1.
    10030    2    1    2    0    0  0.00000000000E+00  0.00000000000E+00  0.82916560337E+01  0.35721786173E+04  0.35721689941E+04 0.  0.
        1    1    3    3  502    0 -0.35226525094E+03 -0.16434340923E+04  0.60840849866E+03  0.17874919088E+04  0.50400001928E-02 0.  1.
       -1    1    3    3    0  502  0.35226525094E+03  0.16434340923E+04 -0.60011684262E+03  0.17846867085E+04  0.50400001928E-02 0. -1.
</event>
<event>
 5   0  0.3539010E-07  0.3803887E+04  0.7818609E-02  0.8045321E-01
       -2   -1    0    0    0  501  0.00000000000E+00  0.00000000000E+00  0.21910024749E+04  0.21910024749E+04  0.25500000920E-02 0.  1.
        2   -1    0    0  501    0  0.00000000000E+00  0.00000000000E+00 -0.16510201475E+04  0.16510201475E+04  0.25500000920E-02 0. -1.
    10030    2    1    2    0    0  0.00000000000E+00  0.00000000000E+00  0.53998232746E+03  0.38420226224E+04  0.38038870800E+04 0.  0.
        1    1    3    3  502    0  0.14098161946E+03  0.98814460556E+03  0.19051981812E+04  0.21508337193E+04  0.50400001928E-02 0.  1.
       -1    1    3    3    0  502 -0.14098161946E+03 -0.98814460556E+03 -0.13652158537E+04  0.16911889031E+04  0.50400001928E-02 0. -1.
</event>
<event>
 5   0  0.1070988E-07  0.3097678E+04  0.7818609E-02  0.8216375E-01
        1   -1    0    0  501    0  0.00000000000E+00  0.00000000000E+00  0.89424431636E+03  0.89424431638E+03  0.50400001928E-02 0. -1.
       -1   -1    0    0    0  501  0.00000000000E+00  0.00000000000E+00 -0.26826025153E+04  0.26826025153E+04  0.50400001928E-02 0.  1.
    10030    2    1    2    0    0  0.00000000000E+00  0.00000000000E+00 -0.17883581989E+04  0.35768468317E+04  0.30976778738E+04 0.  0.
        5    1    3    3  502    0  0.11937110232E+04  0.62242966694E+03 -0.98707013721E+01  0.13462853404E+04  0.46999998093E+01 0. -1.
       -5    1    3    3    0  502 -0.11937110232E+04 -0.62242966694E+03 -0.17784874976E+04  0.22305614912E+04  0.46999998093E+01 0.  1.
</event>
<event>
 5   0  0.3442126E-07  0.3808665E+04  0.7818609E-02  0.8044298E-01
        2   -1    0    0  501    0  0.00000000000E+00  0.00000000000E+00  0.26163906393E+04  0.26163906393E+04  0.25500000920E-02 0.  1.
       -2   -1    0    0    0  501  0.00000000000E+00  0.00000000000E+00 -0.13860626703E+04  0.13860626703E+04  0.25500000920E-02 0. -1.
    10030    2    1    2    0    0  0.00000000000E+00  0.00000000000E+00  0.12303279690E+04  0.40024533096E+04  0.38086645408E+04 0.  0.
        2    1    3    3  502    0 -0.49359768071E+03 -0.52384219807E+03  0.24679456429E+04  0.25707596183E+04  0.25500000920E-02 0.  1.
       -2    1    3    3    0  502  0.49359768071E+03  0.52384219807E+03 -0.12376176739E+04  0.14316936913E+04  0.25500000920E-02 0. -1.
</event>
<event>
 5   0  0.3442126E-07  0.3698649E+04  0.7818609E-02  0.8068261E-01
        2   -1    0    0  501    0  0.00000000000E+00  0.00000000000E+00  0.27874792250E+04  0.27874792250E+04  0.25500000920E-02 0.  1.
       -2   -1    0    0    0  501  0.00000000000E+00  0.00000000000E+00 -0.12269156596E+04  0.12269156596E+04  0.25500000920E-02 0. -1.
    10030    2    1    2    0    0  0.00000000000E+00  0.00000000000E+00  0.15605635654E+04  0.40143948847E+04  0.36986494357E+04 0.  0.
        2    1    3    3  502    0 -0.48959710315E+03  0.95834118172E+03 -0.85206182344E+03  0.13726370587E+04  0.25500000920E-02 0. -1.
       -2    1    3    3    0  502  0.48959710315E+03 -0.95834118172E+03  0.24126253888E+04  0.26417578259E+04  0.25500000920E-02 0.  1.
</event>
<event>
 5   0  0.1070988E-07  0.3727105E+04  0.7818609E-02  0.8061981E-01
       -1   -1    0    0    0  501  0.00000000000E+00  0.00000000000E+00  0.16186516207E+04  0.16186516207E+04  0.50400001928E-02 0. -1.
        1   -1    0    0  501    0  0.00000000000E+00  0.00000000000E+00 -0.21455067153E+04  0.21455067153E+04  0.50400001928E-02 0.  1.
    10030    2    1    2    0    0  0.00000000000E+00  0.00000000000E+00 -0.52685509459E+03  0.37641583360E+04  0.37271050009E+04 0.  0.
        3    1    3    3  502    0 -0.56930623971E+03  0.49691428312E+03 -0.19838281377E+04  0.21228771725E+04  0.10100000352E+00 0.  1.
       -3    1    3    3    0  502  0.56930623971E+03 -0.49691428312E+03  0.14569730431E+04  0.16412811635E+04  0.10100000352E+00 0. -1.
</event>
<event>
 5   0  0.3377396E-07  0.3622138E+04  0.7818609E-02  0.8085439E-01
        2   -1    0    0  501    0  0.00000000000E+00  0.00000000000E+00  0.26487278523E+04  0.26487278523E+04  0.25500000920E-02 0. -1.
       -2   -1    0    0    0  501  0.00000000000E+00  0.00000000000E+00 -0.12383192380E+04  0.12383192380E+04  0.25500000920E-02 0.  1.
    10030    2    1    2    0    0  0.00000000000E+00  0.00000000000E+00  0.14104086143E+04  0.38870470904E+04  0.36221378526E+04 0.  0.
        5    1    3    3  502    0  0.48810420172E+03  0.72051559085E+03 -0.99921164977E+03  0.13250790314E+04  0.46999998093E+01 0.  1.
       -5    1    3    3    0  502 -0.48810420172E+03 -0.72051559085E+03  0.24096202640E+04  0.25619680590E+04  0.46999998093E+01 0. -1.
</event>
<event>
 5   0  0.1084315E-07  0.3812062E+04  0.7818609E-02  0.8043571E-01
       -1   -1    0    0    0  501  0.00000000000E+00  0.00000000000E+00  0.18342472372E+04  0.18342472373E+04  0.50400001928E-02 0.  1.
        1   -1    0    0  501    0  0.00000000000E+00  0.00000000000E+00 -0.19806236767E+04  0.19806236767E+04  0.50400001928E-02 0. -1.
    10030    2    1    2    0    0  0.00000000000E+00  0.00000000000E+00 -0.14637643949E+03  0.38148709140E+04  0.38120616507E+04 0.  0.
        4    1    3    3  502    0  0.91981901222E+03  0.11352913317E+04  0.11516412201E+04  0.18604388020E+04  0.12699999809E+01 0.  1.
       -4    1    3    3    0  502 -0.91981901222E+03 -0.11352913317E+04 -0.12980176596E+04  0.19544321120E+04  0.12699999809E+01 0. -1.
</event>
<event>
 5   0  0.3442126E-07  0.3565864E+04  0.7818609E-02  0.8098356E-01
       -2   -1    0    0    0  501  0.00000000000E+00  0.00000000000E+00  0.15936280179E+04  0.15936280179E+04  0.25500000920E-02 0.  1.
        2   -1    0    0  501    0  0.00000000000E+00  0.00000000000E+00 -0.19947231094E+04  0.19947231094E+04  0.25500000920E-02 0. -1.
    10030    2    1    2    0    0  0.00000000000E+00  0.00000000000E+00 -0.40109509147E+03  0.35883511272E+04  0.35658640664E+04 0.  0.
        2    1    3    3  502    0  0.59464208756E+03 -0.15446514422E+04 -0.86752388424E+03  0.18687281718E+04  0.25500000920E-02 0. -1.
       -2    1    3    3    0  502 -0.59464208756E+03  0.15446514422E+04  0.46642879277E+03  0.17196229555E+04  0.25500000920E-02 0.  1.
</event>
<event>
 5   0  0.1070988E-07  0.3779383E+04  0.7818609E-02  0.8050594E-01
       -1   -1    0    0    0  501  0.00000000000E+00  0.00000000000E+00  0.17771281498E+04  0.17771281498E+04  0.50400001928E-02 0. -1.
        1   -1    0    0  501    0  0.00000000000E+00  0.00000000000E+00 -0.20093847030E+04  0.20093847030E+04  0.50400001928E-02 0.  1.
    10030    2    1    2    0    0  0.00000000000E+00  0.00000000000E+00 -0.23225655322E+03  0.37865128528E+04  0.37793830816E+04 0.  0.
        5    1    3    3  502    0  0.10481320839E+04  0.15717053971E+04 -0.70508774073E+02  0.18904582242E+04  0.46999998093E+01 0. -1.
       -5    1    3    3    0  502 -0.10481320839E+04 -0.15717053971E+04 -0.16174777915E+03  0.18960546285E+04  0.46999998093E+01 0.  1.
</event>
<event>
 5   0  0.1070988E-07  0.3799013E+04  0.7818609E-02  0.8046367E-01
       -1   -1    0    0    0  501  0.00000000000E+00  0.00000000000E+00  0.21218824669E+04  0.21218824669E+04  0.50400001928E-02 0.  1.
        1   -1    0    0  501    0  0.00000000000E+00  0.00000000000E+00 -0.17004356313E+04  0.17004356313E+04  0.50400001928E-02 0. -1.
    10030    2    1    2    0    0  0.00000000000E+00  0.00000000000E+00  0.42144683557E+03  0.38223180982E+04  0.37990127939E+04 0.  0.
        2    1    3    3  502    0 -0.91831448526E+03  0.85202699803E+03  0.16473740345E+04  0.20695634102E+04  0.25500000920E-02 0.  1.
       -2    1    3    3    0  502  0.91831448526E+03 -0.85202699803E+03 -0.12259271989E+04  0.17527546880E+04  0.25500000920E-02 0. -1.
</event>
<event>
 5   0  0.1070988E-07  0.3779998E+04  0.7818609E-02  0.8050461E-01
        1   -1    0    0  501    0  0.00000000000E+00  0.00000000000E+00  0.11800331255E+04  0.11800331255E+04  0.50400001928E-02 0. -1.
       -1   -1    0    0    0  501  0.00000000000E+00  0.00000000000E+00 -0.30271145367E+04  0.30271145367E+04  0.50400001928E-02 0.  1.
    10030    2    1    2    0    0  0.00000000000E+00  0.00000000000E+00 -0.18470814112E+04  0.42071476622E+04  0.37799975810E+04 0.  0.
        5    1    3    3  502    0 -0.13817777081E+04  0.37232755472E+03 -0.22976082413E+04  0.27068363754E+04  0.46999998093E+01 0.  1.
       -5    1    3    3    0  502  0.13817777081E+04 -0.37232755472E+03  0.45052683012E+03  0.15003112868E+04  0.46999998093E+01 0. -1.
</event>
<event>
 5   0  0.3442126E-07  0.3799024E+04  0.7818609E-02  0.8046364E-01
        2   -1    0    0  501    0  0.00000000000E+00  0.00000000000E+00  0.23918705695E+04  0.23918705695E+04  0.25500000920E-02 0.  1.
       -2   -1    0    0    0  501  0.00000000000E+00  0.00000000000E+00 -0.15085037026E+04  0.15085037026E+04  0.25500000920E-02 0. -1.
    10030    2    1    2    0    0  0.00000000000E+00  0.00000000000E+00  0.88336686695E+03  0.39003742721E+04  0.37990238800E+04 0.  0.
        2    1    3    3  502    0 -0.81974372562E+02 -0.18969959461E+04  0.38704532439E+03  0.19378125556E+04  0.25500000920E-02 0.  1.
       -2    1    3    3    0  502  0.81974372562E+02  0.18969959461E+04  0.49632154256E+03  0.19625617165E+04  0.25500000920E-02 0. -1.
</event>
<event>
 5   0  0.3442126E-07  0.3786089E+04  0.7818609E-02  0.8049147E-01
       -2   -1    0    0    0  501  0.00000000000E+00  0.00000000000E+00  0.13127499348E+04  0.13127499348E+04  0.25500000920E-02 0. -1.
        2   -1    0    0  501    0  0.00000000000E+00  0.00000000000E+00 -0.27298549809E+04  0.27298549809E+04  0.25500000920E-02 0.  1.
    10030    2    1    2    0    0  0.00000000000E+00  0.00000000000E+00 -0.14171050461E+04  0.40426049157E+04  0.37860887196E+04 0.  0.
        2    1    3    3  502    0 -0.42133018180E+03  0.10410385155E+04  0.91861811848E+03  0.14509099078E+04  0.25500000920E-02 0. -1.
       -2    1    3    3    0  502  0.42133018180E+03 -0.10410385155E+04 -0.23357231645E+04  0.25916950079E+04  0.25500000920E-02 0.  1.
</event>
<event>
 5   0  0.1084315E-07  0.3717258E+04  0.7818609E-02  0.8064148E-01
        1   -1    0    0  501    0  0.00000000000E+00  0.00000000000E+00  0.20836387709E+04  0.20836387709E+04  0.50400001928E-02 0. -1.
       -1   -1    0    0    0  501  0.00000000000E+00  0.00000000000E+00 -0.16579180509E+04  0.16579180509E+04  0.50400001928E-02 0.  1.
    10030    2    1    2    0    0  0.00000000000E+00  0.00000000000E+00  0.42572071998E+03  0.37415568219E+04  0.37172583068E+04 0.  0.
        4    1    3    3  502    0 -0.15401688385E+04 -0.19708630932E+03  0.12410747235E+04  0.19877703958E+04  0.12699999809E+01 0. -1.
       -4    1    3    3    0  502  0.15401688385E+04  0.19708630932E+03 -0.81535400349E+03  0.17537864261E+04  0.12699999809E+01 0.  1.
</event>
<event>
 5   0  0.3509843E-07  0.3803305E+04  0.7818609E-02  0.8045446E-01
       -2   -1    0    0    0  501  0.00000000000E+00  0.00000000000E+00  0.18640003516E+04  0.18640003516E+04  0.25500000920E-02 0.  1.
        2   -1    0    0  501    0  0.00000000000E+00  0.00000000000E+00 -0.19400654848E+04  0.19400654848E+04  0.25500000920E-02 0. -1.
    10030    2    1    2    0    0  0.00000000000E+00  0.00000000000E+00 -0.76065133208E+02  0.38040658364E+04  0.38033052708E+04 0.  0.
        4    1    3    3  502    0 -0.29240869070E+03  0.15820452632E+04 -0.10520948080E+04  0.19223098489E+04  0.12699999809E+01 0. -1.
       -4    1    3    3    0  502  0.29240869070E+03 -0.15820452632E+04  0.97602967483E+03  0.18817559875E+04  0.12699999809E+01 0.  1.
</event>
<event>
 5   0  0.1070988E-07  0.3779037E+04  0.7818609E-02  0.8050669E-01
       -1   -1    0    0    0  501  0.00000000000E+00  0.00000000000E+00  0.19553283966E+04  0.19553283966E+04  0.50400001928E-02 0.  1.
        1   -1    0    0  501    0  0.00000000000E+00  0.00000000000E+00 -0.18259234335E+04  0.18259234335E+04  0.50400001928E-02 0. -1.
    10030    2    1    2    0    0  0.00000000000E+00  0.00000000000E+00  0.12940496313E+03  0.37812518301E+04  0.37790368823E+04 0.  0.
        5    1    3    3  502    0 -0.34657651097E+03 -0.17278696479E+04  0.74672435728E+03  0.19139666021E+04  0.46999998093E+01 0.  1.
       -5    1    3    3    0  502  0.34657651097E+03  0.17278696479E+04 -0.61731939415E+03  0.18672852280E+04  0.46999998093E+01 0. -1.
</event>
<event>
 5   0  0.3442126E-07  0.3805927E+04  0.7818609E-02  0.8044884E-01
       -2   -1    0    0    0  501  0.00000000000E+00  0.00000000000E+00  0.26661994346E+04  0.26661994346E+04  0.25500000920E-02 0. -1.
        2   -1    0    0  501    0  0.00000000000E+00  0.00000000000E+00 -0.13582139114E+04  0.13582139114E+04  0.25500000920E-02 0.  1.
    10030    2    1    2    0    0  0.00000000000E+00  0.00000000000E+00  0.13079855232E+04  0.40244133460E+04  0.38059265168E+04 0.  0.
        2    1    3    3  502    0 -0.10352672727E+04  0.18879569554E+03 -0.10225383013E+04  0.14673127541E+04  0.25500000920E-02 0.  1.
       -2    1    3    3    0  502  0.10352672727E+04 -0.18879569554E+03  0.23305238245E+04  0.25571005919E+04  0.25500000920E-02 0. -1.
</event>
<event>
 5   0  0.1085771E-07  0.3813332E+04  0.7818609E-02  0.8043300E-01
        1   -1    0    0  501    0  0.00000000000E+00  0.00000000000E+00  0.19818620379E+04  0.19818620379E+04  0.50400001928E-02 0. -1.
       -1   -1    0    0    0  501  0.00000000000E+00  0.00000000000E+00 -0.18343226548E+04  0.18343226549E+04  0.50400001928E-02 0.  1.
    10030    2    1    2    0    0  0.00000000000E+00  0.00000000000E+00  0.14753938303E+03  0.38161846927E+04  0.38133315801E+04 0.  0.
        1    1    3    3  502    0 -0.88509557073E+03 -0.10394845676E+04  0.14057245974E+04  0.19595877065E+04  0.50400001928E-02 0. -1.
       -1    1    3    3    0  502  0.88509557073E+03  0.10394845676E+04 -0.12581852144E+04  0.18565969862E+04  0.50400001928E-02 0.  1.
</event>
<event>
 5   0  0.3442126E-07  0.3855499E+04  0.7818609E-02  0.8034349E-01
        2   -1    0    0  501    0  0.00000000000E+00  0.00000000000E+00  0.21669506757E+04  0.21669506757E+04  0.25500000920E-02 0.  1.
       -2   -1    0    0    0  501  0.00000000000E+00  0.00000000000E+00 -0.17149532334E+04  0.17149532334E+04  0.25500000920E-02 0. -1.
    10030    2    1    2    0    0  0.00000000000E+00  0.00000000000E+00  0.45199744231E+03  0.38819039090E+04  0.38554994840E+04 0.  0.
        2    1    3    3  502    0  0.86916036872E+03  0.15497094616E+04  0.97890325059E+03  0.20286179374E+04  0.25500000920E-02 0.  1.
       -2    1    3    3    0  502 -0.86916036872E+03 -0.15497094616E+04 -0.52690580828E+03  0.18532859716E+04  0.25500000920E-02 0. -1.
</event>
<event>
 5   0  0.3442126E-07  0.3757422E+04  0.7818609E-02  0.8055354E-01
        2   -1    0    0  501    0  0.00000000000E+00  0.00000000000E+00  0.20506361224E+04  0.20506361224E+04  0.25500000920E-02 0.  1.
       -2   -1    0    0    0  501  0.00000000000E+00  0.00000000000E+00 -0.17211997234E+04  0.17211997234E+04  0.25500000920E-02 0. -1.
    10030    2    1    2    0    0  0.00000000000E+00  0.00000000000E+00  0.32943639900E+03  0.37718358459E+04  0.37574216302E+04 0.  0.
        2    1    3    3  502    0 -0.11071868848E+04  0.69888089733E+03 -0.11877651118E+04  0.17677905044E+04  0.25500000920E-02 0. -1.
       -2    1    3    3    0  502  0.11071868848E+04 -0.69888089733E+03  0.15172015108E+04  0.20040453415E+04  0.25500000920E-02 0.  1.
</event>
<event>
 5   0  0.1070988E-07  0.3819836E+04  0.7818609E-02  0.8041911E-01
        1   -1    0    0  501    0  0.00000000000E+00  0.00000000000E+00  0.14137757817E+04  0.14137757817E+04  0.50400001928E-02 0. -1.
       -1   -1    0    0    0  501  0.00000000000E+00  0.00000000000E+00 -0.25801736857E+04  0.25801736857E+04  0.50400001928E-02 0.  1.
    10030    2    1    2    0    0  0.00000000000E+00  0.00000000000E+00 -0.11663979040E+04  0.39939494674E+04  0.38198361585E+04 0.  0.
        5    1    3    3  502    0  0.13630410840E+04 -0.70898060630E+03  0.60307771462E+03  0.16505330402E+04  0.46999998093E+01 0. -1.
       -5    1    3    3    0  502 -0.13630410840E+04  0.70898060630E+03 -0.17694756186E+04  0.23434164273E+04  0.46999998093E+01 0.  1.
</event>
<event>
 5   0  0.1085771E-07  0.3301635E+04  0.7818609E-02  0.8162480E-01
        1   -1    0    0  501    0  0.00000000000E+00  0.00000000000E+00  0.25451769576E+04  0.25451769576E+04  0.50400001928E-02 0.  1.
       -1   -1    0    0    0  501  0.00000000000E+00  0.00000000000E+00 -0.10707301228E+04  0.10707301228E+04  0.50400001928E-02 0. -1.
    10030    2    1    2    0    0  0.00000000000E+00  0.00000000000E+00  0.14744468348E+04  0.36159070805E+04  0.33016345264E+04 0.  0.
        1    1    3    3  502    0  0.63281876990E+03 -0.76893244976E+03 -0.70471860367E+03  0.12199774663E+04  0.50400001928E-02 0. -1.
       -1    1    3    3    0  502 -0.63281876990E+03  0.76893244976E+03  0.21791654385E+04  0.23959296142E+04  0.50400001928E-02 0.  1.
</event>
<event>
 5   0  0.1070988E-07  0.3454896E+04  0.7818609E-02  0.8124563E-01
        1   -1    0    0  501    0  0.00000000000E+00  0.00000000000E+00  0.24137119999E+04  0.24137119999E+04  0.50400001928E-02 0.  1.
       -1   -1    0    0    0  501  0.00000000000E+00  0.00000000000E+00 -0.12363015522E+04  0.12363015523E+04  0.50400001928E-02 0. -1.
    10030    2    1    2    0    0  0.00000000000E+00  0.00000000000E+00  0.11774104476E+04  0.36500135521E+04  0.34548955945E+04 0.  0.
        3    1    3    3  502    0  0.24701770192E+03  0.13368821612E+04 -0.53722451189E+03  0.14618077317E+04  0.10100000352E+00 0.  1.
       -3    1    3    3    0  502 -0.24701770192E+03 -0.13368821612E+04  0.17146349595E+04  0.21882058205E+04  0.10100000352E+00 0. -1.
</event>
<event>
 5   0  0.1084315E-07  0.3774269E+04  0.7818609E-02  0.8051699E-01
        1   -1    0    0  501    0  0.00000000000E+00  0.00000000000E+00  0.17783268222E+04  0.17783268223E+04  0.50400001928E-02 0.  1.
       -1   -1    0    0    0  501  0.00000000000E+00  0.00000000000E+00 -0.20025995104E+04  0.20025995104E+04  0.50400001928E-02 0. -1.
    10030    2    1    2    0    0  0.00000000000E+00  0.00000000000E+00 -0.22427268816E+03  0.37809263327E+04  0.37742688953E+04 0.  0.
        4    1    3    3  502    0 -0.16412397347E+03  0.45398913707E+03 -0.19396985716E+04  0.19988684241E+04  0.12699999809E+01 0. -1.
       -4    1    3    3    0  502  0.16412397347E+03 -0.45398913707E+03  0.17154258834E+04  0.17820579086E+04  0.12699999809E+01 0.  1.
</event>
<event>
 5   0  0.1084315E-07  0.3774936E+04  0.7818609E-02  0.8051555E-01
        1   -1    0    0  501    0  0.00000000000E+00  0.00000000000E+00  0.19855394194E+04  0.19855394194E+04  0.50400001928E-02 0. -1.
       -1   -1    0    0    0  501  0.00000000000E+00  0.00000000000E+00 -0.17942409641E+04  0.17942409641E+04  0.50400001928E-02 0.  1.
    10030    2    1    2    0    0  0.00000000000E+00  0.00000000000E+00  0.19129845537E+03  0.37797803835E+04  0.37749363768E+04 0.  0.
        4    1    3    3  502    0  0.22095783379E+03 -0.49034064947E+03  0.19071911615E+04  0.19815741360E+04  0.12699999809E+01 0. -1.
       -4    1    3    3    0  502 -0.22095783379E+03  0.49034064947E+03 -0.17158927061E+04  0.17982062476E+04  0.12699999809E+01 0.  1.
</event>
<event>
 5   0  0.3539010E-07  0.3870844E+04  0.7818609E-02  0.8031120E-01
       -2   -1    0    0    0  501  0.00000000000E+00  0.00000000000E+00  0.11730946550E+04  0.11730946550E+04  0.25500000920E-02 0. -1.
        2   -1    0    0  501    0  0.00000000000E+00  0.00000000000E+00 -0.31931431455E+04  0.31931431455E+04  0.25500000920E-02 0.  1.
    10030    2    1    2    0    0  0.00000000000E+00  0.00000000000E+00 -0.20200484905E+04  0.43662378006E+04  0.38708444333E+04 0.  0.
        1    1    3    3  502    0  0.61527178258E+03 -0.17209859842E+04 -0.29173252095E+03  0.18507998239E+04  0.50400001928E-02 0. -1.
       -1    1    3    3    0  502 -0.61527178258E+03  0.17209859842E+04 -0.17283159695E+04  0.25154379767E+04  0.50400001928E-02 0.  1.
</event>
<event>
 5   0  0.3327241E-07  0.3841583E+04  0.7818609E-02  0.8037290E-01
        2   -1    0    0  501    0  0.00000000000E+00  0.00000000000E+00  0.23730852265E+04  0.23730852265E+04  0.25500000920E-02 0. -1.
       -2   -1    0    0    0  501  0.00000000000E+00  0.00000000000E+00 -0.15547018355E+04  0.15547018355E+04  0.25500000920E-02 0.  1.
    10030    2    1    2    0    0  0.00000000000E+00  0.00000000000E+00  0.81838339098E+03  0.39277870620E+04  0.38415829849E+04 0.  0.
        3    1    3    3  502    0  0.23386799170E+03 -0.13050390956E+04  0.18302058804E+04  0.22599723125E+04  0.10100000352E+00 0. -1.
       -3    1    3    3    0  502 -0.23386799170E+03  0.13050390956E+04 -0.10118224894E+04  0.16678147495E+04  0.10100000352E+00 0.  1.
</event>
<event>
 5   0  0.3442126E-07  0.3802601E+04  0.7818609E-02  0.8045597E-01
       -2   -1    0    0    0  501  0.00000000000E+00  0.00000000000E+00  0.16706121140E+04  0.16706121140E+04  0.25500000920E-02 0.  1.
        2   -1    0    0  501    0  0.00000000000E+00  0.00000000000E+00 -0.21638441188E+04  0.21638441188E+04  0.25500000920E-02 0. -1.
    10030    2    1    2    0    0  0.00000000000E+00  0.00000000000E+00 -0.49323200474E+03  0.38344562328E+04  0.38026013190E+04 0.  0.
        2    1    3    3  502    0 -0.12010317365E+04 -0.25093509604E+03  0.12179623324E+04  0.17288371519E+04  0.25500000920E-02 0.  1.
       -2    1    3    3    0  502  0.12010317365E+04  0.25093509604E+03 -0.17111943372E+04  0.21056190810E+04  0.25500000920E-02 0. -1.
</event>
<event>
 5   0  0.3509843E-07  0.3738066E+04  0.7818609E-02  0.8059578E-01
        2   -1    0    0  501    0  0.00000000000E+00  0.00000000000E+00  0.20410640230E+04  0.20410640230E+04  0.25500000920E-02 0.  1.
       -2   -1    0    0    0  501  0.00000000000E+00  0.00000000000E+00 -0.17115015802E+04  0.17115015802E+04  0.25500000920E-02 0. -1.
    10030    2    1    2    0    0  0.00000000000E+00  0.00000000000E+00  0.32956244278E+03  0.37525656031E+04  0.37380659708E+04 0.  0.
        4    1    3    3  502    0  0.15434019596E+04  0.97201061070E+03 -0.24470842145E+03  0.18403200973E+04  0.12699999809E+01 0. -1.
       -4    1    3    3    0  502 -0.15434019596E+04 -0.97201061070E+03  0.57427086423E+03  0.19122455058E+04  0.12699999809E+01 0.  1.
</event>
<event>
 5   0  0.1084315E-07  0.3839606E+04  0.7818609E-02  0.8037709E-01
       -1   -1    0    0    0  501  0.00000000000E+00  0.00000000000E+00  0.23244004335E+04  0.23244004335E+04  0.50400001928E-02 0.  1.
        1   -1    0    0  501    0  0.00000000000E+00  0.00000000000E+00 -0.15856316539E+04  0.15856316539E+04  0.50400001928E-02 0. -1.
    10030    2    1    2    0    0  0.00000000000E+00  0.00000000000E+00  0.73876877960E+03  0.39100320874E+04  0.38396056588E+04 0.  0.
        4    1    3    3  502    0  0.17388353530E+03 -0.94058121325E+03 -0.13256926955E+04  0.16347450071E+04  0.12699999809E+01 0. -1.
       -4    1    3    3    0  502 -0.17388353530E+03  0.94058121325E+03  0.20644614751E+04  0.22752870803E+04  0.12699999809E+01 0.  1.
</event>
<event>
 5   0  0.3377396E-07  0.3767874E+04  0.7818609E-02  0.8053084E-01
        2   -1    0    0  501    0  0.00000000000E+00  0.00000000000E+00  0.18529321162E+04  0.18529321162E+04  0.25500000920E-02 0. -1.
       -2   -1    0    0    0  501  0.00000000000E+00  0.00000000000E+00 -0.19154602080E+04  0.19154602080E+04  0.25500000920E-02 0.  1.
    10030    2    1    2    0    0  0.00000000000E+00  0.00000000000E+00 -0.62528091808E+02  0.37683923242E+04  0.37678735311E+04 0.  0.
        5    1    3    3  502    0  0.15643629119E+03 -0.11731280288E+04  0.14347119595E+04  0.18598715498E+04  0.46999998093E+01 0. -1.
       -5    1    3    3    0  502 -0.15643629119E+03  0.11731280288E+04 -0.14972400513E+04  0.19085207744E+04  0.46999998093E+01 0.  1.
</event>
<event>
 5   0  0.3327241E-07  0.3685982E+04  0.7818609E-02  0.8071075E-01
        2   -1    0    0  501    0  0.00000000000E+00  0.00000000000E+00  0.21639865259E+04  0.21639865259E+04  0.25500000920E-02 0. -1.
       -2   -1    0    0    0  501  0.00000000000E+00  0.00000000000E+00 -0.15696105916E+04  0.15696105916E+04  0.25500000920E-02 0.  1.
    10030    2    1    2    0    0  0.00000000000E+00  0.00000000000E+00  0.59437593426E+03  0.37335971176E+04  0.36859821873E+04 0.  0.
        3    1    3    3  502    0  0.16750038083E+04  0.59390998566E+02 -0.47916655269E+03  0.17432055656E+04  0.10100000352E+00 0.  1.
       -3    1    3    3    0  502 -0.16750038083E+04 -0.59390998566E+02  0.10735424869E+04  0.19903915519E+04  0.10100000352E+00 0. -1.
</event>
<event>
 5   0  0.1084315E-07  0.3832140E+04  0.7818609E-02  0.8039293E-01
       -1   -1    0    0    0  501  0.00000000000E+00  0.00000000000E+00  0.14299336552E+04  0.14299336552E+04  0.50400001928E-02 0.  1.
        1   -1    0    0  501    0  0.00000000000E+00  0.00000000000E+00 -0.25674792966E+04  0.25674792966E+04  0.50400001928E-02 0. -1.
    10030    2    1    2    0    0  0.00000000000E+00  0.00000000000E+00 -0.11375456414E+04  0.39974129518E+04  0.38321404229E+04 0.  0.
        4    1    3    3  502    0 -0.17473331718E+04  0.52896836552E+03 -0.11755315096E+04  0.21713720750E+04  0.12699999809E+01 0.  1.
       -4    1    3    3    0  502  0.17473331718E+04 -0.52896836552E+03  0.37985868202E+02  0.18260408769E+04  0.12699999809E+01 0. -1.
</event>
<event>
 5   0  0.1070988E-07  0.3954793E+04  0.7818609E-02  0.8013729E-01
       -1   -1    0    0    0  501  0.00000000000E+00  0.00000000000E+00  0.13669020715E+04  0.13669020715E+04  0.50400001928E-02 0.  1.
        1   -1    0    0  501    0  0.00000000000E+00  0.00000000000E+00 -0.28605531695E+04  0.28605531695E+04  0.50400001928E-02 0. -1.
    10030    2    1    2    0    0  0.00000000000E+00  0.00000000000E+00 -0.14936510979E+04  0.42274552410E+04  0.39547925625E+04 0.  0.
        3    1    3    3  502    0  0.36625093154E+03 -0.11633077684E+04  0.91697996669E+03  0.15258692533E+04  0.10100000352E+00 0.  1.
       -3    1    3    3    0  502 -0.36625093154E+03  0.11633077684E+04 -0.24106310646E+04  0.27015859876E+04  0.10100000352E+00 0. -1.
</event>
<event>
 5   0  0.3509843E-07  0.3766665E+04  0.7818609E-02  0.8053347E-01
        2   -1    0    0  501    0  0.00000000000E+00  0.00000000000E+00  0.24830126840E+04  0.24830126840E+04  0.25500000920E-02 0.  1.
       -2   -1    0    0    0  501  0.00000000000E+00  0.00000000000E+00 -0.14284826422E+04  0.14284826422E+04  0.25500000920E-02 0. -1.
    10030    2    1    2    0    0  0.00000000000E+00  0.00000000000E+00  0.10545300418E+04  0.39114953262E+04  0.37666645826E+04 0.  0.
        4    1    3    3  502    0  0.15074445975E+04  0.43940948242E+02  0.16987454807E+04  0.22715760702E+04  0.12699999809E+01 0.  1.
       -4    1    3    3    0  502 -0.15074445975E+04 -0.43940948242E+02 -0.64421543887E+03  0.16399192560E+04  0.12699999809E+01 0. -1.
</event>
<event>
 5   0  0.3327241E-07  0.3552344E+04  0.7818609E-02  0.8101496E-01
        2   -1    0    0  501    0  0.00000000000E+00  0.00000000000E+00  0.10611619736E+04  0.10611619736E+04  0.25500000920E-02 0.  1.
       -2   -1    0    0    0  501  0.00000000000E+00  0.00000000000E+00 -0.29729556686E+04  0.29729556686E+04  0.25500000920E-02 0. -1.
    10030    2    1    2    0    0  0.00000000000E+00  0.00000000000E+00 -0.19117936950E+04  0.40341176421E+04  0.35523442990E+04 0.  0.
        3    1    3    3  502    0  0.14610464504E+04  0.70990388207E+03 -0.14001226414E+03  0.16304059912E+04  0.10100000352E+00 0.  1.
       -3    1    3    3    0  502 -0.14610464504E+04 -0.70990388207E+03 -0.17717814308E+04  0.24037116509E+04  0.10100000352E+00 0. -1.
</event>
<event>
 5   0  0.3442126E-07  0.3806708E+04  0.7818609E-02  0.8044717E-01
        2   -1    0    0  501    0  0.00000000000E+00  0.00000000000E+00  0.12511183450E+04  0.12511183450E+04  0.25500000920E-02 0. -1.
       -2   -1    0    0    0  501  0.00000000000E+00  0.00000000000E+00 -0.28956150493E+04  0.28956150493E+04  0.25500000920E-02 0.  1.
    10030    2    1    2    0    0  0.00000000000E+00  0.00000000000E+00 -0.16444967043E+04  0.41467333944E+04  0.38067083463E+04 0.  0.
        2    1    3    3  502    0  0.31368015012E+03  0.18252264078E+04 -0.34380076714E+03  0.18836256645E+04  0.25500000920E-02 0.  1.
       -2    1    3    3    0  502 -0.31368015012E+03 -0.18252264078E+04 -0.13006959372E+04  0.22631077299E+04  0.25500000920E-02 0. -1.
</event>
<event>
 5   0  0.3442126E-07  0.3648610E+04  0.7818609E-02  0.8079447E-01
       -2   -1    0    0    0  501  0.00000000000E+00  0.00000000000E+00  0.24689582341E+04  0.24689582341E+04  0.25500000920E-02 0.  1.
        2   -1    0    0  501    0  0.00000000000E+00  0.00000000000E+00 -0.13479731082E+04  0.13479731082E+04  0.25500000920E-02 0. -1.
    10030    2    1    2    0    0  0.00000000000E+00  0.00000000000E+00  0.11209851259E+04  0.38169313423E+04  0.36486103134E+04 0.  0.
        2    1    3    3  502    0  0.23415606915E+03  0.16594984734E+04  0.13143799984E+04  0.21298730076E+04  0.25500000920E-02 0.  1.
       -2    1    3    3    0  502 -0.23415606915E+03 -0.16594984734E+04 -0.19339487248E+03  0.16870583347E+04  0.25500000920E-02 0. -1.
</event>
<event>
 5   0  0.3509843E-07  0.3201804E+04  0.7818609E-02  0.8188341E-01
        2   -1    0    0  501    0  0.00000000000E+00  0.00000000000E+00  0.19692624699E+04  0.19692624699E+04  0.25500000920E-02 0. -1.
       -2   -1    0    0    0  501  0.00000000000E+00  0.00000000000E+00 -0.13014452224E+04  0.13014452224E+04  0.25500000920E-02 0.  1.
    10030    2    1    2    0    0  0.00000000000E+00  0.00000000000E+00  0.66781724744E+03  0.32707076923E+04  0.32018040122E+04 0.  0.
        4    1    3    3  502    0 -0.51815462351E+03 -0.45028177799E+03 -0.11434681236E+04  0.13337011870E+04  0.12699999809E+01 0.  1.
       -4    1    3    3    0  502  0.51815462351E+03  0.45028177799E+03  0.18112853711E+04  0.19370065054E+04  0.12699999809E+01 0. -1.
</event>
<event>
 5   0  0.3377396E-07  0.3751642E+04  0.7818609E-02  0.8056613E-01
       -2   -1    0    0    0  501  0.00000000000E+00  0.00000000000E+00  0.13327048444E+04  0.13327048444E+04  0.25500000920E-02 0. -1.
        2   -1    0    0  501    0  0.00000000000E+00  0.00000000000E+00 -0.26402724585E+04  0.26402724585E+04  0.25500000920E-02 0.  1.
    10030    2    1    2    0    0  0.00000000000E+00  0.00000000000E+00 -0.13075676141E+04  0.39729773029E+04  0.37516417185E+04 0.  0.
        5    1    3    3  502    0  0.18589072279E+04 -0.94201600697E+02 -0.90049097643E+03  0.20676837554E+04  0.46999998093E+01 0. -1.
       -5    1    3    3    0  502 -0.18589072279E+04  0.94201600697E+02 -0.40707663765E+03  0.19052935476E+04  0.46999998093E+01 0.  1.
</event>
<event>
 5   0  0.3377396E-07  0.3778843E+04  0.7818609E-02  0.8050710E-01
       -2   -1    0    0    0  501  0.00000000000E+00  0.00000000000E+00  0.15823988392E+04  0.15823988392E+04  0.25500000920E-02 0. -1.
        2   -1    0    0  501    0  0.00000000000E+00  0.00000000000E+00 -0.22560138013E+04  0.22560138013E+04  0.25500000920E-02 0.  1.
    10030    2    1    2    0    0  0.00000000000E+00  0.00000000000E+00 -0.67361496206E+03  0.38384126404E+04  0.37788430083E+04 0.  0.
        5    1    3    3  502    0  0.13032776265E+04  0.82717799594E+03 -0.14435407400E+04  0.21134303790E+04  0.46999998093E+01 0.  1.
       -5    1    3    3    0  502 -0.13032776265E+04 -0.82717799594E+03  0.76992577793E+03  0.17249822615E+04  0.46999998093E+01 0. -1.
</event>
<event>
 5   0  0.3327241E-07  0.3859466E+04  0.7818609E-02  0.8033513E-01
        2   -1    0    0  501    0  0.00000000000E+00  0.00000000000E+00  0.17439168477E+04  0.17439168477E+04  0.25500000920E-02 0. -1.
       -2   -1    0    0    0  501  0.00000000000E+00  0.00000000000E+00 -0.21353478613E+04  0.21353478613E+04  0.25500000920E-02 0.  1.
    10030    2    1    2    0    0  0.00000000000E+00  0.00000000000E+00 -0.39143101368E+03  0.38792647090E+04  0.38594658237E+04 0.  0.
        3    1    3    3  502    0 -0.11587331589E+04  0.79159367577E+03  0.11356875457E+04  0.18052892546E+04  0.10100000352E+00 0. -1.
       -3    1    3    3    0  502  0.11587331589E+04 -0.79159367577E+03 -0.15271185593E+04  0.20739754544E+04  0.10100000352E+00 0.  1.
</event>
<event>
 5   0  0.1085771E-07  0.3639786E+04  0.7818609E-02  0.8081439E-01
       -1   -1    0    0    0  501  0.00000000000E+00  0.00000000000E+00  0.17573094987E+04  0.17573094987E+04  0.50400001928E-02 0.  1.
        1   -1    0    0  501    0  0.00000000000E+00  0.00000000000E+00 -0.18847051594E+04  0.18847051594E+04  0.50400001928E-02 0. -1.
    10030    2    1    2    0    0  0.00000000000E+00  0.00000000000E+00 -0.12739566074E+03  0.36420146581E+04  0.36397858612E+04 0.  0.
        1    1    3    3  502    0 -0.15755211361E+04  0.43353890909E+03  0.73790910034E+03  0.17929675615E+04  0.50400001928E-02 0.  1.
       -1    1    3    3    0  502  0.15755211361E+04 -0.43353890909E+03 -0.86530476108E+03  0.18490470966E+04  0.50400001928E-02 0. -1.
</event>
<event>
 5   0  0.1085771E-07  0.3804036E+04  0.7818609E-02  0.8045289E-01
        1   -1    0    0  501    0  0.00000000000E+00  0.00000000000E+00  0.14778231543E+04  0.14778231543E+04  0.50400001928E-02 0.  1.
       -1   -1    0    0    0  501  0.00000000000E+00  0.00000000000E+00 -0.24479732563E+04  0.24479732563E+04  0.50400001928E-02 0. -1.
    10030    2    1    2    0    0  0.00000000000E+00  0.00000000000E+00 -0.97015010196E+03  0.39257964106E+04  0.38040355199E+04 0.  0.
        1    1    3    3  502    0 -0.63035620117E+03  0.16023091629E+04  0.34882854224E+03  0.17568224002E+04  0.50400001928E-02 0.  1.
       -1    1    3    3    0  502  0.63035620117E+03 -0.16023091629E+04 -0.13189786442E+04  0.21689740104E+04  0.50400001928E-02 0. -1.
</event>
<event>
 5   0  0.3442126E-07  0.3755750E+04  0.7818609E-02  0.8055718E-01
       -2   -1    0    0    0  501  0.00000000000E+00  0.00000000000E+00  0.13275944522E+04  0.13275944522E+04  0.25500000920E-02 0. -1.
        2   -1    0    0  501    0  0.00000000000E+00  0.00000000000E+00 -0.26562431664E+04  0.26562431664E+04  0.25500000920E-02 0.  1.
    10030    2    1    2    0    0  0.00000000000E+00  0.00000000000E+00 -0.13286487143E+04  0.39838376186E+04  0.37557495611E+04 0.  0.
        2    1    3    3  502    0  0.41017262697E+03 -0.13886121400E+04 -0.19327416487E+04  0.24149483514E+04  0.25500000920E-02 0.  1.
       -2    1    3    3    0  502 -0.41017262697E+03  0.13886121400E+04  0.60409293448E+03  0.15688892672E+04  0.25500000920E-02 0. -1.
</event>
<event>
 5   0  0.3509843E-07  0.3789586E+04  0.7818609E-02  0.8048393E-01
       -2   -1    0    0    0  501  0.00000000000E+00  0.00000000000E+00  0.18794462561E+04  0.18794462561E+04  0.25500000920E-02 0.  1.
        2   -1    0    0  501    0  0.00000000000E+00  0.00000000000E+00 -0.19102651630E+04  0.19102651630E+04  0.25500000920E-02 0. -1.
    10030    2    1    2    0    0  0.00000000000E+00  0.00000000000E+00 -0.30818906807E+02  0.37897114191E+04  0.37895861034E+04 0.  0.
        4    1    3    3  502    0 -0.24696571039E+03 -0.17603644715E+04 -0.67145245859E+03  0.19001908198E+04  0.12699999809E+01 0. -1.
       -4    1    3    3    0  502  0.24696571039E+03  0.17603644715E+04  0.64063355178E+03  0.18895205993E+04  0.12699999809E+01 0.  1.
</event>
<event>
 5   0  0.1070988E-07  0.3820990E+04  0.7818609E-02  0.8041665E-01
        1   -1    0    0  501    0  0.00000000000E+00  0.00000000000E+00  0.25004957950E+04  0.25004957950E+04  0.50400001928E-02 0. -1.
       -1   -1    0    0    0  501  0.00000000000E+00  0.00000000000E+00 -0.14597069818E+04  0.14597069818E+04  0.50400001928E-02 0.  1.
    10030    2    1    2    0    0  0.00000000000E+00  0.00000000000E+00  0.10407888131E+04  0.39602027768E+04  0.38209900131E+04 0.  0.
        5    1    3    3  502    0  0.14690512471E+04 -0.19145011471E+03  0.17706635590E+04  0.23086871252E+04  0.46999998093E+01 0. -1.
       -5    1    3    3    0  502 -0.14690512471E+04  0.19145011471E+03 -0.72987474585E+03  0.16515156516E+04  0.46999998093E+01 0.  1.
</event>
<event>
 5   0  0.3539010E-07  0.3733841E+04  0.7818609E-02  0.8060503E-01
        2   -1    0    0  501    0  0.00000000000E+00  0.00000000000E+00  0.20776324189E+04  0.20776324189E+04  0.25500000920E-02 0. -1.
       -2   -1    0    0    0  501  0.00000000000E+00  0.00000000000E+00 -0.16775787856E+04  0.16775787856E+04  0.25500000920E-02 0.  1.
    10030    2    1    2    0    0  0.00000000000E+00  0.00000000000E+00  0.40005363327E+03  0.37552112045E+04  0.37338409555E+04 0.  0.
        1    1    3    3  502    0 -0.29522069397E+03 -0.12909909519E+04  0.15234530221E+04  0.20185940668E+04  0.50400001928E-02 0. -1.
       -1    1    3    3    0  502  0.29522069397E+03  0.12909909519E+04 -0.11233993889E+04  0.17366171377E+04  0.50400001928E-02 0.  1.
</event>
<event>
 5   0  0.1070988E-07  0.3798331E+04  0.7818609E-02  0.8046513E-01
       -1   -1    0    0    0  501  0.00000000000E+00  0.00000000000E+00  0.18964672337E+04  0.18964672337E+04  0.50400001928E-02 0. -1.
        1   -1    0    0  501    0  0.00000000000E+00  0.00000000000E+00 -0.19018680851E+04  0.19018680851E+04  0.50400001928E-02 0.  1.
    10030    2    1    2    0    0  0.00000000000E+00  0.00000000000E+00 -0.54008514235E+01  0.37983353188E+04  0.37983314791E+04 0.  0.
        5    1    3    3  502    0  0.29597931766E+02  0.18176020522E+04 -0.55247835339E+03  0.18999493884E+04  0.46999998093E+01 0.  1.
       -5    1    3    3    0  502 -0.29597931766E+02 -0.18176020522E+04  0.54707750197E+03  0.18983859304E+04  0.46999998093E+01 0. -1.
</event>
<event>
 5   0  0.1084315E-07  0.3857144E+04  0.7818609E-02  0.8034002E-01
       -1   -1    0    0    0  501  0.00000000000E+00  0.00000000000E+00  0.14363493124E+04  0.14363493124E+04  0.50400001928E-02 0.  1.
        1   -1    0    0  501    0  0.00000000000E+00  0.00000000000E+00 -0.25894750087E+04  0.25894750087E+04  0.50400001928E-02 0. -1.
    10030    2    1    2    0    0  0.00000000000E+00  0.00000000000E+00 -0.11531256963E+04  0.40258243211E+04  0.38571443573E+04 0.  0.
        4    1    3    3  502    0  0.64146837622E+02  0.93909417966E+03 -0.23334386360E+04  0.25161379485E+04  0.12699999809E+01 0. -1.
       -4    1    3    3    0  502 -0.64146837622E+02 -0.93909417966E+03  0.11803129397E+04  0.15096863726E+04  0.12699999809E+01 0.  1.
</event>
<event>
 5   0  0.1085771E-07  0.3769449E+04  0.7818609E-02  0.8052743E-01
       -1   -1    0    0    0  501  0.00000000000E+00  0.00000000000E+00  0.15742547042E+04  0.15742547042E+04  0.50400001928E-02 0. -1.
        1   -1    0    0  501    0  0.00000000000E+00  0.00000000000E+00 -0.22564240241E+04  0.22564240241E+04  0.50400001928E-02 0.  1.
    10030    2    1    2    0    0  0.00000000000E+00  0.00000000000E+00 -0.68216931990E+03  0.38306787283E+04  0.37694488375E+04 0.  0.
        1    1    3    3  502    0 -0.12001738494E+04 -0.26658453764E+03  0.11106512653E+04  0.16568134529E+04  0.50400001928E-02 0. -1.
       -1    1    3    3    0  502  0.12001738494E+04  0.26658453764E+03 -0.17928205852E+04  0.21738652754E+04  0.50400001928E-02 0.  1.
</event>
<event>
 5   0  0.1085771E-07  0.3851436E+04  0.7818609E-02  0.8035206E-01
        1   -1    0    0  501    0  0.00000000000E+00  0.00000000000E+00  0.12865133008E+04  0.12865133008E+04  0.50400001928E-02 0.  1.
       -1   -1    0    0    0  501  0.00000000000E+00  0.00000000000E+00 -0.28825124420E+04  0.28825124420E+04  0.50400001928E-02 0. -1.
    10030    2    1    2    0    0  0.00000000000E+00  0.00000000000E+00 -0.15959991412E+04  0.41690257427E+04  0.38514364054E+04 0.  0.
        1    1    3    3  502    0  0.94069251560E+02 -0.38046265480E+03 -0.28388858435E+04  0.28658111746E+04  0.50400001928E-02 0. -1.
       -1    1    3    3    0  502 -0.94069251560E+02  0.38046265480E+03  0.12428867023E+04  0.13032145682E+04  0.50400001928E-02 0.  1.
</event>
<event>
 5   0  0.1085771E-07  0.3850876E+04  0.7818609E-02  0.8035324E-01
       -1   -1    0    0    0  501  0.00000000000E+00  0.00000000000E+00  0.17237068722E+04  0.17237068722E+04  0.50400001928E-02 0.  1.
        1   -1    0    0  501    0  0.00000000000E+00  0.00000000000E+00 -0.21507778575E+04  0.21507778575E+04  0.50400001928E-02 0. -1.
    10030    2    1    2    0    0  0.00000000000E+00  0.00000000000E+00 -0.42707098525E+03  0.38744847297E+04  0.38508755231E+04 0.  0.
        1    1    3    3  502    0  0.46349264058E+03  0.16910633109E+04 -0.10138934829E+04  0.20254630443E+04  0.50400001928E-02 0. -1.
       -1    1    3    3    0  502 -0.46349264058E+03 -0.16910633109E+04  0.58682249766E+03  0.18490216854E+04  0.50400001928E-02 0.  1.
</event>
<event>
 5   0  0.1070988E-07  0.3840223E+04  0.7818609E-02  0.8037578E-01
        1   -1    0    0  501    0  0.00000000000E+00  0.00000000000E+00  0.15399811811E+04  0.15399811812E+04  0.50400001928E-02 0.  1.
       -1   -1    0    0    0  501  0.00000000000E+00  0.00000000000E+00 -0.23940733619E+04  0.23940733619E+04  0.50400001928E-02 0. -1.
    10030    2    1    2    0    0  0.00000000000E+00  0.00000000000E+00 -0.85409218074E+03  0.39340545430E+04  0.38402228704E+04 0.  0.
        2    1    3    3  502    0 -0.15717880066E+04 -0.70654439375E+03  0.44046581823E+03  0.17786884649E+04  0.25500000920E-02 0.  1.
       -2    1    3    3    0  502  0.15717880066E+04  0.70654439375E+03 -0.12945579990E+04  0.21553660781E+04  0.25500000920E-02 0. -1.
</event>
<event>
 5   0  0.1070988E-07  0.3819092E+04  0.7818609E-02  0.8042070E-01
       -1   -1    0    0    0  501  0.00000000000E+00  0.00000000000E+00  0.19076706159E+04  0.19076706159E+04  0.50400001928E-02 0.  1.
        1   -1    0    0  501    0  0.00000000000E+00  0.00000000000E+00 -0.19114235640E+04  0.19114235640E+04  0.50400001928E-02 0. -1.
    10030    2    1    2    0    0  0.00000000000E+00  0.00000000000E+00 -0.37529480954E+01  0.38190941800E+04  0.38190923360E+04 0.  0.
        5    1    3    3  502    0 -0.16950739092E+04  0.40266343189E+03 -0.78349765516E+03  0.19103151736E+04  0.46999998093E+01 0. -1.
       -5    1    3    3    0  502  0.16950739092E+04 -0.40266343189E+03  0.77974470707E+03  0.19087790064E+04  0.46999998093E+01 0.  1.
</event>
<event>
 5   0  0.3327241E-07  0.3813650E+04  0.7818609E-02  0.8043232E-01
        2   -1    0    0  501    0  0.00000000000E+00  0.00000000000E+00  0.19257698765E+04  0.19257698765E+04  0.25500000920E-02 0.  1.
       -2   -1    0    0    0  501  0.00000000000E+00  0.00000000000E+00 -0.18880666143E+04  0.18880666143E+04  0.25500000920E-02 0. -1.
    10030    2    1    2    0    0  0.00000000000E+00  0.00000000000E+00  0.37703262187E+02  0.38138364909E+04  0.38136501207E+04 0.  0.
        3    1    3    3  502    0 -0.72735927995E+03  0.26944924323E+03  0.17608688416E+04  0.19241396790E+04  0.10100000352E+00 0.  1.
       -3    1    3    3    0  502  0.72735927995E+03 -0.26944924323E+03 -0.17231655794E+04  0.18896968119E+04  0.10100000352E+00 0. -1.
</event>
<event>
 5   0  0.1070988E-07  0.3793719E+04  0.7818609E-02  0.8047504E-01
       -1   -1    0    0    0  501  0.00000000000E+00  0.00000000000E+00  0.22365057415E+04  0.22365057415E+04  0.50400001928E-02 0. -1.
        1   -1    0    0  501    0  0.00000000000E+00  0.00000000000E+00 -0.16087939136E+04  0.16087939136E+04  0.50400001928E-02 0.  1.
    10030    2    1    2    0    0  0.00000000000E+00  0.00000000000E+00  0.62771182796E+03  0.38452996551E+04  0.37937194544E+04 0.  0.
        3    1    3    3  502    0 -0.13070789419E+04  0.10563411455E+04 -0.57774288061E+03  0.17771040550E+04  0.10100000352E+00 0.  1.
       -3    1    3    3    0  502  0.13070789419E+04 -0.10563411455E+04  0.12054547086E+04  0.20681956002E+04  0.10100000352E+00 0. -1.
</event>
<event>
 5   0  0.1070988E-07  0.3804759E+04  0.7818609E-02  0.8045134E-01
        1   -1    0    0  501    0  0.00000000000E+00  0.00000000000E+00  0.27131847718E+04  0.27131847718E+04  0.50400001928E-02 0.  1.
       -1   -1    0    0    0  501  0.00000000000E+00  0.00000000000E+00 -0.13338746295E+04  0.13338746295E+04  0.50400001928E-02 0. -1.
    10030    2    1    2    0    0  0.00000000000E+00  0.00000000000E+00  0.13793101423E+04  0.40470594013E+04  0.38047592997E+04 0.  0.
        2    1    3    3  502    0 -0.15870201286E+04 -0.61053134523E+03  0.15970131445E+04  0.23327735415E+04  0.25500000920E-02 0.  1.
       -2    1    3    3    0  502  0.15870201286E+04  0.61053134523E+03 -0.21770300221E+03  0.17142858598E+04  0.25500000920E-02 0. -1.
</event>
<event>
 5   0  0.3377396E-07  0.3808476E+04  0.7818609E-02  0.8044338E-01
       -2   -1    0    0    0  501  0.00000000000E+00  0.00000000000E+00  0.19393155382E+04  0.19393155382E+04  0.25500000920E-02 0. -1.
        2   -1    0    0  501    0  0.00000000000E+00  0.00000000000E+00 -0.18697951444E+04  0.18697951444E+04  0.25500000920E-02 0.  1.
    10030    2    1    2    0    0  0.00000000000E+00  0.00000000000E+00  0.69520393739E+02  0.38091106826E+04  0.38084762186E+04 0.  0.
        5    1    3    3  502    0 -0.68976714930E+02 -0.96330974500E+03  0.16761847925E+04  0.19345131172E+04  0.46999998093E+01 0. -1.
       -5    1    3    3    0  502  0.68976714930E+02  0.96330974500E+03 -0.16066643988E+04  0.18745975654E+04  0.46999998093E+01 0.  1.
</event>
<event>
 5   0  0.3327241E-07  0.3817325E+04  0.7818609E-02  0.8042447E-01
        2   -1    0    0  501    0  0.00000000000E+00  0.00000000000E+00  0.14767043467E+04  0.14767043467E+04  0.25500000920E-02 0.  1.
       -2   -1    0    0    0  501  0.00000000000E+00  0.00000000000E+00 -0.24669749719E+04  0.24669749719E+04  0.25500000920E-02 0. -1.
    10030    2    1    2    0    0  0.00000000000E+00  0.00000000000E+00 -0.99027062522E+03  0.39436793186E+04  0.38173250656E+04 0.  0.
        3    1    3    3  502    0  0.13380789250E+04 -0.46143753120E+03  0.82772231390E+03  0.16396658330E+04  0.10100000352E+00 0.  1.
       -3    1    3    3    0  502 -0.13380789250E+04  0.46143753120E+03 -0.18179929391E+04  0.23040134856E+04  0.10100000352E+00 0. -1.
</event>
<event>
 5   0  0.1085771E-07  0.3780432E+04  0.7818609E-02  0.8050367E-01
        1   -1    0    0  501    0  0.00000000000E+00  0.00000000000E+00  0.18244848282E+04  0.18244848282E+04  0.50400001928E-02 0. -1.
       -1   -1    0    0    0  501  0.00000000000E+00  0.00000000000E+00 -0.19583152473E+04  0.19583152473E+04  0.50400001928E-02 0.  1.
    10030    2    1    2    0    0  0.00000000000E+00  0.00000000000E+00 -0.13383041904E+03  0.37828000755E+04  0.37804319634E+04 0.  0.
        1    1    3    3  502    0 -0.10216713597E+04  0.62105590336E+02 -0.16570132167E+04  0.19476555835E+04  0.50400001928E-02 0.  1.
       -1    1    3    3    0  502  0.10216713597E+04 -0.62105590336E+02  0.15231827976E+04  0.18351444920E+04  0.50400001928E-02 0. -1.
</event>
<event>
 5   0  0.3509843E-07  0.3909269E+04  0.7818609E-02  0.8023104E-01
       -2   -1    0    0    0  501  0.00000000000E+00  0.00000000000E+00  0.18061637744E+04  0.18061637744E+04  0.25500000920E-02 0.  1.
        2   -1    0    0  501    0  0.00000000000E+00  0.00000000000E+00 -0.21153094328E+04  0.21153094328E+04  0.25500000920E-02 0. -1.
    10030    2    1    2    0    0  0.00000000000E+00  0.00000000000E+00 -0.30914565838E+03  0.39214732073E+04  0.39092686115E+04 0.  0.
        4    1    3    3  502    0 -0.18780509643E+04 -0.90867853502E+02  0.38119316100E+03  0.19184999948E+04  0.12699999809E+01 0.  1.
       -4    1    3    3    0  502  0.18780509643E+04  0.90867853502E+02 -0.69033881939E+03  0.20029732124E+04  0.12699999809E+01 0. -1.
</event>
<event>
 5   0  0.3539010E-07  0.3781061E+04  0.7818609E-02  0.8050231E-01
       -2   -1    0    0    0  501  0.00000000000E+00  0.00000000000E+00  0.16376094405E+04  0.16376094405E+04  0.25500000920E-02 0.  1.
        2   -1    0    0  501    0  0.00000000000E+00  0.00000000000E+00 -0.21825139783E+04  0.21825139783E+04  0.25500000920E-02 0. -1.
    10030    2    1    2    0    0  0.00000000000E+00  0.00000000000E+00 -0.54490453780E+03  0.38201234189E+04  0.37810609596E+04 0.  0.
        1    1    3    3  502    0  0.59457135312E+03 -0.54065621634E+03  0.14564486643E+04  0.16634503148E+04  0.50400001928E-02 0.  1.
       -1    1    3    3    0  502 -0.59457135312E+03  0.54065621634E+03 -0.20013532021E+04  0.21566731040E+04  0.50400001928E-02 0. -1.
</event>
<event>
 5   0  0.3327241E-07  0.3728783E+04  0.7818609E-02  0.8061613E-01
        2   -1    0    0  501    0  0.00000000000E+00  0.00000000000E+00  0.18734657805E+04  0.18734657805E+04  0.25500000920E-02 0.  1.
       -2   -1    0    0    0  501  0.00000000000E+00  0.00000000000E+00 -0.18553608424E+04  0.18553608424E+04  0.25500000920E-02 0. -1.
    10030    2    1    2    0    0  0.00000000000E+00  0.00000000000E+00  0.18104938108E+02  0.37288266229E+04  0.37287826693E+04 0.  0.
        3    1    3    3  502    0 -0.15775086738E+03  0.97036968032E+03  0.15931962590E+04  0.18721049604E+04  0.10100000352E+00 0.  1.
       -3    1    3    3    0  502  0.15775086738E+03 -0.97036968032E+03 -0.15750913209E+04  0.18567216625E+04  0.10100000352E+00 0. -1.
</event>
<event>
 5   0  0.1070988E-07  0.3786661E+04  0.7818609E-02  0.8049023E-01
        3   -1    0    0  501    0  0.00000000000E+00  0.00000000000E+00  0.34091153164E+04  0.34091153178E+04  0.10100000352E+00 0. -1.
       -3   -1    0    0    0  501  0.00000000000E+00  0.00000000000E+00 -0.10515045042E+04  0.10515045091E+04  0.10100000352E+00 0.  1.
    10030    2    1    2    0    0  0.00000000000E+00  0.00000000000E+00  0.23576108121E+04  0.44606198269E+04  0.37866608640E+04 0.  0.
        2    1    3    3  502    0  0.44065136525E+03 -0.16542036231E+04  0.21315425878E+04  0.27338685147E+04  0.25500000920E-02 0. -1.
       -2    1    3    3    0  502 -0.44065136525E+03  0.16542036231E+04  0.22606822435E+03  0.17267513122E+04  0.25500000920E-02 0.  1.
</event>
<event>
 5   0  0.1070988E-07  0.3755307E+04  0.7818609E-02  0.8055814E-01
       -1   -1    0    0    0  501  0.00000000000E+00  0.00000000000E+00  0.17761589441E+04  0.17761589441E+04  0.50400001928E-02 0.  1.
        1   -1    0    0  501    0  0.00000000000E+00  0.00000000000E+00 -0.19849477089E+04  0.19849477089E+04  0.50400001928E-02 0. -1.
    10030    2    1    2    0    0  0.00000000000E+00  0.00000000000E+00 -0.20878876476E+03  0.37611066530E+04  0.37553069791E+04 0.  0.
        2    1    3    3  502    0  0.14263460086E+04 -0.24632281496E+03  0.10934647555E+04  0.18140570655E+04  0.25500000920E-02 0.  1.
       -2    1    3    3    0  502 -0.14263460086E+04  0.24632281496E+03 -0.13022535202E+04  0.19470495875E+04  0.25500000920E-02 0. -1.
</event>
<event>
 5   0  0.1070988E-07  0.3819752E+04  0.7818609E-02  0.8041929E-01
       -1   -1    0    0    0  501  0.00000000000E+00  0.00000000000E+00  0.20591193763E+04  0.20591193763E+04  0.50400001928E-02 0. -1.
        1   -1    0    0  501    0  0.00000000000E+00  0.00000000000E+00 -0.17714498839E+04  0.17714498839E+04  0.50400001928E-02 0.  1.
    10030    2    1    2    0    0  0.00000000000E+00  0.00000000000E+00  0.28766949246E+03  0.38305692602E+04  0.38197522328E+04 0.  0.
        3    1    3    3  502    0 -0.37752495960E+03 -0.18567624814E+04  0.38437805903E+03  0.19333490398E+04  0.10100000352E+00 0. -1.
       -3    1    3    3    0  502  0.37752495960E+03  0.18567624814E+04 -0.96708566572E+02  0.18972202203E+04  0.10100000352E+00 0.  1.
</event>
<event>
 5   0  0.3442126E-07  0.3841313E+04  0.7818609E-02  0.8037347E-01
       -2   -1    0    0    0  501  0.00000000000E+00  0.00000000000E+00  0.31784224800E+04  0.31784224800E+04  0.25500000920E-02 0. -1.
        2   -1    0    0  501    0  0.00000000000E+00  0.00000000000E+00 -0.11606141927E+04  0.11606141927E+04  0.25500000920E-02 0.  1.
    10030    2    1    2    0    0  0.00000000000E+00  0.00000000000E+00  0.20178082873E+04  0.43390366727E+04  0.38413134424E+04 0.  0.
        2    1    3    3  502    0 -0.16416028689E+04 -0.11704375274E+03  0.21273295795E+04  0.26896264348E+04  0.25500000920E-02 0.  1.
       -2    1    3    3    0  502  0.16416028689E+04  0.11704375274E+03 -0.10952129215E+03  0.16494102378E+04  0.25500000920E-02 0. -1.
</event>
<event>
 5   0  0.3509843E-07  0.3805668E+04  0.7818609E-02  0.8044940E-01
        2   -1    0    0  501    0  0.00000000000E+00  0.00000000000E+00  0.27845419386E+04  0.27845419386E+04  0.25500000920E-02 0. -1.
       -2   -1    0    0    0  501  0.00000000000E+00  0.00000000000E+00 -0.13003137293E+04  0.13003137293E+04  0.25500000920E-02 0.  1.
    10030    2    1    2    0    0  0.00000000000E+00  0.00000000000E+00  0.14842282093E+04  0.40848556678E+04  0.38056684629E+04 0.  0.
        4    1    3    3  502    0  0.18066355276E+04 -0.52354770770E+03  0.43336213493E+03  0.19302431154E+04  0.12699999809E+01 0.  1.
       -4    1    3    3    0  502 -0.18066355276E+04  0.52354770770E+03  0.10508660744E+04  0.21546125524E+04  0.12699999809E+01 0. -1.
</event>
<event>
 5   0  0.1070988E-07  0.3809782E+04  0.7818609E-02  0.8044059E-01
       -1   -1    0    0    0  501  0.00000000000E+00  0.00000000000E+00  0.12714097910E+04  0.12714097910E+04  0.50400001928E-02 0. -1.
        1   -1    0    0  501    0  0.00000000000E+00  0.00000000000E+00 -0.28540052140E+04  0.28540052140E+04  0.50400001928E-02 0.  1.
    10030    2    1    2    0    0  0.00000000000E+00  0.00000000000E+00 -0.15825954230E+04  0.41254150050E+04  0.38097822366E+04 0.  0.
        2    1    3    3  502    0 -0.82757096666E+03 -0.17139622408E+04 -0.70693346513E+03  0.20303436142E+04  0.25500000920E-02 0. -1.
       -2    1    3    3    0  502  0.82757096666E+03  0.17139622408E+04 -0.87566195785E+03  0.20950713907E+04  0.25500000920E-02 0.  1.
</event>
<event>
 5   0  0.1070988E-07  0.3818768E+04  0.7818609E-02  0.8042139E-01
        1   -1    0    0  501    0  0.00000000000E+00  0.00000000000E+00  0.29142431119E+04  0.29142431119E+04  0.50400001928E-02 0.  1.
       -1   -1    0    0    0  501  0.00000000000E+00  0.00000000000E+00 -0.12510097414E+04  0.12510097414E+04  0.50400001928E-02 0. -1.
    10030    2    1    2    0    0  0.00000000000E+00  0.00000000000E+00  0.16632333705E+04  0.41652528533E+04  0.38187676137E+04 0.  0.
        5    1    3    3  502    0 -0.11139671979E+04 -0.15299836828E+04  0.55578553009E+03  0.19724838740E+04  0.46999998093E+01 0. -1.
       -5    1    3    3    0  502  0.11139671979E+04  0.15299836828E+04  0.11074478405E+04  0.21927689794E+04  0.46999998093E+01 0.  1.
</event>
<event>
 5   0  0.1070988E-07  0.3832879E+04  0.7818609E-02  0.8039136E-01
       -1   -1    0    0    0  501  0.00000000000E+00  0.00000000000E+00  0.37178510383E+04  0.37178510383E+04  0.50400001928E-02 0. -1.
        1   -1    0    0  501    0  0.00000000000E+00  0.00000000000E+00 -0.98786655471E+03  0.98786655472E+03  0.50400001928E-02 0.  1.
    10030    2    1    2    0    0  0.00000000000E+00  0.00000000000E+00  0.27299844836E+04  0.47057175930E+04  0.38328791769E+04 0.  0.
        2    1    3    3  502    0  0.93656890120E+03  0.82231161752E+03 -0.42234067324E+03  0.13159518788E+04  0.25500000920E-02 0.  1.
       -2    1    3    3    0  502 -0.93656890120E+03 -0.82231161752E+03  0.31523251568E+04  0.33897657142E+04  0.25500000920E-02 0. -1.
</event>
<event>
 5   0  0.3442126E-07  0.3883064E+04  0.7818609E-02  0.8028561E-01
        2   -1    0    0  501    0  0.00000000000E+00  0.00000000000E+00  0.17582733826E+04  0.17582733826E+04  0.25500000920E-02 0. -1.
       -2   -1    0    0    0  501  0.00000000000E+00  0.00000000000E+00 -0.21438906204E+04  0.21438906204E+04  0.25500000920E-02 0.  1.
    10030    2    1    2    0    0  0.00000000000E+00  0.00000000000E+00 -0.38561723782E+03  0.39021640029E+04  0.38830636425E+04 0.  0.
        2    1    3    3  502    0  0.11578679001E+04 -0.12150206444E+04 -0.11736282828E+04  0.20480079557E+04  0.25500000920E-02 0.  1.
       -2    1    3    3    0  502 -0.11578679001E+04  0.12150206444E+04  0.78801104494E+03  0.18541560472E+04  0.25500000920E-02 0. -1.
</event>
<event>
 5   0  0.3327241E-07  0.3858309E+04  0.7818609E-02  0.8033757E-01
        2   -1    0    0  501    0  0.00000000000E+00  0.00000000000E+00  0.23479537768E+04  0.23479537768E+04  0.25500000920E-02 0.  1.
       -2   -1    0    0    0  501  0.00000000000E+00  0.00000000000E+00 -0.15850552163E+04  0.15850552163E+04  0.25500000920E-02 0. -1.
    10030    2    1    2    0    0  0.00000000000E+00  0.00000000000E+00  0.76289856055E+03  0.39330089931E+04  0.38583086354E+04 0.  0.
        3    1    3    3  502    0 -0.12523391729E+04  0.70599315848E+03 -0.92986913835E+03  0.17121437931E+04  0.10100000352E+00 0. -1.
       -3    1    3    3    0  502  0.12523391729E+04 -0.70599315848E+03  0.16927676989E+04  0.22208652000E+04  0.10100000352E+00 0.  1.
</event>
<event>
 5   0  0.3442126E-07  0.3800478E+04  0.7818609E-02  0.8046052E-01
        2   -1    0    0  501    0  0.00000000000E+00  0.00000000000E+00  0.10618639607E+04  0.10618639607E+04  0.25500000920E-02 0.  1.
       -2   -1    0    0    0  501  0.00000000000E+00  0.00000000000E+00 -0.34005382169E+04  0.34005382169E+04  0.25500000920E-02 0. -1.
    10030    2    1    2    0    0  0.00000000000E+00  0.00000000000E+00 -0.23386742563E+04  0.44624021776E+04  0.38004783801E+04 0.  0.
        2    1    3    3  502    0 -0.18021374461E+04  0.59094371769E+03 -0.13082424459E+04  0.23039991643E+04  0.25500000920E-02 0. -1.
       -2    1    3    3    0  502  0.18021374461E+04 -0.59094371769E+03 -0.10304318104E+04  0.21584030133E+04  0.25500000920E-02 0.  1.
</event>
<event>
 5   0  0.1070988E-07  0.3667103E+04  0.7818609E-02  0.8075291E-01
       -1   -1    0    0    0  501  0.00000000000E+00  0.00000000000E+00  0.16429161378E+04  0.16429161378E+04  0.50400001928E-02 0. -1.
        1   -1    0    0  501    0  0.00000000000E+00  0.00000000000E+00 -0.20463074116E+04  0.20463074116E+04  0.50400001928E-02 0.  1.
    10030    2    1    2    0    0  0.00000000000E+00  0.00000000000E+00 -0.40339127383E+03  0.36892235494E+04  0.36671031997E+04 0.  0.
        3    1    3    3  502    0  0.53644594533E+03  0.85512412870E+03 -0.17415821312E+04  0.20129877937E+04  0.10100000352E+00 0.  1.
       -3    1    3    3    0  502 -0.53644594533E+03 -0.85512412870E+03  0.13381908573E+04  0.16762357557E+04  0.10100000352E+00 0. -1.
</event>
<event>
 5   0  0.1070988E-07  0.3825713E+04  0.7818609E-02  0.8040659E-01
       -1   -1    0    0    0  501  0.00000000000E+00  0.00000000000E+00  0.24414357174E+04  0.24414357174E+04  0.50400001928E-02 0.  1.
        1   -1    0    0  501    0  0.00000000000E+00  0.00000000000E+00 -0.14987165533E+04  0.14987165533E+04  0.50400001928E-02 0. -1.
    10030    2    1    2    0    0  0.00000000000E+00  0.00000000000E+00  0.94271916407E+03  0.39401522708E+04  0.38257130701E+04 0.  0.
        5    1    3    3  502    0  0.84943139765E+03 -0.76386429716E+03  0.20515215183E+04  0.23481450112E+04  0.46999998093E+01 0.  1.
       -5    1    3    3    0  502 -0.84943139765E+03  0.76386429716E+03 -0.11088023542E+04  0.15920072595E+04  0.46999998093E+01 0. -1.
</event>
<event>
 5   0  0.3377396E-07  0.3820477E+04  0.7818609E-02  0.8041775E-01
       -2   -1    0    0    0  501  0.00000000000E+00  0.00000000000E+00  0.17094147411E+04  0.17094147411E+04  0.25500000920E-02 0.  1.
        2   -1    0    0  501    0  0.00000000000E+00  0.00000000000E+00 -0.21346552766E+04  0.21346552766E+04  0.25500000920E-02 0. -1.
    10030    2    1    2    0    0  0.00000000000E+00  0.00000000000E+00 -0.42524053552E+03  0.38440700177E+04  0.38204770367E+04 0.  0.
        5    1    3    3  502    0  0.51067720246E+03  0.10475119723E+02 -0.20646631918E+04  0.21269125790E+04  0.46999998093E+01 0. -1.
       -5    1    3    3    0  502 -0.51067720246E+03 -0.10475119723E+02  0.16394226563E+04  0.17171574387E+04  0.46999998093E+01 0.  1.
</event>
<event>
 5   0  0.1070988E-07  0.3805683E+04  0.7818609E-02  0.8044936E-01
        1   -1    0    0  501    0  0.00000000000E+00  0.00000000000E+00  0.27384437487E+04  0.27384437487E+04  0.50400001928E-02 0.  1.
       -1   -1    0    0    0  501  0.00000000000E+00  0.00000000000E+00 -0.13222130354E+04  0.13222130354E+04  0.50400001928E-02 0. -1.
    10030    2    1    2    0    0  0.00000000000E+00  0.00000000000E+00  0.14162307133E+04  0.40606567842E+04  0.38056831299E+04 0.  0.
        5    1    3    3  502    0  0.39249297539E+03 -0.81400538476E+02  0.26928773377E+04  0.27225516026E+04  0.46999998093E+01 0.  1.
       -5    1    3    3    0  502 -0.39249297539E+03  0.81400538476E+02 -0.12766466243E+04  0.13381051815E+04  0.46999998093E+01 0. -1.
</event>
<event>
 5   0  0.1070988E-07  0.3815978E+04  0.7818609E-02  0.8042735E-01
       -1   -1    0    0    0  501  0.00000000000E+00  0.00000000000E+00  0.12432413643E+04  0.12432413643E+04  0.50400001928E-02 0.  1.
        1   -1    0    0  501    0  0.00000000000E+00  0.00000000000E+00 -0.29281693255E+04  0.29281693255E+04  0.50400001928E-02 0. -1.
    10030    2    1    2    0    0  0.00000000000E+00  0.00000000000E+00 -0.16849279611E+04  0.41714106898E+04  0.38159775823E+04 0.  0.
        2    1    3    3  502    0 -0.90330559937E+03 -0.60493375711E+03  0.87154699664E+03  0.13933772008E+04  0.25500000920E-02 0.  1.
       -2    1    3    3    0  502  0.90330559937E+03  0.60493375711E+03 -0.25564749578E+04  0.27780334890E+04  0.25500000920E-02 0. -1.
</event>
<event>
 5   0  0.3377396E-07  0.3799753E+04  0.7818609E-02  0.8046208E-01
       -2   -1    0    0    0  501  0.00000000000E+00  0.00000000000E+00  0.18832904217E+04  0.18832904217E+04  0.25500000920E-02 0. -1.
        2   -1    0    0  501    0  0.00000000000E+00  0.00000000000E+00 -0.19166090792E+04  0.19166090792E+04  0.25500000920E-02 0.  1.
    10030    2    1    2    0    0  0.00000000000E+00  0.00000000000E+00 -0.33318657539E+02  0.37998995010E+04  0.37997534242E+04 0.  0.
        5    1    3    3  502    0 -0.18910120099E+03 -0.21131515687E+02  0.18737317349E+04  0.18833742351E+04  0.46999998093E+01 0. -1.
       -5    1    3    3    0  502  0.18910120099E+03  0.21131515687E+02 -0.19070503925E+04  0.19165252658E+04  0.46999998093E+01 0.  1.
</event>
<event>
 5   0  0.1085771E-07  0.3722432E+04  0.7818609E-02  0.8063009E-01
        1   -1    0    0  501    0  0.00000000000E+00  0.00000000000E+00  0.15756965185E+04  0.15756965185E+04  0.50400001928E-02 0. -1.
       -1   -1    0    0    0  501  0.00000000000E+00  0.00000000000E+00 -0.21984724657E+04  0.21984724658E+04  0.50400001928E-02 0.  1.
    10030    2    1    2    0    0  0.00000000000E+00  0.00000000000E+00 -0.62277594725E+03  0.37741689843E+04  0.37224322212E+04 0.  0.
        1    1    3    3  502    0 -0.70111030497E+03  0.16928268224E+04  0.20122929580E+02  0.18323818496E+04  0.50400001928E-02 0.  1.
       -1    1    3    3    0  502  0.70111030497E+03 -0.16928268224E+04 -0.64289887683E+03  0.19417871347E+04  0.50400001928E-02 0. -1.
</event>
<event>
 5   0  0.3327241E-07  0.3828388E+04  0.7818609E-02  0.8040090E-01
        2   -1    0    0  501    0  0.00000000000E+00  0.00000000000E+00  0.20949872080E+04  0.20949872080E+04  0.25500000920E-02 0.  1.
       -2   -1    0    0    0  501  0.00000000000E+00  0.00000000000E+00 -0.17490026667E+04  0.17490026667E+04  0.25500000920E-02 0. -1.
    10030    2    1    2    0    0  0.00000000000E+00  0.00000000000E+00  0.34598454131E+03  0.38439898746E+04  0.38283877616E+04 0.  0.
        3    1    3    3  502    0  0.82738725604E+03 -0.17541981153E+03  0.18971965205E+04  0.20771847365E+04  0.10100000352E+00 0.  1.
       -3    1    3    3    0  502 -0.82738725604E+03  0.17541981153E+03 -0.15512119792E+04  0.17668051382E+04  0.10100000352E+00 0. -1.
</event>
<event>
 5   0  0.3539010E-07  0.3775930E+04  0.7818609E-02  0.8051340E-01
        2   -1    0    0  501    0  0.00000000000E+00  0.00000000000E+00  0.21752022266E+04  0.21752022266E+04  0.25500000920E-02 0.  1.
       -2   -1    0    0    0  501  0.00000000000E+00  0.00000000000E+00 -0.16386579435E+04  0.16386579435E+04  0.25500000920E-02 0. -1.
    10030    2    1    2    0    0  0.00000000000E+00  0.00000000000E+00  0.53654428315E+03  0.38138601701E+04  0.37759302999E+04 0.  0.
        1    1    3    3  502    0  0.53310267371E+03 -0.34083356549E+03  0.20649169255E+04  0.21596869887E+04  0.50400001928E-02 0.  1.
       -1    1    3    3    0  502 -0.53310267371E+03  0.34083356549E+03 -0.15283726424E+04  0.16541731814E+04  0.50400001928E-02 0. -1.
</event>
<event>
 5   0  0.3327241E-07  0.3830014E+04  0.7818609E-02  0.8039745E-01
       -2   -1    0    0    0  501  0.00000000000E+00  0.00000000000E+00  0.21801071897E+04  0.21801071897E+04  0.25500000920E-02 0.  1.
        2   -1    0    0  501    0  0.00000000000E+00  0.00000000000E+00 -0.16821425703E+04  0.16821425703E+04  0.25500000920E-02 0. -1.
    10030    2    1    2    0    0  0.00000000000E+00  0.00000000000E+00  0.49796461942E+03  0.38622497600E+04  0.38300136353E+04 0.  0.
        3    1    3    3  502    0  0.18838569671E+03 -0.18696570528E+04 -0.12310082277E+03  0.18831517434E+04  0.10100000352E+00 0. -1.
       -3    1    3    3    0  502 -0.18838569671E+03  0.18696570528E+04  0.62106544219E+03  0.19790980167E+04  0.10100000352E+00 0.  1.
</event>
<event>
 5   0  0.1070988E-07  0.3785590E+04  0.7818609E-02  0.8049254E-01
        1   -1    0    0  501    0  0.00000000000E+00  0.00000000000E+00  0.23488914817E+04  0.23488914817E+04  0.50400001928E-02 0. -1.
       -1   -1    0    0    0  501  0.00000000000E+00  0.00000000000E+00 -0.15252614079E+04  0.15252614079E+04  0.50400001928E-02 0.  1.
    10030    2    1    2    0    0  0.00000000000E+00  0.00000000000E+00  0.82363007380E+03  0.38741528896E+04  0.37855903256E+04 0.  0.
        2    1    3    3  502    0 -0.58111357134E+03 -0.36538742706E+03 -0.13933883150E+04  0.15532971226E+04  0.25500000920E-02 0.  1.
       -2    1    3    3    0  502  0.58111357134E+03  0.36538742706E+03  0.22170183888E+04  0.23208557670E+04  0.25500000920E-02 0. -1.
</event>
<event>
 5   0  0.3509843E-07  0.3819119E+04  0.7818609E-02  0.8042064E-01
       -2   -1    0    0    0  501  0.00000000000E+00  0.00000000000E+00  0.24513598917E+04  0.24513598917E+04  0.25500000920E-02 0.  1.
        2   -1    0    0  501    0  0.00000000000E+00  0.00000000000E+00 -0.14875078053E+04  0.14875078053E+04  0.25500000920E-02 0. -1.
    10030    2    1    2    0    0  0.00000000000E+00  0.00000000000E+00  0.96385208642E+03  0.39388676970E+04  0.38191187321E+04 0.  0.
        4    1    3    3  502    0  0.51670962649E+03  0.11098752114E+03  0.23744299090E+04  0.24325349069E+04  0.12699999809E+01 0.  1.
       -4    1    3    3    0  502 -0.51670962649E+03 -0.11098752114E+03 -0.14105778225E+04  0.15063327900E+04  0.12699999809E+01 0. -1.
</event>
<event>
 5   0  0.1070988E-07  0.3757001E+04  0.7818609E-02  0.8055446E-01
        1   -1    0    0  501    0  0.00000000000E+00  0.00000000000E+00  0.19149610341E+04  0.19149610341E+04  0.50400001928E-02 0.  1.
       -1   -1    0    0    0  501  0.00000000000E+00  0.00000000000E+00 -0.18427344165E+04  0.18427344165E+04  0.50400001928E-02 0. -1.
    10030    2    1    2    0    0  0.00000000000E+00  0.00000000000E+00  0.72226617543E+02  0.37576954506E+04  0.37570012531E+04 0.  0.
        5    1    3    3  502    0 -0.17421743941E+04 -0.10134172720E+02  0.73871602027E+03  0.18923524433E+04  0.46999998093E+01 0.  1.
       -5    1    3    3    0  502  0.17421743941E+04  0.10134172720E+02 -0.66648940272E+03  0.18653430073E+04  0.46999998093E+01 0. -1.
</event>
<event>
 5   0  0.1070988E-07  0.3056822E+04  0.7818609E-02  0.8227689E-01
       -1   -1    0    0    0  501  0.00000000000E+00  0.00000000000E+00  0.11866007968E+04  0.11866007968E+04  0.50400001928E-02 0.  1.
        1   -1    0    0  501    0  0.00000000000E+00  0.00000000000E+00 -0.19686828997E+04  0.19686828997E+04  0.50400001928E-02 0. -1.
    10030    2    1    2    0    0  0.00000000000E+00  0.00000000000E+00 -0.78208210283E+03  0.31552836965E+04  0.30568223353E+04 0.  0.
        2    1    3    3  502    0  0.32896862068E+03 -0.23164422018E+03  0.11309569983E+04  0.12003929066E+04  0.25500000920E-02 0.  1.
       -2    1    3    3    0  502 -0.32896862068E+03  0.23164422018E+03 -0.19130391011E+04  0.19548907899E+04  0.25500000920E-02 0. -1.
</event>
<event>
 5   0  0.1070988E-07  0.3848813E+04  0.7818609E-02  0.8035760E-01
       -1   -1    0    0    0  501  0.00000000000E+00  0.00000000000E+00  0.30885645256E+04  0.30885645256E+04  0.50400001928E-02 0. -1.
        1   -1    0    0  501    0  0.00000000000E+00  0.00000000000E+00 -0.11990487516E+04  0.11990487516E+04  0.50400001928E-02 0.  1.
    10030    2    1    2    0    0  0.00000000000E+00  0.00000000000E+00  0.18895157740E+04  0.42876132772E+04  0.38488125122E+04 0.  0.
        2    1    3    3  502    0  0.50343431489E+03 -0.46868359959E+03  0.29469489019E+04  0.30261556894E+04  0.25500000920E-02 0. -1.
       -2    1    3    3    0  502 -0.50343431489E+03  0.46868359959E+03 -0.10574331279E+04  0.12614575878E+04  0.25500000920E-02 0.  1.
</event>
<event>
 5   0  0.1070988E-07  0.3794341E+04  0.7818609E-02  0.8047370E-01
       -1   -1    0    0    0  501  0.00000000000E+00  0.00000000000E+00  0.18385830948E+04  0.18385830948E+04  0.50400001928E-02 0.  1.
        1   -1    0    0  501    0  0.00000000000E+00  0.00000000000E+00 -0.19576244025E+04  0.19576244025E+04  0.50400001928E-02 0. -1.
    10030    2    1    2    0    0  0.00000000000E+00  0.00000000000E+00 -0.11904130770E+03  0.37962074974E+04  0.37943405923E+04 0.  0.
        3    1    3    3  502    0  0.36477925190E+03 -0.17212441054E+04 -0.76945413581E+03  0.19203658116E+04  0.10100000352E+00 0. -1.
       -3    1    3    3    0  502 -0.36477925190E+03  0.17212441054E+04  0.65041282811E+03  0.18758416858E+04  0.10100000352E+00 0.  1.
</event>
<event>
 5   0  0.1070988E-07  0.3796404E+04  0.7818609E-02  0.8046927E-01
        1   -1    0    0  501    0  0.00000000000E+00  0.00000000000E+00  0.11879042245E+04  0.11879042245E+04  0.50400001928E-02 0.  1.
       -1   -1    0    0    0  501  0.00000000000E+00  0.00000000000E+00 -0.30332171347E+04  0.30332171347E+04  0.50400001928E-02 0. -1.
    10030    2    1    2    0    0  0.00000000000E+00  0.00000000000E+00 -0.18453129101E+04  0.42211213592E+04  0.37964043242E+04 0.  0.
        5    1    3    3  502    0  0.61458584524E+03 -0.50594148556E+03  0.99333640167E+03  0.12729618395E+04  0.46999998093E+01 0.  1.
       -5    1    3    3    0  502 -0.61458584524E+03  0.50594148556E+03 -0.28386493118E+04  0.29481595197E+04  0.46999998093E+01 0. -1.
</event>
<event>
 5   0  0.3377396E-07  0.3960164E+04  0.7818609E-02  0.8012631E-01
       -2   -1    0    0    0  501  0.00000000000E+00  0.00000000000E+00  0.24572301028E+04  0.24572301028E+04  0.25500000920E-02 0.  1.
        2   -1    0    0  501    0  0.00000000000E+00  0.00000000000E+00 -0.15955875170E+04  0.15955875170E+04  0.25500000920E-02 0. -1.
    10030    2    1    2    0    0  0.00000000000E+00  0.00000000000E+00  0.86164258583E+03  0.40528176198E+04  0.39601644806E+04 0.  0.
        5    1    3    3  502    0 -0.17733605584E+04  0.37767676990E+03  0.12452133951E+04  0.21995512956E+04  0.46999998093E+01 0. -1.
       -5    1    3    3    0  502  0.17733605584E+04 -0.37767676990E+03 -0.38357080929E+03  0.18532663242E+04  0.46999998093E+01 0.  1.
</event>
<event>
 5   0  0.1070988E-07  0.3797375E+04  0.7818609E-02  0.8046718E-01
       -1   -1    0    0    0  501  0.00000000000E+00  0.00000000000E+00  0.19997265820E+04  0.19997265820E+04  0.50400001928E-02 0. -1.
        1   -1    0    0  501    0  0.00000000000E+00  0.00000000000E+00 -0.18027537451E+04  0.18027537451E+04  0.50400001928E-02 0.  1.
    10030    2    1    2    0    0  0.00000000000E+00  0.00000000000E+00  0.19697283689E+03  0.38024803271E+04  0.37973751908E+04 0.  0.
        3    1    3    3  502    0  0.93952055648E+03 -0.16396785469E+04  0.28249952129E+03  0.19107722531E+04  0.10100000352E+00 0.  1.
       -3    1    3    3    0  502 -0.93952055648E+03  0.16396785469E+04 -0.85526684404E+02  0.18917080740E+04  0.10100000352E+00 0. -1.
</event>
<event>
 5   0  0.1070988E-07  0.3376246E+04  0.7818609E-02  0.8143761E-01
       -1   -1    0    0    0  501  0.00000000000E+00  0.00000000000E+00  0.18076389876E+04  0.18076389876E+04  0.50400001928E-02 0.  1.
        1   -1    0    0  501    0  0.00000000000E+00  0.00000000000E+00 -0.15765089989E+04  0.15765089989E+04  0.50400001928E-02 0. -1.
    10030    2    1    2    0    0  0.00000000000E+00  0.00000000000E+00  0.23112998874E+03  0.33841479866E+04  0.33762459216E+04 0.  0.
        5    1    3    3  502    0  0.76645507102E+03 -0.38924868609E+03  0.15718139943E+04  0.17915326506E+04  0.46999998093E+01 0.  1.
       -5    1    3    3    0  502 -0.76645507102E+03  0.38924868609E+03 -0.13406840056E+04  0.15926153359E+04  0.46999998093E+01 0. -1.
</event>
<event>
 5   0  0.1084315E-07  0.3718977E+04  0.7818609E-02  0.8063769E-01
       -1   -1    0    0    0  501  0.00000000000E+00  0.00000000000E+00  0.18690149713E+04  0.18690149713E+04  0.50400001928E-02 0.  1.
        1   -1    0    0  501    0  0.00000000000E+00  0.00000000000E+00 -0.18500106078E+04  0.18500106078E+04  0.50400001928E-02 0. -1.
    10030    2    1    2    0    0  0.00000000000E+00  0.00000000000E+00  0.19004363529E+02  0.37190255791E+04  0.37189770223E+04 0.  0.
        4    1    3    3  502    0  0.71386784772E+03  0.87395821127E+01  0.17265022423E+04  0.18682867258E+04  0.12699999809E+01 0.  1.
       -4    1    3    3    0  502 -0.71386784772E+03 -0.87395821127E+01 -0.17074978787E+04  0.18507388533E+04  0.12699999809E+01 0. -1.
</event>
<event>
 5   0  0.1070988E-07  0.3729679E+04  0.7818609E-02  0.8061416E-01
        1   -1    0    0  501    0  0.00000000000E+00  0.00000000000E+00  0.19591248801E+04  0.19591248801E+04  0.50400001928E-02 0. -1.
       -1   -1    0    0    0  501  0.00000000000E+00  0.00000000000E+00 -0.17750918306E+04  0.17750918306E+04  0.50400001928E-02 0.  1.
    10030    2    1    2    0    0  0.00000000000E+00  0.00000000000E+00  0.18403304954E+03  0.37342167107E+04  0.37296791120E+04 0.  0.
        2    1    3    3  502    0  0.16192814049E+04  0.65089400145E+03 -0.56596739139E+03  0.18346809961E+04  0.25500000920E-02 0. -1.
       -2    1    3    3    0  502 -0.16192814049E+04 -0.65089400145E+03  0.75000044092E+03  0.18995357145E+04  0.25500000920E-02 0.  1.
</event>
<event>
 5   0  0.3442126E-07  0.3815401E+04  0.7818609E-02  0.8042858E-01
        2   -1    0    0  501    0  0.00000000000E+00  0.00000000000E+00  0.11537857937E+04  0.11537857937E+04  0.25500000920E-02 0. -1.
       -2   -1    0    0    0  501  0.00000000000E+00  0.00000000000E+00 -0.31542434140E+04  0.31542434140E+04  0.25500000920E-02 0.  1.
    10030    2    1    2    0    0  0.00000000000E+00  0.00000000000E+00 -0.20004576203E+04  0.43080292077E+04  0.38154010226E+04 0.  0.
        2    1    3    3  502    0  0.15446520191E+04 -0.14828618000E+03 -0.22531823046E+04  0.27358306141E+04  0.25500000920E-02 0.  1.
       -2    1    3    3    0  502 -0.15446520191E+04  0.14828618000E+03  0.25272468433E+03  0.15721985935E+04  0.25500000920E-02 0. -1.
</event>
<event>
 5   0  0.3327241E-07  0.3793469E+04  0.7818609E-02  0.8047558E-01
        2   -1    0    0  501    0  0.00000000000E+00  0.00000000000E+00  0.16627064501E+04  0.16627064501E+04  0.25500000920E-02 0.  1.
       -2   -1    0    0    0  501  0.00000000000E+00  0.00000000000E+00 -0.21637017720E+04  0.21637017720E+04  0.25500000920E-02 0. -1.
    10030    2    1    2    0    0  0.00000000000E+00  0.00000000000E+00 -0.50099532193E+03  0.38264082221E+04  0.37934685408E+04 0.  0.
        3    1    3    3  502    0 -0.19823423991E+03 -0.18190809505E+04 -0.75408076058E+03  0.19791387324E+04  0.10100000352E+00 0.  1.
       -3    1    3    3    0  502  0.19823423991E+03  0.18190809505E+04  0.25308543866E+03  0.18472694898E+04  0.10100000352E+00 0. -1.
</event>
<event>
 5   0  0.3509843E-07  0.3543197E+04  0.7818609E-02  0.8103628E-01
       -2   -1    0    0    0  501  0.00000000000E+00  0.00000000000E+00  0.14963833864E+04  0.14963833864E+04  0.25500000920E-02 0.  1.
        2   -1    0    0  501    0  0.00000000000E+00  0.00000000000E+00 -0.20974310180E+04  0.20974310180E+04  0.25500000920E-02 0. -1.
    10030    2    1    2    0    0  0.00000000000E+00  0.00000000000E+00 -0.60104763164E+03  0.35938144044E+04  0.35431968217E+04 0.  0.
        4    1    3    3  502    0  0.15777472199E+04 -0.31363635751E+03 -0.10533571272E+04  0.19228148390E+04  0.12699999809E+01 0. -1.
       -4    1    3    3    0  502 -0.15777472199E+04  0.31363635751E+03  0.45230949555E+03  0.16709995654E+04  0.12699999809E+01 0.  1.
</event>
<event>
 5   0  0.1070988E-07  0.3820537E+04  0.7818609E-02  0.8041762E-01
       -1   -1    0    0    0  501  0.00000000000E+00  0.00000000000E+00  0.16102186304E+04  0.16102186304E+04  0.50400001928E-02 0. -1.
        1   -1    0    0  501    0  0.00000000000E+00  0.00000000000E+00 -0.22662301553E+04  0.22662301553E+04  0.50400001928E-02 0.  1.
    10030    2    1    2    0    0  0.00000000000E+00  0.00000000000E+00 -0.65601152497E+03  0.38764487857E+04  0.38205371438E+04 0.  0.
        5    1    3    3  502    0  0.12267918789E+04  0.13382641019E+04  0.27494227634E+03  0.18361874812E+04  0.46999998093E+01 0.  1.
       -5    1    3    3    0  502 -0.12267918789E+04 -0.13382641019E+04 -0.93095380131E+03  0.20402613045E+04  0.46999998093E+01 0. -1.
</event>
<event>
 5   0  0.3539010E-07  0.3799284E+04  0.7818609E-02  0.8046308E-01
       -2   -1    0    0    0  501  0.00000000000E+00  0.00000000000E+00  0.20849397835E+04  0.20849397835E+04  0.25500000920E-02 0.  1.
        2   -1    0    0  501    0  0.00000000000E+00  0.00000000000E+00 -0.17308128104E+04  0.17308128104E+04  0.25500000920E-02 0. -1.
    10030    2    1    2    0    0  0.00000000000E+00  0.00000000000E+00  0.35412697316E+03  0.38157525939E+04  0.37992843990E+04 0.  0.
        1    1    3    3  502    0  0.39165924499E+03  0.10224085783E+04  0.17361854773E+04  0.20525730868E+04  0.50400001928E-02 0.  1.
       -1    1    3    3    0  502 -0.39165924499E+03 -0.10224085783E+04 -0.13820585042E+04  0.17631795071E+04  0.50400001928E-02 0. -1.
</event>
<event>
 5   0  0.3377396E-07  0.3794626E+04  0.7818609E-02  0.8047309E-01
        2   -1    0    0  501    0  0.00000000000E+00  0.00000000000E+00  0.24949996570E+04  0.24949996570E+04  0.25500000920E-02 0.  1.
       -2   -1    0    0    0  501  0.00000000000E+00  0.00000000000E+00 -0.14428044975E+04  0.14428044975E+04  0.25500000920E-02 0. -1.
    10030    2    1    2    0    0  0.00000000000E+00  0.00000000000E+00  0.10521951595E+04  0.39378041545E+04  0.37946260561E+04 0.  0.
        5    1    3    3  502    0  0.17906721756E+04 -0.64065956790E+02 -0.12127022108E+03  0.17959231175E+04  0.46999998093E+01 0. -1.
       -5    1    3    3    0  502 -0.17906721756E+04  0.64065956790E+02  0.11734653806E+04  0.21418810370E+04  0.46999998093E+01 0.  1.
</event>
<event>
 5   0  0.1084315E-07  0.3708895E+04  0.7818609E-02  0.8065994E-01
        1   -1    0    0  501    0  0.00000000000E+00  0.00000000000E+00  0.17835867439E+04  0.17835867439E+04  0.50400001928E-02 0. -1.
       -1   -1    0    0    0  501  0.00000000000E+00  0.00000000000E+00 -0.19281231322E+04  0.19281231322E+04  0.50400001928E-02 0.  1.
    10030    2    1    2    0    0  0.00000000000E+00  0.00000000000E+00 -0.14453638832E+03  0.37117098761E+04  0.37088946381E+04 0.  0.
        4    1    3    3  502    0 -0.13471283707E+04 -0.70791652973E+03  0.98828740101E+03  0.18145562158E+04  0.12699999809E+01 0. -1.
       -4    1    3    3    0  502  0.13471283707E+04  0.70791652973E+03 -0.11328237893E+04  0.18971536603E+04  0.12699999809E+01 0.  1.
</event>
<event>
 5   0  0.1070988E-07  0.3735020E+04  0.7818609E-02  0.8060245E-01
       -1   -1    0    0    0  501  0.00000000000E+00  0.00000000000E+00  0.17988002705E+04  0.17988002705E+04  0.50400001928E-02 0.  1.
        1   -1    0    0  501    0  0.00000000000E+00  0.00000000000E+00 -0.19388445591E+04  0.19388445591E+04  0.50400001928E-02 0. -1.
    10030    2    1    2    0    0  0.00000000000E+00  0.00000000000E+00 -0.14004428864E+03  0.37376448296E+04  0.37350202770E+04 0.  0.
        2    1    3    3  502    0  0.86552099254E+03  0.89892338187E+03  0.13203440586E+04  0.18167273510E+04  0.25500000920E-02 0.  1.
       -2    1    3    3    0  502 -0.86552099254E+03 -0.89892338187E+03 -0.14603883472E+04  0.19209174786E+04  0.25500000920E-02 0. -1.
</event>
<event>
 5   0  0.1070988E-07  0.3715522E+04  0.7818609E-02  0.8064531E-01
       -1   -1    0    0    0  501  0.00000000000E+00  0.00000000000E+00  0.14283977821E+04  0.14283977821E+04  0.50400001928E-02 0. -1.
        1   -1    0    0  501    0  0.00000000000E+00  0.00000000000E+00 -0.24161862301E+04  0.24161862301E+04  0.50400001928E-02 0.  1.
    10030    2    1    2    0    0  0.00000000000E+00  0.00000000000E+00 -0.98778844797E+03  0.38445840123E+04  0.37155215259E+04 0.  0.
        2    1    3    3  502    0  0.77195180210E+03  0.44373486279E+03  0.11932221259E+04  0.14888214315E+04  0.25500000920E-02 0. -1.
       -2    1    3    3    0  502 -0.77195180210E+03 -0.44373486279E+03 -0.21810105739E+04  0.23557625807E+04  0.25500000920E-02 0.  1.
</event>
<event>
 5   0  0.1070988E-07  0.3694873E+04  0.7818609E-02  0.8069099E-01
       -1   -1    0    0    0  501  0.00000000000E+00  0.00000000000E+00  0.13467634622E+04  0.13467634623E+04  0.50400001928E-02 0. -1.
        1   -1    0    0  501    0  0.00000000000E+00  0.00000000000E+00 -0.25342391701E+04  0.25342391701E+04  0.50400001928E-02 0.  1.
    10030    2    1    2    0    0  0.00000000000E+00  0.00000000000E+00 -0.11874757078E+04  0.38810026323E+04  0.36948725114E+04 0.  0.
        5    1    3    3  502    0  0.12308678312E+04 -0.11477596399E+04  0.20662521667E+03  0.16956131278E+04  0.46999998093E+01 0. -1.
       -5    1    3    3    0  502 -0.12308678312E+04  0.11477596399E+04 -0.13941009245E+04  0.21853895045E+04  0.46999998093E+01 0.  1.
</event>
<event>
 5   0  0.1084315E-07  0.3801018E+04  0.7818609E-02  0.8045937E-01
        1   -1    0    0  501    0  0.00000000000E+00  0.00000000000E+00  0.12713474020E+04  0.12713474020E+04  0.50400001928E-02 0.  1.
       -1   -1    0    0    0  501  0.00000000000E+00  0.00000000000E+00 -0.28410281445E+04  0.28410281445E+04  0.50400001928E-02 0. -1.
    10030    2    1    2    0    0  0.00000000000E+00  0.00000000000E+00 -0.15696807426E+04  0.41123755465E+04  0.38010176271E+04 0.  0.
        4    1    3    3  502    0  0.77045579708E+03  0.16063097057E+04 -0.68731455956E+02  0.17828512646E+04  0.12699999809E+01 0.  1.
       -4    1    3    3    0  502 -0.77045579708E+03 -0.16063097057E+04 -0.15009492866E+04  0.23295242819E+04  0.12699999809E+01 0. -1.
</event>
<event>
 5   0  0.3442126E-07  0.3732055E+04  0.7818609E-02  0.8060895E-01
        2   -1    0    0  501    0  0.00000000000E+00  0.00000000000E+00  0.22490544202E+04  0.22490544202E+04  0.25500000920E-02 0. -1.
       -2   -1    0    0    0  501  0.00000000000E+00  0.00000000000E+00 -0.15482322116E+04  0.15482322116E+04  0.25500000920E-02 0.  1.
    10030    2    1    2    0    0  0.00000000000E+00  0.00000000000E+00  0.70082220855E+03  0.37972866318E+04  0.37320549294E+04 0.  0.
        2    1    3    3  502    0  0.12131956446E+04 -0.59055549591E+03 -0.96109456367E+03  0.16565935609E+04  0.25500000920E-02 0.  1.
       -2    1    3    3    0  502 -0.12131956446E+04  0.59055549591E+03  0.16619167722E+04  0.21406930708E+04  0.25500000920E-02 0. -1.
</event>
<event>
 5   0  0.3442126E-07  0.3807799E+04  0.7818609E-02  0.8044483E-01
        2   -1    0    0  501    0  0.00000000000E+00  0.00000000000E+00  0.22284178834E+04  0.22284178834E+04  0.25500000920E-02 0. -1.
       -2   -1    0    0    0  501  0.00000000000E+00  0.00000000000E+00 -0.16266400654E+04  0.16266400654E+04  0.25500000920E-02 0.  1.
    10030    2    1    2    0    0  0.00000000000E+00  0.00000000000E+00  0.60177781803E+03  0.38550579488E+04  0.38077992655E+04 0.  0.
        2    1    3    3  502    0 -0.17320249495E+04  0.13272445446E+03 -0.48808242627E+03  0.18043698793E+04  0.25500000920E-02 0.  1.
       -2    1    3    3    0  502  0.17320249495E+04 -0.13272445446E+03  0.10898602443E+04  0.20506880695E+04  0.25500000920E-02 0. -1.
</event>
<event>
 5   0  0.3327241E-07  0.3493130E+04  0.7818609E-02  0.8115420E-01
       -2   -1    0    0    0  501  0.00000000000E+00  0.00000000000E+00  0.15216177073E+04  0.15216177073E+04  0.25500000920E-02 0.  1.
        2   -1    0    0  501    0  0.00000000000E+00  0.00000000000E+00 -0.20047667047E+04  0.20047667047E+04  0.25500000920E-02 0. -1.
    10030    2    1    2    0    0  0.00000000000E+00  0.00000000000E+00 -0.48314899737E+03  0.35263844120E+04  0.34931295521E+04 0.  0.
        3    1    3    3  502    0 -0.70422486079E+03  0.11202576793E+04  0.90926890586E+03  0.16055154549E+04  0.10100000352E+00 0.  1.
       -3    1    3    3    0  502  0.70422486079E+03 -0.11202576793E+04 -0.13924179032E+04  0.19208689570E+04  0.10100000352E+00 0. -1.
</event>
<event>
 5   0  0.1085771E-07  0.3821566E+04  0.7818609E-02  0.8041543E-01
        1   -1    0    0  501    0  0.00000000000E+00  0.00000000000E+00  0.23840355691E+04  0.23840355691E+04  0.50400001928E-02 0. -1.
       -1   -1    0    0    0  501  0.00000000000E+00  0.00000000000E+00 -0.15314753775E+04  0.15314753775E+04  0.50400001928E-02 0.  1.
    10030    2    1    2    0    0  0.00000000000E+00  0.00000000000E+00  0.85256019165E+03  0.39155109467E+04  0.38215660524E+04 0.  0.
        1    1    3    3  502    0 -0.17184078939E+04 -0.21688882304E+03 -0.40047972906E+03  0.17777374567E+04  0.50400001928E-02 0.  1.
       -1    1    3    3    0  502  0.17184078939E+04  0.21688882304E+03  0.12530399207E+04  0.21377734900E+04  0.50400001928E-02 0. -1.
</event>
<event>
 5   0  0.1070988E-07  0.3822793E+04  0.7818609E-02  0.8041281E-01
        1   -1    0    0  501    0  0.00000000000E+00  0.00000000000E+00  0.19605775179E+04  0.19605775179E+04  0.50400001928E-02 0. -1.
       -1   -1    0    0    0  501  0.00000000000E+00  0.00000000000E+00 -0.18634487605E+04  0.18634487605E+04  0.50400001928E-02 0.  1.
    10030    2    1    2    0    0  0.00000000000E+00  0.00000000000E+00  0.97128757384E+02  0.38240262784E+04  0.38227925634E+04 0.  0.
        2    1    3    3  502    0 -0.11142217148E+04  0.15281211853E+04 -0.22863759116E+03  0.19049723186E+04  0.25500000920E-02 0.  1.
       -2    1    3    3    0  502  0.11142217148E+04 -0.15281211853E+04  0.32576634854E+03  0.19190539598E+04  0.25500000920E-02 0. -1.
</event>
<event>
 5   0  0.1070988E-07  0.3788386E+04  0.7818609E-02  0.8048652E-01
        1   -1    0    0  501    0  0.00000000000E+00  0.00000000000E+00  0.21830274239E+04  0.21830274240E+04  0.50400001928E-02 0.  1.
       -1   -1    0    0    0  501  0.00000000000E+00  0.00000000000E+00 -0.16435743463E+04  0.16435743463E+04  0.50400001928E-02 0. -1.
    10030    2    1    2    0    0  0.00000000000E+00  0.00000000000E+00  0.53945307767E+03  0.38266017702E+04  0.37883863959E+04 0.  0.
        2    1    3    3  502    0  0.76959290433E+03  0.17153928498E+04  0.36919437405E+02  0.18804810322E+04  0.25500000920E-02 0. -1.
       -2    1    3    3    0  502 -0.76959290433E+03 -0.17153928498E+04  0.50253364026E+03  0.19461207381E+04  0.25500000920E-02 0.  1.
</event>
<event>
 5   0  0.3327241E-07  0.3785546E+04  0.7818609E-02  0.8049264E-01
       -2   -1    0    0    0  501  0.00000000000E+00  0.00000000000E+00  0.25173793810E+04  0.25173793810E+04  0.25500000920E-02 0. -1.
        2   -1    0    0  501    0  0.00000000000E+00  0.00000000000E+00 -0.14231427573E+04  0.14231427573E+04  0.25500000920E-02 0.  1.
    10030    2    1    2    0    0  0.00000000000E+00  0.00000000000E+00  0.10942366237E+04  0.39405221384E+04  0.37855463191E+04 0.  0.
        3    1    3    3  502    0 -0.72772084301E+03 -0.16343812543E+04 -0.96086298646E+02  0.17916507184E+04  0.10100000352E+00 0.  1.
       -3    1    3    3    0  502  0.72772084301E+03  0.16343812543E+04  0.11903229223E+04  0.21488714199E+04  0.10100000352E+00 0. -1.
</event>
<event>
 5   0  0.3442126E-07  0.3790537E+04  0.7818609E-02  0.8048189E-01
        2   -1    0    0  501    0  0.00000000000E+00  0.00000000000E+00  0.12022948546E+04  0.12022948546E+04  0.25500000920E-02 0.  1.
       -2   -1    0    0    0  501  0.00000000000E+00  0.00000000000E+00 -0.29876548058E+04  0.29876548058E+04  0.25500000920E-02 0. -1.
    10030    2    1    2    0    0  0.00000000000E+00  0.00000000000E+00 -0.17853599512E+04  0.41899496604E+04  0.37905366376E+04 0.  0.
        2    1    3    3  502    0 -0.42339987862E+03  0.84261948129E+03 -0.27099204731E+04  0.28693107218E+04  0.25500000920E-02 0. -1.
       -2    1    3    3    0  502  0.42339987862E+03 -0.84261948129E+03  0.92456052191E+03  0.13206389386E+04  0.25500000920E-02 0.  1.
</event>
<event>
 5   0  0.3442126E-07  0.3845784E+04  0.7818609E-02  0.8036401E-01
        2   -1    0    0  501    0  0.00000000000E+00  0.00000000000E+00  0.21692188611E+04  0.21692188611E+04  0.25500000920E-02 0. -1.
       -2   -1    0    0    0  501  0.00000000000E+00  0.00000000000E+00 -0.17045367906E+04  0.17045367906E+04  0.25500000920E-02 0.  1.
    10030    2    1    2    0    0  0.00000000000E+00  0.00000000000E+00  0.46468207052E+03  0.38737556517E+04  0.38457838502E+04 0.  0.
        2    1    3    3  502    0  0.11161622950E+04  0.15443270453E+04  0.49257857349E+03  0.19680950034E+04  0.25500000920E-02 0.  1.
       -2    1    3    3    0  502 -0.11161622950E+04 -0.15443270453E+04 -0.27896502967E+02  0.19056606483E+04  0.25500000920E-02 0. -1.
</event>
<event>
 5   0  0.1084315E-07  0.3806043E+04  0.7818609E-02  0.8044859E-01
       -1   -1    0    0    0  501  0.00000000000E+00  0.00000000000E+00  0.14235234102E+04  0.14235234102E+04  0.50400001928E-02 0.  1.
        1   -1    0    0  501    0  0.00000000000E+00  0.00000000000E+00 -0.25440332150E+04  0.25440332150E+04  0.50400001928E-02 0. -1.
    10030    2    1    2    0    0  0.00000000000E+00  0.00000000000E+00 -0.11205098048E+04  0.39675566252E+04  0.38060430044E+04 0.  0.
        4    1    3    3  502    0  0.94162122226E+03 -0.15211108999E+04  0.11617314270E+03  0.17927427891E+04  0.12699999809E+01 0.  1.
       -4    1    3    3    0  502 -0.94162122226E+03  0.15211108999E+04 -0.12366829475E+04  0.21748138361E+04  0.12699999809E+01 0. -1.
</event>
<event>
 5   0  0.3539010E-07  0.3612477E+04  0.7818609E-02  0.8087640E-01
        2   -1    0    0  501    0  0.00000000000E+00  0.00000000000E+00  0.12122210421E+04  0.12122210421E+04  0.25500000920E-02 0. -1.
       -2   -1    0    0    0  501  0.00000000000E+00  0.00000000000E+00 -0.26913383591E+04  0.26913383591E+04  0.25500000920E-02 0.  1.
    10030    2    1    2    0    0  0.00000000000E+00  0.00000000000E+00 -0.14791173170E+04  0.39035594012E+04  0.36124767073E+04 0.  0.
        1    1    3    3  502    0 -0.89110270880E+01  0.12247738305E+04 -0.21740614753E+04  0.24953343746E+04  0.50400001928E-02 0.  1.
       -1    1    3    3    0  502  0.89110270880E+01 -0.12247738305E+04  0.69494415831E+03  0.14082250266E+04  0.50400001928E-02 0. -1.
</event>
<event>
 5   0  0.3327241E-07  0.3818941E+04  0.7818609E-02  0.8042102E-01
        2   -1    0    0  501    0  0.00000000000E+00  0.00000000000E+00  0.21384347317E+04  0.21384347317E+04  0.25500000920E-02 0.  1.
       -2   -1    0    0    0  501  0.00000000000E+00  0.00000000000E+00 -0.17050213922E+04  0.17050213922E+04  0.25500000920E-02 0. -1.
    10030    2    1    2    0    0  0.00000000000E+00  0.00000000000E+00  0.43341333952E+03  0.38434561240E+04  0.38189406717E+04 0.  0.
        3    1    3    3  502    0  0.22303482661E+02  0.93364093754E+03 -0.14594860695E+04  0.17327095668E+04  0.10100000352E+00 0. -1.
       -3    1    3    3    0  502 -0.22303482661E+02 -0.93364093754E+03  0.18928994090E+04  0.21107465572E+04  0.10100000352E+00 0.  1.
</event>
<event>
 5   0  0.1070988E-07  0.3742539E+04  0.7818609E-02  0.8058600E-01
        1   -1    0    0  501    0  0.00000000000E+00  0.00000000000E+00  0.21257444398E+04  0.21257444398E+04  0.50400001928E-02 0. -1.
       -1   -1    0    0    0  501  0.00000000000E+00  0.00000000000E+00 -0.16472576689E+04  0.16472576690E+04  0.50400001928E-02 0.  1.
    10030    2    1    2    0    0  0.00000000000E+00  0.00000000000E+00  0.47848677085E+03  0.37730021088E+04  0.37425386201E+04 0.  0.
        2    1    3    3  502    0 -0.14964909621E+04  0.72987696009E+03  0.11002698763E+04  0.19956952115E+04  0.25500000920E-02 0.  1.
       -2    1    3    3    0  502  0.14964909621E+04 -0.72987696009E+03 -0.62178310547E+03  0.17773068972E+04  0.25500000920E-02 0. -1.
</event>
<event>
 5   0  0.3327241E-07  0.3741798E+04  0.7818609E-02  0.8058762E-01
        2   -1    0    0  501    0  0.00000000000E+00  0.00000000000E+00  0.13386225723E+04  0.13386225723E+04  0.25500000920E-02 0.  1.
       -2   -1    0    0    0  501  0.00000000000E+00  0.00000000000E+00 -0.26148239859E+04  0.26148239859E+04  0.25500000920E-02 0. -1.
    10030    2    1    2    0    0  0.00000000000E+00  0.00000000000E+00 -0.12762014136E+04  0.39534465582E+04  0.37417976482E+04 0.  0.
        3    1    3    3  502    0  0.11430452233E+04 -0.94695901557E+03 -0.18413676527E+04  0.23651466344E+04  0.10100000352E+00 0. -1.
       -3    1    3    3    0  502 -0.11430452233E+04  0.94695901557E+03  0.56516623917E+03  0.15882999237E+04  0.10100000352E+00 0.  1.
</event>
<event>
 5   0  0.3442126E-07  0.3838621E+04  0.7818609E-02  0.8037917E-01
       -2   -1    0    0    0  501  0.00000000000E+00  0.00000000000E+00  0.17506780307E+04  0.17506780307E+04  0.25500000920E-02 0. -1.
        2   -1    0    0  501    0  0.00000000000E+00  0.00000000000E+00 -0.21041862279E+04  0.21041862279E+04  0.25500000920E-02 0.  1.
    10030    2    1    2    0    0  0.00000000000E+00  0.00000000000E+00 -0.35350819723E+03  0.38548642585E+04  0.38386208990E+04 0.  0.
        2    1    3    3  502    0 -0.58627054649E+03 -0.17651797925E+04  0.29872568319E+03  0.18838285186E+04  0.25500000920E-02 0. -1.
       -2    1    3    3    0  502  0.58627054649E+03  0.17651797925E+04 -0.65223388042E+03  0.19710357400E+04  0.25500000920E-02 0.  1.
</event>
<event>
 5   0  0.3377396E-07  0.3819995E+04  0.7818609E-02  0.8041877E-01
       -2   -1    0    0    0  501  0.00000000000E+00  0.00000000000E+00  0.23630926345E+04  0.23630926345E+04  0.25500000920E-02 0.  1.
        2   -1    0    0  501    0  0.00000000000E+00  0.00000000000E+00 -0.15437784147E+04  0.15437784147E+04  0.25500000920E-02 0. -1.
    10030    2    1    2    0    0  0.00000000000E+00  0.00000000000E+00  0.81931421977E+03  0.39068710491E+04  0.38199954979E+04 0.  0.
        5    1    3    3  502    0  0.32868267268E+03 -0.31738500665E+03 -0.14870553353E+04  0.15556738740E+04  0.46999998093E+01 0. -1.
       -5    1    3    3    0  502 -0.32868267268E+03  0.31738500665E+03  0.23063695551E+04  0.23511971752E+04  0.46999998093E+01 0.  1.
</event>
<event>
 5   0  0.1070988E-07  0.3420797E+04  0.7818609E-02  0.8132821E-01
       -1   -1    0    0    0  501  0.00000000000E+00  0.00000000000E+00  0.12348321073E+04  0.12348321074E+04  0.50400001928E-02 0. -1.
        1   -1    0    0  501    0  0.00000000000E+00  0.00000000000E+00 -0.23691178526E+04  0.23691178526E+04  0.50400001928E-02 0.  1.
    10030    2    1    2    0    0  0.00000000000E+00  0.00000000000E+00 -0.11342857452E+04  0.36039499599E+04  0.34207968606E+04 0.  0.
        5    1    3    3  502    0 -0.66652515573E+03  0.14023144391E+04  0.18869419188E+03  0.15640873241E+04  0.46999998093E+01 0. -1.
       -5    1    3    3    0  502  0.66652515573E+03 -0.14023144391E+04 -0.13229799371E+04  0.20398626359E+04  0.46999998093E+01 0.  1.
</event>
<event>
 5   0  0.1070988E-07  0.3688329E+04  0.7818609E-02  0.8070553E-01
       -3   -1    0    0    0  501  0.00000000000E+00  0.00000000000E+00  0.20265670270E+04  0.20265670295E+04  0.10100000352E+00 0.  1.
        3   -1    0    0  501    0  0.00000000000E+00  0.00000000000E+00 -0.16781795162E+04  0.16781795192E+04  0.10100000352E+00 0. -1.
    10030    2    1    2    0    0  0.00000000000E+00  0.00000000000E+00  0.34838751080E+03  0.37047465487E+04  0.36883293145E+04 0.  0.
        4    1    3    3  502    0 -0.10672144597E+04 -0.71117495520E+03 -0.11569314526E+04  0.17271967227E+04  0.12699999809E+01 0. -1.
       -4    1    3    3    0  502  0.10672144597E+04  0.71117495520E+03  0.15053189634E+04  0.19775498260E+04  0.12699999809E+01 0.  1.
</event>
<event>
 5   0  0.3539010E-07  0.3208559E+04  0.7818609E-02  0.8186561E-01
       -2   -1    0    0    0  501  0.00000000000E+00  0.00000000000E+00  0.24200033987E+04  0.24200033987E+04  0.25500000920E-02 0.  1.
        2   -1    0    0  501    0  0.00000000000E+00  0.00000000000E+00 -0.10635158456E+04  0.10635158456E+04  0.25500000920E-02 0. -1.
    10030    2    1    2    0    0  0.00000000000E+00  0.00000000000E+00  0.13564875531E+04  0.34835192443E+04  0.32085585305E+04 0.  0.
        1    1    3    3  502    0  0.91145334571E+03 -0.36362154014E+03 -0.69966836618E+03  0.12051985930E+04  0.50400001928E-02 0. -1.
       -1    1    3    3    0  502 -0.91145334571E+03  0.36362154014E+03  0.20561559192E+04  0.22783206513E+04  0.50400001928E-02 0.  1.
</event>
<event>
 5   0  0.1084315E-07  0.3518925E+04  0.7818609E-02  0.8109320E-01
        1   -1    0    0  501    0  0.00000000000E+00  0.00000000000E+00  0.25095037838E+04  0.25095037838E+04  0.50400001928E-02 0.  1.
       -1   -1    0    0    0  501  0.00000000000E+00  0.00000000000E+00 -0.12335934726E+04  0.12335934726E+04  0.50400001928E-02 0. -1.
    10030    2    1    2    0    0  0.00000000000E+00  0.00000000000E+00  0.12759103112E+04  0.37430972564E+04  0.35189245443E+04 0.  0.
        4    1    3    3  502    0 -0.12163784985E+04 -0.87240543496E+03  0.16215446015E+04  0.22068249596E+04  0.12699999809E+01 0.  1.
       -4    1    3    3    0  502  0.12163784985E+04  0.87240543496E+03 -0.34563429030E+03  0.15362722968E+04  0.12699999809E+01 0. -1.
</event>
<event>
 5   0  0.3442126E-07  0.3684507E+04  0.7818609E-02  0.8071404E-01
        2   -1    0    0  501    0  0.00000000000E+00  0.00000000000E+00  0.16996651094E+04  0.16996651094E+04  0.25500000920E-02 0.  1.
       -2   -1    0    0    0  501  0.00000000000E+00  0.00000000000E+00 -0.19968034286E+04  0.19968034286E+04  0.25500000920E-02 0. -1.
    10030    2    1    2    0    0  0.00000000000E+00  0.00000000000E+00 -0.29713831920E+03  0.36964685380E+04  0.36845065439E+04 0.  0.
        2    1    3    3  502    0 -0.40297966754E+03 -0.17672680200E+04 -0.47867882684E+03  0.18747699288E+04  0.25500000920E-02 0. -1.
       -2    1    3    3    0  502  0.40297966754E+03  0.17672680200E+04  0.18154050764E+03  0.18216986092E+04  0.25500000920E-02 0.  1.
</event>
<event>
 5   0  0.1085771E-07  0.3752797E+04  0.7818609E-02  0.8056361E-01
        1   -1    0    0  501    0  0.00000000000E+00  0.00000000000E+00  0.15903655617E+04  0.15903655617E+04  0.50400001928E-02 0. -1.
       -1   -1    0    0    0  501  0.00000000000E+00  0.00000000000E+00 -0.22138759060E+04  0.22138759060E+04  0.50400001928E-02 0.  1.
    10030    2    1    2    0    0  0.00000000000E+00  0.00000000000E+00 -0.62351034432E+03  0.38042414677E+04  0.37527973560E+04 0.  0.
        1    1    3    3  502    0  0.64303510908E+03 -0.37135287573E+03 -0.20585938117E+04  0.21884253680E+04  0.50400001928E-02 0.  1.
       -1    1    3    3    0  502 -0.64303510908E+03  0.37135287573E+03  0.14350834674E+04  0.16158160997E+04  0.50400001928E-02 0. -1.
</event>
<event>
 5   0  0.3509843E-07  0.3954173E+04  0.7818609E-02  0.8013856E-01
       -2   -1    0    0    0  501  0.00000000000E+00  0.00000000000E+00  0.29126006967E+04  0.29126006967E+04  0.25500000920E-02 0. -1.
        2   -1    0    0  501    0  0.00000000000E+00  0.00000000000E+00 -0.13420554142E+04  0.13420554142E+04  0.25500000920E-02 0.  1.
    10030    2    1    2    0    0  0.00000000000E+00  0.00000000000E+00  0.15705452825E+04  0.42546561109E+04  0.39541732559E+04 0.  0.
        4    1    3    3  502    0 -0.57095666640E+03 -0.18212953147E+04  0.13399686403E+04  0.23320861280E+04  0.12699999809E+01 0. -1.
       -4    1    3    3    0  502  0.57095666640E+03  0.18212953147E+04  0.23057664220E+03  0.19225699829E+04  0.12699999809E+01 0.  1.
</event>
<event>
 5   0  0.1084315E-07  0.3928657E+04  0.7818609E-02  0.8019095E-01
       -1   -1    0    0    0  501  0.00000000000E+00  0.00000000000E+00  0.19724520509E+04  0.19724520509E+04  0.50400001928E-02 0.  1.
        1   -1    0    0  501    0  0.00000000000E+00  0.00000000000E+00 -0.19562379083E+04  0.19562379083E+04  0.50400001928E-02 0. -1.
    10030    2    1    2    0    0  0.00000000000E+00  0.00000000000E+00  0.16214142618E+02  0.39286899591E+04  0.39286565002E+04 0.  0.
        4    1    3    3  502    0 -0.73150924030E+03 -0.17989260720E+04 -0.28743407248E+03  0.19631252482E+04  0.12699999809E+01 0.  1.
       -4    1    3    3    0  502  0.73150924030E+03  0.17989260720E+04  0.30364821510E+03  0.19655647109E+04  0.12699999809E+01 0. -1.
</event>
<event>
 5   0  0.1070988E-07  0.3469571E+04  0.7818609E-02  0.8121039E-01
        4   -1    0    0  501    0  0.00000000000E+00  0.00000000000E+00  0.17222129684E+04  0.17222134367E+04  0.12699999809E+01 0. -1.
       -4   -1    0    0    0  501  0.00000000000E+00  0.00000000000E+00 -0.17474483979E+04  0.17474488594E+04  0.12699999809E+01 0.  1.
    10030    2    1    2    0    0  0.00000000000E+00  0.00000000000E+00 -0.25235429515E+02  0.34696622961E+04  0.34695705241E+04 0.  0.
        4    1    3    3  502    0 -0.57133034179E+03  0.25205871267E+03  0.16059201798E+04  0.17230592534E+04  0.12699999809E+01 0. -1.
       -4    1    3    3    0  502  0.57133034179E+03 -0.25205871267E+03 -0.16311556093E+04  0.17466030427E+04  0.12699999809E+01 0.  1.
</event>
<event>
 5   0  0.1084315E-07  0.3788662E+04  0.7818609E-02  0.8048592E-01
       -1   -1    0    0    0  501  0.00000000000E+00  0.00000000000E+00  0.13221039612E+04  0.13221039612E+04  0.50400001928E-02 0. -1.
        1   -1    0    0  501    0  0.00000000000E+00  0.00000000000E+00 -0.27142263901E+04  0.27142263901E+04  0.50400001928E-02 0.  1.
    10030    2    1    2    0    0  0.00000000000E+00  0.00000000000E+00 -0.13921224290E+04  0.40363303513E+04  0.37886617489E+04 0.  0.
        4    1    3    3  502    0  0.11695207566E+03  0.71606531040E+03 -0.25603266871E+04  0.26611466842E+04  0.12699999809E+01 0.  1.
       -4    1    3    3    0  502 -0.11695207566E+03 -0.71606531040E+03  0.11682042582E+04  0.13751836672E+04  0.12699999809E+01 0. -1.
</event>
<event>
 5   0  0.1070988E-07  0.3765553E+04  0.7818609E-02  0.8053588E-01
       -1   -1    0    0    0  501  0.00000000000E+00  0.00000000000E+00  0.20217356204E+04  0.20217356204E+04  0.50400001928E-02 0.  1.
        1   -1    0    0  501    0  0.00000000000E+00  0.00000000000E+00 -0.17533687683E+04  0.17533687683E+04  0.50400001928E-02 0. -1.
    10030    2    1    2    0    0  0.00000000000E+00  0.00000000000E+00  0.26836685211E+03  0.37751043887E+04  0.37655533960E+04 0.  0.
        5    1    3    3  502    0  0.99916861191E+03  0.42865927874E+03 -0.14068358050E+04  0.17780033084E+04  0.46999998093E+01 0. -1.
       -5    1    3    3    0  502 -0.99916861191E+03 -0.42865927874E+03  0.16752026572E+04  0.19971010803E+04  0.46999998093E+01 0.  1.
</event>
<event>
 5   0  0.3539010E-07  0.3873448E+04  0.7818609E-02  0.8030574E-01
       -2   -1    0    0    0  501  0.00000000000E+00  0.00000000000E+00  0.21457292572E+04  0.21457292572E+04  0.25500000920E-02 0. -1.
        2   -1    0    0  501    0  0.00000000000E+00  0.00000000000E+00 -0.17480769709E+04  0.17480769709E+04  0.25500000920E-02 0.  1.
    10030    2    1    2    0    0  0.00000000000E+00  0.00000000000E+00  0.39765228626E+03  0.38938062281E+04  0.38734480248E+04 0.  0.
        1    1    3    3  502    0 -0.16201117537E+04 -0.29317176000E+03  0.12240826832E+04  0.20516067339E+04  0.50400001928E-02 0. -1.
       -1    1    3    3    0  502  0.16201117537E+04  0.29317176000E+03 -0.82643039692E+03  0.18421994942E+04  0.50400001928E-02 0.  1.
</event>
<event>
 5   0  0.1070988E-07  0.3795514E+04  0.7818609E-02  0.8047118E-01
       -1   -1    0    0    0  501  0.00000000000E+00  0.00000000000E+00  0.15546675164E+04  0.15546675164E+04  0.50400001928E-02 0.  1.
        1   -1    0    0  501    0  0.00000000000E+00  0.00000000000E+00 -0.23165601317E+04  0.23165601317E+04  0.50400001928E-02 0. -1.
    10030    2    1    2    0    0  0.00000000000E+00  0.00000000000E+00 -0.76189261538E+03  0.38712276481E+04  0.37955135550E+04 0.  0.
        5    1    3    3  502    0 -0.78370367865E+03 -0.15354685546E+04  0.42835781185E+03  0.17763354534E+04  0.46999998093E+01 0.  1.
       -5    1    3    3    0  502  0.78370367865E+03  0.15354685546E+04 -0.11902504272E+04  0.20948921947E+04  0.46999998093E+01 0. -1.
</event>
<event>
 5   0  0.3539010E-07  0.3787439E+04  0.7818609E-02  0.8048856E-01
       -2   -1    0    0    0  501  0.00000000000E+00  0.00000000000E+00  0.25949744530E+04  0.25949744530E+04  0.25500000920E-02 0.  1.
        2   -1    0    0  501    0  0.00000000000E+00  0.00000000000E+00 -0.13819689931E+04  0.13819689931E+04  0.25500000920E-02 0. -1.
    10030    2    1    2    0    0  0.00000000000E+00  0.00000000000E+00  0.12130054599E+04  0.39769434461E+04  0.37874393629E+04 0.  0.
        1    1    3    3  502    0  0.12955634682E+04  0.13668098612E+04  0.39775871365E+03  0.19248028188E+04  0.50400001928E-02 0.  1.
       -1    1    3    3    0  502 -0.12955634682E+04 -0.13668098612E+04  0.81524674628E+03  0.20521406273E+04  0.50400001928E-02 0. -1.
</event>
<event>
 5   0  0.1070988E-07  0.3750696E+04  0.7818609E-02  0.8056819E-01
       -1   -1    0    0    0  501  0.00000000000E+00  0.00000000000E+00  0.29072215773E+04  0.29072215773E+04  0.50400001928E-02 0.  1.
        1   -1    0    0  501    0  0.00000000000E+00  0.00000000000E+00 -0.12097218660E+04  0.12097218660E+04  0.50400001928E-02 0. -1.
    10030    2    1    2    0    0  0.00000000000E+00  0.00000000000E+00  0.16974997113E+04  0.41169434433E+04  0.37506956749E+04 0.  0.
        3    1    3    3  502    0  0.11883961575E+03 -0.11988333346E+04 -0.72881325053E+03  0.14080102922E+04  0.10100000352E+00 0. -1.
       -3    1    3    3    0  502 -0.11883961575E+03  0.11988333346E+04  0.24263129618E+04  0.27089331512E+04  0.10100000352E+00 0.  1.
</event>
<event>
 5   0  0.1070988E-07  0.3792616E+04  0.7818609E-02  0.8047741E-01
        1   -1    0    0  501    0  0.00000000000E+00  0.00000000000E+00  0.28786303624E+04  0.28786303624E+04  0.50400001928E-02 0.  1.
       -1   -1    0    0    0  501  0.00000000000E+00  0.00000000000E+00 -0.12491995528E+04  0.12491995528E+04  0.50400001928E-02 0. -1.
    10030    2    1    2    0    0  0.00000000000E+00  0.00000000000E+00  0.16294308096E+04  0.41278299152E+04  0.37926158579E+04 0.  0.
        5    1    3    3  502    0 -0.11133962367E+04  0.17615197788E+03  0.24743812493E+04  0.27190559678E+04  0.46999998093E+01 0.  1.
       -5    1    3    3    0  502  0.11133962367E+04 -0.17615197788E+03 -0.84495043971E+03  0.14087739474E+04  0.46999998093E+01 0. -1.
</event>
<event>
 5   0  0.3509843E-07  0.3762906E+04  0.7818609E-02  0.8054162E-01
        2   -1    0    0  501    0  0.00000000000E+00  0.00000000000E+00  0.21715967406E+04  0.21715967406E+04  0.25500000920E-02 0.  1.
       -2   -1    0    0    0  501  0.00000000000E+00  0.00000000000E+00 -0.16300753209E+04  0.16300753209E+04  0.25500000920E-02 0. -1.
    10030    2    1    2    0    0  0.00000000000E+00  0.00000000000E+00  0.54152141968E+03  0.38016720614E+04  0.37629064584E+04 0.  0.
        4    1    3    3  502    0 -0.37065738430E+03 -0.17909058335E+03 -0.15840185431E+04  0.16366357846E+04  0.12699999809E+01 0. -1.
       -4    1    3    3    0  502  0.37065738430E+03  0.17909058335E+03  0.21255399628E+04  0.21650362768E+04  0.12699999809E+01 0.  1.
</event>
<event>
 5   0  0.3442126E-07  0.3796105E+04  0.7818609E-02  0.8046991E-01
       -2   -1    0    0    0  501  0.00000000000E+00  0.00000000000E+00  0.14959420831E+04  0.14959420831E+04  0.25500000920E-02 0.  1.
        2   -1    0    0  501    0  0.00000000000E+00  0.00000000000E+00 -0.24082500374E+04  0.24082500374E+04  0.25500000920E-02 0. -1.
    10030    2    1    2    0    0  0.00000000000E+00  0.00000000000E+00 -0.91230795422E+03  0.39041921205E+04  0.37961046232E+04 0.  0.
        2    1    3    3  502    0  0.13837317752E+04 -0.11708554501E+04  0.12289242533E+03  0.18167880061E+04  0.25500000920E-02 0.  1.
       -2    1    3    3    0  502 -0.13837317752E+04  0.11708554501E+04 -0.10352003796E+04  0.20874041144E+04  0.25500000920E-02 0. -1.
</event>
<event>
 5   0  0.1085771E-07  0.3748101E+04  0.7818609E-02  0.8057385E-01
        1   -1    0    0  501    0  0.00000000000E+00  0.00000000000E+00  0.16840676146E+04  0.16840676146E+04  0.50400001928E-02 0. -1.
       -1   -1    0    0    0  501  0.00000000000E+00  0.00000000000E+00 -0.20854657601E+04  0.20854657601E+04  0.50400001928E-02 0.  1.
    10030    2    1    2    0    0  0.00000000000E+00  0.00000000000E+00 -0.40139814557E+03  0.37695333747E+04  0.37481010381E+04 0.  0.
        1    1    3    3  502    0  0.14783038822E+04 -0.38555220481E+03  0.89087933127E+03  0.17685301393E+04  0.50400001928E-02 0. -1.
       -1    1    3    3    0  502 -0.14783038822E+04  0.38555220481E+03 -0.12922774768E+04  0.20010032354E+04  0.50400001928E-02 0.  1.
</event>
<event>
 5   0  0.3377396E-07  0.3798431E+04  0.7818609E-02  0.8046492E-01
       -2   -1    0    0    0  501  0.00000000000E+00  0.00000000000E+00  0.18343869368E+04  0.18343869368E+04  0.25500000920E-02 0.  1.
        2   -1    0    0  501    0  0.00000000000E+00  0.00000000000E+00 -0.19663351134E+04  0.19663351134E+04  0.25500000920E-02 0. -1.
    10030    2    1    2    0    0  0.00000000000E+00  0.00000000000E+00 -0.13194817654E+03  0.38007220502E+04  0.37984309631E+04 0.  0.
        5    1    3    3  502    0 -0.66241607652E+03  0.17640634979E+04 -0.30335603339E+03  0.19086021210E+04  0.46999998093E+01 0. -1.
       -5    1    3    3    0  502  0.66241607652E+03 -0.17640634979E+04  0.17140785685E+03  0.18921199292E+04  0.46999998093E+01 0.  1.
</event>
<event>
 5   0  0.1085771E-07  0.3771040E+04  0.7818609E-02  0.8052398E-01
        1   -1    0    0  501    0  0.00000000000E+00  0.00000000000E+00  0.12802742165E+04  0.12802742165E+04  0.50400001928E-02 0. -1.
       -1   -1    0    0    0  501  0.00000000000E+00  0.00000000000E+00 -0.27768937313E+04  0.27768937313E+04  0.50400001928E-02 0.  1.
    10030    2    1    2    0    0  0.00000000000E+00  0.00000000000E+00 -0.14966195148E+04  0.40571679478E+04  0.37710398811E+04 0.  0.
        1    1    3    3  502    0 -0.68026191663E+03 -0.98567134836E+03  0.81851356695E+03  0.14506097826E+04  0.50400001928E-02 0. -1.
       -1    1    3    3    0  502  0.68026191663E+03  0.98567134836E+03 -0.23151330817E+04  0.26065581652E+04  0.50400001928E-02 0.  1.
</event>
<event>
 5   0  0.3509843E-07  0.3789312E+04  0.7818609E-02  0.8048452E-01
       -2   -1    0    0    0  501  0.00000000000E+00  0.00000000000E+00  0.15484308339E+04  0.15484308339E+04  0.25500000920E-02 0. -1.
        2   -1    0    0  501    0  0.00000000000E+00  0.00000000000E+00 -0.23182962032E+04  0.23182962032E+04  0.25500000920E-02 0.  1.
    10030    2    1    2    0    0  0.00000000000E+00  0.00000000000E+00 -0.76986536932E+03  0.38667270372E+04  0.37893119815E+04 0.  0.
        4    1    3    3  502    0  0.55213002645E+03  0.48991131483E+03 -0.21655342410E+04  0.22878812959E+04  0.12699999809E+01 0. -1.
       -4    1    3    3    0  502 -0.55213002645E+03 -0.48991131483E+03  0.13956688716E+04  0.15788457413E+04  0.12699999809E+01 0.  1.
</event>
<event>
 5   0  0.1084315E-07  0.3800968E+04  0.7818609E-02  0.8045947E-01
       -1   -1    0    0    0  501  0.00000000000E+00  0.00000000000E+00  0.18325576427E+04  0.18325576427E+04  0.50400001928E-02 0. -1.
        1   -1    0    0  501    0  0.00000000000E+00  0.00000000000E+00 -0.19709280404E+04  0.19709280405E+04  0.50400001928E-02 0.  1.
    10030    2    1    2    0    0  0.00000000000E+00  0.00000000000E+00 -0.13837039772E+03  0.38034856832E+04  0.38009678998E+04 0.  0.
        4    1    3    3  502    0  0.15399810175E+03 -0.14767872556E+04 -0.12562347086E+04  0.19449275744E+04  0.12699999809E+01 0.  1.
       -4    1    3    3    0  502 -0.15399810175E+03  0.14767872556E+04  0.11178643109E+04  0.18585581088E+04  0.12699999809E+01 0. -1.
</event>
<event>
 5   0  0.1070988E-07  0.3773654E+04  0.7818609E-02  0.8051832E-01
       -1   -1    0    0    0  501  0.00000000000E+00  0.00000000000E+00  0.24549186445E+04  0.24549186446E+04  0.50400001928E-02 0. -1.
        1   -1    0    0  501    0  0.00000000000E+00  0.00000000000E+00 -0.14501975041E+04  0.14501975041E+04  0.50400001928E-02 0.  1.
    10030    2    1    2    0    0  0.00000000000E+00  0.00000000000E+00  0.10047211404E+04  0.39051161487E+04  0.37736544045E+04 0.  0.
        2    1    3    3  502    0 -0.29018957338E+03  0.10592777602E+04  0.20900299629E+04  0.23610388831E+04  0.25500000920E-02 0. -1.
       -2    1    3    3    0  502  0.29018957338E+03 -0.10592777602E+04 -0.10853088225E+04  0.15440772655E+04  0.25500000920E-02 0.  1.
</event>
<event>
 5   0  0.3442126E-07  0.3780212E+04  0.7818609E-02  0.8050415E-01
       -2   -1    0    0    0  501  0.00000000000E+00  0.00000000000E+00  0.17391228011E+04  0.17391228011E+04  0.25500000920E-02 0.  1.
        2   -1    0    0  501    0  0.00000000000E+00  0.00000000000E+00 -0.20541971878E+04  0.20541971878E+04  0.25500000920E-02 0. -1.
    10030    2    1    2    0    0  0.00000000000E+00  0.00000000000E+00 -0.31507438673E+03  0.37933199889E+04  0.37802122519E+04 0.  0.
        2    1    3    3  502    0 -0.12943552350E+04 -0.63206077189E+03 -0.13855636302E+04  0.19986602680E+04  0.25500000920E-02 0. -1.
       -2    1    3    3    0  502  0.12943552350E+04  0.63206077189E+03  0.10704892434E+04  0.17946597209E+04  0.25500000920E-02 0.  1.
</event>
<event>
 5   0  0.1070988E-07  0.3881258E+04  0.7818609E-02  0.8028939E-01
        3   -1    0    0  501    0  0.00000000000E+00  0.00000000000E+00  0.15694549290E+04  0.15694549323E+04  0.10100000352E+00 0. -1.
       -3   -1    0    0    0  501  0.00000000000E+00  0.00000000000E+00 -0.23995850813E+04  0.23995850835E+04  0.10100000352E+00 0.  1.
    10030    2    1    2    0    0  0.00000000000E+00  0.00000000000E+00 -0.83013015233E+03  0.39690400157E+04  0.38812578601E+04 0.  0.
        1    1    3    3  502    0 -0.17922257931E+04  0.74153915695E+03 -0.48044085366E+03  0.19981934412E+04  0.50400001928E-02 0. -1.
       -1    1    3    3    0  502  0.17922257931E+04 -0.74153915695E+03 -0.34968929866E+03  0.19708465745E+04  0.50400001928E-02 0.  1.
</event>
<event>
 5   0  0.1085771E-07  0.3798567E+04  0.7818609E-02  0.8046463E-01
       -1   -1    0    0    0  501  0.00000000000E+00  0.00000000000E+00  0.17387352649E+04  0.17387352649E+04  0.50400001928E-02 0.  1.
        1   -1    0    0  501    0  0.00000000000E+00  0.00000000000E+00 -0.20746559024E+04  0.20746559024E+04  0.50400001928E-02 0. -1.
    10030    2    1    2    0    0  0.00000000000E+00  0.00000000000E+00 -0.33592063753E+03  0.38133911673E+04  0.37985667719E+04 0.  0.
        1    1    3    3  502    0  0.17701725796E+04 -0.68713650998E+03 -0.20823965463E+03  0.19102437799E+04  0.50400001928E-02 0.  1.
       -1    1    3    3    0  502 -0.17701725796E+04  0.68713650998E+03 -0.12768098290E+03  0.19031473874E+04  0.50400001928E-02 0. -1.
</event>
<event>
 5   0  0.1070988E-07  0.3667463E+04  0.7818609E-02  0.8075211E-01
        1   -1    0    0  501    0  0.00000000000E+00  0.00000000000E+00  0.20543688151E+04  0.20543688151E+04  0.50400001928E-02 0. -1.
       -1   -1    0    0    0  501  0.00000000000E+00  0.00000000000E+00 -0.16367905917E+04  0.16367905917E+04  0.50400001928E-02 0.  1.
    10030    2    1    2    0    0  0.00000000000E+00  0.00000000000E+00  0.41757822342E+03  0.36911594069E+04  0.36674631824E+04 0.  0.
        5    1    3    3  502    0 -0.11943427906E+04 -0.82572061656E+03 -0.91839361596E+03  0.17180623277E+04  0.46999998093E+01 0.  1.
       -5    1    3    3    0  502  0.11943427906E+04  0.82572061656E+03  0.13359718394E+04  0.19730970791E+04  0.46999998093E+01 0. -1.
</event>
<event>
 5   0  0.3442126E-07  0.3651961E+04  0.7818609E-02  0.8078692E-01
       -2   -1    0    0    0  501  0.00000000000E+00  0.00000000000E+00  0.17430781697E+04  0.17430781697E+04  0.25500000920E-02 0.  1.
        2   -1    0    0  501    0  0.00000000000E+00  0.00000000000E+00 -0.19128259528E+04  0.19128259528E+04  0.25500000920E-02 0. -1.
    10030    2    1    2    0    0  0.00000000000E+00  0.00000000000E+00 -0.16974778311E+03  0.36559041225E+04  0.36519612050E+04 0.  0.
        2    1    3    3  502    0 -0.98805809521E+03 -0.14511503435E+04 -0.58752061191E+03  0.18512905197E+04  0.25500000920E-02 0. -1.
       -2    1    3    3    0  502  0.98805809521E+03  0.14511503435E+04  0.41777282880E+03  0.18046136028E+04  0.25500000920E-02 0.  1.
</event>
<event>
 5   0  0.3442126E-07  0.3848920E+04  0.7818609E-02  0.8035738E-01
        2   -1    0    0  501    0  0.00000000000E+00  0.00000000000E+00  0.18130277399E+04  0.18130277399E+04  0.25500000920E-02 0.  1.
       -2   -1    0    0    0  501  0.00000000000E+00  0.00000000000E+00 -0.20427410819E+04  0.20427410819E+04  0.25500000920E-02 0. -1.
    10030    2    1    2    0    0  0.00000000000E+00  0.00000000000E+00 -0.22971334202E+03  0.38557688218E+04  0.38489199768E+04 0.  0.
        2    1    3    3  502    0 -0.12942366768E+03 -0.36452599308E+03 -0.20033946332E+04  0.20403969569E+04  0.25500000920E-02 0. -1.
       -2    1    3    3    0  502  0.12942366768E+03  0.36452599308E+03  0.17736812912E+04  0.18153718649E+04  0.25500000920E-02 0.  1.
</event>
<event>
 5   0  0.1085771E-07  0.3808370E+04  0.7818609E-02  0.8044361E-01
        1   -1    0    0  501    0  0.00000000000E+00  0.00000000000E+00  0.20789086505E+04  0.20789086505E+04  0.50400001928E-02 0. -1.
       -1   -1    0    0    0  501  0.00000000000E+00  0.00000000000E+00 -0.17441457340E+04  0.17441457340E+04  0.50400001928E-02 0.  1.
    10030    2    1    2    0    0  0.00000000000E+00  0.00000000000E+00  0.33476291651E+03  0.38230543844E+04  0.38083695483E+04 0.  0.
        1    1    3    3  502    0  0.16719009738E+04  0.89938034471E+03  0.19225845491E+02  0.18985540561E+04  0.50400001928E-02 0. -1.
       -1    1    3    3    0  502 -0.16719009738E+04 -0.89938034471E+03  0.31553707102E+03  0.19245003284E+04  0.50400001928E-02 0.  1.
</event>
<event>
 5   0  0.3327241E-07  0.3789951E+04  0.7818609E-02  0.8048315E-01
        2   -1    0    0  501    0  0.00000000000E+00  0.00000000000E+00  0.23251783487E+04  0.23251783487E+04  0.25500000920E-02 0.  1.
       -2   -1    0    0    0  501  0.00000000000E+00  0.00000000000E+00 -0.15443683770E+04  0.15443683770E+04  0.25500000920E-02 0. -1.
    10030    2    1    2    0    0  0.00000000000E+00  0.00000000000E+00  0.78080997167E+03  0.38695467257E+04  0.37899508770E+04 0.  0.
        3    1    3    3  502    0 -0.57313649178E+03  0.11792754142E+04  0.17872593430E+04  0.22166352677E+04  0.10100000352E+00 0.  1.
       -3    1    3    3    0  502  0.57313649178E+03 -0.11792754142E+04 -0.10064493713E+04  0.16529114580E+04  0.10100000352E+00 0. -1.
</event>
<event>
 5   0  0.3327241E-07  0.3822433E+04  0.7818609E-02  0.8041358E-01
       -2   -1    0    0    0  501  0.00000000000E+00  0.00000000000E+00  0.15227388824E+04  0.15227388824E+04  0.25500000920E-02 0. -1.
        2   -1    0    0  501    0  0.00000000000E+00  0.00000000000E+00 -0.23988018864E+04  0.23988018864E+04  0.25500000920E-02 0.  1.
    10030    2    1    2    0    0  0.00000000000E+00  0.00000000000E+00 -0.87606300407E+03  0.39215407688E+04  0.38224332060E+04 0.  0.
        3    1    3    3  502    0  0.16289549114E+04  0.10237181171E+03 -0.14581850030E+04  0.21886702823E+04  0.10100000352E+00 0.  1.
       -3    1    3    3    0  502 -0.16289549114E+04 -0.10237181171E+03  0.58212199891E+03  0.17328704865E+04  0.10100000352E+00 0. -1.
</event>
<event>
 5   0  0.3509843E-07  0.3810231E+04  0.7818609E-02  0.8043963E-01
       -2   -1    0    0    0  501  0.00000000000E+00  0.00000000000E+00  0.17648054427E+04  0.17648054427E+04  0.25500000920E-02 0. -1.
        2   -1    0    0  501    0  0.00000000000E+00  0.00000000000E+00 -0.20565810639E+04  0.20565810639E+04  0.25500000920E-02 0.  1.
    10030    2    1    2    0    0  0.00000000000E+00  0.00000000000E+00 -0.29177562120E+03  0.38213865066E+04  0.38102312029E+04 0.  0.
        4    1    3    3  502    0  0.78749556315E+03  0.94563168117E+03 -0.16044824294E+04  0.20220618234E+04  0.12699999809E+01 0.  1.
       -4    1    3    3    0  502 -0.78749556315E+03 -0.94563168117E+03  0.13127068082E+04  0.17993246832E+04  0.12699999809E+01 0. -1.
</event>
<event>
 5   0  0.1084315E-07  0.3752806E+04  0.7818609E-02  0.8056359E-01
       -1   -1    0    0    0  501  0.00000000000E+00  0.00000000000E+00  0.13085807778E+04  0.13085807778E+04  0.50400001928E-02 0. -1.
        1   -1    0    0  501    0  0.00000000000E+00  0.00000000000E+00 -0.26906164070E+04  0.26906164070E+04  0.50400001928E-02 0.  1.
    10030    2    1    2    0    0  0.00000000000E+00  0.00000000000E+00 -0.13820356292E+04  0.39991971848E+04  0.37528063689E+04 0.  0.
        4    1    3    3  502    0 -0.17892133427E+04  0.27622510370E+03 -0.16537583809E+03  0.18179481495E+04  0.12699999809E+01 0. -1.
       -4    1    3    3    0  502  0.17892133427E+04 -0.27622510370E+03 -0.12166597911E+04  0.21812490353E+04  0.12699999809E+01 0.  1.
</event>
<event>
 5   0  0.1084315E-07  0.3863062E+04  0.7818609E-02  0.8032756E-01
       -1   -1    0    0    0  501  0.00000000000E+00  0.00000000000E+00  0.21199098875E+04  0.21199098875E+04  0.50400001928E-02 0. -1.
        1   -1    0    0  501    0  0.00000000000E+00  0.00000000000E+00 -0.17598918810E+04  0.17598918810E+04  0.50400001928E-02 0.  1.
    10030    2    1    2    0    0  0.00000000000E+00  0.00000000000E+00  0.36001800649E+03  0.38798017685E+04  0.38630621012E+04 0.  0.
        4    1    3    3  502    0 -0.55400664464E+01  0.98800552412E+03 -0.14868892348E+04  0.17852245846E+04  0.12699999809E+01 0.  1.
       -4    1    3    3    0  502  0.55400664464E+01 -0.98800552412E+03  0.18469072413E+04  0.20945771838E+04  0.12699999809E+01 0. -1.
</event>
<event>
 5   0  0.3377396E-07  0.3774963E+04  0.7818609E-02  0.8051549E-01
       -2   -1    0    0    0  501  0.00000000000E+00  0.00000000000E+00  0.16728440162E+04  0.16728440162E+04  0.25500000920E-02 0. -1.
        2   -1    0    0  501    0  0.00000000000E+00  0.00000000000E+00 -0.21296588046E+04  0.21296588046E+04  0.25500000920E-02 0.  1.
    10030    2    1    2    0    0  0.00000000000E+00  0.00000000000E+00 -0.45681478847E+03  0.38025028208E+04  0.37749633046E+04 0.  0.
        5    1    3    3  502    0 -0.31800733266E+03 -0.93827424786E+03  0.13898863204E+04  0.17068372217E+04  0.46999998093E+01 0. -1.
       -5    1    3    3    0  502  0.31800733266E+03  0.93827424786E+03 -0.18467011088E+04  0.20956655991E+04  0.46999998093E+01 0.  1.
</event>
<event>
 5   0  0.1084315E-07  0.3728346E+04  0.7818609E-02  0.8061709E-01
        1   -1    0    0  501    0  0.00000000000E+00  0.00000000000E+00  0.22851405698E+04  0.22851405698E+04  0.50400001928E-02 0. -1.
       -1   -1    0    0    0  501  0.00000000000E+00  0.00000000000E+00 -0.15207560870E+04  0.15207560870E+04  0.50400001928E-02 0.  1.
    10030    2    1    2    0    0  0.00000000000E+00  0.00000000000E+00  0.76438448277E+03  0.38058966568E+04  0.37283462453E+04 0.  0.
        4    1    3    3  502    0  0.44629686762E+03  0.11583397997E+04  0.18018783165E+04  0.21880811378E+04  0.12699999809E+01 0. -1.
       -4    1    3    3    0  502 -0.44629686762E+03 -0.11583397997E+04 -0.10374938337E+04  0.16178155189E+04  0.12699999809E+01 0.  1.
</event>
<event>
 5   0  0.3327241E-07  0.3769667E+04  0.7818609E-02  0.8052696E-01
       -2   -1    0    0    0  501  0.00000000000E+00  0.00000000000E+00  0.31105075614E+04  0.31105075614E+04  0.25500000920E-02 0. -1.
        2   -1    0    0  501    0  0.00000000000E+00  0.00000000000E+00 -0.11421276861E+04  0.11421276861E+04  0.25500000920E-02 0.  1.
    10030    2    1    2    0    0  0.00000000000E+00  0.00000000000E+00  0.19683798754E+04  0.42526352475E+04  0.37696667246E+04 0.  0.
        3    1    3    3  502    0  0.36204658098E+03 -0.14176583017E+04  0.23245955297E+04  0.27467393714E+04  0.10100000352E+00 0. -1.
       -3    1    3    3    0  502 -0.36204658098E+03  0.14176583017E+04 -0.35621565438E+03  0.15058958761E+04  0.10100000352E+00 0.  1.
</event>
<event>
 5   0  0.3377396E-07  0.3783247E+04  0.7818609E-02  0.8049760E-01
        2   -1    0    0  501    0  0.00000000000E+00  0.00000000000E+00  0.21034950488E+04  0.21034950488E+04  0.25500000920E-02 0. -1.
       -2   -1    0    0    0  501  0.00000000000E+00  0.00000000000E+00 -0.17010920469E+04  0.17010920469E+04  0.25500000920E-02 0.  1.
    10030    2    1    2    0    0  0.00000000000E+00  0.00000000000E+00  0.40240300185E+03  0.38045870957E+04  0.37832465942E+04 0.  0.
        5    1    3    3  502    0 -0.91554494241E+03  0.13133235359E+04 -0.81204103721E+03  0.17951250618E+04  0.46999998093E+01 0.  1.
       -5    1    3    3    0  502  0.91554494241E+03 -0.13133235359E+04  0.12144440391E+04  0.20094620339E+04  0.46999998093E+01 0. -1.
</event>
<event>
 5   0  0.1084315E-07  0.3808685E+04  0.7818609E-02  0.8044294E-01
        1   -1    0    0  501    0  0.00000000000E+00  0.00000000000E+00  0.13470528819E+04  0.13470528819E+04  0.50400001928E-02 0.  1.
       -1   -1    0    0    0  501  0.00000000000E+00  0.00000000000E+00 -0.26921885790E+04  0.26921885790E+04  0.50400001928E-02 0. -1.
    10030    2    1    2    0    0  0.00000000000E+00  0.00000000000E+00 -0.13451356971E+04  0.40392414609E+04  0.38086850139E+04 0.  0.
        4    1    3    3  502    0 -0.91430324750E+03 -0.11995633668E+04  0.56039909188E+03  0.16090218937E+04  0.12699999809E+01 0.  1.
       -4    1    3    3    0  502  0.91430324750E+03  0.11995633668E+04 -0.19055347890E+04  0.24302195671E+04  0.12699999809E+01 0. -1.
</event>
<event>
 5   0  0.1070988E-07  0.3838023E+04  0.7818609E-02  0.8038044E-01
       -1   -1    0    0    0  501  0.00000000000E+00  0.00000000000E+00  0.26973811657E+04  0.26973811657E+04  0.50400001928E-02 0. -1.
        1   -1    0    0  501    0  0.00000000000E+00  0.00000000000E+00 -0.13652520837E+04  0.13652520838E+04  0.50400001928E-02 0.  1.
    10030    2    1    2    0    0  0.00000000000E+00  0.00000000000E+00  0.13321290820E+04  0.40626332495E+04  0.38380230626E+04 0.  0.
        3    1    3    3  502    0  0.83261134144E+03 -0.55546844640E+03  0.23992049047E+04  0.25996097834E+04  0.10100000352E+00 0. -1.
       -3    1    3    3    0  502 -0.83261134144E+03  0.55546844640E+03 -0.10670758227E+04  0.14630234661E+04  0.10100000352E+00 0.  1.
</event>
<event>
 5   0  0.1084315E-07  0.3802617E+04  0.7818609E-02  0.8045594E-01
       -1   -1    0    0    0  501  0.00000000000E+00  0.00000000000E+00  0.12016978814E+04  0.12016978814E+04  0.50400001928E-02 0. -1.
        1   -1    0    0  501    0  0.00000000000E+00  0.00000000000E+00 -0.30082220902E+04  0.30082220902E+04  0.50400001928E-02 0.  1.
    10030    2    1    2    0    0  0.00000000000E+00  0.00000000000E+00 -0.18065242088E+04  0.42099199716E+04  0.38026170528E+04 0.  0.
        4    1    3    3  502    0 -0.11704909981E+03  0.21580180391E+03  0.11840761042E+04  0.12092595850E+04  0.12699999809E+01 0. -1.
       -4    1    3    3    0  502  0.11704909981E+03 -0.21580180391E+03 -0.29906003130E+04  0.30006603866E+04  0.12699999809E+01 0.  1.
</event>
<event>
 5   0  0.3377396E-07  0.3793492E+04  0.7818609E-02  0.8047553E-01
        2   -1    0    0  501    0  0.00000000000E+00  0.00000000000E+00  0.24301604288E+04  0.24301604288E+04  0.25500000920E-02 0. -1.
       -2   -1    0    0    0  501  0.00000000000E+00  0.00000000000E+00 -0.14804146117E+04  0.14804146117E+04  0.25500000920E-02 0.  1.
    10030    2    1    2    0    0  0.00000000000E+00  0.00000000000E+00  0.94974581705E+03  0.39105750405E+04  0.37934917991E+04 0.  0.
        5    1    3    3  502    0 -0.68628352760E+03 -0.73953811759E+03  0.21305965947E+04  0.23574065510E+04  0.46999998093E+01 0. -1.
       -5    1    3    3    0  502  0.68628352760E+03  0.73953811759E+03 -0.11808507776E+04  0.15531684894E+04  0.46999998093E+01 0.  1.
</event>
<event>
 5   0  0.1084315E-07  0.3841829E+04  0.7818609E-02  0.8037238E-01
       -1   -1    0    0    0  501  0.00000000000E+00  0.00000000000E+00  0.25858578519E+04  0.25858578519E+04  0.50400001928E-02 0. -1.
        1   -1    0    0  501    0  0.00000000000E+00  0.00000000000E+00 -0.14269585546E+04  0.14269585546E+04  0.50400001928E-02 0.  1.
    10030    2    1    2    0    0  0.00000000000E+00  0.00000000000E+00  0.11588992973E+04  0.40128164065E+04  0.38418287223E+04 0.  0.
        4    1    3    3  502    0  0.28662884719E+02  0.30753587614E+03  0.25597504776E+04  0.25783180558E+04  0.12699999809E+01 0. -1.
       -4    1    3    3    0  502 -0.28662884719E+02 -0.30753587614E+03 -0.14008511803E+04  0.14344983508E+04  0.12699999809E+01 0.  1.
</event>
<event>
 5   0  0.1070988E-07  0.3778560E+04  0.7818609E-02  0.8050772E-01
       -1   -1    0    0    0  501  0.00000000000E+00  0.00000000000E+00  0.19959255786E+04  0.19959255786E+04  0.50400001928E-02 0. -1.
        1   -1    0    0  501    0  0.00000000000E+00  0.00000000000E+00 -0.17883326843E+04  0.17883326843E+04  0.50400001928E-02 0.  1.
    10030    2    1    2    0    0  0.00000000000E+00  0.00000000000E+00  0.20759289437E+03  0.37842582629E+04  0.37785600155E+04 0.  0.
        2    1    3    3  502    0 -0.42438837948E+03 -0.11946479477E+04 -0.12990620783E+04  0.18151725811E+04  0.25500000920E-02 0.  1.
       -2    1    3    3    0  502  0.42438837948E+03  0.11946479477E+04  0.15066549727E+04  0.19690856819E+04  0.25500000920E-02 0. -1.
</event>
<event>
 5   0  0.1070988E-07  0.3415914E+04  0.7818609E-02  0.8134012E-01
       -3   -1    0    0    0  501  0.00000000000E+00  0.00000000000E+00  0.17393823497E+04  0.17393823526E+04  0.10100000352E+00 0. -1.
        3   -1    0    0  501    0  0.00000000000E+00  0.00000000000E+00 -0.16770989891E+04  0.16770989922E+04  0.10100000352E+00 0.  1.
    10030    2    1    2    0    0  0.00000000000E+00  0.00000000000E+00  0.62283360568E+02  0.34164813448E+04  0.34159135766E+04 0.  0.
        1    1    3    3  502    0 -0.17365784009E+03 -0.19922674392E+03 -0.16565237583E+04  0.16774740841E+04  0.50400001928E-02 0.  1.
       -1    1    3    3    0  502  0.17365784009E+03  0.19922674392E+03  0.17188071189E+04  0.17390072607E+04  0.50400001928E-02 0. -1.
</event>
<event>
 5   0  0.3442126E-07  0.3819382E+04  0.7818609E-02  0.8042008E-01
       -2   -1    0    0    0  501  0.00000000000E+00  0.00000000000E+00  0.13408494295E+04  0.13408494295E+04  0.25500000920E-02 0.  1.
        2   -1    0    0  501    0  0.00000000000E+00  0.00000000000E+00 -0.27198573082E+04  0.27198573083E+04  0.25500000920E-02 0. -1.
    10030    2    1    2    0    0  0.00000000000E+00  0.00000000000E+00 -0.13790078788E+04  0.40607067377E+04  0.38193816882E+04 0.  0.
        2    1    3    3  502    0  0.10269370260E+04  0.16076935952E+04 -0.59656941384E+03  0.19987929900E+04  0.25500000920E-02 0.  1.
       -2    1    3    3    0  502 -0.10269370260E+04 -0.16076935952E+04 -0.78243846493E+03  0.20619137477E+04  0.25500000920E-02 0. -1.
</event>
<event>
 5   0  0.3509843E-07  0.3831141E+04  0.7818609E-02  0.8039505E-01
        2   -1    0    0  501    0  0.00000000000E+00  0.00000000000E+00  0.19342459468E+04  0.19342459468E+04  0.25500000920E-02 0. -1.
       -2   -1    0    0    0  501  0.00000000000E+00  0.00000000000E+00 -0.18970750561E+04  0.18970750561E+04  0.25500000920E-02 0.  1.
    10030    2    1    2    0    0  0.00000000000E+00  0.00000000000E+00  0.37170890697E+02  0.38313210030E+04  0.38311406856E+04 0.  0.
        4    1    3    3  502    0 -0.10178477103E+04  0.11933230377E+04 -0.10811818645E+04  0.19049907272E+04  0.12699999809E+01 0.  1.
       -4    1    3    3    0  502  0.10178477103E+04 -0.11933230377E+04  0.11183527552E+04  0.19263302758E+04  0.12699999809E+01 0. -1.
</event>
<event>
 5   0  0.3327241E-07  0.3710532E+04  0.7818609E-02  0.8065632E-01
        2   -1    0    0  501    0  0.00000000000E+00  0.00000000000E+00  0.27831236827E+04  0.27831236827E+04  0.25500000920E-02 0. -1.
       -2   -1    0    0    0  501  0.00000000000E+00  0.00000000000E+00 -0.12367440870E+04  0.12367440870E+04  0.25500000920E-02 0.  1.
    10030    2    1    2    0    0  0.00000000000E+00  0.00000000000E+00  0.15463795957E+04  0.40198677698E+04  0.37105319069E+04 0.  0.
        3    1    3    3  502    0 -0.77023353977E+03  0.73395443605E+03 -0.87340789439E+03  0.13765137777E+04  0.10100000352E+00 0.  1.
       -3    1    3    3    0  502  0.77023353977E+03 -0.73395443605E+03  0.24197874901E+04  0.26433539921E+04  0.10100000352E+00 0. -1.
</event>
<event>
 5   0  0.1085771E-07  0.3820307E+04  0.7818609E-02  0.8041811E-01
       -1   -1    0    0    0  501  0.00000000000E+00  0.00000000000E+00  0.20063058431E+04  0.20063058431E+04  0.50400001928E-02 0. -1.
        1   -1    0    0  501    0  0.00000000000E+00  0.00000000000E+00 -0.18186089753E+04  0.18186089753E+04  0.50400001928E-02 0.  1.
    10030    2    1    2    0    0  0.00000000000E+00  0.00000000000E+00  0.18769686779E+03  0.38249148184E+04  0.38203066963E+04 0.  0.
        1    1    3    3  502    0  0.90915549144E+03 -0.13768378088E+04 -0.86982997629E+03  0.18651676191E+04  0.50400001928E-02 0.  1.
       -1    1    3    3    0  502 -0.90915549144E+03  0.13768378088E+04  0.10575268441E+04  0.19597471994E+04  0.50400001928E-02 0. -1.
</event>
<event>
 5   0  0.1070988E-07  0.3763027E+04  0.7818609E-02  0.8054136E-01
        1   -1    0    0  501    0  0.00000000000E+00  0.00000000000E+00  0.19616120754E+04  0.19616120754E+04  0.50400001928E-02 0.  1.
       -1   -1    0    0    0  501  0.00000000000E+00  0.00000000000E+00 -0.18046858176E+04  0.18046858176E+04  0.50400001928E-02 0. -1.
    10030    2    1    2    0    0  0.00000000000E+00  0.00000000000E+00  0.15692625782E+03  0.37662978931E+04  0.37630272347E+04 0.  0.
        3    1    3    3  502    0  0.24426589883E+03  0.52483444254E+03 -0.17133376781E+04  0.18084919217E+04  0.10100000352E+00 0. -1.
       -3    1    3    3    0  502 -0.24426589883E+03 -0.52483444254E+03  0.18702639359E+04  0.19578059714E+04  0.10100000352E+00 0.  1.
</event>
<event>
 5   0  0.1070988E-07  0.3786723E+04  0.7818609E-02  0.8049010E-01
        3   -1    0    0  501    0  0.00000000000E+00  0.00000000000E+00  0.25565339647E+04  0.25565339667E+04  0.10100000352E+00 0. -1.
       -3   -1    0    0    0  501  0.00000000000E+00  0.00000000000E+00 -0.14022181128E+04  0.14022181165E+04  0.10100000352E+00 0.  1.
    10030    2    1    2    0    0  0.00000000000E+00  0.00000000000E+00  0.11543158519E+04  0.39587520832E+04  0.37867232497E+04 0.  0.
        2    1    3    3  502    0 -0.29360569676E+03 -0.23158525867E+03 -0.13632285107E+04  0.14135869304E+04  0.25500000920E-02 0.  1.
       -2    1    3    3    0  502  0.29360569676E+03  0.23158525867E+03  0.25175443626E+04  0.25451651528E+04  0.25500000920E-02 0. -1.
</event>
<event>
 5   0  0.1070988E-07  0.3538665E+04  0.7818609E-02  0.8104687E-01
        1   -1    0    0  501    0  0.00000000000E+00  0.00000000000E+00  0.11902767917E+04  0.11902767918E+04  0.50400001928E-02 0.  1.
       -1   -1    0    0    0  501  0.00000000000E+00  0.00000000000E+00 -0.26300924404E+04  0.26300924404E+04  0.50400001928E-02 0. -1.
    10030    2    1    2    0    0  0.00000000000E+00  0.00000000000E+00 -0.14398156487E+04  0.38203692322E+04  0.35386652806E+04 0.  0.
        5    1    3    3  502    0  0.17100433841E+04 -0.24879542628E+03 -0.11301136924E+04  0.20647824552E+04  0.46999998093E+01 0.  1.
       -5    1    3    3    0  502 -0.17100433841E+04  0.24879542628E+03 -0.30970195626E+03  0.17555867769E+04  0.46999998093E+01 0. -1.
</event>
<event>
 5   0  0.3442126E-07  0.3811046E+04  0.7818609E-02  0.8043789E-01
       -2   -1    0    0    0  501  0.00000000000E+00  0.00000000000E+00  0.14354475459E+04  0.14354475459E+04  0.25500000920E-02 0. -1.
        2   -1    0    0  501    0  0.00000000000E+00  0.00000000000E+00 -0.25295369678E+04  0.25295369678E+04  0.25500000920E-02 0.  1.
    10030    2    1    2    0    0  0.00000000000E+00  0.00000000000E+00 -0.10940894220E+04  0.39649845137E+04  0.38110458578E+04 0.  0.
        2    1    3    3  502    0  0.15442799723E+04 -0.70649188875E+03  0.35220991610E+03  0.17343538412E+04  0.25500000920E-02 0. -1.
       -2    1    3    3    0  502 -0.15442799723E+04  0.70649188875E+03 -0.14462993381E+04  0.22306306725E+04  0.25500000920E-02 0.  1.
</event>
<event>
 5   0  0.3442126E-07  0.3678852E+04  0.7818609E-02  0.8072665E-01
        2   -1    0    0  501    0  0.00000000000E+00  0.00000000000E+00  0.19981127526E+04  0.19981127526E+04  0.25500000920E-02 0. -1.
       -2   -1    0    0    0  501  0.00000000000E+00  0.00000000000E+00 -0.16933421022E+04  0.16933421022E+04  0.25500000920E-02 0.  1.
    10030    2    1    2    0    0  0.00000000000E+00  0.00000000000E+00  0.30477065042E+03  0.36914548548E+04  0.36788522389E+04 0.  0.
        2    1    3    3  502    0 -0.45207963359E+02  0.53606060025E+03  0.19174118943E+04  0.19914499993E+04  0.25500000920E-02 0. -1.
       -2    1    3    3    0  502  0.45207963359E+02 -0.53606060025E+03 -0.16126412439E+04  0.17000048555E+04  0.25500000920E-02 0.  1.
</event>
<event>
 5   0  0.1070988E-07  0.3808361E+04  0.7818609E-02  0.8044363E-01
        1   -1    0    0  501    0  0.00000000000E+00  0.00000000000E+00  0.22572405799E+04  0.22572405799E+04  0.50400001928E-02 0. -1.
       -1   -1    0    0    0  501  0.00000000000E+00  0.00000000000E+00 -0.16063432535E+04  0.16063432535E+04  0.50400001928E-02 0.  1.
    10030    2    1    2    0    0  0.00000000000E+00  0.00000000000E+00  0.65089732637E+03  0.38635838334E+04  0.38083608952E+04 0.  0.
        3    1    3    3  502    0 -0.14218180876E+03 -0.94069866425E+03  0.19988435567E+04  0.22137084763E+04  0.10100000352E+00 0. -1.
       -3    1    3    3    0  502  0.14218180876E+03  0.94069866425E+03 -0.13479462304E+04  0.16498753571E+04  0.10100000352E+00 0.  1.
</event>
<event>
 5   0  0.1085771E-07  0.3842193E+04  0.7818609E-02  0.8037160E-01
        1   -1    0    0  501    0  0.00000000000E+00  0.00000000000E+00  0.26829739354E+04  0.26829739354E+04  0.50400001928E-02 0.  1.
       -1   -1    0    0    0  501  0.00000000000E+00  0.00000000000E+00 -0.13755677181E+04  0.13755677181E+04  0.50400001928E-02 0. -1.
    10030    2    1    2    0    0  0.00000000000E+00  0.00000000000E+00  0.13074062173E+04  0.40585416535E+04  0.38421932976E+04 0.  0.
        1    1    3    3  502    0  0.70555172410E+03 -0.14004302733E+04 -0.51856343101E+03  0.16516404626E+04  0.50400001928E-02 0. -1.
       -1    1    3    3    0  502 -0.70555172410E+03  0.14004302733E+04  0.18259696483E+04  0.24069011908E+04  0.50400001928E-02 0.  1.
</event>
<event>
 5   0  0.3327241E-07  0.3550392E+04  0.7818609E-02  0.8101950E-01
        2   -1    0    0  501    0  0.00000000000E+00  0.00000000000E+00  0.27904961778E+04  0.27904961778E+04  0.25500000920E-02 0. -1.
       -2   -1    0    0    0  501  0.00000000000E+00  0.00000000000E+00 -0.11293049808E+04  0.11293049808E+04  0.25500000920E-02 0.  1.
    10030    2    1    2    0    0  0.00000000000E+00  0.00000000000E+00  0.16611911970E+04  0.39198011587E+04  0.35503922220E+04 0.  0.
        3    1    3    3  502    0  0.59064896565E+03  0.70440914862E+03  0.25072443810E+04  0.26704555501E+04  0.10100000352E+00 0. -1.
       -3    1    3    3    0  502 -0.59064896565E+03 -0.70440914862E+03 -0.84605318392E+03  0.12493456085E+04  0.10100000352E+00 0.  1.
</event>
<event>
 5   0  0.3377396E-07  0.3582095E+04  0.7818609E-02  0.8094605E-01
       -2   -1    0    0    0  501  0.00000000000E+00  0.00000000000E+00  0.27922505463E+04  0.27922505463E+04  0.25500000920E-02 0. -1.
        2   -1    0    0  501    0  0.00000000000E+00  0.00000000000E+00 -0.11488407086E+04  0.11488407086E+04  0.25500000920E-02 0.  1.
    10030    2    1    2    0    0  0.00000000000E+00  0.00000000000E+00  0.16434098377E+04  0.39410912549E+04  0.35820949715E+04 0.  0.
        5    1    3    3  502    0  0.10541075505E+04  0.11841528749E+04 -0.95160497418E+02  0.15882186151E+04  0.46999998093E+01 0.  1.
       -5    1    3    3    0  502 -0.10541075505E+04 -0.11841528749E+04  0.17385703351E+04  0.23528726398E+04  0.46999998093E+01 0. -1.
</event>
<event>
 5   0  0.1070988E-07  0.3766356E+04  0.7818609E-02  0.8053414E-01
        1   -1    0    0  501    0  0.00000000000E+00  0.00000000000E+00  0.18732780665E+04  0.18732780666E+04  0.50400001928E-02 0.  1.
       -1   -1    0    0    0  501  0.00000000000E+00  0.00000000000E+00 -0.18931304599E+04  0.18931304599E+04  0.50400001928E-02 0. -1.
    10030    2    1    2    0    0  0.00000000000E+00  0.00000000000E+00 -0.19852393378E+02  0.37664085265E+04  0.37663562060E+04 0.  0.
        2    1    3    3  502    0  0.99870709383E+02 -0.29315448145E+03  0.18476372406E+04  0.18734132170E+04  0.25500000920E-02 0.  1.
       -2    1    3    3    0  502 -0.99870709383E+02  0.29315448145E+03 -0.18674896340E+04  0.18929953095E+04  0.25500000920E-02 0. -1.
</event>
<event>
 5   0  0.1070988E-07  0.3834772E+04  0.7818609E-02  0.8038734E-01
       -1   -1    0    0    0  501  0.00000000000E+00  0.00000000000E+00  0.17594910701E+04  0.17594910701E+04  0.50400001928E-02 0. -1.
        1   -1    0    0  501    0  0.00000000000E+00  0.00000000000E+00 -0.20894501817E+04  0.20894501817E+04  0.50400001928E-02 0.  1.
    10030    2    1    2    0    0  0.00000000000E+00  0.00000000000E+00 -0.32995911163E+03  0.38489412518E+04  0.38347719286E+04 0.  0.
        2    1    3    3  502    0  0.10938855215E+04  0.89990544355E+03 -0.14620212716E+04  0.20356624327E+04  0.25500000920E-02 0.  1.
       -2    1    3    3    0  502 -0.10938855215E+04 -0.89990544355E+03  0.11320621600E+04  0.18132788190E+04  0.25500000920E-02 0. -1.
</event>
<event>
 5   0  0.1070988E-07  0.3802718E+04  0.7818609E-02  0.8045572E-01
       -1   -1    0    0    0  501  0.00000000000E+00  0.00000000000E+00  0.18945457358E+04  0.18945457359E+04  0.50400001928E-02 0.  1.
        1   -1    0    0  501    0  0.00000000000E+00  0.00000000000E+00 -0.19081964586E+04  0.19081964586E+04  0.50400001928E-02 0. -1.
    10030    2    1    2    0    0  0.00000000000E+00  0.00000000000E+00 -0.13650722704E+02  0.38027421944E+04  0.38027176933E+04 0.  0.
        3    1    3    3  502    0  0.83850655346E+03 -0.15889539721E+04  0.61551094526E+03  0.18991370935E+04  0.10100000352E+00 0.  1.
       -3    1    3    3    0  502 -0.83850655346E+03  0.15889539721E+04 -0.62916166797E+03  0.19036051010E+04  0.10100000352E+00 0. -1.
</event>
<event>
 5   0  0.3327241E-07  0.3774706E+04  0.7818609E-02  0.8051605E-01
       -2   -1    0    0    0  501  0.00000000000E+00  0.00000000000E+00  0.15646953276E+04  0.15646953276E+04  0.25500000920E-02 0. -1.
        2   -1    0    0  501    0  0.00000000000E+00  0.00000000000E+00 -0.22765465177E+04  0.22765465177E+04  0.25500000920E-02 0.  1.
    10030    2    1    2    0    0  0.00000000000E+00  0.00000000000E+00 -0.71185119016E+03  0.38412418453E+04  0.37747061868E+04 0.  0.
        3    1    3    3  502    0 -0.66268078901E+03 -0.10953157472E+04  0.10553283141E+04  0.16590901950E+04  0.10100000352E+00 0. -1.
       -3    1    3    3    0  502  0.66268078901E+03  0.10953157472E+04 -0.17671795043E+04  0.21821516503E+04  0.10100000352E+00 0.  1.
</event>
<event>
 5   0  0.1070988E-07  0.3807035E+04  0.7818609E-02  0.8044647E-01
       -1   -1    0    0    0  501  0.00000000000E+00  0.00000000000E+00  0.19996373317E+04  0.19996373317E+04  0.50400001928E-02 0.  1.
        1   -1    0    0  501    0  0.00000000000E+00  0.00000000000E+00 -0.18120184272E+04  0.18120184272E+04  0.50400001928E-02 0. -1.
    10030    2    1    2    0    0  0.00000000000E+00  0.00000000000E+00  0.18761890453E+03  0.38116557589E+04  0.38070354308E+04 0.  0.
        5    1    3    3  502    0 -0.14244407727E+04 -0.47352414416E+03  0.12657431446E+04  0.19635132869E+04  0.46999998093E+01 0.  1.
       -5    1    3    3    0  502  0.14244407727E+04  0.47352414416E+03 -0.10781242400E+04  0.18481424720E+04  0.46999998093E+01 0. -1.
</event>
<event>
 5   0  0.1084315E-07  0.3774962E+04  0.7818609E-02  0.8051549E-01
       -1   -1    0    0    0  501  0.00000000000E+00  0.00000000000E+00  0.33038552088E+04  0.33038552088E+04  0.50400001928E-02 0. -1.
        1   -1    0    0  501    0  0.00000000000E+00  0.00000000000E+00 -0.10783115598E+04  0.10783115598E+04  0.50400001928E-02 0.  1.
    10030    2    1    2    0    0  0.00000000000E+00  0.00000000000E+00  0.22255436490E+04  0.43821667686E+04  0.37749623911E+04 0.  0.
        4    1    3    3  502    0  0.61948422425E+03  0.10596804449E+04 -0.55170325382E+03  0.13457568290E+04  0.12699999809E+01 0.  1.
       -4    1    3    3    0  502 -0.61948422425E+03 -0.10596804449E+04  0.27772469028E+04  0.30364099397E+04  0.12699999809E+01 0. -1.
</event>
<event>
 5   0  0.3327241E-07  0.3822345E+04  0.7818609E-02  0.8041377E-01
        2   -1    0    0  501    0  0.00000000000E+00  0.00000000000E+00  0.25199767519E+04  0.25199767519E+04  0.25500000920E-02 0. -1.
       -2   -1    0    0    0  501  0.00000000000E+00  0.00000000000E+00 -0.14494500911E+04  0.14494500911E+04  0.25500000920E-02 0.  1.
    10030    2    1    2    0    0  0.00000000000E+00  0.00000000000E+00  0.10705266608E+04  0.39694268430E+04  0.38223451087E+04 0.  0.
        3    1    3    3  502    0  0.32243697450E+03 -0.19404253050E+03  0.24811206698E+04  0.25094975383E+04  0.10100000352E+00 0. -1.
       -3    1    3    3    0  502 -0.32243697450E+03  0.19404253050E+03 -0.14105940090E+04  0.14599293047E+04  0.10100000352E+00 0.  1.
</event>
<event>
 5   0  0.3377396E-07  0.3790062E+04  0.7818609E-02  0.8048291E-01
       -2   -1    0    0    0  501  0.00000000000E+00  0.00000000000E+00  0.16208404501E+04  0.16208404501E+04  0.25500000920E-02 0.  1.
        2   -1    0    0  501    0  0.00000000000E+00  0.00000000000E+00 -0.22156054434E+04  0.22156054434E+04  0.25500000920E-02 0. -1.
    10030    2    1    2    0    0  0.00000000000E+00  0.00000000000E+00 -0.59476499332E+03  0.38364458936E+04  0.37900622286E+04 0.  0.
        5    1    3    3  502    0 -0.97122514039E+03  0.48484835228E+03 -0.18696998814E+04  0.21619796333E+04  0.46999998093E+01 0. -1.
       -5    1    3    3    0  502  0.97122514039E+03 -0.48484835228E+03  0.12749348881E+04  0.16744662603E+04  0.46999998093E+01 0.  1.
</event>
<event>
 5   0  0.3377396E-07  0.3785777E+04  0.7818609E-02  0.8049214E-01
       -2   -1    0    0    0  501  0.00000000000E+00  0.00000000000E+00  0.30605034094E+04  0.30605034094E+04  0.25500000920E-02 0.  1.
        2   -1    0    0  501    0  0.00000000000E+00  0.00000000000E+00 -0.11707312719E+04  0.11707312719E+04  0.25500000920E-02 0. -1.
    10030    2    1    2    0    0  0.00000000000E+00  0.00000000000E+00  0.18897721375E+04  0.42312346812E+04  0.37857770927E+04 0.  0.
        5    1    3    3  502    0 -0.17020027857E+03 -0.59933667641E+03  0.29426129472E+04  0.30078506667E+04  0.46999998093E+01 0.  1.
       -5    1    3    3    0  502  0.17020027857E+03  0.59933667641E+03 -0.10528408096E+04  0.12233840145E+04  0.46999998093E+01 0. -1.
</event>
<event>
 5   0  0.3377396E-07  0.3794123E+04  0.7818609E-02  0.8047417E-01
       -2   -1    0    0    0  501  0.00000000000E+00  0.00000000000E+00  0.13582711699E+04  0.13582711699E+04  0.25500000920E-02 0. -1.
        2   -1    0    0  501    0  0.00000000000E+00  0.00000000000E+00 -0.26495755401E+04  0.26495755401E+04  0.25500000920E-02 0.  1.
    10030    2    1    2    0    0  0.00000000000E+00  0.00000000000E+00 -0.12913043702E+04  0.40078467100E+04  0.37941228597E+04 0.  0.
        5    1    3    3  502    0  0.91972709906E+03  0.16216681447E+03 -0.23899166630E+04  0.25659149945E+04  0.46999998093E+01 0.  1.
       -5    1    3    3    0  502 -0.91972709906E+03 -0.16216681447E+03  0.10986122928E+04  0.14419317156E+04  0.46999998093E+01 0. -1.
</event>
<event>
 5   0  0.3442126E-07  0.3735004E+04  0.7818609E-02  0.8060248E-01
        2   -1    0    0  501    0  0.00000000000E+00  0.00000000000E+00  0.15014845508E+04  0.15014845508E+04  0.25500000920E-02 0.  1.
       -2   -1    0    0    0  501  0.00000000000E+00  0.00000000000E+00 -0.23227438200E+04  0.23227438200E+04  0.25500000920E-02 0. -1.
    10030    2    1    2    0    0  0.00000000000E+00  0.00000000000E+00 -0.82125926926E+03  0.38242283708E+04  0.37350041291E+04 0.  0.
        2    1    3    3  502    0 -0.10047100542E+04 -0.60762537345E+01  0.12011690985E+04  0.15659777831E+04  0.25500000920E-02 0.  1.
       -2    1    3    3    0  502  0.10047100542E+04  0.60762537345E+01 -0.20224283678E+04  0.22582505877E+04  0.25500000920E-02 0. -1.
</event>
<event>
 5   0  0.3509843E-07  0.3816262E+04  0.7818609E-02  0.8042674E-01
       -2   -1    0    0    0  501  0.00000000000E+00  0.00000000000E+00  0.14763234491E+04  0.14763234491E+04  0.25500000920E-02 0.  1.
        2   -1    0    0  501    0  0.00000000000E+00  0.00000000000E+00 -0.24662369745E+04  0.24662369745E+04  0.25500000920E-02 0. -1.
    10030    2    1    2    0    0  0.00000000000E+00  0.00000000000E+00 -0.98991352543E+03  0.39425604236E+04  0.38162617711E+04 0.  0.
        4    1    3    3  502    0  0.12367512578E+04  0.14500551206E+04 -0.39832877099E+03  0.19470184769E+04  0.12699999809E+01 0. -1.
       -4    1    3    3    0  502 -0.12367512578E+04 -0.14500551206E+04 -0.59158475444E+03  0.19955419467E+04  0.12699999809E+01 0.  1.
</event>
<event>
 5   0  0.3377396E-07  0.3808777E+04  0.7818609E-02  0.8044274E-01
       -2   -1    0    0    0  501  0.00000000000E+00  0.00000000000E+00  0.20264141749E+04  0.20264141749E+04  0.25500000920E-02 0. -1.
        2   -1    0    0  501    0  0.00000000000E+00  0.00000000000E+00 -0.17897104711E+04  0.17897104711E+04  0.25500000920E-02 0.  1.
    10030    2    1    2    0    0  0.00000000000E+00  0.00000000000E+00  0.23670370377E+03  0.38161246460E+04  0.38087765319E+04 0.  0.
        5    1    3    3  502    0 -0.12118550744E+04  0.10567598378E+04  0.11407805287E+04  0.19714807585E+04  0.46999998093E+01 0. -1.
       -5    1    3    3    0  502  0.12118550744E+04 -0.10567598378E+04 -0.90407682497E+03  0.18446438875E+04  0.46999998093E+01 0.  1.
</event>
<event>
 5   0  0.3377396E-07  0.3870501E+04  0.7818609E-02  0.8031193E-01
       -2   -1    0    0    0  501  0.00000000000E+00  0.00000000000E+00  0.17253000961E+04  0.17253000961E+04  0.25500000920E-02 0.  1.
        2   -1    0    0  501    0  0.00000000000E+00  0.00000000000E+00 -0.21707492601E+04  0.21707492601E+04  0.25500000920E-02 0. -1.
    10030    2    1    2    0    0  0.00000000000E+00  0.00000000000E+00 -0.44544916398E+03  0.38960493562E+04  0.38705006948E+04 0.  0.
        5    1    3    3  502    0 -0.12439248615E+04  0.14038559242E+04 -0.70232664016E+03  0.20028592852E+04  0.46999998093E+01 0.  1.
       -5    1    3    3    0  502  0.12439248615E+04 -0.14038559242E+04  0.25687747618E+03  0.18931900710E+04  0.46999998093E+01 0. -1.
</event>
<event>
 5   0  0.3539010E-07  0.3816035E+04  0.7818609E-02  0.8042723E-01
        2   -1    0    0  501    0  0.00000000000E+00  0.00000000000E+00  0.18732263884E+04  0.18732263884E+04  0.25500000920E-02 0. -1.
       -2   -1    0    0    0  501  0.00000000000E+00  0.00000000000E+00 -0.19434544163E+04  0.19434544163E+04  0.25500000920E-02 0.  1.
    10030    2    1    2    0    0  0.00000000000E+00  0.00000000000E+00 -0.70228027877E+02  0.38166808047E+04  0.38160346420E+04 0.  0.
        1    1    3    3  502    0  0.59020769602E+03  0.16948316260E+04  0.61286198010E+03  0.18964174571E+04  0.50400001928E-02 0. -1.
       -1    1    3    3    0  502 -0.59020769602E+03 -0.16948316260E+04 -0.68309000797E+03  0.19202633476E+04  0.50400001928E-02 0.  1.
</event>
<event>
 5   0  0.3539010E-07  0.3777086E+04  0.7818609E-02  0.8051090E-01
        2   -1    0    0  501    0  0.00000000000E+00  0.00000000000E+00  0.29100181288E+04  0.29100181288E+04  0.25500000920E-02 0.  1.
       -2   -1    0    0    0  501  0.00000000000E+00  0.00000000000E+00 -0.12256262439E+04  0.12256262439E+04  0.25500000920E-02 0. -1.
    10030    2    1    2    0    0  0.00000000000E+00  0.00000000000E+00  0.16843918849E+04  0.41356443727E+04  0.37770859608E+04 0.  0.
        1    1    3    3  502    0 -0.81132250668E+03 -0.15795672176E+04  0.13826774269E+03  0.17811217739E+04  0.50400001928E-02 0. -1.
       -1    1    3    3    0  502  0.81132250668E+03  0.15795672176E+04  0.15461241422E+04  0.23545225988E+04  0.50400001928E-02 0.  1.
</event>
<event>
 5   0  0.1070988E-07  0.3796806E+04  0.7818609E-02  0.8046841E-01
        1   -1    0    0  501    0  0.00000000000E+00  0.00000000000E+00  0.19902189864E+04  0.19902189864E+04  0.50400001928E-02 0. -1.
       -1   -1    0    0    0  501  0.00000000000E+00  0.00000000000E+00 -0.18108232146E+04  0.18108232146E+04  0.50400001928E-02 0.  1.
    10030    2    1    2    0    0  0.00000000000E+00  0.00000000000E+00  0.17939577174E+03  0.38010422010E+04  0.37968064173E+04 0.  0.
        2    1    3    3  502    0  0.13959472900E+04  0.54621944236E+03 -0.10764665542E+04  0.18454822562E+04  0.25500000920E-02 0.  1.
       -2    1    3    3    0  502 -0.13959472900E+04 -0.54621944236E+03  0.12558623259E+04  0.19555599447E+04  0.25500000920E-02 0. -1.
</event>
<event>
 5   0  0.3327241E-07  0.3685209E+04  0.7818609E-02  0.8071248E-01
       -2   -1    0    0    0  501  0.00000000000E+00  0.00000000000E+00  0.18087530929E+04  0.18087530929E+04  0.25500000920E-02 0.  1.
        2   -1    0    0  501    0  0.00000000000E+00  0.00000000000E+00 -0.18770894662E+04  0.18770894662E+04  0.25500000920E-02 0. -1.
    10030    2    1    2    0    0  0.00000000000E+00  0.00000000000E+00 -0.68336373293E+02  0.36858425591E+04  0.36852090186E+04 0.  0.
        3    1    3    3  502    0 -0.14932213111E+03 -0.13186313434E+04 -0.13127093670E+04  0.18666257287E+04  0.10100000352E+00 0. -1.
       -3    1    3    3    0  502  0.14932213111E+03  0.13186313434E+04  0.12443729937E+04  0.18192168305E+04  0.10100000352E+00 0.  1.
</event>
<event>
 5   0  0.1084315E-07  0.3800669E+04  0.7818609E-02  0.8046011E-01
        1   -1    0    0  501    0  0.00000000000E+00  0.00000000000E+00  0.16963360530E+04  0.16963360530E+04  0.50400001928E-02 0.  1.
       -1   -1    0    0    0  501  0.00000000000E+00  0.00000000000E+00 -0.21288656836E+04  0.21288656836E+04  0.50400001928E-02 0. -1.
    10030    2    1    2    0    0  0.00000000000E+00  0.00000000000E+00 -0.43252963062E+03  0.38252017366E+04  0.38006692100E+04 0.  0.
        4    1    3    3  502    0  0.64980683787E+03  0.28391836881E+03 -0.19907138102E+04  0.21132443431E+04  0.12699999809E+01 0. -1.
       -4    1    3    3    0  502 -0.64980683787E+03 -0.28391836881E+03  0.15581841796E+04  0.17119573935E+04  0.12699999809E+01 0.  1.
</event>
<event>
 5   0  0.1070988E-07  0.3735739E+04  0.7818609E-02  0.8060087E-01
        1   -1    0    0  501    0  0.00000000000E+00  0.00000000000E+00  0.11915594576E+04  0.11915594576E+04  0.50400001928E-02 0.  1.
       -1   -1    0    0    0  501  0.00000000000E+00  0.00000000000E+00 -0.29280425119E+04  0.29280425119E+04  0.50400001928E-02 0. -1.
    10030    2    1    2    0    0  0.00000000000E+00  0.00000000000E+00 -0.17364830543E+04  0.41196019695E+04  0.37357391490E+04 0.  0.
        3    1    3    3  502    0  0.11472263150E+04 -0.14115074979E+04 -0.13366915850E+04  0.22572607377E+04  0.10100000352E+00 0. -1.
       -3    1    3    3    0  502 -0.11472263150E+04  0.14115074979E+04 -0.39979146928E+03  0.18623412318E+04  0.10100000352E+00 0.  1.
</event>
<event>
 5   0  0.1070988E-07  0.3418201E+04  0.7818609E-02  0.8133454E-01
        3   -1    0    0  501    0  0.00000000000E+00  0.00000000000E+00  0.26538041878E+04  0.26538041897E+04  0.10100000352E+00 0. -1.
       -3   -1    0    0    0  501  0.00000000000E+00  0.00000000000E+00 -0.11006930549E+04  0.11006930596E+04  0.10100000352E+00 0.  1.
    10030    2    1    2    0    0  0.00000000000E+00  0.00000000000E+00  0.15531111329E+04  0.37544972492E+04  0.34182006090E+04 0.  0.
        1    1    3    3  502    0  0.33704792359E+03  0.52159205373E+03  0.25254936178E+04  0.26007263576E+04  0.50400001928E-02 0. -1.
       -1    1    3    3    0  502 -0.33704792359E+03 -0.52159205373E+03 -0.97238248498E+03  0.11537708917E+04  0.50400001928E-02 0.  1.
</event>
<event>
 5   0  0.3509843E-07  0.3812607E+04  0.7818609E-02  0.8043455E-01
       -2   -1    0    0    0  501  0.00000000000E+00  0.00000000000E+00  0.12734309325E+04  0.12734309325E+04  0.25500000920E-02 0.  1.
        2   -1    0    0  501    0  0.00000000000E+00  0.00000000000E+00 -0.28537019900E+04  0.28537019900E+04  0.25500000920E-02 0. -1.
    10030    2    1    2    0    0  0.00000000000E+00  0.00000000000E+00 -0.15802710574E+04  0.41271329225E+04  0.38126066601E+04 0.  0.
        4    1    3    3  502    0 -0.15740688172E+04 -0.10511057743E+04 -0.10357329019E+04  0.21576052111E+04  0.12699999809E+01 0.  1.
       -4    1    3    3    0  502  0.15740688172E+04  0.10511057743E+04 -0.54453815553E+03  0.19695277114E+04  0.12699999809E+01 0. -1.
</event>
<event>
 5   0  0.1084315E-07  0.3802100E+04  0.7818609E-02  0.8045704E-01
        1   -1    0    0  501    0  0.00000000000E+00  0.00000000000E+00  0.20225017327E+04  0.20225017327E+04  0.50400001928E-02 0. -1.
       -1   -1    0    0    0  501  0.00000000000E+00  0.00000000000E+00 -0.17868912250E+04  0.17868912250E+04  0.50400001928E-02 0.  1.
    10030    2    1    2    0    0  0.00000000000E+00  0.00000000000E+00  0.23561050767E+03  0.38093929578E+04  0.38020997351E+04 0.  0.
        4    1    3    3  502    0  0.23745007856E+03  0.23681907560E+03  0.19926304093E+04  0.20206541949E+04  0.12699999809E+01 0. -1.
       -4    1    3    3    0  502 -0.23745007856E+03 -0.23681907560E+03 -0.17570199016E+04  0.17887387629E+04  0.12699999809E+01 0.  1.
</event>
<event>
 5   0  0.3442126E-07  0.3792364E+04  0.7818609E-02  0.8047795E-01
        2   -1    0    0  501    0  0.00000000000E+00  0.00000000000E+00  0.24806443779E+04  0.24806443779E+04  0.25500000920E-02 0. -1.
       -2   -1    0    0    0  501  0.00000000000E+00  0.00000000000E+00 -0.14494244643E+04  0.14494244643E+04  0.25500000920E-02 0.  1.
    10030    2    1    2    0    0  0.00000000000E+00  0.00000000000E+00  0.10312199136E+04  0.39300688422E+04  0.37923642486E+04 0.  0.
        2    1    3    3  502    0  0.99321305377E+03 -0.16152457846E+04  0.51152553681E+03  0.19639627006E+04  0.25500000920E-02 0. -1.
       -2    1    3    3    0  502 -0.99321305377E+03  0.16152457846E+04  0.51969437676E+03  0.19661061416E+04  0.25500000920E-02 0.  1.
</event>
<event>
 5   0  0.3327241E-07  0.3754279E+04  0.7818609E-02  0.8056038E-01
       -2   -1    0    0    0  501  0.00000000000E+00  0.00000000000E+00  0.18024042942E+04  0.18024042942E+04  0.25500000920E-02 0. -1.
        2   -1    0    0  501    0  0.00000000000E+00  0.00000000000E+00 -0.19549732708E+04  0.19549732708E+04  0.25500000920E-02 0.  1.
    10030    2    1    2    0    0  0.00000000000E+00  0.00000000000E+00 -0.15256897662E+03  0.37573775651E+04  0.37542787422E+04 0.  0.
        3    1    3    3  502    0  0.14585374754E+04  0.11798423436E+04 -0.14185715606E+03  0.18813513722E+04  0.10100000352E+00 0. -1.
       -3    1    3    3    0  502 -0.14585374754E+04 -0.11798423436E+04 -0.10711820562E+02  0.18760261928E+04  0.10100000352E+00 0.  1.
</event>
<event>
 5   0  0.3377396E-07  0.3845393E+04  0.7818609E-02  0.8036483E-01
        2   -1    0    0  501    0  0.00000000000E+00  0.00000000000E+00  0.17851702930E+04  0.17851702930E+04  0.25500000920E-02 0.  1.
       -2   -1    0    0    0  501  0.00000000000E+00  0.00000000000E+00 -0.20708174656E+04  0.20708174656E+04  0.25500000920E-02 0. -1.
    10030    2    1    2    0    0  0.00000000000E+00  0.00000000000E+00 -0.28564717269E+03  0.38559877586E+04  0.38453929952E+04 0.  0.
        5    1    3    3  502    0 -0.74181834857E+03  0.17706034797E+04 -0.24992885908E+03  0.19359281157E+04  0.46999998093E+01 0. -1.
       -5    1    3    3    0  502  0.74181834857E+03 -0.17706034797E+04 -0.35718313610E+02  0.19200596429E+04  0.46999998093E+01 0.  1.
</event>
<event>
 5   0  0.1070988E-07  0.3847668E+04  0.7818609E-02  0.8036002E-01
        1   -1    0    0  501    0  0.00000000000E+00  0.00000000000E+00  0.30476488083E+04  0.30476488083E+04  0.50400001928E-02 0.  1.
       -1   -1    0    0    0  501  0.00000000000E+00  0.00000000000E+00 -0.12144239417E+04  0.12144239417E+04  0.50400001928E-02 0. -1.
    10030    2    1    2    0    0  0.00000000000E+00  0.00000000000E+00  0.18332248666E+04  0.42620727500E+04  0.38476682179E+04 0.  0.
        2    1    3    3  502    0  0.10609664847E+04 -0.68409592210E+03  0.25246903668E+04  0.28227112074E+04  0.25500000920E-02 0.  1.
       -2    1    3    3    0  502 -0.10609664847E+04  0.68409592210E+03 -0.69146550021E+03  0.14393615426E+04  0.25500000920E-02 0. -1.
</event>
<event>
 5   0  0.1084315E-07  0.3591426E+04  0.7818609E-02  0.8092459E-01
        1   -1    0    0  501    0  0.00000000000E+00  0.00000000000E+00  0.11804527540E+04  0.11804527540E+04  0.50400001928E-02 0. -1.
       -1   -1    0    0    0  501  0.00000000000E+00  0.00000000000E+00 -0.27316506129E+04  0.27316506129E+04  0.50400001928E-02 0.  1.
    10030    2    1    2    0    0  0.00000000000E+00  0.00000000000E+00 -0.15511978589E+04  0.39121033669E+04  0.35914256161E+04 0.  0.
        4    1    3    3  502    0  0.55419566137E+03  0.17026651609E+04 -0.92328266865E+03  0.20146101311E+04  0.12699999809E+01 0.  1.
       -4    1    3    3    0  502 -0.55419566137E+03 -0.17026651609E+04 -0.62791519022E+03  0.18974932359E+04  0.12699999809E+01 0. -1.
</event>
<event>
 5   0  0.3509843E-07  0.3770199E+04  0.7818609E-02  0.8052581E-01
       -2   -1    0    0    0  501  0.00000000000E+00  0.00000000000E+00  0.17353055862E+04  0.17353055862E+04  0.25500000920E-02 0.  1.
        2   -1    0    0  501    0  0.00000000000E+00  0.00000000000E+00 -0.20478235666E+04  0.20478235666E+04  0.25500000920E-02 0. -1.
    10030    2    1    2    0    0  0.00000000000E+00  0.00000000000E+00 -0.31251798046E+03  0.37831291528E+04  0.37701987612E+04 0.  0.
        4    1    3    3  502    0  0.15901515329E+03 -0.17180039288E+04 -0.91832052133E+03  0.19545172067E+04  0.12699999809E+01 0.  1.
       -4    1    3    3    0  502 -0.15901515329E+03  0.17180039288E+04  0.60580254088E+03  0.18286119462E+04  0.12699999809E+01 0. -1.
</event>
<event>
 5   0  0.3327241E-07  0.3755657E+04  0.7818609E-02  0.8055738E-01
       -2   -1    0    0    0  501  0.00000000000E+00  0.00000000000E+00  0.19225016212E+04  0.19225016212E+04  0.25500000920E-02 0. -1.
        2   -1    0    0  501    0  0.00000000000E+00  0.00000000000E+00 -0.18341936418E+04  0.18341936418E+04  0.25500000920E-02 0.  1.
    10030    2    1    2    0    0  0.00000000000E+00  0.00000000000E+00  0.88307979497E+02  0.37566952630E+04  0.37556571995E+04 0.  0.
        3    1    3    3  502    0 -0.87303660936E+03  0.99498698399E+02  0.17041750831E+04  0.19173694574E+04  0.10100000352E+00 0. -1.
       -3    1    3    3    0  502  0.87303660936E+03 -0.99498698399E+02 -0.16158671036E+04  0.18393258056E+04  0.10100000352E+00 0.  1.
</event>
<event>
 5   0  0.1085771E-07  0.3817509E+04  0.7818609E-02  0.8042408E-01
       -1   -1    0    0    0  501  0.00000000000E+00  0.00000000000E+00  0.16142204932E+04  0.16142204932E+04  0.50400001928E-02 0.  1.
        1   -1    0    0  501    0  0.00000000000E+00  0.00000000000E+00 -0.22570296300E+04  0.22570296300E+04  0.50400001928E-02 0. -1.
    10030    2    1    2    0    0  0.00000000000E+00  0.00000000000E+00 -0.64280913688E+03  0.38712501232E+04  0.38175088644E+04 0.  0.
        1    1    3    3  502    0  0.82564534521E+03 -0.57102330452E+03  0.13248983333E+04  0.16622615450E+04  0.50400001928E-02 0.  1.
       -1    1    3    3    0  502 -0.82564534521E+03  0.57102330452E+03 -0.19677074702E+04  0.22089885782E+04  0.50400001928E-02 0. -1.
</event>
<event>
 5   0  0.1070988E-07  0.3805286E+04  0.7818609E-02  0.8045022E-01
        1   -1    0    0  501    0  0.00000000000E+00  0.00000000000E+00  0.13040752808E+04  0.13040752808E+04  0.50400001928E-02 0.  1.
       -1   -1    0    0    0  501  0.00000000000E+00  0.00000000000E+00 -0.27759515844E+04  0.27759515844E+04  0.50400001928E-02 0. -1.
    10030    2    1    2    0    0  0.00000000000E+00  0.00000000000E+00 -0.14718763036E+04  0.40800268652E+04  0.38052857143E+04 0.  0.
        3    1    3    3  502    0 -0.97323410319E+03 -0.14915559248E+04 -0.18183710227E+02  0.17810823546E+04  0.10100000352E+00 0. -1.
       -3    1    3    3    0  502  0.97323410319E+03  0.14915559248E+04 -0.14536925933E+04  0.22989445105E+04  0.10100000352E+00 0.  1.
</event>
<event>
 5   0  0.1070988E-07  0.3765978E+04  0.7818609E-02  0.8053496E-01
        1   -1    0    0  501    0  0.00000000000E+00  0.00000000000E+00  0.21103862697E+04  0.21103862697E+04  0.50400001928E-02 0. -1.
       -1   -1    0    0    0  501  0.00000000000E+00  0.00000000000E+00 -0.16800936994E+04  0.16800936994E+04  0.50400001928E-02 0.  1.
    10030    2    1    2    0    0  0.00000000000E+00  0.00000000000E+00  0.43029257026E+03  0.37904799691E+04  0.37659775225E+04 0.  0.
        2    1    3    3  502    0  0.15512932012E+04 -0.72959026072E+02 -0.85658821143E+03  0.17735774524E+04  0.25500000920E-02 0.  1.
       -2    1    3    3    0  502 -0.15512932012E+04  0.72959026072E+02  0.12868807817E+04  0.20169025167E+04  0.25500000920E-02 0. -1.
</event>
<event>
 5   0  0.1070988E-07  0.3900560E+04  0.7818609E-02  0.8024913E-01
        1   -1    0    0  501    0  0.00000000000E+00  0.00000000000E+00  0.15929851854E+04  0.15929851855E+04  0.50400001928E-02 0.  1.
       -1   -1    0    0    0  501  0.00000000000E+00  0.00000000000E+00 -0.23877127921E+04  0.23877127921E+04  0.50400001928E-02 0. -1.
    10030    2    1    2    0    0  0.00000000000E+00  0.00000000000E+00 -0.79472760664E+03  0.39806979775E+04  0.39005595009E+04 0.  0.
        2    1    3    3  502    0 -0.16004475524E+04  0.11136766043E+04 -0.44165074631E+03  0.19991906684E+04  0.25500000920E-02 0.  1.
       -2    1    3    3    0  502  0.16004475524E+04 -0.11136766043E+04 -0.35307686033E+03  0.19815073091E+04  0.25500000920E-02 0. -1.
</event>
<event>
 5   0  0.3377396E-07  0.3792732E+04  0.7818609E-02  0.8047716E-01
        2   -1    0    0  501    0  0.00000000000E+00  0.00000000000E+00  0.12416566486E+04  0.12416566486E+04  0.25500000920E-02 0. -1.
       -2   -1    0    0    0  501  0.00000000000E+00  0.00000000000E+00 -0.28962943694E+04  0.28962943694E+04  0.25500000920E-02 0.  1.
    10030    2    1    2    0    0  0.00000000000E+00  0.00000000000E+00 -0.16546377208E+04  0.41379510180E+04  0.37927315539E+04 0.  0.
        5    1    3    3  502    0  0.18558778380E+04  0.36289420669E+03 -0.67223135772E+03  0.20069608474E+04  0.46999998093E+01 0. -1.
       -5    1    3    3    0  502 -0.18558778380E+04 -0.36289420669E+03 -0.98240636307E+03  0.21309901706E+04  0.46999998093E+01 0.  1.
</event>
<event>
 5   0  0.1070988E-07  0.3790180E+04  0.7818609E-02  0.8048266E-01
       -3   -1    0    0    0  501  0.00000000000E+00  0.00000000000E+00  0.16896080675E+04  0.16896080705E+04  0.10100000352E+00 0. -1.
        3   -1    0    0  501    0  0.00000000000E+00  0.00000000000E+00 -0.21255612734E+04  0.21255612758E+04  0.10100000352E+00 0.  1.
    10030    2    1    2    0    0  0.00000000000E+00  0.00000000000E+00 -0.43595320593E+03  0.38151693464E+04  0.37901796717E+04 0.  0.
        4    1    3    3  502    0  0.14871802130E+04  0.89913194265E+03 -0.97875113679E+03  0.19945171438E+04  0.12699999809E+01 0.  1.
       -4    1    3    3    0  502 -0.14871802130E+04 -0.89913194265E+03  0.54279793085E+03  0.18206522026E+04  0.12699999809E+01 0. -1.
</event>
<event>
 5   0  0.1070988E-07  0.3812448E+04  0.7818609E-02  0.8043489E-01
        1   -1    0    0  501    0  0.00000000000E+00  0.00000000000E+00  0.23222591160E+04  0.23222591160E+04  0.50400001928E-02 0.  1.
       -1   -1    0    0    0  501  0.00000000000E+00  0.00000000000E+00 -0.15647223335E+04  0.15647223335E+04  0.50400001928E-02 0. -1.
    10030    2    1    2    0    0  0.00000000000E+00  0.00000000000E+00  0.75753678243E+03  0.38869814495E+04  0.38124484012E+04 0.  0.
        3    1    3    3  502    0  0.44169718814E+03 -0.50407344372E+03  0.21981735001E+04  0.22980759755E+04  0.10100000352E+00 0.  1.
       -3    1    3    3    0  502 -0.44169718814E+03  0.50407344372E+03 -0.14406367177E+04  0.15889054740E+04  0.10100000352E+00 0. -1.
</event>
<event>
 5   0  0.1070988E-07  0.3814201E+04  0.7818609E-02  0.8043114E-01
        1   -1    0    0  501    0  0.00000000000E+00  0.00000000000E+00  0.23538832786E+04  0.23538832786E+04  0.50400001928E-02 0. -1.
       -1   -1    0    0    0  501  0.00000000000E+00  0.00000000000E+00 -0.15451199743E+04  0.15451199743E+04  0.50400001928E-02 0.  1.
    10030    2    1    2    0    0  0.00000000000E+00  0.00000000000E+00  0.80876330435E+03  0.38990032529E+04  0.38142008709E+04 0.  0.
        5    1    3    3  502    0 -0.37478292536E+03  0.95618839704E+03 -0.12382844864E+04  0.16087663134E+04  0.46999998093E+01 0.  1.
       -5    1    3    3    0  502  0.37478292536E+03 -0.95618839704E+03  0.20470477907E+04  0.22902369396E+04  0.46999998093E+01 0. -1.
</event>
<event>
 5   0  0.1085771E-07  0.3857554E+04  0.7818609E-02  0.8033916E-01
       -1   -1    0    0    0  501  0.00000000000E+00  0.00000000000E+00  0.13530144990E+04  0.13530144990E+04  0.50400001928E-02 0. -1.
        1   -1    0    0  501    0  0.00000000000E+00  0.00000000000E+00 -0.27495494938E+04  0.27495494938E+04  0.50400001928E-02 0.  1.
    10030    2    1    2    0    0  0.00000000000E+00  0.00000000000E+00 -0.13965349948E+04  0.41025639928E+04  0.38575538005E+04 0.  0.
        1    1    3    3  502    0  0.85564169672E+03 -0.12406769704E+04 -0.19783687849E+04  0.24870354053E+04  0.50400001928E-02 0.  1.
       -1    1    3    3    0  502 -0.85564169672E+03  0.12406769704E+04  0.58183379004E+03  0.16155285876E+04  0.50400001928E-02 0. -1.
</event>
<event>
 5   0  0.3442126E-07  0.3861670E+04  0.7818609E-02  0.8033049E-01
        2   -1    0    0  501    0  0.00000000000E+00  0.00000000000E+00  0.17844227573E+04  0.17844227573E+04  0.25500000920E-02 0. -1.
       -2   -1    0    0    0  501  0.00000000000E+00  0.00000000000E+00 -0.20892598737E+04  0.20892598737E+04  0.25500000920E-02 0.  1.
    10030    2    1    2    0    0  0.00000000000E+00  0.00000000000E+00 -0.30483711637E+03  0.38736826310E+04  0.38616695169E+04 0.  0.
        2    1    3    3  502    0 -0.13096433590E+04  0.80132679626E+03 -0.13268863972E+04  0.20292653531E+04  0.25500000920E-02 0.  1.
       -2    1    3    3    0  502  0.13096433590E+04 -0.80132679626E+03  0.10220492809E+04  0.18444172778E+04  0.25500000920E-02 0. -1.
</event>
<event>
 5   0  0.3539010E-07  0.3775839E+04  0.7818609E-02  0.8051360E-01
       -2   -1    0    0    0  501  0.00000000000E+00  0.00000000000E+00  0.13154809632E+04  0.13154809632E+04  0.25500000920E-02 0.  1.
        2   -1    0    0  501    0  0.00000000000E+00  0.00000000000E+00 -0.27094575364E+04  0.27094575364E+04  0.25500000920E-02 0. -1.
    10030    2    1    2    0    0  0.00000000000E+00  0.00000000000E+00 -0.13939765732E+04  0.40249384996E+04  0.37758388789E+04 0.  0.
        1    1    3    3  502    0 -0.64666465105E+03 -0.16727712576E+04 -0.13257319303E+04  0.22302251012E+04  0.50400001928E-02 0. -1.
       -1    1    3    3    0  502  0.64666465105E+03  0.16727712576E+04 -0.68244642879E+02  0.17947133984E+04  0.50400001928E-02 0.  1.
</event>
<event>
 5   0  0.1070988E-07  0.3672528E+04  0.7818609E-02  0.8074077E-01
       -1   -1    0    0    0  501  0.00000000000E+00  0.00000000000E+00  0.18943444851E+04  0.18943444851E+04  0.50400001928E-02 0. -1.
        1   -1    0    0  501    0  0.00000000000E+00  0.00000000000E+00 -0.17799637748E+04  0.17799637748E+04  0.50400001928E-02 0.  1.
    10030    2    1    2    0    0  0.00000000000E+00  0.00000000000E+00  0.11438071031E+03  0.36743082599E+04  0.36725275005E+04 0.  0.
        2    1    3    3  502    0 -0.55989794526E+03 -0.10825448830E+04 -0.13169658676E+04  0.17943768359E+04  0.25500000920E-02 0.  1.
       -2    1    3    3    0  502  0.55989794526E+03  0.10825448830E+04  0.14313465779E+04  0.18799314240E+04  0.25500000920E-02 0. -1.
</event>
<event>
 5   0  0.1070988E-07  0.3851906E+04  0.7818609E-02  0.8035107E-01
        1   -1    0    0  501    0  0.00000000000E+00  0.00000000000E+00  0.21318504333E+04  0.21318504333E+04  0.50400001928E-02 0. -1.
       -1   -1    0    0    0  501  0.00000000000E+00  0.00000000000E+00 -0.17399418790E+04  0.17399418790E+04  0.50400001928E-02 0.  1.
    10030    2    1    2    0    0  0.00000000000E+00  0.00000000000E+00  0.39190855436E+03  0.38717923123E+04  0.38519064624E+04 0.  0.
        3    1    3    3  502    0  0.10272709012E+04 -0.12979063500E+04  0.11856436411E+04  0.20360739799E+04  0.10100000352E+00 0.  1.
       -3    1    3    3    0  502 -0.10272709012E+04  0.12979063500E+04 -0.79373508675E+03  0.18357183324E+04  0.10100000352E+00 0. -1.
</event>
<event>
 5   0  0.3442126E-07  0.3777563E+04  0.7818609E-02  0.8050987E-01
        2   -1    0    0  501    0  0.00000000000E+00  0.00000000000E+00  0.26327315885E+04  0.26327315885E+04  0.25500000920E-02 0.  1.
       -2   -1    0    0    0  501  0.00000000000E+00  0.00000000000E+00 -0.13550548200E+04  0.13550548200E+04  0.25500000920E-02 0. -1.
    10030    2    1    2    0    0  0.00000000000E+00  0.00000000000E+00  0.12776767685E+04  0.39877864085E+04  0.37775630392E+04 0.  0.
        2    1    3    3  502    0 -0.56503717813E+03 -0.10580384044E+04 -0.90139276016E+03  0.15004070067E+04  0.25500000920E-02 0. -1.
       -2    1    3    3    0  502  0.56503717813E+03  0.10580384044E+04  0.21790695286E+04  0.24873794018E+04  0.25500000920E-02 0.  1.
</event>
<event>
 5   0  0.3327241E-07  0.3793867E+04  0.7818609E-02  0.8047472E-01
       -2   -1    0    0    0  501  0.00000000000E+00  0.00000000000E+00  0.16403675950E+04  0.16403675950E+04  0.25500000920E-02 0.  1.
        2   -1    0    0  501    0  0.00000000000E+00  0.00000000000E+00 -0.21936277137E+04  0.21936277137E+04  0.25500000920E-02 0. -1.
    10030    2    1    2    0    0  0.00000000000E+00  0.00000000000E+00 -0.55326011873E+03  0.38339953086E+04  0.37938665327E+04 0.  0.
        3    1    3    3  502    0  0.74901768071E+03  0.13681683581E+03 -0.20324217690E+04  0.21703650822E+04  0.10100000352E+00 0. -1.
       -3    1    3    3    0  502 -0.74901768071E+03 -0.13681683581E+03  0.14791616503E+04  0.16636302265E+04  0.10100000352E+00 0.  1.
</event>
<event>
 5   0  0.1085771E-07  0.3692232E+04  0.7818609E-02  0.8069685E-01
        1   -1    0    0  501    0  0.00000000000E+00  0.00000000000E+00  0.23633840750E+04  0.23633840750E+04  0.50400001928E-02 0. -1.
       -1   -1    0    0    0  501  0.00000000000E+00  0.00000000000E+00 -0.14420611923E+04  0.14420611923E+04  0.50400001928E-02 0.  1.
    10030    2    1    2    0    0  0.00000000000E+00  0.00000000000E+00  0.92132288275E+03  0.38054452673E+04  0.36922320930E+04 0.  0.
        1    1    3    3  502    0  0.14453747526E+04 -0.81248803118E+03  0.12972772558E+04  0.21052727270E+04  0.50400001928E-02 0. -1.
       -1    1    3    3    0  502 -0.14453747526E+04  0.81248803118E+03 -0.37595437305E+03  0.17001725404E+04  0.50400001928E-02 0.  1.
</event>
<event>
 5   0  0.3442126E-07  0.3794891E+04  0.7818609E-02  0.8047252E-01
       -2   -1    0    0    0  501  0.00000000000E+00  0.00000000000E+00  0.19208927556E+04  0.19208927556E+04  0.25500000920E-02 0.  1.
        2   -1    0    0  501    0  0.00000000000E+00  0.00000000000E+00 -0.18742847316E+04  0.18742847316E+04  0.25500000920E-02 0. -1.
    10030    2    1    2    0    0  0.00000000000E+00  0.00000000000E+00  0.46608024006E+02  0.37951774872E+04  0.37948912832E+04 0.  0.
        2    1    3    3  502    0  0.17632292247E+04 -0.61507014929E+03  0.35950101104E+03  0.19017175301E+04  0.25500000920E-02 0.  1.
       -2    1    3    3    0  502 -0.17632292247E+04  0.61507014929E+03 -0.31289298703E+03  0.18934599570E+04  0.25500000920E-02 0. -1.
</event>
<event>
 5   0  0.1084315E-07  0.3809116E+04  0.7818609E-02  0.8044201E-01
       -1   -1    0    0    0  501  0.00000000000E+00  0.00000000000E+00  0.25653558600E+04  0.25653558600E+04  0.50400001928E-02 0.  1.
        1   -1    0    0  501    0  0.00000000000E+00  0.00000000000E+00 -0.14139718768E+04  0.14139718768E+04  0.50400001928E-02 0. -1.
    10030    2    1    2    0    0  0.00000000000E+00  0.00000000000E+00  0.11513839832E+04  0.39793277367E+04  0.38091159289E+04 0.  0.
        4    1    3    3  502    0  0.11589357161E+04 -0.22650081984E+03 -0.98537170248E+03  0.15379836216E+04  0.12699999809E+01 0. -1.
       -4    1    3    3    0  502 -0.11589357161E+04  0.22650081984E+03  0.21367556857E+04  0.24413441151E+04  0.12699999809E+01 0.  1.
</event>
<event>
 5   0  0.1070988E-07  0.3812068E+04  0.7818609E-02  0.8043570E-01
       -1   -1    0    0    0  501  0.00000000000E+00  0.00000000000E+00  0.16869250842E+04  0.16869250842E+04  0.50400001928E-02 0. -1.
        1   -1    0    0  501    0  0.00000000000E+00  0.00000000000E+00 -0.21536026681E+04  0.21536026681E+04  0.50400001928E-02 0.  1.
    10030    2    1    2    0    0  0.00000000000E+00  0.00000000000E+00 -0.46667758385E+03  0.38405277523E+04  0.38120683951E+04 0.  0.
        3    1    3    3  502    0 -0.13453419736E+04  0.60673601426E+03 -0.14485330573E+04  0.20679268955E+04  0.10100000352E+00 0.  1.
       -3    1    3    3    0  502  0.13453419736E+04 -0.60673601426E+03  0.98185547342E+03  0.17726008569E+04  0.10100000352E+00 0. -1.
</event>
<event>
 5   0  0.3377396E-07  0.3827438E+04  0.7818609E-02  0.8040292E-01
        2   -1    0    0  501    0  0.00000000000E+00  0.00000000000E+00  0.27003651943E+04  0.27003651943E+04  0.25500000920E-02 0. -1.
       -2   -1    0    0    0  501  0.00000000000E+00  0.00000000000E+00 -0.13562314643E+04  0.13562314643E+04  0.25500000920E-02 0.  1.
    10030    2    1    2    0    0  0.00000000000E+00  0.00000000000E+00  0.13441337300E+04  0.40565966586E+04  0.38274379115E+04 0.  0.
        5    1    3    3  502    0  0.12287619830E+04 -0.99004332873E+03  0.18195993030E+04  0.24085276659E+04  0.46999998093E+01 0. -1.
       -5    1    3    3    0  502 -0.12287619830E+04  0.99004332873E+03 -0.47546557303E+03  0.16480689927E+04  0.46999998093E+01 0.  1.
</event>
<event>
 5   0  0.3442126E-07  0.3792738E+04  0.7818609E-02  0.8047715E-01
        2   -1    0    0  501    0  0.00000000000E+00  0.00000000000E+00  0.16864266167E+04  0.16864266167E+04  0.25500000920E-02 0.  1.
       -2   -1    0    0    0  501  0.00000000000E+00  0.00000000000E+00 -0.21324469121E+04  0.21324469121E+04  0.25500000920E-02 0. -1.
    10030    2    1    2    0    0  0.00000000000E+00  0.00000000000E+00 -0.44602029535E+03  0.38188735288E+04  0.37927379194E+04 0.  0.
        2    1    3    3  502    0 -0.58545936807E+03 -0.37350307226E+03 -0.19998084116E+04  0.21169555734E+04  0.25500000920E-02 0. -1.
       -2    1    3    3    0  502  0.58545936807E+03  0.37350307226E+03  0.15537881163E+04  0.17019179554E+04  0.25500000920E-02 0.  1.
</event>
<event>
 5   0  0.1070988E-07  0.3788967E+04  0.7818609E-02  0.8048527E-01
       -3   -1    0    0    0  501  0.00000000000E+00  0.00000000000E+00  0.21342065272E+04  0.21342065296E+04  0.10100000352E+00 0.  1.
        3   -1    0    0  501    0  0.00000000000E+00  0.00000000000E+00 -0.16816874969E+04  0.16816874999E+04  0.10100000352E+00 0. -1.
    10030    2    1    2    0    0  0.00000000000E+00  0.00000000000E+00  0.45251903030E+03  0.38158940295E+04  0.37889673753E+04 0.  0.
        3    1    3    3  502    0  0.10557618577E+04  0.14795018687E+04  0.76438772808E+03  0.19717625335E+04  0.10100000352E+00 0. -1.
       -3    1    3    3    0  502 -0.10557618577E+04 -0.14795018687E+04 -0.31186869778E+03  0.18441314960E+04  0.10100000352E+00 0.  1.
</event>
<event>
 5   0  0.1070988E-07  0.3747960E+04  0.7818609E-02  0.8057416E-01
        1   -1    0    0  501    0  0.00000000000E+00  0.00000000000E+00  0.23354902771E+04  0.23354902772E+04  0.50400001928E-02 0.  1.
       -1   -1    0    0    0  501  0.00000000000E+00  0.00000000000E+00 -0.15036674657E+04  0.15036674657E+04  0.50400001928E-02 0. -1.
    10030    2    1    2    0    0  0.00000000000E+00  0.00000000000E+00  0.83182281146E+03  0.38391577428E+04  0.37479598430E+04 0.  0.
        2    1    3    3  502    0  0.12727241121E+04 -0.10893096262E+04 -0.44439305224E+03  0.17331783844E+04  0.25500000920E-02 0. -1.
       -2    1    3    3    0  502 -0.12727241121E+04  0.10893096262E+04  0.12762158637E+04  0.21059793584E+04  0.25500000920E-02 0.  1.
</event>
<event>
 5   0  0.1085771E-07  0.3729020E+04  0.7818609E-02  0.8061561E-01
        1   -1    0    0  501    0  0.00000000000E+00  0.00000000000E+00  0.24240192702E+04  0.24240192702E+04  0.50400001928E-02 0.  1.
       -1   -1    0    0    0  501  0.00000000000E+00  0.00000000000E+00 -0.14341460502E+04  0.14341460502E+04  0.50400001928E-02 0. -1.
    10030    2    1    2    0    0  0.00000000000E+00  0.00000000000E+00  0.98987322005E+03  0.38581653204E+04  0.37290200654E+04 0.  0.
        1    1    3    3  502    0  0.97832996027E+03  0.24106864138E+03  0.21180748622E+04  0.23455244026E+04  0.50400001928E-02 0.  1.
       -1    1    3    3    0  502 -0.97832996027E+03 -0.24106864138E+03 -0.11282016422E+04  0.15126409179E+04  0.50400001928E-02 0. -1.
</event>
<event>
 5   0  0.3442126E-07  0.3796810E+04  0.7818609E-02  0.8046840E-01
       -2   -1    0    0    0  501  0.00000000000E+00  0.00000000000E+00  0.15133281867E+04  0.15133281867E+04  0.25500000920E-02 0. -1.
        2   -1    0    0  501    0  0.00000000000E+00  0.00000000000E+00 -0.23814667261E+04  0.23814667261E+04  0.25500000920E-02 0.  1.
    10030    2    1    2    0    0  0.00000000000E+00  0.00000000000E+00 -0.86813853941E+03  0.38947949128E+04  0.37968095671E+04 0.  0.
        2    1    3    3  502    0  0.15783094091E+04  0.10207463806E+04 -0.16081731779E+03  0.18864903853E+04  0.25500000920E-02 0. -1.
       -2    1    3    3    0  502 -0.15783094091E+04 -0.10207463806E+04 -0.70732122162E+03  0.20083045274E+04  0.25500000920E-02 0.  1.
</event>
<event>
 5   0  0.1085771E-07  0.3492303E+04  0.7818609E-02  0.8115617E-01
       -1   -1    0    0    0  501  0.00000000000E+00  0.00000000000E+00  0.13817912989E+04  0.13817912989E+04  0.50400001928E-02 0. -1.
        1   -1    0    0  501    0  0.00000000000E+00  0.00000000000E+00 -0.22065881333E+04  0.22065881333E+04  0.50400001928E-02 0.  1.
    10030    2    1    2    0    0  0.00000000000E+00  0.00000000000E+00 -0.82479683438E+03  0.35883794322E+04  0.34923025544E+04 0.  0.
        1    1    3    3  502    0  0.12010979499E+04 -0.95434977710E+03 -0.12693848213E+04  0.19911699091E+04  0.50400001928E-02 0.  1.
       -1    1    3    3    0  502 -0.12010979499E+04  0.95434977710E+03  0.44458798694E+03  0.15972095231E+04  0.50400001928E-02 0. -1.
</event>
<event>
 5   0  0.3377396E-07  0.3789905E+04  0.7818609E-02  0.8048325E-01
       -2   -1    0    0    0  501  0.00000000000E+00  0.00000000000E+00  0.10945593398E+04  0.10945593398E+04  0.25500000920E-02 0.  1.
        2   -1    0    0  501    0  0.00000000000E+00  0.00000000000E+00 -0.32806298705E+04  0.32806298705E+04  0.25500000920E-02 0. -1.
    10030    2    1    2    0    0  0.00000000000E+00  0.00000000000E+00 -0.21860705307E+04  0.43751892103E+04  0.37899045187E+04 0.  0.
        5    1    3    3  502    0  0.18918565007E+03 -0.66270074514E+03  0.94474538105E+03  0.11694141323E+04  0.46999998093E+01 0.  1.
       -5    1    3    3    0  502 -0.18918565007E+03  0.66270074514E+03 -0.31308159117E+04  0.32057750780E+04  0.46999998093E+01 0. -1.
</event>
<event>
 5   0  0.1070988E-07  0.3819937E+04  0.7818609E-02  0.8041890E-01
        1   -1    0    0  501    0  0.00000000000E+00  0.00000000000E+00  0.13300900299E+04  0.13300900299E+04  0.50400001928E-02 0. -1.
       -1   -1    0    0    0  501  0.00000000000E+00  0.00000000000E+00 -0.27426559202E+04  0.27426559202E+04  0.50400001928E-02 0.  1.
    10030    2    1    2    0    0  0.00000000000E+00  0.00000000000E+00 -0.14125658904E+04  0.40727459501E+04  0.38199368031E+04 0.  0.
        3    1    3    3  502    0 -0.21780354058E+03  0.45846423093E+03  0.12568671378E+04  0.13554862026E+04  0.10100000352E+00 0. -1.
       -3    1    3    3    0  502  0.21780354058E+03 -0.45846423093E+03 -0.26694330281E+04  0.27172597475E+04  0.10100000352E+00 0.  1.
</event>
<event>
 5   0  0.1070988E-07  0.3878567E+04  0.7818609E-02  0.8029502E-01
       -1   -1    0    0    0  501  0.00000000000E+00  0.00000000000E+00  0.14422769207E+04  0.14422769207E+04  0.50400001928E-02 0.  1.
        1   -1    0    0  501    0  0.00000000000E+00  0.00000000000E+00 -0.26075574365E+04  0.26075574365E+04  0.50400001928E-02 0. -1.
    10030    2    1    2    0    0  0.00000000000E+00  0.00000000000E+00 -0.11652805158E+04  0.40498343573E+04  0.38785666993E+04 0.  0.
        5    1    3    3  502    0  0.96458175966E+03  0.40454741911E+03  0.11224791816E+04  0.15342940359E+04  0.46999998093E+01 0.  1.
       -5    1    3    3    0  502 -0.96458175966E+03 -0.40454741911E+03 -0.22877596974E+04  0.25155403214E+04  0.46999998093E+01 0. -1.
</event>
<event>
 5   0  0.3442126E-07  0.3813818E+04  0.7818609E-02  0.8043196E-01
        2   -1    0    0  501    0  0.00000000000E+00  0.00000000000E+00  0.22437733646E+04  0.22437733646E+04  0.25500000920E-02 0. -1.
       -2   -1    0    0    0  501  0.00000000000E+00  0.00000000000E+00 -0.16206188361E+04  0.16206188361E+04  0.25500000920E-02 0.  1.
    10030    2    1    2    0    0  0.00000000000E+00  0.00000000000E+00  0.62315452846E+03  0.38643922007E+04  0.38138177086E+04 0.  0.
        2    1    3    3  502    0 -0.39191588864E+03  0.58757565308E+03 -0.14831986715E+04  0.16427785946E+04  0.25500000920E-02 0.  1.
       -2    1    3    3    0  502  0.39191588864E+03 -0.58757565308E+03  0.21063532000E+04  0.22216136061E+04  0.25500000920E-02 0. -1.
</event>
<event>
 5   0  0.1085771E-07  0.3825231E+04  0.7818609E-02  0.8040762E-01
       -1   -1    0    0    0  501  0.00000000000E+00  0.00000000000E+00  0.16528648621E+04  0.16528648622E+04  0.50400001928E-02 0.  1.
        1   -1    0    0  501    0  0.00000000000E+00  0.00000000000E+00 -0.22131858452E+04  0.22131858452E+04  0.50400001928E-02 0. -1.
    10030    2    1    2    0    0  0.00000000000E+00  0.00000000000E+00 -0.56032098309E+03  0.38660507074E+04  0.38252305118E+04 0.  0.
        1    1    3    3  502    0  0.94701364696E+03  0.15198282567E+04  0.39886046562E+03  0.18346123428E+04  0.50400001928E-02 0.  1.
       -1    1    3    3    0  502 -0.94701364696E+03 -0.15198282567E+04 -0.95918144871E+03  0.20314383646E+04  0.50400001928E-02 0. -1.
</event>
<event>
 5   0  0.3442126E-07  0.3872556E+04  0.7818609E-02  0.8030761E-01
       -2   -1    0    0    0  501  0.00000000000E+00  0.00000000000E+00  0.18586638559E+04  0.18586638559E+04  0.25500000920E-02 0.  1.
        2   -1    0    0  501    0  0.00000000000E+00  0.00000000000E+00 -0.20171330071E+04  0.20171330071E+04  0.25500000920E-02 0. -1.
    10030    2    1    2    0    0  0.00000000000E+00  0.00000000000E+00 -0.15846915120E+03  0.38757968630E+04  0.38725558551E+04 0.  0.
        2    1    3    3  502    0 -0.12192016183E+04 -0.79485552215E+03  0.11989107074E+04  0.18856390884E+04  0.25500000920E-02 0.  1.
       -2    1    3    3    0  502  0.12192016183E+04  0.79485552215E+03 -0.13573798586E+04  0.19901577746E+04  0.25500000920E-02 0. -1.
</event>
<event>
 5   0  0.1070988E-07  0.3816608E+04  0.7818609E-02  0.8042600E-01
        1   -1    0    0  501    0  0.00000000000E+00  0.00000000000E+00  0.23385330465E+04  0.23385330466E+04  0.50400001928E-02 0. -1.
       -1   -1    0    0    0  501  0.00000000000E+00  0.00000000000E+00 -0.15572258522E+04  0.15572258522E+04  0.50400001928E-02 0.  1.
    10030    2    1    2    0    0  0.00000000000E+00  0.00000000000E+00  0.78130719431E+03  0.38957588988E+04  0.38166079790E+04 0.  0.
        2    1    3    3  502    0 -0.71176025258E+02 -0.16520579775E+04  0.13629104315E+04  0.21428687388E+04  0.25500000920E-02 0. -1.
       -2    1    3    3    0  502  0.71176025258E+02  0.16520579775E+04 -0.58160323716E+03  0.17528901600E+04  0.25500000920E-02 0.  1.
</event>
<event>
 5   0  0.1070988E-07  0.3559183E+04  0.7818609E-02  0.8099906E-01
        1   -1    0    0  501    0  0.00000000000E+00  0.00000000000E+00  0.27832353256E+04  0.27832353256E+04  0.50400001928E-02 0. -1.
       -1   -1    0    0    0  501  0.00000000000E+00  0.00000000000E+00 -0.11378649023E+04  0.11378649023E+04  0.50400001928E-02 0.  1.
    10030    2    1    2    0    0  0.00000000000E+00  0.00000000000E+00  0.16453704233E+04  0.39211002279E+04  0.35591829353E+04 0.  0.
        2    1    3    3  502    0  0.13621688895E+04  0.11247886132E+04  0.10597199167E+04  0.20600145168E+04  0.25500000920E-02 0. -1.
       -2    1    3    3    0  502 -0.13621688895E+04 -0.11247886132E+04  0.58565050660E+03  0.18610857110E+04  0.25500000920E-02 0.  1.
</event>
<event>
 5   0  0.1084315E-07  0.3804522E+04  0.7818609E-02  0.8045185E-01
        1   -1    0    0  501    0  0.00000000000E+00  0.00000000000E+00  0.16253144984E+04  0.16253144984E+04  0.50400001928E-02 0.  1.
       -1   -1    0    0    0  501  0.00000000000E+00  0.00000000000E+00 -0.22263985383E+04  0.22263985383E+04  0.50400001928E-02 0. -1.
    10030    2    1    2    0    0  0.00000000000E+00  0.00000000000E+00 -0.60108403994E+03  0.38517130367E+04  0.38045224791E+04 0.  0.
        4    1    3    3  502    0  0.10859171327E+04 -0.97823668685E+02  0.12775778609E+04  0.16795809873E+04  0.12699999809E+01 0.  1.
       -4    1    3    3    0  502 -0.10859171327E+04  0.97823668685E+02 -0.18786619008E+04  0.21721320494E+04  0.12699999809E+01 0. -1.
</event>
<event>
 5   0  0.1084315E-07  0.3815440E+04  0.7818609E-02  0.8042850E-01
       -1   -1    0    0    0  501  0.00000000000E+00  0.00000000000E+00  0.25575576142E+04  0.25575576142E+04  0.50400001928E-02 0. -1.
        1   -1    0    0  501    0  0.00000000000E+00  0.00000000000E+00 -0.14229962524E+04  0.14229962524E+04  0.50400001928E-02 0.  1.
    10030    2    1    2    0    0  0.00000000000E+00  0.00000000000E+00  0.11345613618E+04  0.39805538667E+04  0.38154396342E+04 0.  0.
        4    1    3    3  502    0 -0.34871581159E+03 -0.18750413480E+04  0.52050152211E+03  0.19769436566E+04  0.12699999809E+01 0. -1.
       -4    1    3    3    0  502  0.34871581159E+03  0.18750413480E+04  0.61405983970E+03  0.20036102100E+04  0.12699999809E+01 0.  1.
</event>
<event>
 5   0  0.1070988E-07  0.3814824E+04  0.7818609E-02  0.8042981E-01
       -1   -1    0    0    0  501  0.00000000000E+00  0.00000000000E+00  0.23597237734E+04  0.23597237734E+04  0.50400001928E-02 0. -1.
        1   -1    0    0  501    0  0.00000000000E+00  0.00000000000E+00 -0.15417997059E+04  0.15417997059E+04  0.50400001928E-02 0.  1.
    10030    2    1    2    0    0  0.00000000000E+00  0.00000000000E+00  0.81792406756E+03  0.39015234793E+04  0.38148244624E+04 0.  0.
        5    1    3    3  502    0 -0.20031081302E+02 -0.94982601604E+03 -0.12826011942E+04  0.15961386589E+04  0.46999998093E+01 0.  1.
       -5    1    3    3    0  502  0.20031081302E+02  0.94982601604E+03  0.21005252618E+04  0.23053848204E+04  0.46999998093E+01 0. -1.
</event>
<event>
 5   0  0.1070988E-07  0.3792047E+04  0.7818609E-02  0.8047864E-01
        1   -1    0    0  501    0  0.00000000000E+00  0.00000000000E+00  0.25467156342E+04  0.25467156342E+04  0.50400001928E-02 0.  1.
       -1   -1    0    0    0  501  0.00000000000E+00  0.00000000000E+00 -0.14115849752E+04  0.14115849752E+04  0.50400001928E-02 0. -1.
    10030    2    1    2    0    0  0.00000000000E+00  0.00000000000E+00  0.11351306590E+04  0.39583006094E+04  0.37920472177E+04 0.  0.
        3    1    3    3  502    0 -0.12504155958E+04 -0.11239353993E+03  0.20506795204E+04  0.24044662559E+04  0.10100000352E+00 0.  1.
       -3    1    3    3    0  502  0.12504155958E+04  0.11239353993E+03 -0.91554886142E+03  0.15538343534E+04  0.10100000352E+00 0. -1.
</event>
<event>
 5   0  0.3377396E-07  0.3878902E+04  0.7818609E-02  0.8029431E-01
       -2   -1    0    0    0  501  0.00000000000E+00  0.00000000000E+00  0.14485153057E+04  0.14485153057E+04  0.25500000920E-02 0. -1.
        2   -1    0    0  501    0  0.00000000000E+00  0.00000000000E+00 -0.25967768130E+04  0.25967768130E+04  0.25500000920E-02 0.  1.
    10030    2    1    2    0    0  0.00000000000E+00  0.00000000000E+00 -0.11482615074E+04  0.40452921187E+04  0.38789024010E+04 0.  0.
        5    1    3    3  502    0  0.19132381546E+04  0.24560511773E+03 -0.78438946508E+03  0.20823282721E+04  0.46999998093E+01 0. -1.
       -5    1    3    3    0  502 -0.19132381546E+04 -0.24560511773E+03 -0.36387204228E+03  0.19629638466E+04  0.46999998093E+01 0.  1.
</event>
<event>
 5   0  0.1070988E-07  0.3716266E+04  0.7818609E-02  0.8064367E-01
       -1   -1    0    0    0  501  0.00000000000E+00  0.00000000000E+00  0.17896919070E+04  0.17896919071E+04  0.50400001928E-02 0. -1.
        1   -1    0    0  501    0  0.00000000000E+00  0.00000000000E+00 -0.19291917913E+04  0.19291917913E+04  0.50400001928E-02 0.  1.
    10030    2    1    2    0    0  0.00000000000E+00  0.00000000000E+00 -0.13949988423E+03  0.37188836983E+04  0.37162663715E+04 0.  0.
        5    1    3    3  502    0  0.29768629851E+03 -0.16477426566E+04 -0.87590023198E+03  0.18896815343E+04  0.46999998093E+01 0. -1.
       -5    1    3    3    0  502 -0.29768629851E+03  0.16477426566E+04  0.73640034775E+03  0.18292021640E+04  0.46999998093E+01 0.  1.
</event>
<event>
 5   0  0.3539010E-07  0.3782896E+04  0.7818609E-02  0.8049835E-01
       -2   -1    0    0    0  501  0.00000000000E+00  0.00000000000E+00  0.14141601059E+04  0.14141601059E+04  0.25500000920E-02 0.  1.
        2   -1    0    0  501    0  0.00000000000E+00  0.00000000000E+00 -0.25298239649E+04  0.25298239649E+04  0.25500000920E-02 0. -1.
    10030    2    1    2    0    0  0.00000000000E+00  0.00000000000E+00 -0.11156638590E+04  0.39439840707E+04  0.37828963115E+04 0.  0.
        1    1    3    3  502    0  0.80766786908E+03  0.13409378781E+03  0.12198465647E+04  0.14691270102E+04  0.50400001928E-02 0.  1.
       -1    1    3    3    0  502 -0.80766786908E+03 -0.13409378781E+03 -0.23355104237E+04  0.24748570605E+04  0.50400001928E-02 0. -1.
</event>
<event>
 5   0  0.1070988E-07  0.3688774E+04  0.7818609E-02  0.8070454E-01
        1   -1    0    0  501    0  0.00000000000E+00  0.00000000000E+00  0.23986385035E+04  0.23986385035E+04  0.50400001928E-02 0.  1.
       -1   -1    0    0    0  501  0.00000000000E+00  0.00000000000E+00 -0.14182061978E+04  0.14182061978E+04  0.50400001928E-02 0. -1.
    10030    2    1    2    0    0  0.00000000000E+00  0.00000000000E+00  0.98043230578E+03  0.38168447013E+04  0.36887743178E+04 0.  0.
        3    1    3    3  502    0 -0.63035259053E+03  0.10604139672E+04  0.19089293474E+04  0.22728469887E+04  0.10100000352E+00 0.  1.
       -3    1    3    3    0  502  0.63035259053E+03 -0.10604139672E+04 -0.92849704164E+03  0.15439977127E+04  0.10100000352E+00 0. -1.
</event>
<event>
 5   0  0.1084315E-07  0.3782660E+04  0.7818609E-02  0.8049886E-01
       -1   -1    0    0    0  501  0.00000000000E+00  0.00000000000E+00  0.19315411728E+04  0.19315411728E+04  0.50400001928E-02 0.  1.
        1   -1    0    0  501    0  0.00000000000E+00  0.00000000000E+00 -0.18519554616E+04  0.18519554616E+04  0.50400001928E-02 0. -1.
    10030    2    1    2    0    0  0.00000000000E+00  0.00000000000E+00  0.79585711168E+02  0.37834966344E+04  0.37826595005E+04 0.  0.
        4    1    3    3  502    0  0.27929193321E+03 -0.14867885384E+04  0.11752015399E+04  0.19156315967E+04  0.12699999809E+01 0.  1.
       -4    1    3    3    0  502 -0.27929193321E+03  0.14867885384E+04 -0.10956158287E+04  0.18678650377E+04  0.12699999809E+01 0. -1.
</event>
<event>
 5   0  0.3539010E-07  0.3283327E+04  0.7818609E-02  0.8167151E-01
        2   -1    0    0  501    0  0.00000000000E+00  0.00000000000E+00  0.14874924663E+04  0.14874924663E+04  0.25500000920E-02 0.  1.
       -2   -1    0    0    0  501  0.00000000000E+00  0.00000000000E+00 -0.18118139750E+04  0.18118139750E+04  0.25500000920E-02 0. -1.
    10030    2    1    2    0    0  0.00000000000E+00  0.00000000000E+00 -0.32432150877E+03  0.32993064413E+04  0.32833273599E+04 0.  0.
        1    1    3    3  502    0 -0.10360048202E+04  0.12732937723E+04 -0.18409863580E+03  0.16518097123E+04  0.50400001928E-02 0. -1.
       -1    1    3    3    0  502  0.10360048202E+04 -0.12732937723E+04 -0.14022287297E+03  0.16474967290E+04  0.50400001928E-02 0.  1.
</event>
<event>
 5   0  0.3327241E-07  0.3808903E+04  0.7818609E-02  0.8044247E-01
        2   -1    0    0  501    0  0.00000000000E+00  0.00000000000E+00  0.12319431579E+04  0.12319431579E+04  0.25500000920E-02 0.  1.
       -2   -1    0    0    0  501  0.00000000000E+00  0.00000000000E+00 -0.29440770483E+04  0.29440770483E+04  0.25500000920E-02 0. -1.
    10030    2    1    2    0    0  0.00000000000E+00  0.00000000000E+00 -0.17121338904E+04  0.41760202061E+04  0.38089030315E+04 0.  0.
        3    1    3    3  502    0 -0.65827576326E+03  0.17633576081E+04 -0.53796718131E+03  0.19575918198E+04  0.10100000352E+00 0.  1.
       -3    1    3    3    0  502  0.65827576326E+03 -0.17633576081E+04 -0.11741667091E+04  0.22184283864E+04  0.10100000352E+00 0. -1.
</event>
<event>
 5   0  0.3539010E-07  0.3768247E+04  0.7818609E-02  0.8053004E-01
        2   -1    0    0  501    0  0.00000000000E+00  0.00000000000E+00  0.23246727583E+04  0.23246727583E+04  0.25500000920E-02 0.  1.
       -2   -1    0    0    0  501  0.00000000000E+00  0.00000000000E+00 -0.15270627625E+04  0.15270627625E+04  0.25500000920E-02 0. -1.
    10030    2    1    2    0    0  0.00000000000E+00  0.00000000000E+00  0.79760999585E+03  0.38517355208E+04  0.37682469155E+04 0.  0.
        1    1    3    3  502    0 -0.11095892146E+04  0.13407512738E+04  0.11366846947E+04  0.20786664712E+04  0.50400001928E-02 0. -1.
       -1    1    3    3    0  502  0.11095892146E+04 -0.13407512738E+04 -0.33907469880E+03  0.17730690496E+04  0.50400001928E-02 0.  1.
</event>
<event>
 5   0  0.3327241E-07  0.3882222E+04  0.7818609E-02  0.8028737E-01
       -2   -1    0    0    0  501  0.00000000000E+00  0.00000000000E+00  0.17892486229E+04  0.17892486229E+04  0.25500000920E-02 0. -1.
        2   -1    0    0  501    0  0.00000000000E+00  0.00000000000E+00 -0.21058631468E+04  0.21058631468E+04  0.25500000920E-02 0.  1.
    10030    2    1    2    0    0  0.00000000000E+00  0.00000000000E+00 -0.31661452387E+03  0.38951117697E+04  0.38822224230E+04 0.  0.
        3    1    3    3  502    0 -0.29030852440E+03  0.61597689350E+03 -0.19820899054E+04  0.20958022273E+04  0.10100000352E+00 0.  1.
       -3    1    3    3    0  502  0.29030852440E+03 -0.61597689350E+03  0.16654753815E+04  0.17993095424E+04  0.10100000352E+00 0. -1.
</event>
<event>
 5   0  0.3442126E-07  0.3803027E+04  0.7818609E-02  0.8045506E-01
        2   -1    0    0  501    0  0.00000000000E+00  0.00000000000E+00  0.24979414488E+04  0.24979414488E+04  0.25500000920E-02 0.  1.
       -2   -1    0    0    0  501  0.00000000000E+00  0.00000000000E+00 -0.14474933710E+04  0.14474933710E+04  0.25500000920E-02 0. -1.
    10030    2    1    2    0    0  0.00000000000E+00  0.00000000000E+00  0.10504480778E+04  0.39454348198E+04  0.38030270513E+04 0.  0.
        2    1    3    3  502    0 -0.76121095325E+02  0.17017978590E+04  0.14017542847E+04  0.22060882686E+04  0.25500000920E-02 0.  1.
       -2    1    3    3    0  502  0.76121095325E+02 -0.17017978590E+04 -0.35130620685E+03  0.17393465512E+04  0.25500000920E-02 0. -1.
</event>
<event>
 5   0  0.3539010E-07  0.3826231E+04  0.7818609E-02  0.8040549E-01
        2   -1    0    0  501    0  0.00000000000E+00  0.00000000000E+00  0.19572903269E+04  0.19572903269E+04  0.25500000920E-02 0. -1.
       -2   -1    0    0    0  501  0.00000000000E+00  0.00000000000E+00 -0.18699376599E+04  0.18699376599E+04  0.25500000920E-02 0.  1.
    10030    2    1    2    0    0  0.00000000000E+00  0.00000000000E+00  0.87352666991E+02  0.38272279868E+04  0.38262309881E+04 0.  0.
        1    1    3    3  502    0 -0.66670687708E+03  0.15752842672E+04  0.90063308436E+03  0.19331731777E+04  0.50400001928E-02 0. -1.
       -1    1    3    3    0  502  0.66670687708E+03 -0.15752842672E+04 -0.81328041737E+03  0.18940548090E+04  0.50400001928E-02 0.  1.
</event>
<event>
 5   0  0.1070988E-07  0.3752931E+04  0.7818609E-02  0.8056332E-01
       -1   -1    0    0    0  501  0.00000000000E+00  0.00000000000E+00  0.15207655272E+04  0.15207655272E+04  0.50400001928E-02 0. -1.
        1   -1    0    0  501    0  0.00000000000E+00  0.00000000000E+00 -0.23153621615E+04  0.23153621615E+04  0.50400001928E-02 0.  1.
    10030    2    1    2    0    0  0.00000000000E+00  0.00000000000E+00 -0.79459663432E+03  0.38361276886E+04  0.37529310988E+04 0.  0.
        5    1    3    3  502    0 -0.42475618212E+02  0.18258380412E+04 -0.83767635211E+03  0.20092815860E+04  0.46999998093E+01 0.  1.
       -5    1    3    3    0  502  0.42475618212E+02 -0.18258380412E+04  0.43079717794E+02  0.18268461027E+04  0.46999998093E+01 0. -1.
</event>
<event>
 5   0  0.1070988E-07  0.3784017E+04  0.7818609E-02  0.8049593E-01
        1   -1    0    0  501    0  0.00000000000E+00  0.00000000000E+00  0.25710598488E+04  0.25710598488E+04  0.50400001928E-02 0.  1.
       -1   -1    0    0    0  501  0.00000000000E+00  0.00000000000E+00 -0.13923037675E+04  0.13923037675E+04  0.50400001928E-02 0. -1.
    10030    2    1    2    0    0  0.00000000000E+00  0.00000000000E+00  0.11787560813E+04  0.39633636163E+04  0.37840170792E+04 0.  0.
        5    1    3    3  502    0 -0.68208430462E+03 -0.52174622243E+03 -0.11764132819E+04  0.14565124164E+04  0.46999998093E+01 0. -1.
       -5    1    3    3    0  502  0.68208430462E+03  0.52174622243E+03  0.23551693632E+04  0.25068512000E+04  0.46999998093E+01 0.  1.
</event>
<event>
 5   0  0.3442126E-07  0.3785555E+04  0.7818609E-02  0.8049262E-01
        2   -1    0    0  501    0  0.00000000000E+00  0.00000000000E+00  0.26339667163E+04  0.26339667163E+04  0.25500000920E-02 0.  1.
       -2   -1    0    0    0  501  0.00000000000E+00  0.00000000000E+00 -0.13601564979E+04  0.13601564979E+04  0.25500000920E-02 0. -1.
    10030    2    1    2    0    0  0.00000000000E+00  0.00000000000E+00  0.12738102185E+04  0.39941232142E+04  0.37855551479E+04 0.  0.
        2    1    3    3  502    0 -0.12743969200E+04 -0.28699429055E+03  0.20820989079E+04  0.24579644210E+04  0.25500000920E-02 0.  1.
       -2    1    3    3    0  502  0.12743969200E+04  0.28699429055E+03 -0.80828868945E+03  0.15361587932E+04  0.25500000920E-02 0. -1.
</event>
<event>
 5   0  0.1070988E-07  0.3783122E+04  0.7818609E-02  0.8049787E-01
       -1   -1    0    0    0  501  0.00000000000E+00  0.00000000000E+00  0.15829946065E+04  0.15829946065E+04  0.50400001928E-02 0. -1.
        1   -1    0    0  501    0  0.00000000000E+00  0.00000000000E+00 -0.22602744384E+04  0.22602744384E+04  0.50400001928E-02 0.  1.
    10030    2    1    2    0    0  0.00000000000E+00  0.00000000000E+00 -0.67727983190E+03  0.38432690449E+04  0.37831215921E+04 0.  0.
        3    1    3    3  502    0  0.33225963599E+02 -0.81433802698E+03 -0.20727504201E+04  0.22272280307E+04  0.10100000352E+00 0.  1.
       -3    1    3    3    0  502 -0.33225963599E+02  0.81433802698E+03  0.13954705882E+04  0.16160410142E+04  0.10100000352E+00 0. -1.
</event>
<event>
 5   0  0.1070988E-07  0.3747328E+04  0.7818609E-02  0.8057554E-01
        1   -1    0    0  501    0  0.00000000000E+00  0.00000000000E+00  0.25916220561E+04  0.25916220561E+04  0.50400001928E-02 0. -1.
       -1   -1    0    0    0  501  0.00000000000E+00  0.00000000000E+00 -0.13546020914E+04  0.13546020914E+04  0.50400001928E-02 0.  1.
    10030    2    1    2    0    0  0.00000000000E+00  0.00000000000E+00  0.12370199647E+04  0.39462241475E+04  0.37473279319E+04 0.  0.
        5    1    3    3  502    0 -0.13394817410E+04 -0.12908846635E+04  0.85398515918E+03  0.20469263032E+04  0.46999998093E+01 0.  1.
       -5    1    3    3    0  502  0.13394817410E+04  0.12908846635E+04  0.38303480555E+03  0.18992978442E+04  0.46999998093E+01 0. -1.
</event>
<event>
 5   0  0.1070988E-07  0.3799693E+04  0.7818609E-02  0.8046221E-01
        1   -1    0    0  501    0  0.00000000000E+00  0.00000000000E+00  0.25703123963E+04  0.25703123963E+04  0.50400001928E-02 0. -1.
       -1   -1    0    0    0  501  0.00000000000E+00  0.00000000000E+00 -0.14042719304E+04  0.14042719304E+04  0.50400001928E-02 0.  1.
    10030    2    1    2    0    0  0.00000000000E+00  0.00000000000E+00  0.11660404659E+04  0.39745843267E+04  0.37996934353E+04 0.  0.
        2    1    3    3  502    0  0.21915121667E+03 -0.14696277063E+04  0.18213971008E+04  0.23505999765E+04  0.25500000920E-02 0. -1.
       -2    1    3    3    0  502 -0.21915121667E+03  0.14696277063E+04 -0.65535663490E+03  0.16239843502E+04  0.25500000920E-02 0.  1.
</event>
<event>
 5   0  0.3327241E-07  0.3799985E+04  0.7818609E-02  0.8046158E-01
       -2   -1    0    0    0  501  0.00000000000E+00  0.00000000000E+00  0.12131181276E+04  0.12131181276E+04  0.25500000920E-02 0.  1.
        2   -1    0    0  501    0  0.00000000000E+00  0.00000000000E+00 -0.29757793911E+04  0.29757793911E+04  0.25500000920E-02 0. -1.
    10030    2    1    2    0    0  0.00000000000E+00  0.00000000000E+00 -0.17626612635E+04  0.41888975187E+04  0.37999852226E+04 0.  0.
        3    1    3    3  502    0 -0.45883381095E+02  0.10167305565E+04  0.88728188768E+03  0.13502279317E+04  0.10100000352E+00 0.  1.
       -3    1    3    3    0  502  0.45883381095E+02 -0.10167305565E+04 -0.26499431512E+04  0.28386695870E+04  0.10100000352E+00 0. -1.
</event>
<event>
 5   0  0.1070988E-07  0.3903297E+04  0.7818609E-02  0.8024344E-01
       -3   -1    0    0    0  501  0.00000000000E+00  0.00000000000E+00  0.13910410783E+04  0.13910410820E+04  0.10100000352E+00 0.  1.
        3   -1    0    0  501    0  0.00000000000E+00  0.00000000000E+00 -0.27381884621E+04  0.27381884640E+04  0.10100000352E+00 0. -1.
    10030    2    1    2    0    0  0.00000000000E+00  0.00000000000E+00 -0.13471473837E+04  0.41292295460E+04  0.39032973970E+04 0.  0.
        5    1    3    3  502    0 -0.73178398042E+03 -0.49150512572E+03 -0.25155730849E+04  0.26655609387E+04  0.46999998093E+01 0. -1.
       -5    1    3    3    0  502  0.73178398042E+03  0.49150512572E+03  0.11684257012E+04  0.14636686072E+04  0.46999998093E+01 0.  1.
</event>
<event>
 5   0  0.3442126E-07  0.3806513E+04  0.7818609E-02  0.8044759E-01
        2   -1    0    0  501    0  0.00000000000E+00  0.00000000000E+00  0.27411635580E+04  0.27411635580E+04  0.25500000920E-02 0. -1.
       -2   -1    0    0    0  501  0.00000000000E+00  0.00000000000E+00 -0.13214772048E+04  0.13214772048E+04  0.25500000920E-02 0.  1.
    10030    2    1    2    0    0  0.00000000000E+00  0.00000000000E+00  0.14196863532E+04  0.40626407628E+04  0.38065129221E+04 0.  0.
        2    1    3    3  502    0  0.61482174714E+03 -0.29992634637E+03  0.26054188095E+04  0.26937276713E+04  0.25500000920E-02 0. -1.
       -2    1    3    3    0  502 -0.61482174714E+03  0.29992634637E+03 -0.11857324563E+04  0.13689130915E+04  0.25500000920E-02 0.  1.
</event>
<event>
 5   0  0.1070988E-07  0.3621789E+04  0.7818609E-02  0.8085519E-01
        1   -1    0    0  501    0  0.00000000000E+00  0.00000000000E+00  0.16032776332E+04  0.16032776332E+04  0.50400001928E-02 0. -1.
       -1   -1    0    0    0  501  0.00000000000E+00  0.00000000000E+00 -0.20453966557E+04  0.20453966557E+04  0.50400001928E-02 0.  1.
    10030    2    1    2    0    0  0.00000000000E+00  0.00000000000E+00 -0.44211902255E+03  0.36486742889E+04  0.36217889000E+04 0.  0.
        3    1    3    3  502    0 -0.12607487834E+04  0.99606477049E+03  0.62042910841E+03  0.17223718561E+04  0.10100000352E+00 0.  1.
       -3    1    3    3    0  502  0.12607487834E+04 -0.99606477049E+03 -0.10625481310E+04  0.19263024328E+04  0.10100000352E+00 0. -1.
</event>
<event>
 5   0  0.3327241E-07  0.3590377E+04  0.7818609E-02  0.8092700E-01
       -2   -1    0    0    0  501  0.00000000000E+00  0.00000000000E+00  0.19268719352E+04  0.19268719352E+04  0.25500000920E-02 0. -1.
        2   -1    0    0  501    0  0.00000000000E+00  0.00000000000E+00 -0.16725040382E+04  0.16725040382E+04  0.25500000920E-02 0.  1.
    10030    2    1    2    0    0  0.00000000000E+00  0.00000000000E+00  0.25436789701E+03  0.35993759735E+04  0.35903766336E+04 0.  0.
        3    1    3    3  502    0 -0.15328234506E+04  0.12257315656E+02  0.10638722580E+04  0.18658837488E+04  0.10100000352E+00 0. -1.
       -3    1    3    3    0  502  0.15328234506E+04 -0.12257315656E+02 -0.80950436094E+03  0.17334922247E+04  0.10100000352E+00 0.  1.
</event>
<event>
 5   0  0.1070988E-07  0.3739604E+04  0.7818609E-02  0.8059241E-01
       -1   -1    0    0    0  501  0.00000000000E+00  0.00000000000E+00  0.26932421191E+04  0.26932421191E+04  0.50400001928E-02 0. -1.
        1   -1    0    0  501    0  0.00000000000E+00  0.00000000000E+00 -0.12981227116E+04  0.12981227116E+04  0.50400001928E-02 0.  1.
    10030    2    1    2    0    0  0.00000000000E+00  0.00000000000E+00  0.13951194075E+04  0.39913648308E+04  0.37396035954E+04 0.  0.
        2    1    3    3  502    0  0.11378864905E+04 -0.91442314235E+03 -0.54952094576E+03  0.15597847987E+04  0.25500000920E-02 0.  1.
       -2    1    3    3    0  502 -0.11378864905E+04  0.91442314235E+03  0.19446403533E+04  0.24315800320E+04  0.25500000920E-02 0. -1.
</event>
<event>
 5   0  0.1070988E-07  0.3852924E+04  0.7818609E-02  0.8034892E-01
        1   -1    0    0  501    0  0.00000000000E+00  0.00000000000E+00  0.22223926031E+04  0.22223926031E+04  0.50400001928E-02 0. -1.
       -1   -1    0    0    0  501  0.00000000000E+00  0.00000000000E+00 -0.16699367105E+04  0.16699367105E+04  0.50400001928E-02 0.  1.
    10030    2    1    2    0    0  0.00000000000E+00  0.00000000000E+00  0.55245589258E+03  0.38923293135E+04  0.38529235616E+04 0.  0.
        5    1    3    3  502    0  0.91218347199E+03  0.81322573709E+03 -0.12282372565E+04  0.17326291104E+04  0.46999998093E+01 0. -1.
       -5    1    3    3    0  502 -0.91218347199E+03 -0.81322573709E+03  0.17806931491E+04  0.21597002031E+04  0.46999998093E+01 0.  1.
</event>
<event>
 5   0  0.1070988E-07  0.3929635E+04  0.7818609E-02  0.8018894E-01
        1   -1    0    0  501    0  0.00000000000E+00  0.00000000000E+00  0.23036314534E+04  0.23036314534E+04  0.50400001928E-02 0.  1.
       -1   -1    0    0    0  501  0.00000000000E+00  0.00000000000E+00 -0.16758353843E+04  0.16758353843E+04  0.50400001928E-02 0. -1.
    10030    2    1    2    0    0  0.00000000000E+00  0.00000000000E+00  0.62779606912E+03  0.39794668377E+04  0.39296346405E+04 0.  0.
        5    1    3    3  502    0  0.11466949763E+04  0.11232337477E+04  0.14613696929E+04  0.21707572157E+04  0.46999998093E+01 0.  1.
       -5    1    3    3    0  502 -0.11466949763E+04 -0.11232337477E+04 -0.83357362373E+03  0.18087096220E+04  0.46999998093E+01 0. -1.
</event>
<event>
 5   0  0.1070988E-07  0.3773638E+04  0.7818609E-02  0.8051836E-01
       -1   -1    0    0    0  501  0.00000000000E+00  0.00000000000E+00  0.17646564751E+04  0.17646564751E+04  0.50400001928E-02 0.  1.
        1   -1    0    0  501    0  0.00000000000E+00  0.00000000000E+00 -0.20174380932E+04  0.20174380932E+04  0.50400001928E-02 0. -1.
    10030    2    1    2    0    0  0.00000000000E+00  0.00000000000E+00 -0.25278161815E+03  0.37820945683E+04  0.37736376054E+04 0.  0.
        2    1    3    3  502    0 -0.97242018750E+02 -0.18256137331E+04 -0.59408816832E+03  0.19223064960E+04  0.25500000920E-02 0. -1.
       -2    1    3    3    0  502  0.97242018750E+02  0.18256137331E+04  0.34130655017E+03  0.18597880723E+04  0.25500000920E-02 0.  1.
</event>
<event>
 5   0  0.3509843E-07  0.3678037E+04  0.7818609E-02  0.8072846E-01
       -2   -1    0    0    0  501  0.00000000000E+00  0.00000000000E+00  0.13644521198E+04  0.13644521198E+04  0.25500000920E-02 0. -1.
        2   -1    0    0  501    0  0.00000000000E+00  0.00000000000E+00 -0.24786430862E+04  0.24786430862E+04  0.25500000920E-02 0.  1.
    10030    2    1    2    0    0  0.00000000000E+00  0.00000000000E+00 -0.11141909664E+04  0.38430952061E+04  0.36780374187E+04 0.  0.
        4    1    3    3  502    0 -0.55132170647E+03 -0.14105511142E+04 -0.16471667786E+04  0.22375813011E+04  0.12699999809E+01 0.  1.
       -4    1    3    3    0  502  0.55132170647E+03  0.14105511142E+04  0.53297581220E+03  0.16055139049E+04  0.12699999809E+01 0. -1.
</event>
<event>
 5   0  0.1084315E-07  0.3831700E+04  0.7818609E-02  0.8039386E-01
        1   -1    0    0  501    0  0.00000000000E+00  0.00000000000E+00  0.19864297192E+04  0.19864297192E+04  0.50400001928E-02 0.  1.
       -1   -1    0    0    0  501  0.00000000000E+00  0.00000000000E+00 -0.18477778081E+04  0.18477778081E+04  0.50400001928E-02 0. -1.
    10030    2    1    2    0    0  0.00000000000E+00  0.00000000000E+00  0.13865191113E+03  0.38342075273E+04  0.38316997546E+04 0.  0.
        4    1    3    3  502    0  0.13667652937E+04 -0.13114502046E+04  0.35679455587E+03  0.19274991506E+04  0.12699999809E+01 0.  1.
       -4    1    3    3    0  502 -0.13667652937E+04  0.13114502046E+04 -0.21814264473E+03  0.19067083767E+04  0.12699999809E+01 0. -1.
</event>
<event>
 5   0  0.1070988E-07  0.3838846E+04  0.7818609E-02  0.8037870E-01
        1   -1    0    0  501    0  0.00000000000E+00  0.00000000000E+00  0.18851747648E+04  0.18851747648E+04  0.50400001928E-02 0.  1.
       -1   -1    0    0    0  501  0.00000000000E+00  0.00000000000E+00 -0.19542939030E+04  0.19542939030E+04  0.50400001928E-02 0. -1.
    10030    2    1    2    0    0  0.00000000000E+00  0.00000000000E+00 -0.69119138198E+02  0.38394686678E+04  0.38388464668E+04 0.  0.
        5    1    3    3  502    0 -0.21032374859E+03  0.18944405002E+04 -0.26047794294E+03  0.19238013767E+04  0.46999998093E+01 0.  1.
       -5    1    3    3    0  502  0.21032374859E+03 -0.18944405002E+04  0.19135880474E+03  0.19156672911E+04  0.46999998093E+01 0. -1.
</event>
<event>
 5   0  0.1070988E-07  0.3788433E+04  0.7818609E-02  0.8048642E-01
        1   -1    0    0  501    0  0.00000000000E+00  0.00000000000E+00  0.29026191823E+04  0.29026191823E+04  0.50400001928E-02 0. -1.
       -1   -1    0    0    0  501  0.00000000000E+00  0.00000000000E+00 -0.12361446090E+04  0.12361446090E+04  0.50400001928E-02 0.  1.
    10030    2    1    2    0    0  0.00000000000E+00  0.00000000000E+00  0.16664745733E+04  0.41387637913E+04  0.37884334780E+04 0.  0.
        2    1    3    3  502    0  0.10120754631E+04  0.11579709276E+03 -0.91142342950E+03  0.13668936965E+04  0.25500000920E-02 0.  1.
       -2    1    3    3    0  502 -0.10120754631E+04 -0.11579709276E+03  0.25778980028E+04  0.27718700948E+04  0.25500000920E-02 0. -1.
</event>
<event>
 5   0  0.3539010E-07  0.3788422E+04  0.7818609E-02  0.8048644E-01
        2   -1    0    0  501    0  0.00000000000E+00  0.00000000000E+00  0.11729328497E+04  0.11729328497E+04  0.25500000920E-02 0.  1.
       -2   -1    0    0    0  501  0.00000000000E+00  0.00000000000E+00 -0.30590287938E+04  0.30590287938E+04  0.25500000920E-02 0. -1.
    10030    2    1    2    0    0  0.00000000000E+00  0.00000000000E+00 -0.18860959441E+04  0.42319616435E+04  0.37884220253E+04 0.  0.
        1    1    3    3  502    0  0.12202929448E+04 -0.37747645450E+03 -0.25055325898E+04  0.28123472231E+04  0.50400001928E-02 0. -1.
       -1    1    3    3    0  502 -0.12202929448E+04  0.37747645450E+03  0.61943664567E+03  0.14196144204E+04  0.50400001928E-02 0.  1.
</event>
<event>
 5   0  0.3327241E-07  0.3882556E+04  0.7818609E-02  0.8028667E-01
       -2   -1    0    0    0  501  0.00000000000E+00  0.00000000000E+00  0.25526025133E+04  0.25526025133E+04  0.25500000920E-02 0.  1.
        2   -1    0    0  501    0  0.00000000000E+00  0.00000000000E+00 -0.14763599951E+04  0.14763599951E+04  0.25500000920E-02 0. -1.
    10030    2    1    2    0    0  0.00000000000E+00  0.00000000000E+00  0.10762425182E+04  0.40289625084E+04  0.38825559797E+04 0.  0.
        3    1    3    3  502    0 -0.13845913249E+04 -0.41447098588E+03 -0.80677532418E+03  0.16552237822E+04  0.10100000352E+00 0. -1.
       -3    1    3    3    0  502  0.13845913249E+04  0.41447098588E+03  0.18830178424E+04  0.23737387262E+04  0.10100000352E+00 0.  1.
</event>
<event>
 5   0  0.3327241E-07  0.3686657E+04  0.7818609E-02  0.8070925E-01
        2   -1    0    0  501    0  0.00000000000E+00  0.00000000000E+00  0.21491605002E+04  0.21491605002E+04  0.25500000920E-02 0. -1.
       -2   -1    0    0    0  501  0.00000000000E+00  0.00000000000E+00 -0.15810176109E+04  0.15810176109E+04  0.25500000920E-02 0.  1.
    10030    2    1    2    0    0  0.00000000000E+00  0.00000000000E+00  0.56814288925E+03  0.37301781111E+04  0.36866573475E+04 0.  0.
        3    1    3    3  502    0 -0.94081704146E+03 -0.15847194589E+04  0.24637413234E+03  0.18593473834E+04  0.10100000352E+00 0.  1.
       -3    1    3    3    0  502  0.94081704146E+03  0.15847194589E+04  0.32176875690E+03  0.18708307278E+04  0.10100000352E+00 0. -1.
</event>
<event>
 5   0  0.1084315E-07  0.3863491E+04  0.7818609E-02  0.8032666E-01
        1   -1    0    0  501    0  0.00000000000E+00  0.00000000000E+00  0.16944258993E+04  0.16944258993E+04  0.50400001928E-02 0. -1.
       -1   -1    0    0    0  501  0.00000000000E+00  0.00000000000E+00 -0.22023035883E+04  0.22023035883E+04  0.50400001928E-02 0.  1.
    10030    2    1    2    0    0  0.00000000000E+00  0.00000000000E+00 -0.50787768902E+03  0.38967294876E+04  0.38634907729E+04 0.  0.
        4    1    3    3  502    0 -0.10272049679E+04 -0.64119076957E+03 -0.17720000356E+04  0.21462202562E+04  0.12699999809E+01 0.  1.
       -4    1    3    3    0  502  0.10272049679E+04  0.64119076957E+03  0.12641223466E+04  0.17505092314E+04  0.12699999809E+01 0. -1.
</event>
<event>
 5   0  0.3539010E-07  0.3829291E+04  0.7818609E-02  0.8039898E-01
        2   -1    0    0  501    0  0.00000000000E+00  0.00000000000E+00  0.11413476991E+04  0.11413476991E+04  0.25500000920E-02 0. -1.
       -2   -1    0    0    0  501  0.00000000000E+00  0.00000000000E+00 -0.32118754123E+04  0.32118754123E+04  0.25500000920E-02 0.  1.
    10030    2    1    2    0    0  0.00000000000E+00  0.00000000000E+00 -0.20705277131E+04  0.43532231114E+04  0.38292905931E+04 0.  0.
        1    1    3    3  502    0  0.18244354787E+04  0.46783003637E+03 -0.64403036052E+03  0.19905287901E+04  0.50400001928E-02 0. -1.
       -1    1    3    3    0  502 -0.18244354787E+04 -0.46783003637E+03 -0.14264973526E+04  0.23626943213E+04  0.50400001928E-02 0.  1.
</event>
<event>
 5   0  0.1070988E-07  0.3756004E+04  0.7818609E-02  0.8055663E-01
       -1   -1    0    0    0  501  0.00000000000E+00  0.00000000000E+00  0.16110194669E+04  0.16110194669E+04  0.50400001928E-02 0.  1.
        1   -1    0    0  501    0  0.00000000000E+00  0.00000000000E+00 -0.21892298621E+04  0.21892298621E+04  0.50400001928E-02 0. -1.
    10030    2    1    2    0    0  0.00000000000E+00  0.00000000000E+00 -0.57821039518E+03  0.38002493290E+04  0.37560042202E+04 0.  0.
        2    1    3    3  502    0  0.16436474065E+03  0.88800302930E+03 -0.19551126933E+04  0.21536087833E+04  0.25500000920E-02 0. -1.
       -2    1    3    3    0  502 -0.16436474065E+03 -0.88800302930E+03  0.13769022982E+04  0.16466405457E+04  0.25500000920E-02 0.  1.
</event>
<event>
 5   0  0.1070988E-07  0.3808465E+04  0.7818609E-02  0.8044341E-01
       -1   -1    0    0    0  501  0.00000000000E+00  0.00000000000E+00  0.18833673825E+04  0.18833673825E+04  0.50400001928E-02 0.  1.
        1   -1    0    0  501    0  0.00000000000E+00  0.00000000000E+00 -0.19253285327E+04  0.19253285327E+04  0.50400001928E-02 0. -1.
    10030    2    1    2    0    0  0.00000000000E+00  0.00000000000E+00 -0.41961150263E+02  0.38086959152E+04  0.38084647611E+04 0.  0.
        3    1    3    3  502    0 -0.19032032855E+04  0.33523761182E+02  0.31884343173E+02  0.19037655344E+04  0.10100000352E+00 0. -1.
       -3    1    3    3    0  502  0.19032032855E+04 -0.33523761182E+02 -0.73845493436E+02  0.19049303808E+04  0.10100000352E+00 0.  1.
</event>
<event>
 5   0  0.1070988E-07  0.3795633E+04  0.7818609E-02  0.8047093E-01
        3   -1    0    0  501    0  0.00000000000E+00  0.00000000000E+00  0.25670287042E+04  0.25670287062E+04  0.10100000352E+00 0. -1.
       -3   -1    0    0    0  501  0.00000000000E+00  0.00000000000E+00 -0.14030644728E+04  0.14030644764E+04  0.10100000352E+00 0.  1.
    10030    2    1    2    0    0  0.00000000000E+00  0.00000000000E+00  0.11639642314E+04  0.39700931826E+04  0.37956326412E+04 0.  0.
        2    1    3    3  502    0  0.28068051005E+03 -0.99879059347E+03 -0.10801926277E+04  0.14977250453E+04  0.25500000920E-02 0.  1.
       -2    1    3    3    0  502 -0.28068051005E+03  0.99879059347E+03  0.22441568591E+04  0.24723681373E+04  0.25500000920E-02 0. -1.
</event>
<event>
 5   0  0.3442126E-07  0.3817490E+04  0.7818609E-02  0.8042412E-01
        2   -1    0    0  501    0  0.00000000000E+00  0.00000000000E+00  0.21720109035E+04  0.21720109035E+04  0.25500000920E-02 0. -1.
       -2   -1    0    0    0  501  0.00000000000E+00  0.00000000000E+00 -0.16773887616E+04  0.16773887616E+04  0.25500000920E-02 0.  1.
    10030    2    1    2    0    0  0.00000000000E+00  0.00000000000E+00  0.49462214189E+03  0.38493996651E+04  0.38174895833E+04 0.  0.
        2    1    3    3  502    0  0.12803321214E+04  0.12828754922E+04  0.85088511286E+03  0.20022550649E+04  0.25500000920E-02 0. -1.
       -2    1    3    3    0  502 -0.12803321214E+04 -0.12828754922E+04 -0.35626297097E+03  0.18471446002E+04  0.25500000920E-02 0.  1.
</event>
<event>
 5   0  0.3539010E-07  0.3800746E+04  0.7818609E-02  0.8045995E-01
        2   -1    0    0  501    0  0.00000000000E+00  0.00000000000E+00  0.18995098139E+04  0.18995098139E+04  0.25500000920E-02 0.  1.
       -2   -1    0    0    0  501  0.00000000000E+00  0.00000000000E+00 -0.19012366573E+04  0.19012366573E+04  0.25500000920E-02 0. -1.
    10030    2    1    2    0    0  0.00000000000E+00  0.00000000000E+00 -0.17268433772E+01  0.38007464712E+04  0.38007460789E+04 0.  0.
        1    1    3    3  502    0  0.16517132877E+04 -0.50349275224E+03 -0.79443514677E+03  0.19007337895E+04  0.50400001928E-02 0. -1.
       -1    1    3    3    0  502 -0.16517132877E+04  0.50349275224E+03  0.79270830339E+03  0.19000126817E+04  0.50400001928E-02 0.  1.
</event>
<event>
 5   0  0.3377396E-07  0.3798495E+04  0.7818609E-02  0.8046478E-01
        2   -1    0    0  501    0  0.00000000000E+00  0.00000000000E+00  0.24711510541E+04  0.24711510541E+04  0.25500000920E-02 0.  1.
       -2   -1    0    0    0  501  0.00000000000E+00  0.00000000000E+00 -0.14597005329E+04  0.14597005329E+04  0.25500000920E-02 0. -1.
    10030    2    1    2    0    0  0.00000000000E+00  0.00000000000E+00  0.10114505212E+04  0.39308515870E+04  0.37984947074E+04 0.  0.
        5    1    3    3  502    0 -0.46162399664E+01 -0.16316999221E+04 -0.50007363571E+03  0.17066228865E+04  0.46999998093E+01 0. -1.
       -5    1    3    3    0  502  0.46162399664E+01  0.16316999221E+04  0.15115241569E+04  0.22242287005E+04  0.46999998093E+01 0.  1.
</event>
<event>
 5   0  0.1070988E-07  0.3783294E+04  0.7818609E-02  0.8049749E-01
        1   -1    0    0  501    0  0.00000000000E+00  0.00000000000E+00  0.24666881739E+04  0.24666881739E+04  0.50400001928E-02 0.  1.
       -1   -1    0    0    0  501  0.00000000000E+00  0.00000000000E+00 -0.14506612387E+04  0.14506612387E+04  0.50400001928E-02 0. -1.
    10030    2    1    2    0    0  0.00000000000E+00  0.00000000000E+00  0.10160269352E+04  0.39173494126E+04  0.37832942904E+04 0.  0.
        2    1    3    3  502    0 -0.12090942658E+04 -0.14543777752E+04  0.54396053796E+03  0.19679981513E+04  0.25500000920E-02 0.  1.
       -2    1    3    3    0  502  0.12090942658E+04  0.14543777752E+04  0.47206639726E+03  0.19493512613E+04  0.25500000920E-02 0. -1.
</event>
<event>
 5   0  0.3509843E-07  0.3782849E+04  0.7818609E-02  0.8049845E-01
        2   -1    0    0  501    0  0.00000000000E+00  0.00000000000E+00  0.28381904305E+04  0.28381904305E+04  0.25500000920E-02 0.  1.
       -2   -1    0    0    0  501  0.00000000000E+00  0.00000000000E+00 -0.12604814934E+04  0.12604814934E+04  0.25500000920E-02 0. -1.
    10030    2    1    2    0    0  0.00000000000E+00  0.00000000000E+00  0.15777089371E+04  0.40986719238E+04  0.37828489329E+04 0.  0.
        4    1    3    3  502    0  0.10872721760E+04  0.94992285845E+03 -0.53502911756E+03  0.15397311425E+04  0.12699999809E+01 0. -1.
       -4    1    3    3    0  502 -0.10872721760E+04 -0.94992285845E+03  0.21127380547E+04  0.25589407813E+04  0.12699999809E+01 0.  1.
</event>
<event>
 5   0  0.3539010E-07  0.3783285E+04  0.7818609E-02  0.8049751E-01
        2   -1    0    0  501    0  0.00000000000E+00  0.00000000000E+00  0.26986529797E+04  0.26986529797E+04  0.25500000920E-02 0. -1.
       -2   -1    0    0    0  501  0.00000000000E+00  0.00000000000E+00 -0.13259623665E+04  0.13259623665E+04  0.25500000920E-02 0.  1.
    10030    2    1    2    0    0  0.00000000000E+00  0.00000000000E+00  0.13726906132E+04  0.40246153462E+04  0.37832854988E+04 0.  0.
        1    1    3    3  502    0 -0.92393396678E+03 -0.15206685176E+04  0.33421201785E+01  0.17793532210E+04  0.50400001928E-02 0.  1.
       -1    1    3    3    0  502  0.92393396678E+03  0.15206685176E+04  0.13693484930E+04  0.22452621252E+04  0.50400001928E-02 0. -1.
</event>
<event>
 5   0  0.1085771E-07  0.3801826E+04  0.7818609E-02  0.8045763E-01
       -1   -1    0    0    0  501  0.00000000000E+00  0.00000000000E+00  0.13510748874E+04  0.13510748874E+04  0.50400001928E-02 0. -1.
        1   -1    0    0  501    0  0.00000000000E+00  0.00000000000E+00 -0.26745150242E+04  0.26745150242E+04  0.50400001928E-02 0.  1.
    10030    2    1    2    0    0  0.00000000000E+00  0.00000000000E+00 -0.13234401368E+04  0.40255899117E+04  0.38018259220E+04 0.  0.
        1    1    3    3  502    0 -0.12888595874E+04  0.27079229908E+03  0.78971857104E+03  0.15356246047E+04  0.50400001928E-02 0. -1.
       -1    1    3    3    0  502  0.12888595874E+04 -0.27079229908E+03 -0.21131587078E+04  0.24899653069E+04  0.50400001928E-02 0.  1.
</event>
<event>
 5   0  0.1070988E-07  0.3894262E+04  0.7818609E-02  0.8026224E-01
        1   -1    0    0  501    0  0.00000000000E+00  0.00000000000E+00  0.24264242761E+04  0.24264242762E+04  0.50400001928E-02 0.  1.
       -1   -1    0    0    0  501  0.00000000000E+00  0.00000000000E+00 -0.15625130809E+04  0.15625130809E+04  0.50400001928E-02 0. -1.
    10030    2    1    2    0    0  0.00000000000E+00  0.00000000000E+00  0.86391119530E+03  0.39889373570E+04  0.38942622774E+04 0.  0.
        5    1    3    3  502    0  0.95450659684E+03  0.12526105977E+03 -0.13016818589E+04  0.16190030662E+04  0.46999998093E+01 0. -1.
       -5    1    3    3    0  502 -0.95450659684E+03 -0.12526105977E+03  0.21655930542E+04  0.23699342908E+04  0.46999998093E+01 0.  1.
</event>
<event>
 5   0  0.3377396E-07  0.3717455E+04  0.7818609E-02  0.8064105E-01
       -2   -1    0    0    0  501  0.00000000000E+00  0.00000000000E+00  0.27087413889E+04  0.27087413889E+04  0.25500000920E-02 0.  1.
        2   -1    0    0  501    0  0.00000000000E+00  0.00000000000E+00 -0.12754513982E+04  0.12754513982E+04  0.25500000920E-02 0. -1.
    10030    2    1    2    0    0  0.00000000000E+00  0.00000000000E+00  0.14332899906E+04  0.39841927871E+04  0.37174550391E+04 0.  0.
        5    1    3    3  502    0 -0.59385209134E+03 -0.94298449893E+03 -0.87769879407E+03  0.14185405651E+04  0.46999998093E+01 0. -1.
       -5    1    3    3    0  502  0.59385209134E+03  0.94298449893E+03  0.23109887847E+04  0.25656522221E+04  0.46999998093E+01 0.  1.
</event>
<event>
 5   0  0.3377396E-07  0.3788225E+04  0.7818609E-02  0.8048686E-01
       -2   -1    0    0    0  501  0.00000000000E+00  0.00000000000E+00  0.16737161764E+04  0.16737161764E+04  0.25500000920E-02 0.  1.
        2   -1    0    0  501    0  0.00000000000E+00  0.00000000000E+00 -0.21435313217E+04  0.21435313217E+04  0.25500000920E-02 0. -1.
    10030    2    1    2    0    0  0.00000000000E+00  0.00000000000E+00 -0.46981514533E+03  0.38172474981E+04  0.37882254673E+04 0.  0.
        5    1    3    3  502    0 -0.15499986615E+04 -0.90683820735E+03 -0.84184217464E+03  0.19833234033E+04  0.46999998093E+01 0. -1.
       -5    1    3    3    0  502  0.15499986615E+04  0.90683820735E+03  0.37202702931E+03  0.18339240948E+04  0.46999998093E+01 0.  1.
</event>
<event>
 5   0  0.3377396E-07  0.3809443E+04  0.7818609E-02  0.8044131E-01
       -2   -1    0    0    0  501  0.00000000000E+00  0.00000000000E+00  0.22718490544E+04  0.22718490544E+04  0.25500000920E-02 0. -1.
        2   -1    0    0  501    0  0.00000000000E+00  0.00000000000E+00 -0.15969212185E+04  0.15969212185E+04  0.25500000920E-02 0.  1.
    10030    2    1    2    0    0  0.00000000000E+00  0.00000000000E+00  0.67492783588E+03  0.38687702729E+04  0.38094429830E+04 0.  0.
        5    1    3    3  502    0  0.12688634153E+03  0.17294659611E+04  0.11376362793E+04  0.20739795197E+04  0.46999998093E+01 0. -1.
       -5    1    3    3    0  502 -0.12688634153E+03 -0.17294659611E+04 -0.46270844341E+03  0.17947907532E+04  0.46999998093E+01 0.  1.
</event>
<event>
 5   0  0.3509843E-07  0.3776933E+04  0.7818609E-02  0.8051123E-01
        2   -1    0    0  501    0  0.00000000000E+00  0.00000000000E+00  0.21786050443E+04  0.21786050443E+04  0.25500000920E-02 0. -1.
       -2   -1    0    0    0  501  0.00000000000E+00  0.00000000000E+00 -0.16369677588E+04  0.16369677588E+04  0.25500000920E-02 0.  1.
    10030    2    1    2    0    0  0.00000000000E+00  0.00000000000E+00  0.54163728547E+03  0.38155728031E+04  0.37769332621E+04 0.  0.
        4    1    3    3  502    0 -0.15282105180E+04  0.10569637512E+04 -0.69832553721E+02  0.18594294709E+04  0.12699999809E+01 0. -1.
       -4    1    3    3    0  502  0.15282105180E+04 -0.10569637512E+04  0.61146983919E+03  0.19561433322E+04  0.12699999809E+01 0.  1.
</event>
<event>
 5   0  0.3509843E-07  0.3784555E+04  0.7818609E-02  0.8049477E-01
        2   -1    0    0  501    0  0.00000000000E+00  0.00000000000E+00  0.12085214847E+04  0.12085214847E+04  0.25500000920E-02 0.  1.
       -2   -1    0    0    0  501  0.00000000000E+00  0.00000000000E+00 -0.29628888144E+04  0.29628888144E+04  0.25500000920E-02 0. -1.
    10030    2    1    2    0    0  0.00000000000E+00  0.00000000000E+00 -0.17543673296E+04  0.41714102991E+04  0.37845553446E+04 0.  0.
        4    1    3    3  502    0 -0.12866069156E+04  0.68195303463E+03 -0.22091353703E+04  0.26458832162E+04  0.12699999809E+01 0. -1.
       -4    1    3    3    0  502  0.12866069156E+04 -0.68195303463E+03  0.45476804064E+03  0.15255270829E+04  0.12699999809E+01 0.  1.
</event>
<event>
 5   0  0.1070988E-07  0.3794311E+04  0.7818609E-02  0.8047377E-01
        1   -1    0    0  501    0  0.00000000000E+00  0.00000000000E+00  0.24991092857E+04  0.24991092858E+04  0.50400001928E-02 0. -1.
       -1   -1    0    0    0  501  0.00000000000E+00  0.00000000000E+00 -0.14401928433E+04  0.14401928433E+04  0.50400001928E-02 0.  1.
    10030    2    1    2    0    0  0.00000000000E+00  0.00000000000E+00  0.10589164424E+04  0.39393021291E+04  0.37943111670E+04 0.  0.
        5    1    3    3  502    0  0.10578841620E+04 -0.10827369703E+04 -0.65780463164E+03  0.16505051562E+04  0.46999998093E+01 0.  1.
       -5    1    3    3    0  502 -0.10578841620E+04  0.10827369703E+04  0.17167210741E+04  0.22887969729E+04  0.46999998093E+01 0. -1.
</event>
<event>
 5   0  0.3327241E-07  0.3681901E+04  0.7818609E-02  0.8071985E-01
       -2   -1    0    0    0  501  0.00000000000E+00  0.00000000000E+00  0.17942035393E+04  0.17942035393E+04  0.25500000920E-02 0.  1.
        2   -1    0    0  501    0  0.00000000000E+00  0.00000000000E+00 -0.18889152770E+04  0.18889152770E+04  0.25500000920E-02 0. -1.
    10030    2    1    2    0    0  0.00000000000E+00  0.00000000000E+00 -0.94711737656E+02  0.36831188163E+04  0.36819008545E+04 0.  0.
        3    1    3    3  502    0  0.61203538968E+03 -0.17318816817E+04 -0.17026631405E+03  0.18447200615E+04  0.10100000352E+00 0.  1.
       -3    1    3    3    0  502 -0.61203538968E+03  0.17318816817E+04  0.75554576399E+02  0.18383987548E+04  0.10100000352E+00 0. -1.
</event>
<event>
 5   0  0.3442126E-07  0.3901267E+04  0.7818609E-02  0.8024766E-01
       -2   -1    0    0    0  501  0.00000000000E+00  0.00000000000E+00  0.19702192292E+04  0.19702192292E+04  0.25500000920E-02 0.  1.
        2   -1    0    0  501    0  0.00000000000E+00  0.00000000000E+00 -0.19312420712E+04  0.19312420712E+04  0.25500000920E-02 0. -1.
    10030    2    1    2    0    0  0.00000000000E+00  0.00000000000E+00  0.38977157938E+02  0.39014613004E+04  0.39012665968E+04 0.  0.
        2    1    3    3  502    0 -0.17149289002E+04 -0.16799513670E+03  0.93373700838E+03  0.19598643575E+04  0.25500000920E-02 0.  1.
       -2    1    3    3    0  502  0.17149289002E+04  0.16799513670E+03 -0.89475985044E+03  0.19415969429E+04  0.25500000920E-02 0. -1.
</event>
<event>
 5   0  0.1070988E-07  0.3774651E+04  0.7818609E-02  0.8051617E-01
       -1   -1    0    0    0  501  0.00000000000E+00  0.00000000000E+00  0.22135361410E+04  0.22135361410E+04  0.50400001928E-02 0. -1.
        1   -1    0    0  501    0  0.00000000000E+00  0.00000000000E+00 -0.16091890466E+04  0.16091890466E+04  0.50400001928E-02 0.  1.
    10030    2    1    2    0    0  0.00000000000E+00  0.00000000000E+00  0.60434709439E+03  0.38227251876E+04  0.37746513017E+04 0.  0.
        3    1    3    3  502    0 -0.15540680392E+04  0.98226390049E+03  0.73425502613E+03  0.19796717642E+04  0.10100000352E+00 0.  1.
       -3    1    3    3    0  502  0.15540680392E+04 -0.98226390049E+03 -0.12990793175E+03  0.18430534234E+04  0.10100000352E+00 0. -1.
</event>
<event>
 5   0  0.3377396E-07  0.3813092E+04  0.7818609E-02  0.8043351E-01
        2   -1    0    0  501    0  0.00000000000E+00  0.00000000000E+00  0.19364521854E+04  0.19364521854E+04  0.25500000920E-02 0. -1.
       -2   -1    0    0    0  501  0.00000000000E+00  0.00000000000E+00 -0.18771012425E+04  0.18771012426E+04  0.25500000920E-02 0.  1.
    10030    2    1    2    0    0  0.00000000000E+00  0.00000000000E+00  0.59350942852E+02  0.38135534280E+04  0.38130915559E+04 0.  0.
        5    1    3    3  502    0 -0.37788827526E+03 -0.69700768501E+03  0.17637469187E+04  0.19337643457E+04  0.46999998093E+01 0. -1.
       -5    1    3    3    0  502  0.37788827526E+03  0.69700768501E+03 -0.17043959758E+04  0.18797890823E+04  0.46999998093E+01 0.  1.
</event>
<event>
 5   0  0.3442126E-07  0.3812637E+04  0.7818609E-02  0.8043448E-01
       -2   -1    0    0    0  501  0.00000000000E+00  0.00000000000E+00  0.12945557663E+04  0.12945557663E+04  0.25500000920E-02 0. -1.
        2   -1    0    0  501    0  0.00000000000E+00  0.00000000000E+00 -0.28071793837E+04  0.28071793837E+04  0.25500000920E-02 0.  1.
    10030    2    1    2    0    0  0.00000000000E+00  0.00000000000E+00 -0.15126236174E+04  0.41017351500E+04  0.38126370182E+04 0.  0.
        2    1    3    3  502    0  0.14679674967E+04 -0.50902449795E+03  0.43198484001E+03  0.16126516713E+04  0.25500000920E-02 0. -1.
       -2    1    3    3    0  502 -0.14679674967E+04  0.50902449795E+03 -0.19446084575E+04  0.24890834787E+04  0.25500000920E-02 0.  1.
</event>
<event>
 5   0  0.1085771E-07  0.3758538E+04  0.7818609E-02  0.8055112E-01
       -1   -1    0    0    0  501  0.00000000000E+00  0.00000000000E+00  0.15387469170E+04  0.15387469170E+04  0.50400001928E-02 0. -1.
        1   -1    0    0  501    0  0.00000000000E+00  0.00000000000E+00 -0.22951475622E+04  0.22951475622E+04  0.50400001928E-02 0.  1.
    10030    2    1    2    0    0  0.00000000000E+00  0.00000000000E+00 -0.75640064516E+03  0.38338944792E+04  0.37585376068E+04 0.  0.
        1    1    3    3  502    0  0.14309759621E+04 -0.11906285207E+04 -0.64097497213E+03  0.19687908455E+04  0.50400001928E-02 0.  1.
       -1    1    3    3    0  502 -0.14309759621E+04  0.11906285207E+04 -0.11542567303E+03  0.18651036337E+04  0.50400001928E-02 0. -1.
</event>
<event>
 5   0  0.3377396E-07  0.3226200E+04  0.7818609E-02  0.8181932E-01
       -2   -1    0    0    0  501  0.00000000000E+00  0.00000000000E+00  0.18748245939E+04  0.18748245939E+04  0.25500000920E-02 0. -1.
        2   -1    0    0  501    0  0.00000000000E+00  0.00000000000E+00 -0.13879117427E+04  0.13879117427E+04  0.25500000920E-02 0.  1.
    10030    2    1    2    0    0  0.00000000000E+00  0.00000000000E+00  0.48691285127E+03  0.32627363366E+04  0.32261996649E+04 0.  0.
        5    1    3    3  502    0 -0.52693040474E+03  0.14907491925E+04  0.56657463725E+03  0.16795885556E+04  0.46999998093E+01 0. -1.
       -5    1    3    3    0  502  0.52693040474E+03 -0.14907491925E+04 -0.79661785977E+02  0.15831477810E+04  0.46999998093E+01 0.  1.
</event>
<event>
 5   0  0.1070988E-07  0.3832843E+04  0.7818609E-02  0.8039143E-01
        1   -1    0    0  501    0  0.00000000000E+00  0.00000000000E+00  0.16626890356E+04  0.16626890356E+04  0.50400001928E-02 0.  1.
       -1   -1    0    0    0  501  0.00000000000E+00  0.00000000000E+00 -0.22088743210E+04  0.22088743210E+04  0.50400001928E-02 0. -1.
    10030    2    1    2    0    0  0.00000000000E+00  0.00000000000E+00 -0.54618528544E+03  0.38715633566E+04  0.38328428690E+04 0.  0.
        2    1    3    3  502    0 -0.46730009535E+03 -0.18499733065E+04 -0.45350409567E+03  0.19612334330E+04  0.25500000920E-02 0. -1.
       -2    1    3    3    0  502  0.46730009535E+03  0.18499733065E+04 -0.92681189768E+02  0.19103299236E+04  0.25500000920E-02 0.  1.
</event>
<event>
 5   0  0.3327241E-07  0.3701345E+04  0.7818609E-02  0.8067664E-01
       -2   -1    0    0    0  501  0.00000000000E+00  0.00000000000E+00  0.14899012187E+04  0.14899012187E+04  0.25500000920E-02 0.  1.
        2   -1    0    0  501    0  0.00000000000E+00  0.00000000000E+00 -0.22988024472E+04  0.22988024472E+04  0.25500000920E-02 0. -1.
    10030    2    1    2    0    0  0.00000000000E+00  0.00000000000E+00 -0.80890122860E+03  0.37887036659E+04  0.37013449272E+04 0.  0.
        3    1    3    3  502    0 -0.58043218240E+03 -0.15320285459E+04 -0.12855664878E+04  0.20824730943E+04  0.10100000352E+00 0. -1.
       -3    1    3    3    0  502  0.58043218240E+03  0.15320285459E+04  0.47666525916E+03  0.17062305716E+04  0.10100000352E+00 0.  1.
</event>
<event>
 5   0  0.1070988E-07  0.3800264E+04  0.7818609E-02  0.8046098E-01
       -1   -1    0    0    0  501  0.00000000000E+00  0.00000000000E+00  0.17253844092E+04  0.17253844092E+04  0.50400001928E-02 0.  1.
        1   -1    0    0  501    0  0.00000000000E+00  0.00000000000E+00 -0.20925776829E+04  0.20925776829E+04  0.50400001928E-02 0. -1.
    10030    2    1    2    0    0  0.00000000000E+00  0.00000000000E+00 -0.36719327375E+03  0.38179620921E+04  0.38002636272E+04 0.  0.
        2    1    3    3  502    0  0.53494303903E+03 -0.94738117650E+03 -0.17486725068E+04  0.20595025333E+04  0.25500000920E-02 0. -1.
       -2    1    3    3    0  502 -0.53494303903E+03  0.94738117650E+03  0.13814792331E+04  0.17584595588E+04  0.25500000920E-02 0.  1.
</event>
<event>
 5   0  0.1070988E-07  0.3720709E+04  0.7818609E-02  0.8063388E-01
        1   -1    0    0  501    0  0.00000000000E+00  0.00000000000E+00  0.18507065789E+04  0.18507065789E+04  0.50400001928E-02 0.  1.
       -1   -1    0    0    0  501  0.00000000000E+00  0.00000000000E+00 -0.18700522843E+04  0.18700522843E+04  0.50400001928E-02 0. -1.
    10030    2    1    2    0    0  0.00000000000E+00  0.00000000000E+00 -0.19345705385E+02  0.37207588633E+04  0.37207085699E+04 0.  0.
        5    1    3    3  502    0  0.16408296979E+04  0.14138510238E+03 -0.87489211299E+03  0.18648780507E+04  0.46999998093E+01 0. -1.
       -5    1    3    3    0  502 -0.16408296979E+04 -0.14138510238E+03  0.85554640761E+03  0.18558808125E+04  0.46999998093E+01 0.  1.
</event>
<event>
 5   0  0.3442126E-07  0.3784142E+04  0.7818609E-02  0.8049566E-01
        2   -1    0    0  501    0  0.00000000000E+00  0.00000000000E+00  0.11460106913E+04  0.11460106913E+04  0.25500000920E-02 0.  1.
       -2   -1    0    0    0  501  0.00000000000E+00  0.00000000000E+00 -0.31238216985E+04  0.31238216985E+04  0.25500000920E-02 0. -1.
    10030    2    1    2    0    0  0.00000000000E+00  0.00000000000E+00 -0.19778110072E+04  0.42698323898E+04  0.37841422088E+04 0.  0.
        2    1    3    3  502    0  0.12667633244E+04 -0.52081618446E+03  0.48400866685E+03  0.14526538499E+04  0.25500000920E-02 0.  1.
       -2    1    3    3    0  502 -0.12667633244E+04  0.52081618446E+03 -0.24618196741E+04  0.28171785399E+04  0.25500000920E-02 0. -1.
</event>
<event>
 5   0  0.3539010E-07  0.3822195E+04  0.7818609E-02  0.8041409E-01
        2   -1    0    0  501    0  0.00000000000E+00  0.00000000000E+00  0.16540308823E+04  0.16540308823E+04  0.25500000920E-02 0. -1.
       -2   -1    0    0    0  501  0.00000000000E+00  0.00000000000E+00 -0.22081173312E+04  0.22081173312E+04  0.25500000920E-02 0.  1.
    10030    2    1    2    0    0  0.00000000000E+00  0.00000000000E+00 -0.55408644891E+03  0.38621482136E+04  0.38221953156E+04 0.  0.
        1    1    3    3  502    0  0.40813030118E+03  0.88641744280E+03 -0.19373830297E+04  0.21692761995E+04  0.50400001928E-02 0.  1.
       -1    1    3    3    0  502 -0.40813030118E+03 -0.88641744280E+03  0.13832965808E+04  0.16928720141E+04  0.50400001928E-02 0. -1.
</event>
<event>
 5   0  0.1084315E-07  0.3920028E+04  0.7818609E-02  0.8020877E-01
        1   -1    0    0  501    0  0.00000000000E+00  0.00000000000E+00  0.15654536210E+04  0.15654536210E+04  0.50400001928E-02 0. -1.
       -1   -1    0    0    0  501  0.00000000000E+00  0.00000000000E+00 -0.24540206160E+04  0.24540206160E+04  0.50400001928E-02 0.  1.
    10030    2    1    2    0    0  0.00000000000E+00  0.00000000000E+00 -0.88856699506E+03  0.40194742370E+04  0.39200282955E+04 0.  0.
        4    1    3    3  502    0  0.33290110981E+03 -0.39025475292E+02  0.15358485698E+04  0.15719982758E+04  0.12699999809E+01 0. -1.
       -4    1    3    3    0  502 -0.33290110981E+03  0.39025475292E+02 -0.24244155649E+04  0.24474759612E+04  0.12699999809E+01 0.  1.
</event>
<event>
 5   0  0.1070988E-07  0.3891548E+04  0.7818609E-02  0.8026789E-01
        1   -1    0    0  501    0  0.00000000000E+00  0.00000000000E+00  0.17175016884E+04  0.17175016884E+04  0.50400001928E-02 0. -1.
       -1   -1    0    0    0  501  0.00000000000E+00  0.00000000000E+00 -0.22043853420E+04  0.22043853420E+04  0.50400001928E-02 0.  1.
    10030    2    1    2    0    0  0.00000000000E+00  0.00000000000E+00 -0.48688365354E+03  0.39218870304E+04  0.38915475312E+04 0.  0.
        3    1    3    3  502    0 -0.17807813046E+04  0.64826243252E+03  0.20114289733E+03  0.19057504326E+04  0.10100000352E+00 0. -1.
       -3    1    3    3    0  502  0.17807813046E+04 -0.64826243252E+03 -0.68802655087E+03  0.20161365978E+04  0.10100000352E+00 0.  1.
</event>
<event>
 5   0  0.3442126E-07  0.3748754E+04  0.7818609E-02  0.8057242E-01
       -2   -1    0    0    0  501  0.00000000000E+00  0.00000000000E+00  0.12145502533E+04  0.12145502533E+04  0.25500000920E-02 0.  1.
        2   -1    0    0  501    0  0.00000000000E+00  0.00000000000E+00 -0.28926670440E+04  0.28926670440E+04  0.25500000920E-02 0. -1.
    10030    2    1    2    0    0  0.00000000000E+00  0.00000000000E+00 -0.16781167907E+04  0.41072172973E+04  0.37487541883E+04 0.  0.
        2    1    3    3  502    0 -0.88307463052E+03  0.35437547762E+03 -0.26083730589E+04  0.27765109034E+04  0.25500000920E-02 0. -1.
       -2    1    3    3    0  502  0.88307463052E+03 -0.35437547762E+03  0.93025626820E+03  0.13307063939E+04  0.25500000920E-02 0.  1.
</event>
<event>
 5   0  0.1070988E-07  0.3782039E+04  0.7818609E-02  0.8050020E-01
        1   -1    0    0  501    0  0.00000000000E+00  0.00000000000E+00  0.26149666180E+04  0.26149666180E+04  0.50400001928E-02 0.  1.
       -1   -1    0    0    0  501  0.00000000000E+00  0.00000000000E+00 -0.13674956153E+04  0.13674956153E+04  0.50400001928E-02 0. -1.
    10030    2    1    2    0    0  0.00000000000E+00  0.00000000000E+00  0.12474710027E+04  0.39824622333E+04  0.37820393357E+04 0.  0.
        3    1    3    3  502    0 -0.10041843822E+04  0.49784589173E+03 -0.98003888793E+03  0.14888630015E+04  0.10100000352E+00 0. -1.
       -3    1    3    3    0  502  0.10041843822E+04 -0.49784589173E+03  0.22275098906E+04  0.24935992317E+04  0.10100000352E+00 0.  1.
</event>
<event>
 5   0  0.1085771E-07  0.3812669E+04  0.7818609E-02  0.8043442E-01
       -1   -1    0    0    0  501  0.00000000000E+00  0.00000000000E+00  0.26542586940E+04  0.26542586940E+04  0.50400001928E-02 0.  1.
        1   -1    0    0  501    0  0.00000000000E+00  0.00000000000E+00 -0.13691625606E+04  0.13691625606E+04  0.50400001928E-02 0. -1.
    10030    2    1    2    0    0  0.00000000000E+00  0.00000000000E+00  0.12850961334E+04  0.40234212546E+04  0.38126692120E+04 0.  0.
        1    1    3    3  502    0 -0.15068249983E+04  0.88765318795E+03 -0.15811558215E+03  0.17559755963E+04  0.50400001928E-02 0. -1.
       -1    1    3    3    0  502  0.15068249983E+04 -0.88765318795E+03  0.14432117155E+04  0.22674456583E+04  0.50400001928E-02 0.  1.
</event>
<event>
 5   0  0.1070988E-07  0.3208554E+04  0.7818609E-02  0.8186562E-01
        1   -1    0    0  501    0  0.00000000000E+00  0.00000000000E+00  0.23470170603E+04  0.23470170603E+04  0.50400001928E-02 0.  1.
       -1   -1    0    0    0  501  0.00000000000E+00  0.00000000000E+00 -0.10965854588E+04  0.10965854588E+04  0.50400001928E-02 0. -1.
    10030    2    1    2    0    0  0.00000000000E+00  0.00000000000E+00  0.12504316016E+04  0.34436025191E+04  0.32085540544E+04 0.  0.
        2    1    3    3  502    0  0.89269258544E+03 -0.54504150911E+02 -0.80420516327E+03  0.12027537983E+04  0.25500000920E-02 0. -1.
       -2    1    3    3    0  502 -0.89269258544E+03  0.54504150911E+02  0.20546367648E+04  0.22408487209E+04  0.25500000920E-02 0.  1.
</event>
<event>
 5   0  0.3509843E-07  0.3744321E+04  0.7818609E-02  0.8058210E-01
        2   -1    0    0  501    0  0.00000000000E+00  0.00000000000E+00  0.18927925908E+04  0.18927925908E+04  0.25500000920E-02 0.  1.
       -2   -1    0    0    0  501  0.00000000000E+00  0.00000000000E+00 -0.18517536435E+04  0.18517536435E+04  0.25500000920E-02 0. -1.
    10030    2    1    2    0    0  0.00000000000E+00  0.00000000000E+00  0.41038947240E+02  0.37445462343E+04  0.37443213411E+04 0.  0.
        4    1    3    3  502    0  0.43722533026E+03 -0.18187493479E+04 -0.56743069067E+02  0.18714263461E+04  0.12699999809E+01 0.  1.
       -4    1    3    3    0  502 -0.43722533026E+03  0.18187493479E+04  0.97782016306E+02  0.18731198882E+04  0.12699999809E+01 0. -1.
</event>
<event>
 5   0  0.1070988E-07  0.3832067E+04  0.7818609E-02  0.8039308E-01
        1   -1    0    0  501    0  0.00000000000E+00  0.00000000000E+00  0.25027939733E+04  0.25027939733E+04  0.50400001928E-02 0. -1.
       -1   -1    0    0    0  501  0.00000000000E+00  0.00000000000E+00 -0.14668340484E+04  0.14668340484E+04  0.50400001928E-02 0.  1.
    10030    2    1    2    0    0  0.00000000000E+00  0.00000000000E+00  0.10359599249E+04  0.39696280216E+04  0.38320665005E+04 0.  0.
        2    1    3    3  502    0 -0.15717983100E+04 -0.10421140689E+04  0.86870700099E+03  0.20763437850E+04  0.25500000920E-02 0. -1.
       -2    1    3    3    0  502  0.15717983100E+04  0.10421140689E+04  0.16725292389E+03  0.18932842366E+04  0.25500000920E-02 0.  1.
</event>
<event>
 5   0  0.3509843E-07  0.3790478E+04  0.7818609E-02  0.8048201E-01
        2   -1    0    0  501    0  0.00000000000E+00  0.00000000000E+00  0.19144200450E+04  0.19144200450E+04  0.25500000920E-02 0.  1.
       -2   -1    0    0    0  501  0.00000000000E+00  0.00000000000E+00 -0.18762502744E+04  0.18762502744E+04  0.25500000920E-02 0. -1.
    10030    2    1    2    0    0  0.00000000000E+00  0.00000000000E+00  0.38169770639E+02  0.37906703194E+04  0.37904781412E+04 0.  0.
        4    1    3    3  502    0 -0.55505658381E+03  0.39989508492E+03  0.17866375457E+04  0.19131333521E+04  0.12699999809E+01 0.  1.
       -4    1    3    3    0  502  0.55505658381E+03 -0.39989508492E+03 -0.17484677751E+04  0.18775369673E+04  0.12699999809E+01 0. -1.
</event>
<event>
 5   0  0.3539010E-07  0.3800977E+04  0.7818609E-02  0.8045945E-01
       -2   -1    0    0    0  501  0.00000000000E+00  0.00000000000E+00  0.22031763391E+04  0.22031763391E+04  0.25500000920E-02 0. -1.
        2   -1    0    0  501    0  0.00000000000E+00  0.00000000000E+00 -0.16393857766E+04  0.16393857766E+04  0.25500000920E-02 0.  1.
    10030    2    1    2    0    0  0.00000000000E+00  0.00000000000E+00  0.56379056250E+03  0.38425621158E+04  0.38009766923E+04 0.  0.
        1    1    3    3  502    0  0.17776616427E+04  0.30526817794E+03 -0.32347707240E+03  0.18324592745E+04  0.50400001928E-02 0.  1.
       -1    1    3    3    0  502 -0.17776616427E+04 -0.30526817794E+03  0.88726763489E+03  0.20101028412E+04  0.50400001928E-02 0. -1.
</event>
<event>
 5   0  0.1070988E-07  0.3870054E+04  0.7818609E-02  0.8031286E-01
        4   -1    0    0  501    0  0.00000000000E+00  0.00000000000E+00  0.20161672389E+04  0.20161676389E+04  0.12699999809E+01 0.  1.
       -4   -1    0    0    0  501  0.00000000000E+00  0.00000000000E+00 -0.18571514592E+04  0.18571518934E+04  0.12699999809E+01 0. -1.
    10030    2    1    2    0    0  0.00000000000E+00  0.00000000000E+00  0.15901577972E+03  0.38733195323E+04  0.38700540282E+04 0.  0.
        2    1    3    3  502    0 -0.12145675263E+04  0.28546000785E+03 -0.14008168263E+04  0.18758863167E+04  0.25500000920E-02 0. -1.
       -2    1    3    3    0  502  0.12145675263E+04 -0.28546000785E+03  0.15598326061E+04  0.19974332157E+04  0.25500000920E-02 0.  1.
</event>
<event>
 5   0  0.3327241E-07  0.3210404E+04  0.7818609E-02  0.8186075E-01
        2   -1    0    0  501    0  0.00000000000E+00  0.00000000000E+00  0.21535538481E+04  0.21535538481E+04  0.25500000920E-02 0.  1.
       -2   -1    0    0    0  501  0.00000000000E+00  0.00000000000E+00 -0.11964752005E+04  0.11964752005E+04  0.25500000920E-02 0. -1.
    10030    2    1    2    0    0  0.00000000000E+00  0.00000000000E+00  0.95707864760E+03  0.33500290486E+04  0.32104041940E+04 0.  0.
        3    1    3    3  502    0  0.73157481648E+03  0.91483249096E+03 -0.66671493952E+03  0.13478238087E+04  0.10100000352E+00 0.  1.
       -3    1    3    3    0  502 -0.73157481648E+03 -0.91483249096E+03  0.16237935871E+04  0.20022052398E+04  0.10100000352E+00 0. -1.
</event>
<event>
 5   0  0.3509843E-07  0.3740943E+04  0.7818609E-02  0.8058948E-01
        2   -1    0    0  501    0  0.00000000000E+00  0.00000000000E+00  0.17672042637E+04  0.17672042637E+04  0.25500000920E-02 0.  1.
       -2   -1    0    0    0  501  0.00000000000E+00  0.00000000000E+00 -0.19797735062E+04  0.19797735062E+04  0.25500000920E-02 0. -1.
    10030    2    1    2    0    0  0.00000000000E+00  0.00000000000E+00 -0.21256924252E+03  0.37469777699E+04  0.37409432935E+04 0.  0.
        4    1    3    3  502    0 -0.13270095316E+04  0.69117126762E+01 -0.14266145138E+04  0.19483923251E+04  0.12699999809E+01 0. -1.
       -4    1    3    3    0  502  0.13270095316E+04 -0.69117126762E+01  0.12140452713E+04  0.17985854448E+04  0.12699999809E+01 0.  1.
</event>
<event>
 5   0  0.1070988E-07  0.3818855E+04  0.7818609E-02  0.8042121E-01
        1   -1    0    0  501    0  0.00000000000E+00  0.00000000000E+00  0.18484250968E+04  0.18484250968E+04  0.50400001928E-02 0. -1.
       -1   -1    0    0    0  501  0.00000000000E+00  0.00000000000E+00 -0.19724426752E+04  0.19724426753E+04  0.50400001928E-02 0.  1.
    10030    2    1    2    0    0  0.00000000000E+00  0.00000000000E+00 -0.12401757843E+03  0.38208677721E+04  0.38188545628E+04 0.  0.
        3    1    3    3  502    0 -0.10803187054E+03 -0.17276937476E+04 -0.86823502943E+03  0.19366023462E+04  0.10100000352E+00 0.  1.
       -3    1    3    3    0  502  0.10803187054E+03  0.17276937476E+04  0.74421745100E+03  0.18842654259E+04  0.10100000352E+00 0. -1.
</event>
<event>
 5   0  0.1070988E-07  0.3790475E+04  0.7818609E-02  0.8048202E-01
        1   -1    0    0  501    0  0.00000000000E+00  0.00000000000E+00  0.15878855942E+04  0.15878855942E+04  0.50400001928E-02 0.  1.
       -1   -1    0    0    0  501  0.00000000000E+00  0.00000000000E+00 -0.22620805308E+04  0.22620805308E+04  0.50400001928E-02 0. -1.
    10030    2    1    2    0    0  0.00000000000E+00  0.00000000000E+00 -0.67419493664E+03  0.38499661250E+04  0.37904749506E+04 0.  0.
        2    1    3    3  502    0  0.46292916907E+03  0.99836987076E+03  0.12301297462E+04  0.16505347639E+04  0.25500000920E-02 0.  1.
       -2    1    3    3    0  502 -0.46292916907E+03 -0.99836987076E+03 -0.19043246828E+04  0.21994313611E+04  0.25500000920E-02 0. -1.
</event>
<event>
 5   0  0.1070988E-07  0.4030724E+04  0.7818609E-02  0.7998377E-01
       -1   -1    0    0    0  501  0.00000000000E+00  0.00000000000E+00  0.23499928995E+04  0.23499928995E+04  0.50400001928E-02 0. -1.
        1   -1    0    0  501    0  0.00000000000E+00  0.00000000000E+00 -0.17283811850E+04  0.17283811850E+04  0.50400001928E-02 0.  1.
    10030    2    1    2    0    0  0.00000000000E+00  0.00000000000E+00  0.62161171447E+03  0.40783740845E+04  0.40307237625E+04 0.  0.
        5    1    3    3  502    0  0.18434449573E+04 -0.20361276089E+03 -0.48713219059E+03  0.19175680765E+04  0.46999998093E+01 0.  1.
       -5    1    3    3    0  502 -0.18434449573E+04  0.20361276089E+03  0.11087439051E+04  0.21608060080E+04  0.46999998093E+01 0. -1.
</event>
<event>
 5   0  0.3509843E-07  0.3814531E+04  0.7818609E-02  0.8043044E-01
        2   -1    0    0  501    0  0.00000000000E+00  0.00000000000E+00  0.27236331639E+04  0.27236331639E+04  0.25500000920E-02 0. -1.
       -2   -1    0    0    0  501  0.00000000000E+00  0.00000000000E+00 -0.13355916705E+04  0.13355916705E+04  0.25500000920E-02 0.  1.
    10030    2    1    2    0    0  0.00000000000E+00  0.00000000000E+00  0.13880414934E+04  0.40592248344E+04  0.38145310418E+04 0.  0.
        4    1    3    3  502    0 -0.46667296380E+03 -0.18460131882E+04  0.57690738620E+03  0.19895658047E+04  0.12699999809E+01 0.  1.
       -4    1    3    3    0  502  0.46667296380E+03  0.18460131882E+04  0.81113410721E+03  0.20696590296E+04  0.12699999809E+01 0. -1.
</event>
<event>
 5   0  0.1085771E-07  0.3818989E+04  0.7818609E-02  0.8042092E-01
        1   -1    0    0  501    0  0.00000000000E+00  0.00000000000E+00  0.11327679930E+04  0.11327679930E+04  0.50400001928E-02 0.  1.
       -1   -1    0    0    0  501  0.00000000000E+00  0.00000000000E+00 -0.32188143995E+04  0.32188143995E+04  0.50400001928E-02 0. -1.
    10030    2    1    2    0    0  0.00000000000E+00  0.00000000000E+00 -0.20860464065E+04  0.43515823926E+04  0.38189893570E+04 0.  0.
        1    1    3    3  502    0 -0.24831856322E+02 -0.99151827984E+03  0.81623227387E+03  0.12845077833E+04  0.50400001928E-02 0.  1.
       -1    1    3    3    0  502  0.24831856322E+02  0.99151827984E+03 -0.29022786804E+04  0.30670746093E+04  0.50400001928E-02 0. -1.
</event>
<event>
 5   0  0.1070988E-07  0.3664455E+04  0.7818609E-02  0.8075885E-01
        1   -1    0    0  501    0  0.00000000000E+00  0.00000000000E+00  0.16264006089E+04  0.16264006089E+04  0.50400001928E-02 0.  1.
       -1   -1    0    0    0  501  0.00000000000E+00  0.00000000000E+00 -0.20641028198E+04  0.20641028198E+04  0.50400001928E-02 0. -1.
    10030    2    1    2    0    0  0.00000000000E+00  0.00000000000E+00 -0.43770221091E+03  0.36905034287E+04  0.36644552571E+04 0.  0.
        5    1    3    3  502    0 -0.23313776881E+03 -0.10649573369E+04 -0.17019181145E+04  0.20211468791E+04  0.46999998093E+01 0. -1.
       -5    1    3    3    0  502  0.23313776881E+03  0.10649573369E+04  0.12642159036E+04  0.16693565495E+04  0.46999998093E+01 0.  1.
</event>
<event>
 5   0  0.1085771E-07  0.3816636E+04  0.7818609E-02  0.8042594E-01
       -1   -1    0    0    0  501  0.00000000000E+00  0.00000000000E+00  0.10569564683E+04  0.10569564683E+04  0.50400001928E-02 0. -1.
        1   -1    0    0  501    0  0.00000000000E+00  0.00000000000E+00 -0.34454375778E+04  0.34454375778E+04  0.50400001928E-02 0.  1.
    10030    2    1    2    0    0  0.00000000000E+00  0.00000000000E+00 -0.23884811095E+04  0.45023940461E+04  0.38166359711E+04 0.  0.
        1    1    3    3  502    0 -0.83512264690E+03  0.16986822287E+04 -0.14801176724E+04  0.24028523620E+04  0.50400001928E-02 0.  1.
       -1    1    3    3    0  502  0.83512264690E+03 -0.16986822287E+04 -0.90836343711E+03  0.20995416841E+04  0.50400001928E-02 0. -1.
</event>
<event>
 5   0  0.1070988E-07  0.3276508E+04  0.7818609E-02  0.8168899E-01
        1   -1    0    0  501    0  0.00000000000E+00  0.00000000000E+00  0.23243258890E+04  0.23243258890E+04  0.50400001928E-02 0.  1.
       -1   -1    0    0    0  501  0.00000000000E+00  0.00000000000E+00 -0.11546903654E+04  0.11546903654E+04  0.50400001928E-02 0. -1.
    10030    2    1    2    0    0  0.00000000000E+00  0.00000000000E+00  0.11696355237E+04  0.34790162544E+04  0.32765083306E+04 0.  0.
        2    1    3    3  502    0 -0.15957942725E+04 -0.93375390202E+02  0.96558795204E+03  0.18675219990E+04  0.25500000920E-02 0. -1.
       -2    1    3    3    0  502  0.15957942725E+04  0.93375390202E+02  0.20404757162E+03  0.16114942554E+04  0.25500000920E-02 0.  1.
</event>
<event>
 5   0  0.3377396E-07  0.3743438E+04  0.7818609E-02  0.8058403E-01
       -2   -1    0    0    0  501  0.00000000000E+00  0.00000000000E+00  0.13653395156E+04  0.13653395156E+04  0.25500000920E-02 0.  1.
        2   -1    0    0  501    0  0.00000000000E+00  0.00000000000E+00 -0.25659057610E+04  0.25659057610E+04  0.25500000920E-02 0. -1.
    10030    2    1    2    0    0  0.00000000000E+00  0.00000000000E+00 -0.12005662453E+04  0.39312452766E+04  0.37434382745E+04 0.  0.
        5    1    3    3  502    0  0.27066629148E+03 -0.11658788502E+04 -0.21114975805E+04  0.24271336710E+04  0.46999998093E+01 0. -1.
       -5    1    3    3    0  502 -0.27066629148E+03  0.11658788502E+04  0.91093133513E+03  0.15041116055E+04  0.46999998093E+01 0.  1.
</event>
<event>
 5   0  0.3509843E-07  0.3813410E+04  0.7818609E-02  0.8043283E-01
        2   -1    0    0  501    0  0.00000000000E+00  0.00000000000E+00  0.16347407955E+04  0.16347407955E+04  0.25500000920E-02 0.  1.
       -2   -1    0    0    0  501  0.00000000000E+00  0.00000000000E+00 -0.22239141297E+04  0.22239141297E+04  0.25500000920E-02 0. -1.
    10030    2    1    2    0    0  0.00000000000E+00  0.00000000000E+00 -0.58917333424E+03  0.38586549252E+04  0.38134095786E+04 0.  0.
        4    1    3    3  502    0  0.17143363371E+04  0.59556105576E+02 -0.11369454472E+04  0.20579462017E+04  0.12699999809E+01 0. -1.
       -4    1    3    3    0  502 -0.17143363371E+04 -0.59556105576E+02  0.54777211292E+03  0.18007087235E+04  0.12699999809E+01 0.  1.
</event>
<event>
 5   0  0.1070988E-07  0.3864458E+04  0.7818609E-02  0.8032462E-01
        1   -1    0    0  501    0  0.00000000000E+00  0.00000000000E+00  0.27334890108E+04  0.27334890108E+04  0.50400001928E-02 0.  1.
       -1   -1    0    0    0  501  0.00000000000E+00  0.00000000000E+00 -0.13658401828E+04  0.13658401828E+04  0.50400001928E-02 0. -1.
    10030    2    1    2    0    0  0.00000000000E+00  0.00000000000E+00  0.13676488280E+04  0.40993291935E+04  0.38644581147E+04 0.  0.
        5    1    3    3  502    0 -0.15138350871E+04 -0.11997192572E+04  0.73648079219E+03  0.20672322110E+04  0.46999998093E+01 0.  1.
       -5    1    3    3    0  502  0.15138350871E+04  0.11997192572E+04  0.63116803582E+03  0.20320969825E+04  0.46999998093E+01 0. -1.
</event>
<event>
 5   0  0.1070988E-07  0.3858964E+04  0.7818609E-02  0.8033618E-01
       -1   -1    0    0    0  501  0.00000000000E+00  0.00000000000E+00  0.19720948517E+04  0.19720948517E+04  0.50400001928E-02 0.  1.
        1   -1    0    0  501    0  0.00000000000E+00  0.00000000000E+00 -0.18877896806E+04  0.18877896806E+04  0.50400001928E-02 0. -1.
    10030    2    1    2    0    0  0.00000000000E+00  0.00000000000E+00  0.84305171082E+02  0.38598845324E+04  0.38589637523E+04 0.  0.
        2    1    3    3  502    0 -0.19135374763E+04 -0.38705309612E+02 -0.20239815777E+03  0.19246009426E+04  0.25500000920E-02 0.  1.
       -2    1    3    3    0  502  0.19135374763E+04  0.38705309612E+02  0.28670332885E+03  0.19352835898E+04  0.25500000920E-02 0. -1.
</event>
<event>
 5   0  0.3509843E-07  0.3750150E+04  0.7818609E-02  0.8056938E-01
        2   -1    0    0  501    0  0.00000000000E+00  0.00000000000E+00  0.21765403582E+04  0.21765403582E+04  0.25500000920E-02 0. -1.
       -2   -1    0    0    0  501  0.00000000000E+00  0.00000000000E+00 -0.16153648337E+04  0.16153648337E+04  0.25500000920E-02 0.  1.
    10030    2    1    2    0    0  0.00000000000E+00  0.00000000000E+00  0.56117552451E+03  0.37919051920E+04  0.37501502657E+04 0.  0.
        4    1    3    3  502    0 -0.71991015909E+03 -0.75287704511E+03  0.18570528826E+04  0.21292584399E+04  0.12699999809E+01 0. -1.
       -4    1    3    3    0  502  0.71991015909E+03  0.75287704511E+03 -0.12958773581E+04  0.16626467521E+04  0.12699999809E+01 0.  1.
</event>
<event>
 5   0  0.1085771E-07  0.3817298E+04  0.7818609E-02  0.8042453E-01
       -1   -1    0    0    0  501  0.00000000000E+00  0.00000000000E+00  0.20658357138E+04  0.20658357138E+04  0.50400001928E-02 0. -1.
        1   -1    0    0  501    0  0.00000000000E+00  0.00000000000E+00 -0.17634223633E+04  0.17634223633E+04  0.50400001928E-02 0.  1.
    10030    2    1    2    0    0  0.00000000000E+00  0.00000000000E+00  0.30241335055E+03  0.38292580771E+04  0.38172979431E+04 0.  0.
        1    1    3    3  502    0  0.83195190433E+03 -0.16877413684E+04  0.47209327036E+03  0.19399708641E+04  0.50400001928E-02 0. -1.
       -1    1    3    3    0  502 -0.83195190433E+03  0.16877413684E+04 -0.16967991981E+03  0.18892872129E+04  0.50400001928E-02 0.  1.
</event>
<event>
 5   0  0.3539010E-07  0.3805194E+04  0.7818609E-02  0.8045041E-01
       -2   -1    0    0    0  501  0.00000000000E+00  0.00000000000E+00  0.19736126927E+04  0.19736126927E+04  0.25500000920E-02 0.  1.
        2   -1    0    0  501    0  0.00000000000E+00  0.00000000000E+00 -0.18341367474E+04  0.18341367474E+04  0.25500000920E-02 0. -1.
    10030    2    1    2    0    0  0.00000000000E+00  0.00000000000E+00  0.13947594523E+03  0.38077494401E+04  0.38051941159E+04 0.  0.
        1    1    3    3  502    0  0.31525115059E+03  0.17740102621E+04 -0.54172053886E+03  0.18814773026E+04  0.50400001928E-02 0. -1.
       -1    1    3    3    0  502 -0.31525115059E+03 -0.17740102621E+04  0.68119648410E+03  0.19262721375E+04  0.50400001928E-02 0.  1.
</event>
<event>
 5   0  0.1085771E-07  0.3756637E+04  0.7818609E-02  0.8055525E-01
       -1   -1    0    0    0  501  0.00000000000E+00  0.00000000000E+00  0.29476912723E+04  0.29476912723E+04  0.50400001928E-02 0. -1.
        1   -1    0    0  501    0  0.00000000000E+00  0.00000000000E+00 -0.11968963908E+04  0.11968963908E+04  0.50400001928E-02 0.  1.
    10030    2    1    2    0    0  0.00000000000E+00  0.00000000000E+00  0.17507948815E+04  0.41445876631E+04  0.37566373501E+04 0.  0.
        1    1    3    3  502    0 -0.16556976741E+04  0.80009839883E+03  0.45298911848E+03  0.18938562188E+04  0.50400001928E-02 0.  1.
       -1    1    3    3    0  502  0.16556976741E+04 -0.80009839883E+03  0.12978057630E+04  0.22507314443E+04  0.50400001928E-02 0. -1.
</event>
<event>
 5   0  0.1085771E-07  0.3807613E+04  0.7818609E-02  0.8044523E-01
        1   -1    0    0  501    0  0.00000000000E+00  0.00000000000E+00  0.28130084446E+04  0.28130084446E+04  0.50400001928E-02 0.  1.
       -1   -1    0    0    0  501  0.00000000000E+00  0.00000000000E+00 -0.12884707855E+04  0.12884707855E+04  0.50400001928E-02 0. -1.
    10030    2    1    2    0    0  0.00000000000E+00  0.00000000000E+00  0.15245376591E+04  0.41014792301E+04  0.38076130057E+04 0.  0.
        1    1    3    3  502    0 -0.24697806031E+03  0.99989143122E+03  0.24869990029E+04  0.26918293180E+04  0.50400001928E-02 0.  1.
       -1    1    3    3    0  502  0.24697806031E+03 -0.99989143122E+03 -0.96246134382E+03  0.14096499122E+04  0.50400001928E-02 0. -1.
</event>
<event>
 5   0  0.3377396E-07  0.3806526E+04  0.7818609E-02  0.8044756E-01
        2   -1    0    0  501    0  0.00000000000E+00  0.00000000000E+00  0.17096449329E+04  0.17096449329E+04  0.25500000920E-02 0.  1.
       -2   -1    0    0    0  501  0.00000000000E+00  0.00000000000E+00 -0.21188085923E+04  0.21188085923E+04  0.25500000920E-02 0. -1.
    10030    2    1    2    0    0  0.00000000000E+00  0.00000000000E+00 -0.40916365942E+03  0.38284535253E+04  0.38065261716E+04 0.  0.
        5    1    3    3  502    0  0.17090198528E+04 -0.70500115213E+03  0.25036533268E+03  0.18656045593E+04  0.46999998093E+01 0.  1.
       -5    1    3    3    0  502 -0.17090198528E+04  0.70500115213E+03 -0.65952899210E+03  0.19628489660E+04  0.46999998093E+01 0. -1.
</event>
<event>
 5   0  0.1070988E-07  0.3812599E+04  0.7818609E-02  0.8043457E-01
       -3   -1    0    0    0  501  0.00000000000E+00  0.00000000000E+00  0.22653425689E+04  0.22653425712E+04  0.10100000352E+00 0. -1.
        3   -1    0    0  501    0  0.00000000000E+00  0.00000000000E+00 -0.16041624888E+04  0.16041624919E+04  0.10100000352E+00 0.  1.
    10030    2    1    2    0    0  0.00000000000E+00  0.00000000000E+00  0.66118008017E+03  0.38695050631E+04  0.38125988951E+04 0.  0.
        5    1    3    3  502    0  0.16485869510E+03 -0.18722075595E+04  0.70595164462E+01  0.18794710591E+04  0.46999998093E+01 0.  1.
       -5    1    3    3    0  502 -0.16485869510E+03  0.18722075595E+04  0.65412056372E+03  0.19900340040E+04  0.46999998093E+01 0. -1.
</event>
<event>
 5   0  0.3327241E-07  0.4079174E+04  0.7818609E-02  0.7988762E-01
       -2   -1    0    0    0  501  0.00000000000E+00  0.00000000000E+00  0.19001563891E+04  0.19001563891E+04  0.25500000920E-02 0. -1.
        2   -1    0    0  501    0  0.00000000000E+00  0.00000000000E+00 -0.21892491580E+04  0.21892491580E+04  0.25500000920E-02 0.  1.
    10030    2    1    2    0    0  0.00000000000E+00  0.00000000000E+00 -0.28909276896E+03  0.40894055471E+04  0.40791743159E+04 0.  0.
        3    1    3    3  502    0  0.56589572812E+03 -0.36262180234E+03 -0.20750406208E+04  0.21811754021E+04  0.10100000352E+00 0.  1.
       -3    1    3    3    0  502 -0.56589572812E+03  0.36262180234E+03  0.17859478518E+04  0.19082301450E+04  0.10100000352E+00 0. -1.
</event>
<event>
 5   0  0.3509843E-07  0.3755379E+04  0.7818609E-02  0.8055799E-01
        2   -1    0    0  501    0  0.00000000000E+00  0.00000000000E+00  0.18767226584E+04  0.18767226584E+04  0.25500000920E-02 0.  1.
       -2   -1    0    0    0  501  0.00000000000E+00  0.00000000000E+00 -0.18786566612E+04  0.18786566612E+04  0.25500000920E-02 0. -1.
    10030    2    1    2    0    0  0.00000000000E+00  0.00000000000E+00 -0.19340027176E+01  0.37553793196E+04  0.37553788216E+04 0.  0.
        4    1    3    3  502    0 -0.10056700364E+03 -0.63608832122E+03 -0.17647681979E+04  0.18785980091E+04  0.12699999809E+01 0. -1.
       -4    1    3    3    0  502  0.10056700364E+03  0.63608832122E+03  0.17628341952E+04  0.18767813105E+04  0.12699999809E+01 0.  1.
</event>
<event>
 5   0  0.3327241E-07  0.3812010E+04  0.7818609E-02  0.8043582E-01
        2   -1    0    0  501    0  0.00000000000E+00  0.00000000000E+00  0.20887444312E+04  0.20887444312E+04  0.25500000920E-02 0.  1.
       -2   -1    0    0    0  501  0.00000000000E+00  0.00000000000E+00 -0.17392534657E+04  0.17392534657E+04  0.25500000920E-02 0. -1.
    10030    2    1    2    0    0  0.00000000000E+00  0.00000000000E+00  0.34949096550E+03  0.38279978968E+04  0.38120104884E+04 0.  0.
        3    1    3    3  502    0 -0.16302747957E+04  0.45248538481E+03  0.10561034975E+04  0.19944657281E+04  0.10100000352E+00 0.  1.
       -3    1    3    3    0  502  0.16302747957E+04 -0.45248538481E+03 -0.70661253202E+03  0.18335321687E+04  0.10100000352E+00 0. -1.
</event>
<event>
 5   0  0.3539010E-07  0.3500421E+04  0.7818609E-02  0.8113690E-01
        2   -1    0    0  501    0  0.00000000000E+00  0.00000000000E+00  0.15534044058E+04  0.15534044058E+04  0.25500000920E-02 0.  1.
       -2   -1    0    0    0  501  0.00000000000E+00  0.00000000000E+00 -0.19719500812E+04  0.19719500812E+04  0.25500000920E-02 0. -1.
    10030    2    1    2    0    0  0.00000000000E+00  0.00000000000E+00 -0.41854567542E+03  0.35253544870E+04  0.35004205142E+04 0.  0.
        1    1    3    3  502    0 -0.79050358880E+03 -0.15559018294E+04 -0.76006745462E+02  0.17468553037E+04  0.50400001928E-02 0.  1.
       -1    1    3    3    0  502  0.79050358880E+03  0.15559018294E+04 -0.34253892996E+03  0.17784991833E+04  0.50400001928E-02 0. -1.
</event>
<event>
 5   0  0.1070988E-07  0.3798313E+04  0.7818609E-02  0.8046517E-01
        1   -1    0    0  501    0  0.00000000000E+00  0.00000000000E+00  0.20042734268E+04  0.20042734268E+04  0.50400001928E-02 0. -1.
       -1   -1    0    0    0  501  0.00000000000E+00  0.00000000000E+00 -0.17995529884E+04  0.17995529884E+04  0.50400001928E-02 0.  1.
    10030    2    1    2    0    0  0.00000000000E+00  0.00000000000E+00  0.20472043837E+03  0.38038264152E+04  0.37983134335E+04 0.  0.
        2    1    3    3  502    0 -0.15515694629E+04  0.23542041701E+03 -0.96877420724E+03  0.18442651750E+04  0.25500000920E-02 0.  1.
       -2    1    3    3    0  502  0.15515694629E+04 -0.23542041701E+03  0.11734946456E+04  0.19595612403E+04  0.25500000920E-02 0. -1.
</event>
<event>
 5   0  0.1084315E-07  0.3805787E+04  0.7818609E-02  0.8044914E-01
       -1   -1    0    0    0  501  0.00000000000E+00  0.00000000000E+00  0.20008557971E+04  0.20008557971E+04  0.50400001928E-02 0.  1.
        1   -1    0    0  501    0  0.00000000000E+00  0.00000000000E+00 -0.18097278285E+04  0.18097278285E+04  0.50400001928E-02 0. -1.
    10030    2    1    2    0    0  0.00000000000E+00  0.00000000000E+00  0.19112796858E+03  0.38105836256E+04  0.38057873912E+04 0.  0.
        4    1    3    3  502    0 -0.40848111477E+03  0.48450709912E+03  0.18920935404E+04  0.19954005936E+04  0.12699999809E+01 0.  1.
       -4    1    3    3    0  502  0.40848111477E+03 -0.48450709912E+03 -0.17009655718E+04  0.18151830320E+04  0.12699999809E+01 0. -1.
</event>
<event>
 5   0  0.3377396E-07  0.3827515E+04  0.7818609E-02  0.8040276E-01
        2   -1    0    0  501    0  0.00000000000E+00  0.00000000000E+00  0.15777162335E+04  0.15777162335E+04  0.25500000920E-02 0.  1.
       -2   -1    0    0    0  501  0.00000000000E+00  0.00000000000E+00 -0.23213723484E+04  0.23213723484E+04  0.25500000920E-02 0. -1.
    10030    2    1    2    0    0  0.00000000000E+00  0.00000000000E+00 -0.74365611485E+03  0.38990885819E+04  0.38275145137E+04 0.  0.
        5    1    3    3  502    0  0.88924569928E+03 -0.14613366061E+04  0.50222722046E+03  0.17828395500E+04  0.46999998093E+01 0.  1.
       -5    1    3    3    0  502 -0.88924569928E+03  0.14613366061E+04 -0.12458833353E+04  0.21162490319E+04  0.46999998093E+01 0. -1.
</event>
<event>
 5   0  0.1085771E-07  0.3851445E+04  0.7818609E-02  0.8035204E-01
        1   -1    0    0  501    0  0.00000000000E+00  0.00000000000E+00  0.27631812339E+04  0.27631812339E+04  0.50400001928E-02 0.  1.
       -1   -1    0    0    0  501  0.00000000000E+00  0.00000000000E+00 -0.13420789973E+04  0.13420789973E+04  0.50400001928E-02 0. -1.
    10030    2    1    2    0    0  0.00000000000E+00  0.00000000000E+00  0.14211022366E+04  0.41052602313E+04  0.38514451832E+04 0.  0.
        1    1    3    3  502    0 -0.63990274281E+03  0.12206557758E+04 -0.72304899496E+03  0.15563662462E+04  0.50400001928E-02 0. -1.
       -1    1    3    3    0  502  0.63990274281E+03 -0.12206557758E+04  0.21441512315E+04  0.25488939850E+04  0.50400001928E-02 0.  1.
</event>
<event>
 5   0  0.1084315E-07  0.3802371E+04  0.7818609E-02  0.8045646E-01
       -1   -1    0    0    0  501  0.00000000000E+00  0.00000000000E+00  0.16306116635E+04  0.16306116635E+04  0.50400001928E-02 0. -1.
        1   -1    0    0  501    0  0.00000000000E+00  0.00000000000E+00 -0.22166568660E+04  0.22166568660E+04  0.50400001928E-02 0.  1.
    10030    2    1    2    0    0  0.00000000000E+00  0.00000000000E+00 -0.58604520247E+03  0.38472685295E+04  0.38023711233E+04 0.  0.
        4    1    3    3  502    0  0.46770218092E+03 -0.96948047861E+03  0.12926022221E+04  0.16820998324E+04  0.12699999809E+01 0. -1.
       -4    1    3    3    0  502 -0.46770218092E+03  0.96948047861E+03 -0.18786474246E+04  0.21651686972E+04  0.12699999809E+01 0.  1.
</event>
<event>
 5   0  0.1070988E-07  0.3719431E+04  0.7818609E-02  0.8063669E-01
        1   -1    0    0  501    0  0.00000000000E+00  0.00000000000E+00  0.16610310369E+04  0.16610310369E+04  0.50400001928E-02 0.  1.
       -1   -1    0    0    0  501  0.00000000000E+00  0.00000000000E+00 -0.20821650835E+04  0.20821650835E+04  0.50400001928E-02 0. -1.
    10030    2    1    2    0    0  0.00000000000E+00  0.00000000000E+00 -0.42113404661E+03  0.37431961203E+04  0.37194305088E+04 0.  0.
        5    1    3    3  502    0 -0.82539058257E+03  0.16612640225E+04 -0.77620821587E+02  0.18566407429E+04  0.46999998093E+01 0.  1.
       -5    1    3    3    0  502  0.82539058257E+03 -0.16612640225E+04 -0.34351322503E+03  0.18865553774E+04  0.46999998093E+01 0. -1.
</event>
<event>
 5   0  0.3509843E-07  0.3852659E+04  0.7818609E-02  0.8034948E-01
        2   -1    0    0  501    0  0.00000000000E+00  0.00000000000E+00  0.19446639138E+04  0.19446639138E+04  0.25500000920E-02 0. -1.
       -2   -1    0    0    0  501  0.00000000000E+00  0.00000000000E+00 -0.19081679831E+04  0.19081679831E+04  0.25500000920E-02 0.  1.
    10030    2    1    2    0    0  0.00000000000E+00  0.00000000000E+00  0.36495930623E+02  0.38528318969E+04  0.38526590392E+04 0.  0.
        4    1    3    3  502    0  0.15624900800E+03 -0.14160635929E+03 -0.18965905891E+04  0.19082776499E+04  0.12699999809E+01 0.  1.
       -4    1    3    3    0  502 -0.15624900800E+03  0.14160635929E+03  0.19330865198E+04  0.19445542469E+04  0.12699999809E+01 0. -1.
</event>
<event>
 5   0  0.1085771E-07  0.3393962E+04  0.7818609E-02  0.8139390E-01
       -1   -1    0    0    0  501  0.00000000000E+00  0.00000000000E+00  0.15550968718E+04  0.15550968718E+04  0.50400001928E-02 0.  1.
        1   -1    0    0  501    0  0.00000000000E+00  0.00000000000E+00 -0.18518098977E+04  0.18518098977E+04  0.50400001928E-02 0. -1.
    10030    2    1    2    0    0  0.00000000000E+00  0.00000000000E+00 -0.29671302588E+03  0.34069067695E+04  0.33939615667E+04 0.  0.
        1    1    3    3  502    0  0.24478411381E+03  0.16640957823E+04 -0.37418067084E+03  0.17231207762E+04  0.50400001928E-02 0. -1.
       -1    1    3    3    0  502 -0.24478411381E+03 -0.16640957823E+04  0.77467644964E+02  0.16837859933E+04  0.50400001928E-02 0.  1.
</event>
<event>
 5   0  0.3442126E-07  0.3638209E+04  0.7818609E-02  0.8081795E-01
        2   -1    0    0  501    0  0.00000000000E+00  0.00000000000E+00  0.12893795615E+04  0.12893795615E+04  0.25500000920E-02 0. -1.
       -2   -1    0    0    0  501  0.00000000000E+00  0.00000000000E+00 -0.25664602796E+04  0.25664602796E+04  0.25500000920E-02 0.  1.
    10030    2    1    2    0    0  0.00000000000E+00  0.00000000000E+00 -0.12770807181E+04  0.38558398411E+04  0.36382091364E+04 0.  0.
        2    1    3    3  502    0 -0.10240663550E+03  0.15844264013E+04 -0.15794817420E+04  0.22395661887E+04  0.25500000920E-02 0.  1.
       -2    1    3    3    0  502  0.10240663550E+03 -0.15844264013E+04  0.30240102387E+03  0.16162736524E+04  0.25500000920E-02 0. -1.
</event>
<event>
 5   0  0.3377396E-07  0.3834032E+04  0.7818609E-02  0.8038891E-01
        2   -1    0    0  501    0  0.00000000000E+00  0.00000000000E+00  0.20124524540E+04  0.20124524540E+04  0.25500000920E-02 0.  1.
       -2   -1    0    0    0  501  0.00000000000E+00  0.00000000000E+00 -0.18261056496E+04  0.18261056496E+04  0.25500000920E-02 0. -1.
    10030    2    1    2    0    0  0.00000000000E+00  0.00000000000E+00  0.18634680446E+03  0.38385581036E+04  0.38340322355E+04 0.  0.
        5    1    3    3  502    0 -0.53507874767E+03  0.33008359158E+03 -0.17199487022E+04  0.18312591492E+04  0.46999998093E+01 0. -1.
       -5    1    3    3    0  502  0.53507874767E+03 -0.33008359158E+03  0.19062955066E+04  0.20072989544E+04  0.46999998093E+01 0.  1.
</event>
<event>
 5   0  0.1070988E-07  0.3606060E+04  0.7818609E-02  0.8089105E-01
        1   -1    0    0  501    0  0.00000000000E+00  0.00000000000E+00  0.11488833314E+04  0.11488833314E+04  0.50400001928E-02 0.  1.
       -1   -1    0    0    0  501  0.00000000000E+00  0.00000000000E+00 -0.28296315980E+04  0.28296315980E+04  0.50400001928E-02 0. -1.
    10030    2    1    2    0    0  0.00000000000E+00  0.00000000000E+00 -0.16807482666E+04  0.39785149294E+04  0.36060596650E+04 0.  0.
        3    1    3    3  502    0 -0.58617386107E+03  0.69958060466E+03 -0.25559407561E+04  0.27140092072E+04  0.10100000352E+00 0. -1.
       -3    1    3    3    0  502  0.58617386107E+03 -0.69958060466E+03  0.87519248942E+03  0.12645057222E+04  0.10100000352E+00 0.  1.
</event>
<event>
 5   0  0.1070988E-07  0.3798556E+04  0.7818609E-02  0.8046465E-01
        1   -1    0    0  501    0  0.00000000000E+00  0.00000000000E+00  0.27423424206E+04  0.27423424206E+04  0.50400001928E-02 0. -1.
       -1   -1    0    0    0  501  0.00000000000E+00  0.00000000000E+00 -0.13153923228E+04  0.13153923228E+04  0.50400001928E-02 0.  1.
    10030    2    1    2    0    0  0.00000000000E+00  0.00000000000E+00  0.14269500978E+04  0.40577347434E+04  0.37985556027E+04 0.  0.
        5    1    3    3  502    0  0.17823092003E+04  0.36905104625E+03  0.13385828212E+03  0.18250383256E+04  0.46999998093E+01 0.  1.
       -5    1    3    3    0  502 -0.17823092003E+04 -0.36905104625E+03  0.12930918157E+04  0.22326964178E+04  0.46999998093E+01 0. -1.
</event>
<event>
 5   0  0.3442126E-07  0.3575848E+04  0.7818609E-02  0.8096046E-01
        2   -1    0    0  501    0  0.00000000000E+00  0.00000000000E+00  0.17370240166E+04  0.17370240166E+04  0.25500000920E-02 0.  1.
       -2   -1    0    0    0  501  0.00000000000E+00  0.00000000000E+00 -0.18403157102E+04  0.18403157102E+04  0.25500000920E-02 0. -1.
    10030    2    1    2    0    0  0.00000000000E+00  0.00000000000E+00 -0.10329169361E+03  0.35773397268E+04  0.35758481997E+04 0.  0.
        2    1    3    3  502    0  0.27207390563E+03 -0.94372213328E+03 -0.15462693166E+04  0.18318254487E+04  0.25500000920E-02 0. -1.
       -2    1    3    3    0  502 -0.27207390563E+03  0.94372213328E+03  0.14429776230E+04  0.17455142782E+04  0.25500000920E-02 0.  1.
</event>
<event>
 5   0  0.1084315E-07  0.3958398E+04  0.7818609E-02  0.8012992E-01
        1   -1    0    0  501    0  0.00000000000E+00  0.00000000000E+00  0.27127770852E+04  0.27127770852E+04  0.50400001928E-02 0. -1.
       -1   -1    0    0    0  501  0.00000000000E+00  0.00000000000E+00 -0.14439917395E+04  0.14439917395E+04  0.50400001928E-02 0.  1.
    10030    2    1    2    0    0  0.00000000000E+00  0.00000000000E+00  0.12687853457E+04  0.41567688247E+04  0.39583975051E+04 0.  0.
        4    1    3    3  502    0  0.19298026970E+03 -0.11191983511E+04 -0.10677575761E+04  0.15588310325E+04  0.12699999809E+01 0.  1.
       -4    1    3    3    0  502 -0.19298026970E+03  0.11191983511E+04  0.23365429218E+04  0.25979377922E+04  0.12699999809E+01 0. -1.
</event>
<event>
 5   0  0.3327241E-07  0.3807109E+04  0.7818609E-02  0.8044631E-01
        2   -1    0    0  501    0  0.00000000000E+00  0.00000000000E+00  0.14044593532E+04  0.14044593532E+04  0.25500000920E-02 0. -1.
       -2   -1    0    0    0  501  0.00000000000E+00  0.00000000000E+00 -0.25800107022E+04  0.25800107022E+04  0.25500000920E-02 0.  1.
    10030    2    1    2    0    0  0.00000000000E+00  0.00000000000E+00 -0.11755513490E+04  0.39844700554E+04  0.38071092246E+04 0.  0.
        3    1    3    3  502    0  0.16474249049E+04  0.94092219703E+03 -0.75050814725E+03  0.20402465261E+04  0.10100000352E+00 0.  1.
       -3    1    3    3    0  502 -0.16474249049E+04 -0.94092219703E+03 -0.42504320177E+03  0.19442235292E+04  0.10100000352E+00 0. -1.
</event>
<event>
 5   0  0.3377396E-07  0.3863439E+04  0.7818609E-02  0.8032676E-01
        2   -1    0    0  501    0  0.00000000000E+00  0.00000000000E+00  0.24150819021E+04  0.24150819021E+04  0.25500000920E-02 0.  1.
       -2   -1    0    0    0  501  0.00000000000E+00  0.00000000000E+00 -0.15450988322E+04  0.15450988322E+04  0.25500000920E-02 0. -1.
    10030    2    1    2    0    0  0.00000000000E+00  0.00000000000E+00  0.86998306988E+03  0.39601807344E+04  0.38634390000E+04 0.  0.
        5    1    3    3  502    0 -0.15505110990E+04 -0.11329286985E+04  0.64977608869E+03  0.20272748110E+04  0.46999998093E+01 0. -1.
       -5    1    3    3    0  502  0.15505110990E+04  0.11329286985E+04  0.22020698119E+03  0.19329059233E+04  0.46999998093E+01 0.  1.
</event>
<event>
 5   0  0.3539010E-07  0.3251801E+04  0.7818609E-02  0.8175269E-01
        2   -1    0    0  501    0  0.00000000000E+00  0.00000000000E+00  0.10142031773E+04  0.10142031773E+04  0.25500000920E-02 0.  1.
       -2   -1    0    0    0  501  0.00000000000E+00  0.00000000000E+00 -0.26065317799E+04  0.26065317799E+04  0.25500000920E-02 0. -1.
    10030    2    1    2    0    0  0.00000000000E+00  0.00000000000E+00 -0.15923286026E+04  0.36207349572E+04  0.32518012319E+04 0.  0.
        1    1    3    3  502    0  0.13107972463E+04  0.84934523542E+03 -0.29328663705E+03  0.15892116918E+04  0.50400001928E-02 0.  1.
       -1    1    3    3    0  502 -0.13107972463E+04 -0.84934523542E+03 -0.12990419655E+04  0.20315232654E+04  0.50400001928E-02 0. -1.
</event>
<event>
 5   0  0.1085771E-07  0.3050251E+04  0.7818609E-02  0.8229525E-01
        1   -1    0    0  501    0  0.00000000000E+00  0.00000000000E+00  0.15373395610E+04  0.15373395610E+04  0.50400001928E-02 0. -1.
       -1   -1    0    0    0  501  0.00000000000E+00  0.00000000000E+00 -0.15130082319E+04  0.15130082319E+04  0.50400001928E-02 0.  1.
    10030    2    1    2    0    0  0.00000000000E+00  0.00000000000E+00  0.24331329100E+02  0.30503477929E+04  0.30502507510E+04 0.  0.
        1    1    3    3  502    0 -0.10310954588E+04  0.94784774181E+03 -0.59153741908E+03  0.15203584133E+04  0.50400001928E-02 0.  1.
       -1    1    3    3    0  502  0.10310954588E+04 -0.94784774181E+03  0.61586874818E+03  0.15299893796E+04  0.50400001928E-02 0. -1.
</event>
<event>
 5   0  0.3539010E-07  0.3655357E+04  0.7818609E-02  0.8077928E-01
        2   -1    0    0  501    0  0.00000000000E+00  0.00000000000E+00  0.23438867943E+04  0.23438867943E+04  0.25500000920E-02 0.  1.
       -2   -1    0    0    0  501  0.00000000000E+00  0.00000000000E+00 -0.14251582307E+04  0.14251582307E+04  0.25500000920E-02 0. -1.
    10030    2    1    2    0    0  0.00000000000E+00  0.00000000000E+00  0.91872856354E+03  0.37690450250E+04  0.36553574691E+04 0.  0.
        1    1    3    3  502    0 -0.88097879649E+03 -0.10675943322E+04  0.16900212230E+04  0.21845029256E+04  0.50400001928E-02 0.  1.
       -1    1    3    3    0  502  0.88097879649E+03  0.10675943322E+04 -0.77129265943E+03  0.15845420993E+04  0.50400001928E-02 0. -1.
</event>
<event>
 5   0  0.1085771E-07  0.3852827E+04  0.7818609E-02  0.8034912E-01
        1   -1    0    0  501    0  0.00000000000E+00  0.00000000000E+00  0.19911937591E+04  0.19911937591E+04  0.50400001928E-02 0.  1.
       -1   -1    0    0    0  501  0.00000000000E+00  0.00000000000E+00 -0.18637412061E+04  0.18637412061E+04  0.50400001928E-02 0. -1.
    10030    2    1    2    0    0  0.00000000000E+00  0.00000000000E+00  0.12745255306E+03  0.38549349652E+04  0.38528274595E+04 0.  0.
        1    1    3    3  502    0  0.42262168809E+03 -0.15654868114E+04 -0.97689638889E+03  0.18930622289E+04  0.50400001928E-02 0. -1.
       -1    1    3    3    0  502 -0.42262168809E+03  0.15654868114E+04  0.11043489420E+04  0.19618727363E+04  0.50400001928E-02 0.  1.
</event>
<event>
 5   0  0.3509843E-07  0.3828358E+04  0.7818609E-02  0.8040097E-01
        2   -1    0    0  501    0  0.00000000000E+00  0.00000000000E+00  0.14378608093E+04  0.14378608093E+04  0.25500000920E-02 0. -1.
       -2   -1    0    0    0  501  0.00000000000E+00  0.00000000000E+00 -0.25482864845E+04  0.25482864845E+04  0.25500000920E-02 0.  1.
    10030    2    1    2    0    0  0.00000000000E+00  0.00000000000E+00 -0.11104256752E+04  0.39861472938E+04  0.38283580120E+04 0.  0.
        4    1    3    3  502    0 -0.54037899983E+03  0.17684650357E+04 -0.40256447196E+02  0.18496216479E+04  0.12699999809E+01 0. -1.
       -4    1    3    3    0  502  0.54037899983E+03 -0.17684650357E+04 -0.10701692280E+04  0.21365256459E+04  0.12699999809E+01 0.  1.
</event>
<event>
 5   0  0.1085771E-07  0.3849261E+04  0.7818609E-02  0.8035666E-01
       -1   -1    0    0    0  501  0.00000000000E+00  0.00000000000E+00  0.12990151163E+04  0.12990151163E+04  0.50400001928E-02 0.  1.
        1   -1    0    0  501    0  0.00000000000E+00  0.00000000000E+00 -0.28515465470E+04  0.28515465470E+04  0.50400001928E-02 0. -1.
    10030    2    1    2    0    0  0.00000000000E+00  0.00000000000E+00 -0.15525314307E+04  0.41505616633E+04  0.38492607443E+04 0.  0.
        1    1    3    3  502    0 -0.18564652016E+04  0.35960618812E+03 -0.38985429399E+03  0.19307423510E+04  0.50400001928E-02 0. -1.
       -1    1    3    3    0  502  0.18564652016E+04 -0.35960618812E+03 -0.11626771367E+04  0.22198193124E+04  0.50400001928E-02 0.  1.
</event>
<event>
 5   0  0.3377396E-07  0.3681150E+04  0.7818609E-02  0.8072152E-01
        2   -1    0    0  501    0  0.00000000000E+00  0.00000000000E+00  0.25403719550E+04  0.25403719550E+04  0.25500000920E-02 0.  1.
       -2   -1    0    0    0  501  0.00000000000E+00  0.00000000000E+00 -0.13335511310E+04  0.13335511310E+04  0.25500000920E-02 0. -1.
    10030    2    1    2    0    0  0.00000000000E+00  0.00000000000E+00  0.12068208240E+04  0.38739230861E+04  0.36811497627E+04 0.  0.
        5    1    3    3  502    0 -0.11030651300E+04  0.76561838452E+03  0.19282111912E+04  0.23496690575E+04  0.46999998093E+01 0.  1.
       -5    1    3    3    0  502  0.11030651300E+04 -0.76561838452E+03 -0.72139036721E+03  0.15242540286E+04  0.46999998093E+01 0. -1.
</event>
<event>
 5   0  0.3377396E-07  0.3819385E+04  0.7818609E-02  0.8042008E-01
       -2   -1    0    0    0  501  0.00000000000E+00  0.00000000000E+00  0.19817869074E+04  0.19817869074E+04  0.25500000920E-02 0. -1.
        2   -1    0    0  501    0  0.00000000000E+00  0.00000000000E+00 -0.18402205761E+04  0.18402205761E+04  0.25500000920E-02 0.  1.
    10030    2    1    2    0    0  0.00000000000E+00  0.00000000000E+00  0.14156633131E+03  0.38220074836E+04  0.38193847905E+04 0.  0.
        5    1    3    3  502    0  0.16545525559E+04 -0.73954469019E+03 -0.53165385693E+03  0.18886896046E+04  0.46999998093E+01 0. -1.
       -5    1    3    3    0  502 -0.16545525559E+04  0.73954469019E+03  0.67322018824E+03  0.19333178789E+04  0.46999998093E+01 0.  1.
</event>
<event>
 5   0  0.3442126E-07  0.3769511E+04  0.7818609E-02  0.8052730E-01
       -2   -1    0    0    0  501  0.00000000000E+00  0.00000000000E+00  0.25023277952E+04  0.25023277952E+04  0.25500000920E-02 0.  1.
        2   -1    0    0  501    0  0.00000000000E+00  0.00000000000E+00 -0.14195993094E+04  0.14195993094E+04  0.25500000920E-02 0. -1.
    10030    2    1    2    0    0  0.00000000000E+00  0.00000000000E+00  0.10827284858E+04  0.39219271046E+04  0.37695107428E+04 0.  0.
        2    1    3    3  502    0  0.16559175899E+04 -0.59074384193E+03  0.12479878071E+04  0.21560414926E+04  0.25500000920E-02 0.  1.
       -2    1    3    3    0  502 -0.16559175899E+04  0.59074384193E+03 -0.16525932128E+03  0.17658856120E+04  0.25500000920E-02 0. -1.
</event>
<event>
 5   0  0.3442126E-07  0.3804960E+04  0.7818609E-02  0.8045091E-01
        2   -1    0    0  501    0  0.00000000000E+00  0.00000000000E+00  0.10908107644E+04  0.10908107645E+04  0.25500000920E-02 0.  1.
       -2   -1    0    0    0  501  0.00000000000E+00  0.00000000000E+00 -0.33181097879E+04  0.33181097879E+04  0.25500000920E-02 0. -1.
    10030    2    1    2    0    0  0.00000000000E+00  0.00000000000E+00 -0.22272990235E+04  0.44089205524E+04  0.38049598549E+04 0.  0.
        2    1    3    3  502    0  0.17781819970E+04 -0.56597506916E+03 -0.15428035048E+04  0.24212603429E+04  0.25500000920E-02 0. -1.
       -2    1    3    3    0  502 -0.17781819970E+04  0.56597506916E+03 -0.68449551866E+03  0.19876602095E+04  0.25500000920E-02 0.  1.
</event>
<event>
 5   0  0.3539010E-07  0.3792685E+04  0.7818609E-02  0.8047727E-01
       -2   -1    0    0    0  501  0.00000000000E+00  0.00000000000E+00  0.22575858098E+04  0.22575858098E+04  0.25500000920E-02 0. -1.
        2   -1    0    0  501    0  0.00000000000E+00  0.00000000000E+00 -0.15929025101E+04  0.15929025101E+04  0.25500000920E-02 0.  1.
    10030    2    1    2    0    0  0.00000000000E+00  0.00000000000E+00  0.66468329970E+03  0.38504883199E+04  0.37926845918E+04 0.  0.
        1    1    3    3  502    0 -0.14872053976E+04 -0.25260273937E+03  0.14989969863E+04  0.21266358418E+04  0.50400001928E-02 0. -1.
       -1    1    3    3    0  502  0.14872053976E+04  0.25260273937E+03 -0.83431368663E+03  0.17238524781E+04  0.50400001928E-02 0.  1.
</event>
<event>
 5   0  0.1070988E-07  0.3762513E+04  0.7818609E-02  0.8054248E-01
        1   -1    0    0  501    0  0.00000000000E+00  0.00000000000E+00  0.18958399892E+04  0.18958399892E+04  0.50400001928E-02 0. -1.
       -1   -1    0    0    0  501  0.00000000000E+00  0.00000000000E+00 -0.18667854261E+04  0.18667854261E+04  0.50400001928E-02 0.  1.
    10030    2    1    2    0    0  0.00000000000E+00  0.00000000000E+00  0.29054563055E+02  0.37626254153E+04  0.37625132356E+04 0.  0.
        5    1    3    3  502    0 -0.17919348206E+04  0.71934928851E+02  0.58278654606E+03  0.18857007407E+04  0.46999998093E+01 0.  1.
       -5    1    3    3    0  502  0.17919348206E+04 -0.71934928851E+02 -0.55373198300E+03  0.18769246746E+04  0.46999998093E+01 0. -1.
</event>
<event>
 5   0  0.1070988E-07  0.3759351E+04  0.7818609E-02  0.8054935E-01
       -1   -1    0    0    0  501  0.00000000000E+00  0.00000000000E+00  0.15072478616E+04  0.15072478617E+04  0.50400001928E-02 0.  1.
        1   -1    0    0  501    0  0.00000000000E+00  0.00000000000E+00 -0.23441264298E+04  0.23441264298E+04  0.50400001928E-02 0. -1.
    10030    2    1    2    0    0  0.00000000000E+00  0.00000000000E+00 -0.83687856811E+03  0.38513742914E+04  0.37593507677E+04 0.  0.
        3    1    3    3  502    0 -0.14168017276E+04  0.21492757236E+03  0.82774890337E+03  0.16548985630E+04  0.10100000352E+00 0.  1.
       -3    1    3    3    0  502  0.14168017276E+04 -0.21492757236E+03 -0.16646274715E+04  0.21964757284E+04  0.10100000352E+00 0. -1.
</event>
<event>
 5   0  0.3327241E-07  0.3544037E+04  0.7818609E-02  0.8103432E-01
        2   -1    0    0  501    0  0.00000000000E+00  0.00000000000E+00  0.21152373048E+04  0.21152373048E+04  0.25500000920E-02 0. -1.
       -2   -1    0    0    0  501  0.00000000000E+00  0.00000000000E+00 -0.14844907663E+04  0.14844907663E+04  0.25500000920E-02 0.  1.
    10030    2    1    2    0    0  0.00000000000E+00  0.00000000000E+00  0.63074653850E+03  0.35997280712E+04  0.35440373856E+04 0.  0.
        3    1    3    3  502    0 -0.11358528548E+03  0.25144837620E+03 -0.14625387930E+04  0.14883372044E+04  0.10100000352E+00 0.  1.
       -3    1    3    3    0  502  0.11358528548E+03 -0.25144837620E+03  0.20932853315E+04  0.21113908667E+04  0.10100000352E+00 0. -1.
</event>
<event>
 5   0  0.1085771E-07  0.3819339E+04  0.7818609E-02  0.8042017E-01
       -1   -1    0    0    0  501  0.00000000000E+00  0.00000000000E+00  0.27401812590E+04  0.27401812590E+04  0.50400001928E-02 0. -1.
        1   -1    0    0  501    0  0.00000000000E+00  0.00000000000E+00 -0.13308747009E+04  0.13308747009E+04  0.50400001928E-02 0.  1.
    10030    2    1    2    0    0  0.00000000000E+00  0.00000000000E+00  0.14093065581E+04  0.40710559599E+04  0.38193391645E+04 0.  0.
        1    1    3    3  502    0  0.38381841998E+03  0.18473241039E+04  0.10188966943E+04  0.21443118705E+04  0.50400001928E-02 0. -1.
       -1    1    3    3    0  502 -0.38381841998E+03 -0.18473241039E+04  0.39040986385E+03  0.19267440894E+04  0.50400001928E-02 0.  1.
</event>
<event>
 5   0  0.3442126E-07  0.3497524E+04  0.7818609E-02  0.8114377E-01
       -2   -1    0    0    0  501  0.00000000000E+00  0.00000000000E+00  0.11363107824E+04  0.11363107824E+04  0.25500000920E-02 0. -1.
        2   -1    0    0  501    0  0.00000000000E+00  0.00000000000E+00 -0.26913135943E+04  0.26913135943E+04  0.25500000920E-02 0.  1.
    10030    2    1    2    0    0  0.00000000000E+00  0.00000000000E+00 -0.15550028119E+04  0.38276243767E+04  0.34975240706E+04 0.  0.
        2    1    3    3  502    0  0.87474369580E+02  0.11368238246E+04 -0.22285981739E+04  0.25033317787E+04  0.25500000920E-02 0.  1.
       -2    1    3    3    0  502 -0.87474369580E+02 -0.11368238246E+04  0.67359536200E+03  0.13242925980E+04  0.25500000920E-02 0. -1.
</event>
<event>
 5   0  0.1084315E-07  0.3824635E+04  0.7818609E-02  0.8040889E-01
       -1   -1    0    0    0  501  0.00000000000E+00  0.00000000000E+00  0.18061272085E+04  0.18061272085E+04  0.50400001928E-02 0.  1.
        1   -1    0    0  501    0  0.00000000000E+00  0.00000000000E+00 -0.20247508708E+04  0.20247508708E+04  0.50400001928E-02 0. -1.
    10030    2    1    2    0    0  0.00000000000E+00  0.00000000000E+00 -0.21862366228E+03  0.38308780792E+04  0.38246346953E+04 0.  0.
        4    1    3    3  502    0 -0.15902159935E+04  0.32809495114E+03  0.90254654400E+03  0.18576934839E+04  0.12699999809E+01 0.  1.
       -4    1    3    3    0  502  0.15902159935E+04 -0.32809495114E+03 -0.11211702063E+04  0.19731845954E+04  0.12699999809E+01 0. -1.
</event>
<event>
 5   0  0.1085771E-07  0.3684130E+04  0.7818609E-02  0.8071488E-01
        1   -1    0    0  501    0  0.00000000000E+00  0.00000000000E+00  0.13062182364E+04  0.13062182364E+04  0.50400001928E-02 0. -1.
       -1   -1    0    0    0  501  0.00000000000E+00  0.00000000000E+00 -0.25977310636E+04  0.25977310636E+04  0.50400001928E-02 0.  1.
    10030    2    1    2    0    0  0.00000000000E+00  0.00000000000E+00 -0.12915128273E+04  0.39039493000E+04  0.36841301217E+04 0.  0.
        1    1    3    3  502    0  0.13371916310E+04 -0.12599895091E+04 -0.78613190198E+03  0.19984139682E+04  0.50400001928E-02 0.  1.
       -1    1    3    3    0  502 -0.13371916310E+04  0.12599895091E+04 -0.50538092527E+03  0.19055353318E+04  0.50400001928E-02 0. -1.
</event>
<event>
 5   0  0.1070988E-07  0.3653640E+04  0.7818609E-02  0.8078314E-01
       -1   -1    0    0    0  501  0.00000000000E+00  0.00000000000E+00  0.16055420783E+04  0.16055420783E+04  0.50400001928E-02 0.  1.
        1   -1    0    0  501    0  0.00000000000E+00  0.00000000000E+00 -0.20785946083E+04  0.20785946083E+04  0.50400001928E-02 0. -1.
    10030    2    1    2    0    0  0.00000000000E+00  0.00000000000E+00 -0.47305252996E+03  0.36841366866E+04  0.36536398878E+04 0.  0.
        2    1    3    3  502    0 -0.29978031473E+03  0.80288691187E+03  0.13902519501E+04  0.16331858789E+04  0.25500000920E-02 0.  1.
       -2    1    3    3    0  502  0.29978031473E+03 -0.80288691187E+03 -0.18633044800E+04  0.20509508077E+04  0.25500000920E-02 0. -1.
</event>
<event>
 5   0  0.1070988E-07  0.3741150E+04  0.7818609E-02  0.8058903E-01
        1   -1    0    0  501    0  0.00000000000E+00  0.00000000000E+00  0.18653075490E+04  0.18653075490E+04  0.50400001928E-02 0. -1.
       -1   -1    0    0    0  501  0.00000000000E+00  0.00000000000E+00 -0.18758577334E+04  0.18758577334E+04  0.50400001928E-02 0.  1.
    10030    2    1    2    0    0  0.00000000000E+00  0.00000000000E+00 -0.10550184338E+02  0.37411652824E+04  0.37411504065E+04 0.  0.
        5    1    3    3  502    0  0.15230127875E+04 -0.10018951950E+04  0.41385372505E+03  0.18694006869E+04  0.46999998093E+01 0. -1.
       -5    1    3    3    0  502 -0.15230127875E+04  0.10018951950E+04 -0.42440390939E+03  0.18717645955E+04  0.46999998093E+01 0.  1.
</event>
<event>
 5   0  0.3509843E-07  0.3711227E+04  0.7818609E-02  0.8065478E-01
        2   -1    0    0  501    0  0.00000000000E+00  0.00000000000E+00  0.22281388945E+04  0.22281388945E+04  0.25500000920E-02 0. -1.
       -2   -1    0    0    0  501  0.00000000000E+00  0.00000000000E+00 -0.15453713249E+04  0.15453713249E+04  0.25500000920E-02 0.  1.
    10030    2    1    2    0    0  0.00000000000E+00  0.00000000000E+00  0.68276756963E+03  0.37735102194E+04  0.37112272662E+04 0.  0.
        4    1    3    3  502    0 -0.36989718073E+03  0.13263042089E+04 -0.92343519285E+03  0.16579025747E+04  0.12699999809E+01 0.  1.
       -4    1    3    3    0  502  0.36989718073E+03 -0.13263042089E+04  0.16062027625E+04  0.21156076446E+04  0.12699999809E+01 0. -1.
</event>
<event>
 5   0  0.3509843E-07  0.3716987E+04  0.7818609E-02  0.8064208E-01
       -2   -1    0    0    0  501  0.00000000000E+00  0.00000000000E+00  0.15502327860E+04  0.15502327860E+04  0.25500000920E-02 0. -1.
        2   -1    0    0  501    0  0.00000000000E+00  0.00000000000E+00 -0.22280516730E+04  0.22280516730E+04  0.25500000920E-02 0.  1.
    10030    2    1    2    0    0  0.00000000000E+00  0.00000000000E+00 -0.67781888700E+03  0.37782844591E+04  0.37169873567E+04 0.  0.
        4    1    3    3  502    0  0.15339280512E+03 -0.94342493181E+03 -0.19590626663E+04  0.21797954258E+04  0.12699999809E+01 0.  1.
       -4    1    3    3    0  502 -0.15339280512E+03  0.94342493181E+03  0.12812437793E+04  0.15984890333E+04  0.12699999809E+01 0. -1.
</event>
<event>
 5   0  0.1070988E-07  0.3845834E+04  0.7818609E-02  0.8036390E-01
        1   -1    0    0  501    0  0.00000000000E+00  0.00000000000E+00  0.22171260571E+04  0.22171260571E+04  0.50400001928E-02 0. -1.
       -1   -1    0    0    0  501  0.00000000000E+00  0.00000000000E+00 -0.16677492974E+04  0.16677492974E+04  0.50400001928E-02 0.  1.
    10030    2    1    2    0    0  0.00000000000E+00  0.00000000000E+00  0.54937675966E+03  0.38848753545E+04  0.38458343303E+04 0.  0.
        2    1    3    3  502    0  0.50365692383E+02 -0.17769522792E+04  0.10152846764E+04  0.20471685519E+04  0.25500000920E-02 0. -1.
       -2    1    3    3    0  502 -0.50365692383E+02  0.17769522792E+04 -0.46590791672E+03  0.18377068026E+04  0.25500000920E-02 0.  1.
</event>
<event>
 5   0  0.3509843E-07  0.3771662E+04  0.7818609E-02  0.8052264E-01
        2   -1    0    0  501    0  0.00000000000E+00  0.00000000000E+00  0.21826091241E+04  0.21826091241E+04  0.25500000920E-02 0. -1.
       -2   -1    0    0    0  501  0.00000000000E+00  0.00000000000E+00 -0.16294071024E+04  0.16294071024E+04  0.25500000920E-02 0.  1.
    10030    2    1    2    0    0  0.00000000000E+00  0.00000000000E+00  0.55320202167E+03  0.38120162265E+04  0.37716621315E+04 0.  0.
        4    1    3    3  502    0 -0.14192416722E+03  0.11512249014E+04  0.17794180537E+04  0.21240978004E+04  0.12699999809E+01 0. -1.
       -4    1    3    3    0  502  0.14192416722E+03 -0.11512249014E+04 -0.12262160321E+04  0.16879184261E+04  0.12699999809E+01 0.  1.
</event>
<event>
 5   0  0.3539010E-07  0.3842143E+04  0.7818609E-02  0.8037171E-01
       -2   -1    0    0    0  501  0.00000000000E+00  0.00000000000E+00  0.19825912148E+04  0.19825912148E+04  0.25500000920E-02 0.  1.
        2   -1    0    0  501    0  0.00000000000E+00  0.00000000000E+00 -0.18614610523E+04  0.18614610523E+04  0.25500000920E-02 0. -1.
    10030    2    1    2    0    0  0.00000000000E+00  0.00000000000E+00  0.12113016249E+03  0.38440522670E+04  0.38421433231E+04 0.  0.
        1    1    3    3  502    0 -0.22563556196E+03 -0.52936632849E+03 -0.17732056814E+04  0.18642420726E+04  0.50400001928E-02 0. -1.
       -1    1    3    3    0  502  0.22563556196E+03  0.52936632849E+03  0.18943358439E+04  0.19798101944E+04  0.50400001928E-02 0.  1.
</event>
<event>
 5   0  0.3509843E-07  0.3838953E+04  0.7818609E-02  0.8037847E-01
       -2   -1    0    0    0  501  0.00000000000E+00  0.00000000000E+00  0.13634480845E+04  0.13634480845E+04  0.25500000920E-02 0.  1.
        2   -1    0    0  501    0  0.00000000000E+00  0.00000000000E+00 -0.27022588541E+04  0.27022588541E+04  0.25500000920E-02 0. -1.
    10030    2    1    2    0    0  0.00000000000E+00  0.00000000000E+00 -0.13388107696E+04  0.40657069386E+04  0.38389528043E+04 0.  0.
        4    1    3    3  502    0 -0.18606095230E+04  0.20839838503E+03 -0.22121823063E+03  0.18852683635E+04  0.12699999809E+01 0. -1.
       -4    1    3    3    0  502  0.18606095230E+04 -0.20839838503E+03 -0.11175925390E+04  0.21804385751E+04  0.12699999809E+01 0.  1.
</event>
<event>
 5   0  0.1070988E-07  0.3761190E+04  0.7818609E-02  0.8054535E-01
       -1   -1    0    0    0  501  0.00000000000E+00  0.00000000000E+00  0.24454875341E+04  0.24454875341E+04  0.50400001928E-02 0. -1.
        1   -1    0    0  501    0  0.00000000000E+00  0.00000000000E+00 -0.14461890782E+04  0.14461890782E+04  0.50400001928E-02 0.  1.
    10030    2    1    2    0    0  0.00000000000E+00  0.00000000000E+00  0.99929845581E+03  0.38916766123E+04  0.37611898983E+04 0.  0.
        5    1    3    3  502    0 -0.11568435031E+04  0.38749006948E+03  0.19804462272E+04  0.23260749759E+04  0.46999998093E+01 0. -1.
       -5    1    3    3    0  502  0.11568435031E+04 -0.38749006948E+03 -0.98114777141E+03  0.15656016364E+04  0.46999998093E+01 0.  1.
</event>
<event>
 5   0  0.3377396E-07  0.3809503E+04  0.7818609E-02  0.8044119E-01
       -2   -1    0    0    0  501  0.00000000000E+00  0.00000000000E+00  0.15736239425E+04  0.15736239425E+04  0.25500000920E-02 0. -1.
        2   -1    0    0  501    0  0.00000000000E+00  0.00000000000E+00 -0.23055560158E+04  0.23055560158E+04  0.25500000920E-02 0.  1.
    10030    2    1    2    0    0  0.00000000000E+00  0.00000000000E+00 -0.73193207330E+03  0.38791799583E+04  0.38095029320E+04 0.  0.
        5    1    3    3  502    0  0.93588030544E+03 -0.16526233373E+04 -0.51360133407E+03  0.19674461267E+04  0.46999998093E+01 0. -1.
       -5    1    3    3    0  502 -0.93588030544E+03  0.16526233373E+04 -0.21833073923E+03  0.19117338316E+04  0.46999998093E+01 0.  1.
</event>
<event>
 5   0  0.1070988E-07  0.3815231E+04  0.7818609E-02  0.8042894E-01
       -1   -1    0    0    0  501  0.00000000000E+00  0.00000000000E+00  0.14174998947E+04  0.14174998947E+04  0.50400001928E-02 0.  1.
        1   -1    0    0  501    0  0.00000000000E+00  0.00000000000E+00 -0.25671940269E+04  0.25671940269E+04  0.50400001928E-02 0. -1.
    10030    2    1    2    0    0  0.00000000000E+00  0.00000000000E+00 -0.11496941322E+04  0.39846939217E+04  0.38152311924E+04 0.  0.
        5    1    3    3  502    0 -0.13681285129E+04  0.13256409408E+04 -0.67863736383E+03  0.20222933253E+04  0.46999998093E+01 0.  1.
       -5    1    3    3    0  502  0.13681285129E+04 -0.13256409408E+04 -0.47105676835E+03  0.19624005964E+04  0.46999998093E+01 0. -1.
</event>
<event>
 5   0  0.1070988E-07  0.3739430E+04  0.7818609E-02  0.8059279E-01
        1   -1    0    0  501    0  0.00000000000E+00  0.00000000000E+00  0.10728873180E+04  0.10728873180E+04  0.50400001928E-02 0. -1.
       -1   -1    0    0    0  501  0.00000000000E+00  0.00000000000E+00 -0.32583428013E+04  0.32583428013E+04  0.50400001928E-02 0.  1.
    10030    2    1    2    0    0  0.00000000000E+00  0.00000000000E+00 -0.21854554833E+04  0.43312301193E+04  0.37394302610E+04 0.  0.
        3    1    3    3  502    0 -0.55748181755E+03  0.15990897570E+04 -0.17487707238E+03  0.17024852506E+04  0.10100000352E+00 0. -1.
       -3    1    3    3    0  502  0.55748181755E+03 -0.15990897570E+04 -0.20105784110E+04  0.26287448687E+04  0.10100000352E+00 0.  1.
</event>
<event>
 5   0  0.3377396E-07  0.3746344E+04  0.7818609E-02  0.8057768E-01
       -2   -1    0    0    0  501  0.00000000000E+00  0.00000000000E+00  0.18264549482E+04  0.18264549482E+04  0.25500000920E-02 0. -1.
        2   -1    0    0  501    0  0.00000000000E+00  0.00000000000E+00 -0.19210843744E+04  0.19210843744E+04  0.25500000920E-02 0.  1.
    10030    2    1    2    0    0  0.00000000000E+00  0.00000000000E+00 -0.94629426136E+02  0.37475393226E+04  0.37463443844E+04 0.  0.
        5    1    3    3  502    0 -0.12934983304E+04  0.88347080332E+03 -0.10748197279E+04  0.18997152756E+04  0.46999998093E+01 0.  1.
       -5    1    3    3    0  502  0.12934983304E+04 -0.88347080332E+03  0.98019030172E+03  0.18478240470E+04  0.46999998093E+01 0. -1.
</event>
<event>
 5   0  0.1085771E-07  0.3595969E+04  0.7818609E-02  0.8091416E-01
        1   -1    0    0  501    0  0.00000000000E+00  0.00000000000E+00  0.14480480683E+04  0.14480480683E+04  0.50400001928E-02 0. -1.
       -1   -1    0    0    0  501  0.00000000000E+00  0.00000000000E+00 -0.22324865829E+04  0.22324865829E+04  0.50400001928E-02 0.  1.
    10030    2    1    2    0    0  0.00000000000E+00  0.00000000000E+00 -0.78443851453E+03  0.36805346512E+04  0.35959687896E+04 0.  0.
        1    1    3    3  502    0 -0.32716438633E+02 -0.12722790930E+04 -0.16921192754E+04  0.21173171936E+04  0.50400001928E-02 0.  1.
       -1    1    3    3    0  502  0.32716438633E+02  0.12722790930E+04  0.90768076091E+03  0.15632174576E+04  0.50400001928E-02 0. -1.
</event>
<event>
 5   0  0.1084315E-07  0.3818888E+04  0.7818609E-02  0.8042114E-01
        1   -1    0    0  501    0  0.00000000000E+00  0.00000000000E+00  0.16703767805E+04  0.16703767805E+04  0.50400001928E-02 0. -1.
       -1   -1    0    0    0  501  0.00000000000E+00  0.00000000000E+00 -0.21827271441E+04  0.21827271441E+04  0.50400001928E-02 0.  1.
    10030    2    1    2    0    0  0.00000000000E+00  0.00000000000E+00 -0.51235036358E+03  0.38531039246E+04  0.38188881835E+04 0.  0.
        4    1    3    3  502    0 -0.21988692044E+03  0.59433882043E+03  0.15611810119E+04  0.16848966307E+04  0.12699999809E+01 0. -1.
       -4    1    3    3    0  502  0.21988692044E+03 -0.59433882043E+03 -0.20735313755E+04  0.21682072939E+04  0.12699999809E+01 0.  1.
</event>
<event>
 5   0  0.1070988E-07  0.3736123E+04  0.7818609E-02  0.8060003E-01
        1   -1    0    0  501    0  0.00000000000E+00  0.00000000000E+00  0.16182032701E+04  0.16182032702E+04  0.50400001928E-02 0. -1.
       -1   -1    0    0    0  501  0.00000000000E+00  0.00000000000E+00 -0.21564994459E+04  0.21564994459E+04  0.50400001928E-02 0.  1.
    10030    2    1    2    0    0  0.00000000000E+00  0.00000000000E+00 -0.53829617570E+03  0.37747027160E+04  0.37361233681E+04 0.  0.
        5    1    3    3  502    0 -0.17283893406E+04 -0.69796935378E+03 -0.14482692924E+03  0.18696223846E+04  0.46999998093E+01 0.  1.
       -5    1    3    3    0  502  0.17283893406E+04  0.69796935378E+03 -0.39346924646E+03  0.19050803315E+04  0.46999998093E+01 0. -1.
</event>
<event>
 5   0  0.1085771E-07  0.3726093E+04  0.7818609E-02  0.8062204E-01
        1   -1    0    0  501    0  0.00000000000E+00  0.00000000000E+00  0.29523302586E+04  0.29523302586E+04  0.50400001928E-02 0. -1.
       -1   -1    0    0    0  501  0.00000000000E+00  0.00000000000E+00 -0.11756617320E+04  0.11756617320E+04  0.50400001928E-02 0.  1.
    10030    2    1    2    0    0  0.00000000000E+00  0.00000000000E+00  0.17766685266E+04  0.41279919906E+04  0.37260927017E+04 0.  0.
        1    1    3    3  502    0 -0.58379790135E+03 -0.64206868768E+03  0.27147493745E+04  0.28500765526E+04  0.50400001928E-02 0. -1.
       -1    1    3    3    0  502  0.58379790135E+03  0.64206868768E+03 -0.93808084796E+03  0.12779154380E+04  0.50400001928E-02 0.  1.
</event>
<event>
 5   0  0.1085771E-07  0.3778976E+04  0.7818609E-02  0.8050682E-01
        1   -1    0    0  501    0  0.00000000000E+00  0.00000000000E+00  0.10147977083E+04  0.10147977083E+04  0.50400001928E-02 0.  1.
       -1   -1    0    0    0  501  0.00000000000E+00  0.00000000000E+00 -0.35181053365E+04  0.35181053365E+04  0.50400001928E-02 0. -1.
    10030    2    1    2    0    0  0.00000000000E+00  0.00000000000E+00 -0.25033076283E+04  0.45329030448E+04  0.37789761751E+04 0.  0.
        1    1    3    3  502    0  0.10043761076E+04  0.15831735154E+04 -0.15328489528E+04  0.24217422773E+04  0.50400001928E-02 0.  1.
       -1    1    3    3    0  502 -0.10043761076E+04 -0.15831735154E+04 -0.97045867543E+03  0.21111607675E+04  0.50400001928E-02 0. -1.
</event>
<event>
 5   0  0.3509843E-07  0.3648284E+04  0.7818609E-02  0.8079520E-01
        2   -1    0    0  501    0  0.00000000000E+00  0.00000000000E+00  0.11264388055E+04  0.11264388055E+04  0.25500000920E-02 0.  1.
       -2   -1    0    0    0  501  0.00000000000E+00  0.00000000000E+00 -0.29539940341E+04  0.29539940341E+04  0.25500000920E-02 0. -1.
    10030    2    1    2    0    0  0.00000000000E+00  0.00000000000E+00 -0.18275552286E+04  0.40804328396E+04  0.36482837122E+04 0.  0.
        4    1    3    3  502    0  0.69075478901E+03 -0.64587238862E+03 -0.26584199495E+04  0.28216115186E+04  0.12699999809E+01 0. -1.
       -4    1    3    3    0  502 -0.69075478901E+03  0.64587238862E+03  0.83086472089E+03  0.12588213210E+04  0.12699999809E+01 0.  1.
</event>
<event>
 5   0  0.1084315E-07  0.3780347E+04  0.7818609E-02  0.8050386E-01
        1   -1    0    0  501    0  0.00000000000E+00  0.00000000000E+00  0.25675946636E+04  0.25675946636E+04  0.50400001928E-02 0. -1.
       -1   -1    0    0    0  501  0.00000000000E+00  0.00000000000E+00 -0.13914798272E+04  0.13914798272E+04  0.50400001928E-02 0.  1.
    10030    2    1    2    0    0  0.00000000000E+00  0.00000000000E+00  0.11761148363E+04  0.39590744908E+04  0.37803471686E+04 0.  0.
        4    1    3    3  502    0  0.18593868546E+04 -0.17845653539E+03  0.28527205363E+03  0.18895893648E+04  0.12699999809E+01 0.  1.
       -4    1    3    3    0  502 -0.18593868546E+04  0.17845653539E+03  0.89084278271E+03  0.20694851260E+04  0.12699999809E+01 0. -1.
</event>
<event>
 5   0  0.1085771E-07  0.3851029E+04  0.7818609E-02  0.8035292E-01
       -1   -1    0    0    0  501  0.00000000000E+00  0.00000000000E+00  0.16412583036E+04  0.16412583037E+04  0.50400001928E-02 0.  1.
        1   -1    0    0  501    0  0.00000000000E+00  0.00000000000E+00 -0.22590016640E+04  0.22590016640E+04  0.50400001928E-02 0. -1.
    10030    2    1    2    0    0  0.00000000000E+00  0.00000000000E+00 -0.61774336037E+03  0.39002599677E+04  0.38510285582E+04 0.  0.
        1    1    3    3  502    0 -0.14717053081E+04 -0.60624830314E+03  0.78856361969E+03  0.17763125010E+04  0.50400001928E-02 0.  1.
       -1    1    3    3    0  502  0.14717053081E+04  0.60624830314E+03 -0.14063069801E+04  0.21239474667E+04  0.50400001928E-02 0. -1.
</event>
<event>
 5   0  0.1070988E-07  0.3802973E+04  0.7818609E-02  0.8045517E-01
       -1   -1    0    0    0  501  0.00000000000E+00  0.00000000000E+00  0.14577893638E+04  0.14577893638E+04  0.50400001928E-02 0.  1.
        1   -1    0    0  501    0  0.00000000000E+00  0.00000000000E+00 -0.24802288704E+04  0.24802288704E+04  0.50400001928E-02 0. -1.
    10030    2    1    2    0    0  0.00000000000E+00  0.00000000000E+00 -0.10224395065E+04  0.39380182342E+04  0.38029731880E+04 0.  0.
        3    1    3    3  502    0  0.11719233033E+04 -0.35226896524E+03  0.99584941371E+03  0.15777242210E+04  0.10100000352E+00 0.  1.
       -3    1    3    3    0  502 -0.11719233033E+04  0.35226896524E+03 -0.20182889203E+04  0.23602940131E+04  0.10100000352E+00 0. -1.
</event>
<event>
 5   0  0.1070988E-07  0.3772785E+04  0.7818609E-02  0.8052020E-01
        1   -1    0    0  501    0  0.00000000000E+00  0.00000000000E+00  0.20909930717E+04  0.20909930717E+04  0.50400001928E-02 0.  1.
       -1   -1    0    0    0  501  0.00000000000E+00  0.00000000000E+00 -0.17018117884E+04  0.17018117884E+04  0.50400001928E-02 0. -1.
    10030    2    1    2    0    0  0.00000000000E+00  0.00000000000E+00  0.38918128329E+03  0.37928048601E+04  0.37727849972E+04 0.  0.
        5    1    3    3  502    0 -0.16098908063E+04  0.84668518694E+03  0.69707326147E+03  0.19479623805E+04  0.46999998093E+01 0.  1.
       -5    1    3    3    0  502  0.16098908063E+04 -0.84668518694E+03 -0.30789197818E+03  0.18448424795E+04  0.46999998093E+01 0. -1.
</event>
<event>
 5   0  0.3509843E-07  0.3764241E+04  0.7818609E-02  0.8053873E-01
        2   -1    0    0  501    0  0.00000000000E+00  0.00000000000E+00  0.22929918977E+04  0.22929918977E+04  0.25500000920E-02 0. -1.
       -2   -1    0    0    0  501  0.00000000000E+00  0.00000000000E+00 -0.15448711572E+04  0.15448711572E+04  0.25500000920E-02 0.  1.
    10030    2    1    2    0    0  0.00000000000E+00  0.00000000000E+00  0.74812074048E+03  0.38378630549E+04  0.37642407184E+04 0.  0.
        4    1    3    3  502    0  0.62694890756E+03  0.14866093083E+04  0.13621924565E+04  0.21115496844E+04  0.12699999809E+01 0. -1.
       -4    1    3    3    0  502 -0.62694890756E+03 -0.14866093083E+04 -0.61407171604E+03  0.17263133706E+04  0.12699999809E+01 0.  1.
</event>
<event>
 5   0  0.1070988E-07  0.3419926E+04  0.7818609E-02  0.8133033E-01
        1   -1    0    0  501    0  0.00000000000E+00  0.00000000000E+00  0.24935297946E+04  0.24935297946E+04  0.50400001928E-02 0.  1.
       -1   -1    0    0    0  501  0.00000000000E+00  0.00000000000E+00 -0.11726243147E+04  0.11726243147E+04  0.50400001928E-02 0. -1.
    10030    2    1    2    0    0  0.00000000000E+00  0.00000000000E+00  0.13209054799E+04  0.36661541093E+04  0.34199261201E+04 0.  0.
        2    1    3    3  502    0 -0.10886361275E+04  0.71471885729E+03 -0.52749426509E+03  0.14050629391E+04  0.25500000920E-02 0. -1.
       -2    1    3    3    0  502  0.10886361275E+04 -0.71471885729E+03  0.18483997450E+04  0.22610911703E+04  0.25500000920E-02 0.  1.
</event>
<event>
 5   0  0.1084315E-07  0.3801073E+04  0.7818609E-02  0.8045925E-01
       -1   -1    0    0    0  501  0.00000000000E+00  0.00000000000E+00  0.13858692666E+04  0.13858692666E+04  0.50400001928E-02 0.  1.
        1   -1    0    0  501    0  0.00000000000E+00  0.00000000000E+00 -0.26063346143E+04  0.26063346143E+04  0.50400001928E-02 0. -1.
    10030    2    1    2    0    0  0.00000000000E+00  0.00000000000E+00 -0.12204653477E+04  0.39922038810E+04  0.38010730277E+04 0.  0.
        4    1    3    3  502    0 -0.10478152939E+04 -0.15824267308E+04 -0.71550323967E+03  0.20282844345E+04  0.12699999809E+01 0. -1.
       -4    1    3    3    0  502  0.10478152939E+04  0.15824267308E+04 -0.50496210805E+03  0.19639194464E+04  0.12699999809E+01 0.  1.
</event>
<event>
 5   0  0.3509843E-07  0.3650820E+04  0.7818609E-02  0.8078949E-01
        2   -1    0    0  501    0  0.00000000000E+00  0.00000000000E+00  0.16836089403E+04  0.16836089403E+04  0.25500000920E-02 0. -1.
       -2   -1    0    0    0  501  0.00000000000E+00  0.00000000000E+00 -0.19791536719E+04  0.19791536719E+04  0.25500000920E-02 0.  1.
    10030    2    1    2    0    0  0.00000000000E+00  0.00000000000E+00 -0.29554473161E+03  0.36627626123E+04  0.36508195334E+04 0.  0.
        4    1    3    3  502    0  0.13504421910E+04 -0.11953991338E+03 -0.13741193582E+04  0.19303340451E+04  0.12699999809E+01 0.  1.
       -4    1    3    3    0  502 -0.13504421910E+04  0.11953991338E+03  0.10785746266E+04  0.17324285671E+04  0.12699999809E+01 0. -1.
</event>
<event>
 5   0  0.3377396E-07  0.3843093E+04  0.7818609E-02  0.8036970E-01
       -2   -1    0    0    0  501  0.00000000000E+00  0.00000000000E+00  0.13128268918E+04  0.13128268918E+04  0.25500000920E-02 0.  1.
        2   -1    0    0  501    0  0.00000000000E+00  0.00000000000E+00 -0.28125120270E+04  0.28125120270E+04  0.25500000920E-02 0. -1.
    10030    2    1    2    0    0  0.00000000000E+00  0.00000000000E+00 -0.14996851351E+04  0.41253389188E+04  0.38430932451E+04 0.  0.
        5    1    3    3  502    0  0.93229285793E+03  0.40042708993E+03 -0.25014976691E+04  0.26994489263E+04  0.46999998093E+01 0. -1.
       -5    1    3    3    0  502 -0.93229285793E+03 -0.40042708993E+03  0.10018125340E+04  0.14258899925E+04  0.46999998093E+01 0.  1.
</event>
<event>
 5   0  0.1084315E-07  0.3774006E+04  0.7818609E-02  0.8051756E-01
        1   -1    0    0  501    0  0.00000000000E+00  0.00000000000E+00  0.17296690216E+04  0.17296690216E+04  0.50400001928E-02 0.  1.
       -1   -1    0    0    0  501  0.00000000000E+00  0.00000000000E+00 -0.20586482491E+04  0.20586482491E+04  0.50400001928E-02 0. -1.
    10030    2    1    2    0    0  0.00000000000E+00  0.00000000000E+00 -0.32897922754E+03  0.37883172707E+04  0.37740058839E+04 0.  0.
        4    1    3    3  502    0  0.89795492228E+02  0.34571020584E+03  0.16954262762E+04  0.17326426775E+04  0.12699999809E+01 0.  1.
       -4    1    3    3    0  502 -0.89795492228E+02 -0.34571020584E+03 -0.20244055037E+04  0.20556745933E+04  0.12699999809E+01 0. -1.
</event>
<event>
 5   0  0.3509843E-07  0.3847870E+04  0.7818609E-02  0.8035959E-01
        2   -1    0    0  501    0  0.00000000000E+00  0.00000000000E+00  0.20830491314E+04  0.20830491314E+04  0.25500000920E-02 0.  1.
       -2   -1    0    0    0  501  0.00000000000E+00  0.00000000000E+00 -0.17769751287E+04  0.17769751287E+04  0.25500000920E-02 0. -1.
    10030    2    1    2    0    0  0.00000000000E+00  0.00000000000E+00  0.30607400270E+03  0.38600242600E+04  0.38478703191E+04 0.  0.
        4    1    3    3  502    0  0.11219290943E+04  0.15629214635E+04  0.14426342455E+03  0.19293164443E+04  0.12699999809E+01 0. -1.
       -4    1    3    3    0  502 -0.11219290943E+04 -0.15629214635E+04  0.16181057816E+03  0.19307078157E+04  0.12699999809E+01 0.  1.
</event>
<event>
 5   0  0.3327241E-07  0.3837260E+04  0.7818609E-02  0.8038206E-01
        2   -1    0    0  501    0  0.00000000000E+00  0.00000000000E+00  0.20587323515E+04  0.20587323515E+04  0.25500000920E-02 0. -1.
       -2   -1    0    0    0  501  0.00000000000E+00  0.00000000000E+00 -0.17880621157E+04  0.17880621157E+04  0.25500000920E-02 0.  1.
    10030    2    1    2    0    0  0.00000000000E+00  0.00000000000E+00  0.27067023587E+03  0.38467944672E+04  0.38372601288E+04 0.  0.
        3    1    3    3  502    0  0.14343393628E+04 -0.11867350181E+04 -0.33000775347E+03  0.18906545264E+04  0.10100000352E+00 0.  1.
       -3    1    3    3    0  502 -0.14343393628E+04  0.11867350181E+04  0.60067798934E+03  0.19561399408E+04  0.10100000352E+00 0. -1.
</event>
<event>
 5   0  0.1070988E-07  0.3752905E+04  0.7818609E-02  0.8056338E-01
       -1   -1    0    0    0  501  0.00000000000E+00  0.00000000000E+00  0.22710210712E+04  0.22710210712E+04  0.50400001928E-02 0. -1.
        1   -1    0    0  501    0  0.00000000000E+00  0.00000000000E+00 -0.15504362332E+04  0.15504362332E+04  0.50400001928E-02 0.  1.
    10030    2    1    2    0    0  0.00000000000E+00  0.00000000000E+00  0.72058483804E+03  0.38214573044E+04  0.37529046644E+04 0.  0.
        5    1    3    3  502    0 -0.16893491809E+04  0.52971307882E+03  0.99338458369E+03  0.20301063080E+04  0.46999998093E+01 0.  1.
       -5    1    3    3    0  502  0.16893491809E+04 -0.52971307882E+03 -0.27279974565E+03  0.17913509963E+04  0.46999998093E+01 0. -1.
</event>
<event>
 5   0  0.3442126E-07  0.3823687E+04  0.7818609E-02  0.8041091E-01
       -2   -1    0    0    0  501  0.00000000000E+00  0.00000000000E+00  0.15339695896E+04  0.15339695896E+04  0.25500000920E-02 0.  1.
        2   -1    0    0  501    0  0.00000000000E+00  0.00000000000E+00 -0.23828014077E+04  0.23828014077E+04  0.25500000920E-02 0. -1.
    10030    2    1    2    0    0  0.00000000000E+00  0.00000000000E+00 -0.84883181811E+03  0.39167709973E+04  0.38236866490E+04 0.  0.
        2    1    3    3  502    0  0.72581896391E+03 -0.13806853730E+04  0.70795454886E+03  0.17129812932E+04  0.25500000920E-02 0.  1.
       -2    1    3    3    0  502 -0.72581896391E+03  0.13806853730E+04 -0.15567863670E+04  0.22037897041E+04  0.25500000920E-02 0. -1.
</event>
<event>
 5   0  0.3442126E-07  0.3803859E+04  0.7818609E-02  0.8045327E-01
       -2   -1    0    0    0  501  0.00000000000E+00  0.00000000000E+00  0.19997979608E+04  0.19997979608E+04  0.25500000920E-02 0. -1.
        2   -1    0    0  501    0  0.00000000000E+00  0.00000000000E+00 -0.18088505555E+04  0.18088505555E+04  0.25500000920E-02 0.  1.
    10030    2    1    2    0    0  0.00000000000E+00  0.00000000000E+00  0.19094740533E+03  0.38086485163E+04  0.38038589103E+04 0.  0.
        2    1    3    3  502    0  0.10273939932E+04 -0.18541411207E+03 -0.14963138515E+04  0.18245196498E+04  0.25500000920E-02 0.  1.
       -2    1    3    3    0  502 -0.10273939932E+04  0.18541411207E+03  0.16872612568E+04  0.19841288665E+04  0.25500000920E-02 0. -1.
</event>
<event>
 5   0  0.1070988E-07  0.3794408E+04  0.7818609E-02  0.8047356E-01
        1   -1    0    0  501    0  0.00000000000E+00  0.00000000000E+00  0.11986627338E+04  0.11986627338E+04  0.50400001928E-02 0. -1.
       -1   -1    0    0    0  501  0.00000000000E+00  0.00000000000E+00 -0.30028323557E+04  0.30028323557E+04  0.50400001928E-02 0.  1.
    10030    2    1    2    0    0  0.00000000000E+00  0.00000000000E+00 -0.18041696219E+04  0.42014950895E+04  0.37944081175E+04 0.  0.
        3    1    3    3  502    0 -0.10372623207E+04 -0.15560454593E+04 -0.54811223018E+03  0.19487477057E+04  0.10100000352E+00 0. -1.
       -3    1    3    3    0  502  0.10372623207E+04  0.15560454593E+04 -0.12560573917E+04  0.22527473837E+04  0.10100000352E+00 0.  1.
</event>
<event>
 5   0  0.3327241E-07  0.3786148E+04  0.7818609E-02  0.8049134E-01
       -2   -1    0    0    0  501  0.00000000000E+00  0.00000000000E+00  0.13966744891E+04  0.13966744891E+04  0.25500000920E-02 0.  1.
        2   -1    0    0  501    0  0.00000000000E+00  0.00000000000E+00 -0.25659011349E+04  0.25659011349E+04  0.25500000920E-02 0. -1.
    10030    2    1    2    0    0  0.00000000000E+00  0.00000000000E+00 -0.11692266458E+04  0.39625756241E+04  0.37861477292E+04 0.  0.
        3    1    3    3  502    0 -0.65869683561E+03  0.19590849976E+03  0.12615180675E+04  0.14365547349E+04  0.10100000352E+00 0.  1.
       -3    1    3    3    0  502  0.65869683561E+03 -0.19590849976E+03 -0.24307447133E+04  0.25260208892E+04  0.10100000352E+00 0. -1.
</event>
<event>
 5   0  0.1084315E-07  0.3722485E+04  0.7818609E-02  0.8062997E-01
        1   -1    0    0  501    0  0.00000000000E+00  0.00000000000E+00  0.10913141928E+04  0.10913141929E+04  0.50400001928E-02 0.  1.
       -1   -1    0    0    0  501  0.00000000000E+00  0.00000000000E+00 -0.31743598600E+04  0.31743598600E+04  0.50400001928E-02 0. -1.
    10030    2    1    2    0    0  0.00000000000E+00  0.00000000000E+00 -0.20830456671E+04  0.42656740528E+04  0.37224851744E+04 0.  0.
        4    1    3    3  502    0  0.95773412607E+03 -0.78547738353E+03  0.55043864628E+03  0.13554385609E+04  0.12699999809E+01 0.  1.
       -4    1    3    3    0  502 -0.95773412607E+03  0.78547738353E+03 -0.26334843134E+04  0.29102354919E+04  0.12699999809E+01 0. -1.
</event>
<event>
 5   0  0.1070988E-07  0.3809928E+04  0.7818609E-02  0.8044028E-01
        1   -1    0    0  501    0  0.00000000000E+00  0.00000000000E+00  0.14325786244E+04  0.14325786244E+04  0.50400001928E-02 0. -1.
       -1   -1    0    0    0  501  0.00000000000E+00  0.00000000000E+00 -0.25331156789E+04  0.25331156789E+04  0.50400001928E-02 0.  1.
    10030    2    1    2    0    0  0.00000000000E+00  0.00000000000E+00 -0.11005370545E+04  0.39656943033E+04  0.38099277550E+04 0.  0.
        3    1    3    3  502    0  0.15680514896E+04  0.95576569182E+03 -0.22987038904E+02  0.18365189751E+04  0.10100000352E+00 0. -1.
       -3    1    3    3    0  502 -0.15680514896E+04 -0.95576569182E+03 -0.10775500156E+04  0.21291753282E+04  0.10100000352E+00 0.  1.
</event>
<event>
 5   0  0.3442126E-07  0.3827139E+04  0.7818609E-02  0.8040356E-01
        2   -1    0    0  501    0  0.00000000000E+00  0.00000000000E+00  0.24967153224E+04  0.24967153224E+04  0.25500000920E-02 0.  1.
       -2   -1    0    0    0  501  0.00000000000E+00  0.00000000000E+00 -0.14666263884E+04  0.14666263884E+04  0.25500000920E-02 0. -1.
    10030    2    1    2    0    0  0.00000000000E+00  0.00000000000E+00  0.10300889340E+04  0.39633417107E+04  0.38271391801E+04 0.  0.
        2    1    3    3  502    0  0.25836269045E+03  0.29466427184E+03 -0.14246243906E+04  0.14775428816E+04  0.25500000920E-02 0. -1.
       -2    1    3    3    0  502 -0.25836269045E+03 -0.29466427184E+03  0.24547133246E+04  0.24857988291E+04  0.25500000920E-02 0.  1.
</event>
<event>
 5   0  0.1070988E-07  0.3926235E+04  0.7818609E-02  0.8019595E-01
       -1   -1    0    0    0  501  0.00000000000E+00  0.00000000000E+00  0.24274837711E+04  0.24274837711E+04  0.50400001928E-02 0. -1.
        1   -1    0    0  501    0  0.00000000000E+00  0.00000000000E+00 -0.15875824633E+04  0.15875824633E+04  0.50400001928E-02 0.  1.
    10030    2    1    2    0    0  0.00000000000E+00  0.00000000000E+00  0.83990130777E+03  0.40150662345E+04  0.39262351764E+04 0.  0.
        5    1    3    3  502    0  0.14893480944E+04 -0.12454925700E+04  0.12286253893E+03  0.19453860238E+04  0.46999998093E+01 0.  1.
       -5    1    3    3    0  502 -0.14893480944E+04  0.12454925700E+04  0.71703876884E+03  0.20696802106E+04  0.46999998093E+01 0. -1.
</event>
<event>
 5   0  0.3509843E-07  0.3849669E+04  0.7818609E-02  0.8035579E-01
        2   -1    0    0  501    0  0.00000000000E+00  0.00000000000E+00  0.28035000087E+04  0.28035000087E+04  0.25500000920E-02 0. -1.
       -2   -1    0    0    0  501  0.00000000000E+00  0.00000000000E+00 -0.13215582990E+04  0.13215582990E+04  0.25500000920E-02 0.  1.
    10030    2    1    2    0    0  0.00000000000E+00  0.00000000000E+00  0.14819417097E+04  0.41250583077E+04  0.38496694418E+04 0.  0.
        4    1    3    3  502    0 -0.89389668782E+03  0.16993652221E+04  0.59683578446E+03  0.20107481227E+04  0.12699999809E+01 0.  1.
       -4    1    3    3    0  502  0.89389668782E+03 -0.16993652221E+04  0.88510592525E+03  0.21143101850E+04  0.12699999809E+01 0. -1.
</event>
<event>
 5   0  0.3327241E-07  0.3834582E+04  0.7818609E-02  0.8038774E-01
       -2   -1    0    0    0  501  0.00000000000E+00  0.00000000000E+00  0.27607764522E+04  0.27607764522E+04  0.25500000920E-02 0. -1.
        2   -1    0    0  501    0  0.00000000000E+00  0.00000000000E+00 -0.13315109262E+04  0.13315109262E+04  0.25500000920E-02 0.  1.
    10030    2    1    2    0    0  0.00000000000E+00  0.00000000000E+00  0.14292655260E+04  0.40922873784E+04  0.38345815995E+04 0.  0.
        3    1    3    3  502    0 -0.12075660379E+04 -0.11077475146E+04 -0.34759011475E+03  0.16751534826E+04  0.10100000352E+00 0.  1.
       -3    1    3    3    0  502  0.12075660379E+04  0.11077475146E+04  0.17768556407E+04  0.24171338958E+04  0.10100000352E+00 0. -1.
</event>
<event>
 5   0  0.3377396E-07  0.3841291E+04  0.7818609E-02  0.8037352E-01
        2   -1    0    0  501    0  0.00000000000E+00  0.00000000000E+00  0.13226153936E+04  0.13226153936E+04  0.25500000920E-02 0. -1.
       -2   -1    0    0    0  501  0.00000000000E+00  0.00000000000E+00 -0.27890788956E+04  0.27890788956E+04  0.25500000920E-02 0.  1.
    10030    2    1    2    0    0  0.00000000000E+00  0.00000000000E+00 -0.14664635020E+04  0.41116942892E+04  0.38412907629E+04 0.  0.
        5    1    3    3  502    0  0.10168043999E+04  0.13144579632E+04  0.29744458611E+03  0.16882494770E+04  0.46999998093E+01 0. -1.
       -5    1    3    3    0  502 -0.10168043999E+04 -0.13144579632E+04 -0.17639080881E+04  0.24234448123E+04  0.46999998093E+01 0.  1.
</event>
<event>
 5   0  0.1084315E-07  0.3725315E+04  0.7818609E-02  0.8062375E-01
        1   -1    0    0  501    0  0.00000000000E+00  0.00000000000E+00  0.16773296747E+04  0.16773296747E+04  0.50400001928E-02 0. -1.
       -1   -1    0    0    0  501  0.00000000000E+00  0.00000000000E+00 -0.20684617370E+04  0.20684617370E+04  0.50400001928E-02 0.  1.
    10030    2    1    2    0    0  0.00000000000E+00  0.00000000000E+00 -0.39113206230E+03  0.37457914117E+04  0.37253146189E+04 0.  0.
        4    1    3    3  502    0  0.68362704459E+03 -0.17326048116E+04 -0.18047452868E+03  0.18713198652E+04  0.12699999809E+01 0.  1.
       -4    1    3    3    0  502 -0.68362704459E+03  0.17326048116E+04 -0.21065753361E+03  0.18744715465E+04  0.12699999809E+01 0. -1.
</event>
<event>
 5   0  0.1070988E-07  0.3823057E+04  0.7818609E-02  0.8041225E-01
       -1   -1    0    0    0  501  0.00000000000E+00  0.00000000000E+00  0.13233117216E+04  0.13233117216E+04  0.50400001928E-02 0. -1.
        1   -1    0    0  501    0  0.00000000000E+00  0.00000000000E+00 -0.27612091988E+04  0.27612091988E+04  0.50400001928E-02 0.  1.
    10030    2    1    2    0    0  0.00000000000E+00  0.00000000000E+00 -0.14378974772E+04  0.40845209204E+04  0.38230566297E+04 0.  0.
        3    1    3    3  502    0 -0.17907097371E+04 -0.36994388505E+03 -0.13142265353E+04  0.22518195392E+04  0.10100000352E+00 0. -1.
       -3    1    3    3    0  502  0.17907097371E+04  0.36994388505E+03 -0.12367094186E+03  0.18327013812E+04  0.10100000352E+00 0.  1.
</event>
<event>
 5   0  0.1070988E-07  0.3813472E+04  0.7818609E-02  0.8043270E-01
        1   -1    0    0  501    0  0.00000000000E+00  0.00000000000E+00  0.24126062643E+04  0.24126062643E+04  0.50400001928E-02 0.  1.
       -1   -1    0    0    0  501  0.00000000000E+00  0.00000000000E+00 -0.15069356800E+04  0.15069356800E+04  0.50400001928E-02 0. -1.
    10030    2    1    2    0    0  0.00000000000E+00  0.00000000000E+00  0.90567058433E+03  0.39195419443E+04  0.38134721509E+04 0.  0.
        5    1    3    3  502    0  0.29260994650E+03 -0.12535440776E+04 -0.99292637824E+03  0.16257054524E+04  0.46999998093E+01 0. -1.
       -5    1    3    3    0  502 -0.29260994650E+03  0.12535440776E+04  0.18985969626E+04  0.22938364919E+04  0.46999998093E+01 0.  1.
</event>
<event>
 5   0  0.3509843E-07  0.3792712E+04  0.7818609E-02  0.8047721E-01
        2   -1    0    0  501    0  0.00000000000E+00  0.00000000000E+00  0.22657938909E+04  0.22657938909E+04  0.25500000920E-02 0.  1.
       -2   -1    0    0    0  501  0.00000000000E+00  0.00000000000E+00 -0.15871550795E+04  0.15871550795E+04  0.25500000920E-02 0. -1.
    10030    2    1    2    0    0  0.00000000000E+00  0.00000000000E+00  0.67863881139E+03  0.38529489704E+04  0.37927121077E+04 0.  0.
        4    1    3    3  502    0 -0.12159659625E+04 -0.14047981286E+04 -0.46359685639E+02  0.18585429340E+04  0.12699999809E+01 0. -1.
       -4    1    3    3    0  502  0.12159659625E+04  0.14047981286E+04  0.72499849703E+03  0.19944060364E+04  0.12699999809E+01 0.  1.
</event>
<event>
 5   0  0.3539010E-07  0.3801666E+04  0.7818609E-02  0.8045798E-01
        2   -1    0    0  501    0  0.00000000000E+00  0.00000000000E+00  0.33680749679E+04  0.33680749679E+04  0.25500000920E-02 0. -1.
       -2   -1    0    0    0  501  0.00000000000E+00  0.00000000000E+00 -0.10727686633E+04  0.10727686633E+04  0.25500000920E-02 0.  1.
    10030    2    1    2    0    0  0.00000000000E+00  0.00000000000E+00  0.22953063046E+04  0.44408436312E+04  0.38016655725E+04 0.  0.
        1    1    3    3  502    0 -0.31705255348E+03  0.10626994186E+04 -0.65570548268E+03  0.12883330532E+04  0.50400001928E-02 0.  1.
       -1    1    3    3    0  502  0.31705255348E+03 -0.10626994186E+04  0.29510117873E+04  0.31525105780E+04  0.50400001928E-02 0. -1.
</event>
<event>
 5   0  0.3377396E-07  0.3834087E+04  0.7818609E-02  0.8038879E-01
        2   -1    0    0  501    0  0.00000000000E+00  0.00000000000E+00  0.18340590146E+04  0.18340590146E+04  0.25500000920E-02 0.  1.
       -2   -1    0    0    0  501  0.00000000000E+00  0.00000000000E+00 -0.20037827009E+04  0.20037827009E+04  0.25500000920E-02 0. -1.
    10030    2    1    2    0    0  0.00000000000E+00  0.00000000000E+00 -0.16972368630E+03  0.38378417155E+04  0.38340869713E+04 0.  0.
        5    1    3    3  502    0 -0.15817364814E+04  0.23727985676E+03 -0.11427040522E+04  0.19657025889E+04  0.46999998093E+01 0. -1.
       -5    1    3    3    0  502  0.15817364814E+04 -0.23727985676E+03  0.97298036590E+03  0.18721391266E+04  0.46999998093E+01 0.  1.
</event>
<event>
 5   0  0.3509843E-07  0.3810872E+04  0.7818609E-02  0.8043826E-01
       -2   -1    0    0    0  501  0.00000000000E+00  0.00000000000E+00  0.28955567755E+04  0.28955567755E+04  0.25500000920E-02 0.  1.
        2   -1    0    0  501    0  0.00000000000E+00  0.00000000000E+00 -0.12538821265E+04  0.12538821265E+04  0.25500000920E-02 0. -1.
    10030    2    1    2    0    0  0.00000000000E+00  0.00000000000E+00  0.16416746490E+04  0.41494389021E+04  0.38108722819E+04 0.  0.
        4    1    3    3  502    0  0.75357860452E+03 -0.17452088996E+04  0.96301552210E+03  0.21309705125E+04  0.12699999809E+01 0.  1.
       -4    1    3    3    0  502 -0.75357860452E+03  0.17452088996E+04  0.67865912690E+03  0.20184683896E+04  0.12699999809E+01 0. -1.
</event>
<event>
 5   0  0.3442126E-07  0.3818279E+04  0.7818609E-02  0.8042244E-01
        2   -1    0    0  501    0  0.00000000000E+00  0.00000000000E+00  0.26281246115E+04  0.26281246115E+04  0.25500000920E-02 0.  1.
       -2   -1    0    0    0  501  0.00000000000E+00  0.00000000000E+00 -0.13868499291E+04  0.13868499291E+04  0.25500000920E-02 0. -1.
    10030    2    1    2    0    0  0.00000000000E+00  0.00000000000E+00  0.12412746823E+04  0.40149745406E+04  0.38182794194E+04 0.  0.
        2    1    3    3  502    0  0.10608178825E+04 -0.11235891523E+04 -0.55829108230E+03  0.16430082457E+04  0.25500000920E-02 0.  1.
       -2    1    3    3    0  502 -0.10608178825E+04  0.11235891523E+04  0.17995657646E+04  0.23719662949E+04  0.25500000920E-02 0. -1.
</event>
<event>
 5   0  0.3377396E-07  0.3782904E+04  0.7818609E-02  0.8049834E-01
        2   -1    0    0  501    0  0.00000000000E+00  0.00000000000E+00  0.15392330349E+04  0.15392330349E+04  0.25500000920E-02 0. -1.
       -2   -1    0    0    0  501  0.00000000000E+00  0.00000000000E+00 -0.23242679155E+04  0.23242679155E+04  0.25500000920E-02 0.  1.
    10030    2    1    2    0    0  0.00000000000E+00  0.00000000000E+00 -0.78503488058E+03  0.38635009504E+04  0.37829036242E+04 0.  0.
        5    1    3    3  502    0  0.62455629349E+03  0.16277925559E+04  0.35644766148E+03  0.17795662938E+04  0.46999998093E+01 0. -1.
       -5    1    3    3    0  502 -0.62455629349E+03 -0.16277925559E+04 -0.11414825421E+04  0.20839346565E+04  0.46999998093E+01 0.  1.
</event>
<event>
 5   0  0.3377396E-07  0.3848913E+04  0.7818609E-02  0.8035739E-01
       -2   -1    0    0    0  501  0.00000000000E+00  0.00000000000E+00  0.12619941493E+04  0.12619941493E+04  0.25500000920E-02 0. -1.
        2   -1    0    0  501    0  0.00000000000E+00  0.00000000000E+00 -0.29346664247E+04  0.29346664247E+04  0.25500000920E-02 0.  1.
    10030    2    1    2    0    0  0.00000000000E+00  0.00000000000E+00 -0.16726722754E+04  0.41966605740E+04  0.38489125000E+04 0.  0.
        5    1    3    3  502    0 -0.29805643256E+01 -0.14352554309E+04  0.56150013847E+03  0.15411915946E+04  0.46999998093E+01 0. -1.
       -5    1    3    3    0  502  0.29805643256E+01  0.14352554309E+04 -0.22341724138E+04  0.26554689794E+04  0.46999998093E+01 0.  1.
</event>
<event>
 5   0  0.1070988E-07  0.3785300E+04  0.7818609E-02  0.8049317E-01
        1   -1    0    0  501    0  0.00000000000E+00  0.00000000000E+00  0.27568565607E+04  0.27568565607E+04  0.50400001928E-02 0.  1.
       -1   -1    0    0    0  501  0.00000000000E+00  0.00000000000E+00 -0.12993510635E+04  0.12993510635E+04  0.50400001928E-02 0. -1.
    10030    2    1    2    0    0  0.00000000000E+00  0.00000000000E+00  0.14575054972E+04  0.40562076243E+04  0.37853002545E+04 0.  0.
        2    1    3    3  502    0  0.17939314718E+04 -0.59399419169E+03  0.61582918407E+03  0.19875273103E+04  0.25500000920E-02 0. -1.
       -2    1    3    3    0  502 -0.17939314718E+04  0.59399419169E+03  0.84167631314E+03  0.20686803140E+04  0.25500000920E-02 0.  1.
</event>
<event>
 5   0  0.1070988E-07  0.3824642E+04  0.7818609E-02  0.8040887E-01
        1   -1    0    0  501    0  0.00000000000E+00  0.00000000000E+00  0.18381533094E+04  0.18381533095E+04  0.50400001928E-02 0. -1.
       -1   -1    0    0    0  501  0.00000000000E+00  0.00000000000E+00 -0.19894809616E+04  0.19894809616E+04  0.50400001928E-02 0.  1.
    10030    2    1    2    0    0  0.00000000000E+00  0.00000000000E+00 -0.15132765217E+03  0.38276342711E+04  0.38246416897E+04 0.  0.
        2    1    3    3  502    0 -0.50820577358E+03  0.10424068240E+04 -0.15974080575E+04  0.19739801411E+04  0.25500000920E-02 0.  1.
       -2    1    3    3    0  502  0.50820577358E+03 -0.10424068240E+04  0.14460804053E+04  0.18536541300E+04  0.25500000920E-02 0. -1.
</event>
<event>
 5   0  0.1070988E-07  0.3829582E+04  0.7818609E-02  0.8039836E-01
       -1   -1    0    0    0  501  0.00000000000E+00  0.00000000000E+00  0.17900177547E+04  0.17900177547E+04  0.50400001928E-02 0.  1.
        1   -1    0    0  501    0  0.00000000000E+00  0.00000000000E+00 -0.20482612841E+04  0.20482612841E+04  0.50400001928E-02 0. -1.
    10030    2    1    2    0    0  0.00000000000E+00  0.00000000000E+00 -0.25824352937E+03  0.38382790388E+04  0.38295817343E+04 0.  0.
        2    1    3    3  502    0  0.17925507940E+04 -0.44124803078E+02  0.54414686496E+03  0.18738412841E+04  0.25500000920E-02 0.  1.
       -2    1    3    3    0  502 -0.17925507940E+04  0.44124803078E+02 -0.80239039433E+03  0.19644377547E+04  0.25500000920E-02 0. -1.
</event>
<event>
 5   0  0.1070988E-07  0.3828124E+04  0.7818609E-02  0.8040146E-01
        1   -1    0    0  501    0  0.00000000000E+00  0.00000000000E+00  0.22211478592E+04  0.22211478592E+04  0.50400001928E-02 0. -1.
       -1   -1    0    0    0  501  0.00000000000E+00  0.00000000000E+00 -0.16494327575E+04  0.16494327575E+04  0.50400001928E-02 0.  1.
    10030    2    1    2    0    0  0.00000000000E+00  0.00000000000E+00  0.57171510162E+03  0.38705806167E+04  0.38281243649E+04 0.  0.
        5    1    3    3  502    0 -0.87310738520E+03  0.14190049764E+03 -0.14303655529E+04  0.16817907011E+04  0.46999998093E+01 0.  1.
       -5    1    3    3    0  502  0.87310738520E+03 -0.14190049764E+03  0.20020806545E+04  0.21887899156E+04  0.46999998093E+01 0. -1.
</event>
<event>
 5   0  0.3327241E-07  0.3811442E+04  0.7818609E-02  0.8043704E-01
        2   -1    0    0  501    0  0.00000000000E+00  0.00000000000E+00  0.14382800569E+04  0.14382800569E+04  0.25500000920E-02 0.  1.
       -2   -1    0    0    0  501  0.00000000000E+00  0.00000000000E+00 -0.25250803106E+04  0.25250803106E+04  0.25500000920E-02 0. -1.
    10030    2    1    2    0    0  0.00000000000E+00  0.00000000000E+00 -0.10868002536E+04  0.39633603675E+04  0.38114420645E+04 0.  0.
        3    1    3    3  502    0  0.12491704266E+04  0.13398957136E+04  0.29219310756E+01  0.18318722188E+04  0.10100000352E+00 0.  1.
       -3    1    3    3    0  502 -0.12491704266E+04 -0.13398957136E+04 -0.10897221847E+04  0.21314881487E+04  0.10100000352E+00 0. -1.
</event>
<event>
 5   0  0.1070988E-07  0.3810748E+04  0.7818609E-02  0.8043852E-01
        1   -1    0    0  501    0  0.00000000000E+00  0.00000000000E+00  0.23521374769E+04  0.23521374769E+04  0.50400001928E-02 0.  1.
       -1   -1    0    0    0  501  0.00000000000E+00  0.00000000000E+00 -0.15434682784E+04  0.15434682784E+04  0.50400001928E-02 0. -1.
    10030    2    1    2    0    0  0.00000000000E+00  0.00000000000E+00  0.80866919854E+03  0.38956057553E+04  0.38107477387E+04 0.  0.
        3    1    3    3  502    0 -0.34166594681E+03  0.90690077006E+03  0.20813668395E+04  0.22959295627E+04  0.10100000352E+00 0.  1.
       -3    1    3    3    0  502  0.34166594681E+03 -0.90690077006E+03 -0.12726976409E+04  0.15996761927E+04  0.10100000352E+00 0. -1.
</event>
<event>
 5   0  0.1070988E-07  0.3799215E+04  0.7818609E-02  0.8046323E-01
       -1   -1    0    0    0  501  0.00000000000E+00  0.00000000000E+00  0.12533010673E+04  0.12533010673E+04  0.50400001928E-02 0. -1.
        1   -1    0    0  501    0  0.00000000000E+00  0.00000000000E+00 -0.28792026441E+04  0.28792026441E+04  0.50400001928E-02 0.  1.
    10030    2    1    2    0    0  0.00000000000E+00  0.00000000000E+00 -0.16259015768E+04  0.41325037115E+04  0.37992145225E+04 0.  0.
        2    1    3    3  502    0 -0.97904360233E+03 -0.15279729873E+04 -0.20219499867E+03  0.18259547209E+04  0.25500000920E-02 0. -1.
       -2    1    3    3    0  502  0.97904360233E+03  0.15279729873E+04 -0.14237065781E+04  0.23065489906E+04  0.25500000920E-02 0.  1.
</event>
<event>
 5   0  0.1070988E-07  0.3819351E+04  0.7818609E-02  0.8042015E-01
        1   -1    0    0  501    0  0.00000000000E+00  0.00000000000E+00  0.20744224305E+04  0.20744224305E+04  0.50400001928E-02 0. -1.
       -1   -1    0    0    0  501  0.00000000000E+00  0.00000000000E+00 -0.17580122557E+04  0.17580122557E+04  0.50400001928E-02 0.  1.
    10030    2    1    2    0    0  0.00000000000E+00  0.00000000000E+00  0.31641017479E+03  0.38324346862E+04  0.38193507597E+04 0.  0.
        5    1    3    3  502    0 -0.15102882263E+04 -0.54161726055E+03 -0.88096718293E+03  0.18304220963E+04  0.46999998093E+01 0.  1.
       -5    1    3    3    0  502  0.15102882263E+04  0.54161726055E+03  0.11973773577E+04  0.20020125899E+04  0.46999998093E+01 0. -1.
</event>
<event>
 5   0  0.3442126E-07  0.3804960E+04  0.7818609E-02  0.8045091E-01
       -2   -1    0    0    0  501  0.00000000000E+00  0.00000000000E+00  0.15074666796E+04  0.15074666796E+04  0.25500000920E-02 0. -1.
        2   -1    0    0  501    0  0.00000000000E+00  0.00000000000E+00 -0.24010019170E+04  0.24010019170E+04  0.25500000920E-02 0.  1.
    10030    2    1    2    0    0  0.00000000000E+00  0.00000000000E+00 -0.89353523746E+03  0.39084685966E+04  0.38049601247E+04 0.  0.
        2    1    3    3  502    0  0.20821121419E+03  0.18909746186E+04 -0.46436459340E+03  0.19582572338E+04  0.25500000920E-02 0.  1.
       -2    1    3    3    0  502 -0.20821121419E+03 -0.18909746186E+04 -0.42917064407E+03  0.19502113628E+04  0.25500000920E-02 0. -1.
</event>
<event>
 5   0  0.3509843E-07  0.3141242E+04  0.7818609E-02  0.8204510E-01
       -2   -1    0    0    0  501  0.00000000000E+00  0.00000000000E+00  0.10187875368E+04  0.10187875368E+04  0.25500000920E-02 0.  1.
        2   -1    0    0  501    0  0.00000000000E+00  0.00000000000E+00 -0.24213587955E+04  0.24213587955E+04  0.25500000920E-02 0. -1.
    10030    2    1    2    0    0  0.00000000000E+00  0.00000000000E+00 -0.14025712587E+04  0.34401463323E+04  0.31412418965E+04 0.  0.
        4    1    3    3  502    0  0.68196086852E+03  0.44862885426E+03  0.76822696699E+03  0.11209428000E+04  0.12699999809E+01 0.  1.
       -4    1    3    3    0  502 -0.68196086852E+03 -0.44862885426E+03 -0.21707982257E+04  0.23192035323E+04  0.12699999809E+01 0. -1.
</event>
<event>
 5   0  0.1070988E-07  0.3742255E+04  0.7818609E-02  0.8058662E-01
       -1   -1    0    0    0  501  0.00000000000E+00  0.00000000000E+00  0.26596857972E+04  0.26596857972E+04  0.50400001928E-02 0.  1.
        1   -1    0    0  501    0  0.00000000000E+00  0.00000000000E+00 -0.13163649815E+04  0.13163649815E+04  0.50400001928E-02 0. -1.
    10030    2    1    2    0    0  0.00000000000E+00  0.00000000000E+00  0.13433208157E+04  0.39760507787E+04  0.37422545318E+04 0.  0.
        3    1    3    3  502    0 -0.11646894648E+04 -0.66293266654E+03  0.20590489597E+04  0.24567588198E+04  0.10100000352E+00 0.  1.
       -3    1    3    3    0  502  0.11646894648E+04  0.66293266654E+03 -0.71572814406E+03  0.15192919589E+04  0.10100000352E+00 0. -1.
</event>
<event>
 5   0  0.3442126E-07  0.3772435E+04  0.7818609E-02  0.8052096E-01
        2   -1    0    0  501    0  0.00000000000E+00  0.00000000000E+00  0.12622433566E+04  0.12622433566E+04  0.25500000920E-02 0. -1.
       -2   -1    0    0    0  501  0.00000000000E+00  0.00000000000E+00 -0.28186451669E+04  0.28186451669E+04  0.25500000920E-02 0.  1.
    10030    2    1    2    0    0  0.00000000000E+00  0.00000000000E+00 -0.15564018103E+04  0.40808885235E+04  0.37724348299E+04 0.  0.
        2    1    3    3  502    0 -0.15034063429E+04  0.84580729981E+03  0.47204699854E+02  0.17256444894E+04  0.25500000920E-02 0. -1.
       -2    1    3    3    0  502  0.15034063429E+04 -0.84580729981E+03 -0.16036065102E+04  0.23552440340E+04  0.25500000920E-02 0.  1.
</event>
<event>
 5   0  0.1070988E-07  0.3788553E+04  0.7818609E-02  0.8048616E-01
        1   -1    0    0  501    0  0.00000000000E+00  0.00000000000E+00  0.23568224820E+04  0.23568224820E+04  0.50400001928E-02 0. -1.
       -1   -1    0    0    0  501  0.00000000000E+00  0.00000000000E+00 -0.15225087869E+04  0.15225087869E+04  0.50400001928E-02 0.  1.
    10030    2    1    2    0    0  0.00000000000E+00  0.00000000000E+00  0.83431369513E+03  0.38793312689E+04  0.37885527252E+04 0.  0.
        5    1    3    3  502    0  0.18016439944E+04 -0.52196190128E+03  0.14644437797E+03  0.18814444862E+04  0.46999998093E+01 0.  1.
       -5    1    3    3    0  502 -0.18016439944E+04  0.52196190128E+03  0.68786931716E+03  0.19978867827E+04  0.46999998093E+01 0. -1.
</event>
<event>
 5   0  0.1085771E-07  0.3655101E+04  0.7818609E-02  0.8077985E-01
       -1   -1    0    0    0  501  0.00000000000E+00  0.00000000000E+00  0.14775102557E+04  0.14775102557E+04  0.50400001928E-02 0.  1.
        1   -1    0    0  501    0  0.00000000000E+00  0.00000000000E+00 -0.22605198773E+04  0.22605198774E+04  0.50400001928E-02 0. -1.
    10030    2    1    2    0    0  0.00000000000E+00  0.00000000000E+00 -0.78300962162E+03  0.37380301331E+04  0.36551012583E+04 0.  0.
        1    1    3    3  502    0 -0.10828492270E+04 -0.11479615068E+04  0.55112515037E+03  0.16715612465E+04  0.50400001928E-02 0. -1.
       -1    1    3    3    0  502  0.10828492270E+04  0.11479615068E+04 -0.13341347720E+04  0.20664688866E+04  0.50400001928E-02 0.  1.
</event>
<event>
 5   0  0.1084315E-07  0.3813539E+04  0.7818609E-02  0.8043256E-01
        1   -1    0    0  501    0  0.00000000000E+00  0.00000000000E+00  0.22472203740E+04  0.22472203740E+04  0.50400001928E-02 0.  1.
       -1   -1    0    0    0  501  0.00000000000E+00  0.00000000000E+00 -0.16178960850E+04  0.16178960850E+04  0.50400001928E-02 0. -1.
    10030    2    1    2    0    0  0.00000000000E+00  0.00000000000E+00  0.62932428893E+03  0.38651164590E+04  0.38135385380E+04 0.  0.
        4    1    3    3  502    0  0.12103165065E+04  0.14720541555E+04  0.37842526767E+03  0.19429402407E+04  0.12699999809E+01 0. -1.
       -4    1    3    3    0  502 -0.12103165065E+04 -0.14720541555E+04  0.25089902126E+03  0.19221762184E+04  0.12699999809E+01 0.  1.
</event>
<event>
 5   0  0.1070988E-07  0.3779766E+04  0.7818609E-02  0.8050511E-01
       -3   -1    0    0    0  501  0.00000000000E+00  0.00000000000E+00  0.15811677100E+04  0.15811677133E+04  0.10100000352E+00 0. -1.
        3   -1    0    0  501    0  0.00000000000E+00  0.00000000000E+00 -0.22588733909E+04  0.22588733932E+04  0.10100000352E+00 0.  1.
    10030    2    1    2    0    0  0.00000000000E+00  0.00000000000E+00 -0.67770568090E+03  0.38400411065E+04  0.37797659596E+04 0.  0.
        2    1    3    3  502    0  0.98560925081E+03 -0.13329836933E+04 -0.12607295639E+04  0.20827170128E+04  0.25500000920E-02 0.  1.
       -2    1    3    3    0  502 -0.98560925081E+03  0.13329836933E+04  0.58302388304E+03  0.17573240937E+04  0.25500000920E-02 0. -1.
</event>
<event>
 5   0  0.1070988E-07  0.3599060E+04  0.7818609E-02  0.8090707E-01
        1   -1    0    0  501    0  0.00000000000E+00  0.00000000000E+00  0.18453969031E+04  0.18453969031E+04  0.50400001928E-02 0. -1.
       -1   -1    0    0    0  501  0.00000000000E+00  0.00000000000E+00 -0.17548028927E+04  0.17548028927E+04  0.50400001928E-02 0.  1.
    10030    2    1    2    0    0  0.00000000000E+00  0.00000000000E+00  0.90594010415E+02  0.36001997958E+04  0.35990597793E+04 0.  0.
        3    1    3    3  502    0  0.27754975273E+03  0.51466392485E+03  0.17477159233E+04  0.18429388974E+04  0.10100000352E+00 0. -1.
       -3    1    3    3    0  502 -0.27754975273E+03 -0.51466392485E+03 -0.16571219129E+04  0.17572608984E+04  0.10100000352E+00 0.  1.
</event>
<event>
 5   0  0.3327241E-07  0.3760149E+04  0.7818609E-02  0.8054761E-01
        2   -1    0    0  501    0  0.00000000000E+00  0.00000000000E+00  0.20358150536E+04  0.20358150536E+04  0.25500000920E-02 0.  1.
       -2   -1    0    0    0  501  0.00000000000E+00  0.00000000000E+00 -0.17362485217E+04  0.17362485217E+04  0.25500000920E-02 0. -1.
    10030    2    1    2    0    0  0.00000000000E+00  0.00000000000E+00  0.29956653188E+03  0.37720635752E+04  0.37601493998E+04 0.  0.
        3    1    3    3  502    0  0.52314855828E+03 -0.14495883340E+04  0.12300845210E+04  0.19718262325E+04  0.10100000352E+00 0.  1.
       -3    1    3    3    0  502 -0.52314855828E+03  0.14495883340E+04 -0.93051798910E+03  0.18002373428E+04  0.10100000352E+00 0. -1.
</event>
<event>
 5   0  0.3327241E-07  0.3807889E+04  0.7818609E-02  0.8044464E-01
       -2   -1    0    0    0  501  0.00000000000E+00  0.00000000000E+00  0.30814983394E+04  0.30814983394E+04  0.25500000920E-02 0. -1.
        2   -1    0    0  501    0  0.00000000000E+00  0.00000000000E+00 -0.11763772559E+04  0.11763772559E+04  0.25500000920E-02 0.  1.
    10030    2    1    2    0    0  0.00000000000E+00  0.00000000000E+00  0.19051210834E+04  0.42578755953E+04  0.38078889483E+04 0.  0.
        3    1    3    3  502    0 -0.67043651303E+03  0.59828665215E+03  0.28294826287E+04  0.29687377777E+04  0.10100000352E+00 0. -1.
       -3    1    3    3    0  502  0.67043651303E+03 -0.59828665215E+03 -0.92436154530E+03  0.12891378176E+04  0.10100000352E+00 0.  1.
</event>
<event>
 5   0  0.1070988E-07  0.3774778E+04  0.7818609E-02  0.8051589E-01
       -1   -1    0    0    0  501  0.00000000000E+00  0.00000000000E+00  0.14293742878E+04  0.14293742878E+04  0.50400001928E-02 0. -1.
        1   -1    0    0  501    0  0.00000000000E+00  0.00000000000E+00 -0.24921650684E+04  0.24921650684E+04  0.50400001928E-02 0.  1.
    10030    2    1    2    0    0  0.00000000000E+00  0.00000000000E+00 -0.10627907807E+04  0.39215393562E+04  0.37747776993E+04 0.  0.
        5    1    3    3  502    0 -0.11340508029E+04  0.15065023077E+04 -0.44703380962E+03  0.19379065363E+04  0.46999998093E+01 0.  1.
       -5    1    3    3    0  502  0.11340508029E+04 -0.15065023077E+04 -0.61575697104E+03  0.19836328199E+04  0.46999998093E+01 0. -1.
</event>
<event>
 5   0  0.1070988E-07  0.3836638E+04  0.7818609E-02  0.8038338E-01
        1   -1    0    0  501    0  0.00000000000E+00  0.00000000000E+00  0.25063875634E+04  0.25063875634E+04  0.50400001928E-02 0.  1.
       -1   -1    0    0    0  501  0.00000000000E+00  0.00000000000E+00 -0.14682275285E+04  0.14682275285E+04  0.50400001928E-02 0. -1.
    10030    2    1    2    0    0  0.00000000000E+00  0.00000000000E+00  0.10381600348E+04  0.39746150919E+04  0.38366377039E+04 0.  0.
        3    1    3    3  502    0 -0.33644528062E+03  0.80607062246E+03 -0.12502654800E+04  0.15251586986E+04  0.10100000352E+00 0. -1.
       -3    1    3    3    0  502  0.33644528062E+03 -0.80607062246E+03  0.22884255149E+04  0.24494563933E+04  0.10100000352E+00 0.  1.
</event>
<event>
 5   0  0.1070988E-07  0.3790012E+04  0.7818609E-02  0.8048302E-01
       -1   -1    0    0    0  501  0.00000000000E+00  0.00000000000E+00  0.15726741071E+04  0.15726741071E+04  0.50400001928E-02 0.  1.
        1   -1    0    0  501    0  0.00000000000E+00  0.00000000000E+00 -0.22834020314E+04  0.22834020315E+04  0.50400001928E-02 0. -1.
    10030    2    1    2    0    0  0.00000000000E+00  0.00000000000E+00 -0.71072792431E+03  0.38560761386E+04  0.37900117420E+04 0.  0.
        3    1    3    3  502    0 -0.80860975090E+03  0.48003490658E+03  0.13185388574E+04  0.16195147327E+04  0.10100000352E+00 0.  1.
       -3    1    3    3    0  502  0.80860975090E+03 -0.48003490658E+03 -0.20292667817E+04  0.22365614059E+04  0.10100000352E+00 0. -1.
</event>
<event>
 5   0  0.3442126E-07  0.3795050E+04  0.7818609E-02  0.8047218E-01
        2   -1    0    0  501    0  0.00000000000E+00  0.00000000000E+00  0.27313228284E+04  0.27313228284E+04  0.25500000920E-02 0.  1.
       -2   -1    0    0    0  501  0.00000000000E+00  0.00000000000E+00 -0.13182628638E+04  0.13182628638E+04  0.25500000920E-02 0. -1.
    10030    2    1    2    0    0  0.00000000000E+00  0.00000000000E+00  0.14130599646E+04  0.40495856922E+04  0.37950501729E+04 0.  0.
        2    1    3    3  502    0 -0.94434632367E+03 -0.27772431767E+03 -0.10245202373E+04  0.14207612369E+04  0.25500000920E-02 0. -1.
       -2    1    3    3    0  502  0.94434632367E+03  0.27772431767E+03  0.24375802020E+04  0.26288244553E+04  0.25500000920E-02 0.  1.
</event>
<event>
 5   0  0.3442126E-07  0.4026349E+04  0.7818609E-02  0.7999252E-01
       -2   -1    0    0    0  501  0.00000000000E+00  0.00000000000E+00  0.25389864992E+04  0.25389864992E+04  0.25500000920E-02 0. -1.
        2   -1    0    0  501    0  0.00000000000E+00  0.00000000000E+00 -0.15962554446E+04  0.15962554446E+04  0.25500000920E-02 0.  1.
    10030    2    1    2    0    0  0.00000000000E+00  0.00000000000E+00  0.94273105463E+03  0.41352419438E+04  0.40263487296E+04 0.  0.
        2    1    3    3  502    0 -0.81992625192E+03  0.88149213333E+03 -0.11858295370E+04  0.16898222186E+04  0.25500000920E-02 0.  1.
       -2    1    3    3    0  502  0.81992625192E+03 -0.88149213333E+03  0.21285605916E+04  0.24454197251E+04  0.25500000920E-02 0. -1.
</event>
<event>
 5   0  0.1085771E-07  0.3812040E+04  0.7818609E-02  0.8043576E-01
        1   -1    0    0  501    0  0.00000000000E+00  0.00000000000E+00  0.18328847413E+04  0.18328847414E+04  0.50400001928E-02 0.  1.
       -1   -1    0    0    0  501  0.00000000000E+00  0.00000000000E+00 -0.19820730619E+04  0.19820730619E+04  0.50400001928E-02 0. -1.
    10030    2    1    2    0    0  0.00000000000E+00  0.00000000000E+00 -0.14918832053E+03  0.38149578032E+04  0.38120395965E+04 0.  0.
        1    1    3    3  502    0 -0.11244795440E+04  0.52556975551E+03 -0.15221570065E+04  0.19640875146E+04  0.50400001928E-02 0. -1.
       -1    1    3    3    0  502  0.11244795440E+04 -0.52556975551E+03  0.13729686859E+04  0.18508702886E+04  0.50400001928E-02 0.  1.
</event>
<event>
 5   0  0.3539010E-07  0.3801521E+04  0.7818609E-02  0.8045829E-01
       -2   -1    0    0    0  501  0.00000000000E+00  0.00000000000E+00  0.13564991243E+04  0.13564991243E+04  0.25500000920E-02 0. -1.
        2   -1    0    0  501    0  0.00000000000E+00  0.00000000000E+00 -0.26633932262E+04  0.26633932262E+04  0.25500000920E-02 0.  1.
    10030    2    1    2    0    0  0.00000000000E+00  0.00000000000E+00 -0.13068941019E+04  0.40198923505E+04  0.38015210530E+04 0.  0.
        1    1    3    3  502    0  0.13078348196E+04  0.13352601534E+02  0.80501215654E+03  0.15357912552E+04  0.50400001928E-02 0. -1.
       -1    1    3    3    0  502 -0.13078348196E+04 -0.13352601534E+02 -0.21119062584E+04  0.24841010953E+04  0.50400001928E-02 0.  1.
</event>
<event>
 5   0  0.3377396E-07  0.3768943E+04  0.7818609E-02  0.8052853E-01
        2   -1    0    0  501    0  0.00000000000E+00  0.00000000000E+00  0.14477962104E+04  0.14477962104E+04  0.25500000920E-02 0.  1.
       -2   -1    0    0    0  501  0.00000000000E+00  0.00000000000E+00 -0.24528543451E+04  0.24528543451E+04  0.25500000920E-02 0. -1.
    10030    2    1    2    0    0  0.00000000000E+00  0.00000000000E+00 -0.10050581347E+04  0.39006505554E+04  0.37689432075E+04 0.  0.
        5    1    3    3  502    0  0.42604335867E+03 -0.18118364188E+04 -0.80770108665E+03  0.20289571921E+04  0.46999998093E+01 0.  1.
       -5    1    3    3    0  502 -0.42604335867E+03  0.18118364188E+04 -0.19735704804E+03  0.18716933633E+04  0.46999998093E+01 0. -1.
</event>
<event>
 5   0  0.3377396E-07  0.3765260E+04  0.7818609E-02  0.8053651E-01
        2   -1    0    0  501    0  0.00000000000E+00  0.00000000000E+00  0.22101587161E+04  0.22101587161E+04  0.25500000920E-02 0. -1.
       -2   -1    0    0    0  501  0.00000000000E+00  0.00000000000E+00 -0.16036384808E+04  0.16036384808E+04  0.25500000920E-02 0.  1.
    10030    2    1    2    0    0  0.00000000000E+00  0.00000000000E+00  0.60652023532E+03  0.38137971970E+04  0.37652599198E+04 0.  0.
        5    1    3    3  502    0  0.82523009501E+03  0.16917055222E+04  0.26534507882E+03  0.19008688499E+04  0.46999998093E+01 0.  1.
       -5    1    3    3    0  502 -0.82523009501E+03 -0.16917055222E+04  0.34117515651E+03  0.19129283471E+04  0.46999998093E+01 0. -1.
</event>
<event>
 5   0  0.3442126E-07  0.3826073E+04  0.7818609E-02  0.8040583E-01
       -2   -1    0    0    0  501  0.00000000000E+00  0.00000000000E+00  0.13832264525E+04  0.13832264525E+04  0.25500000920E-02 0. -1.
        2   -1    0    0  501    0  0.00000000000E+00  0.00000000000E+00 -0.26457768202E+04  0.26457768202E+04  0.25500000920E-02 0.  1.
    10030    2    1    2    0    0  0.00000000000E+00  0.00000000000E+00 -0.12625503677E+04  0.40290032728E+04  0.38260729137E+04 0.  0.
        2    1    3    3  502    0 -0.14220752754E+04  0.12179556248E+04 -0.21804030364E+03  0.18850081079E+04  0.25500000920E-02 0. -1.
       -2    1    3    3    0  502  0.14220752754E+04 -0.12179556248E+04 -0.10445100641E+04  0.21439951648E+04  0.25500000920E-02 0.  1.
</event>
<event>
 5   0  0.1070988E-07  0.3669126E+04  0.7818609E-02  0.8074838E-01
        3   -1    0    0  501    0  0.00000000000E+00  0.00000000000E+00  0.17000572673E+04  0.17000572703E+04  0.10100000352E+00 0. -1.
       -3   -1    0    0    0  501  0.00000000000E+00  0.00000000000E+00 -0.19797111096E+04  0.19797111122E+04  0.10100000352E+00 0.  1.
    10030    2    1    2    0    0  0.00000000000E+00  0.00000000000E+00 -0.27965384230E+03  0.36797683825E+04  0.36691264733E+04 0.  0.
        5    1    3    3  502    0 -0.43802602341E+03  0.13371360521E+04  0.10407877285E+04  0.17501602226E+04  0.46999998093E+01 0. -1.
       -5    1    3    3    0  502  0.43802602341E+03 -0.13371360521E+04 -0.13204415708E+04  0.19296081599E+04  0.46999998093E+01 0.  1.
</event>
<event>
 5   0  0.3327241E-07  0.3738399E+04  0.7818609E-02  0.8059505E-01
       -2   -1    0    0    0  501  0.00000000000E+00  0.00000000000E+00  0.13801394469E+04  0.13801394469E+04  0.25500000920E-02 0. -1.
        2   -1    0    0  501    0  0.00000000000E+00  0.00000000000E+00 -0.25315612640E+04  0.25315612640E+04  0.25500000920E-02 0.  1.
    10030    2    1    2    0    0  0.00000000000E+00  0.00000000000E+00 -0.11514218171E+04  0.39117007108E+04  0.37383994236E+04 0.  0.
        3    1    3    3  502    0  0.10724528830E+04 -0.82408829297E+03 -0.19257268213E+04  0.23532319268E+04  0.10100000352E+00 0.  1.
       -3    1    3    3    0  502 -0.10724528830E+04  0.82408829297E+03  0.77430500423E+03  0.15584687840E+04  0.10100000352E+00 0. -1.
</event>
<event>
 5   0  0.1070988E-07  0.3773149E+04  0.7818609E-02  0.8051942E-01
        1   -1    0    0  501    0  0.00000000000E+00  0.00000000000E+00  0.20060596041E+04  0.20060596041E+04  0.50400001928E-02 0. -1.
       -1   -1    0    0    0  501  0.00000000000E+00  0.00000000000E+00 -0.17742064659E+04  0.17742064659E+04  0.50400001928E-02 0.  1.
    10030    2    1    2    0    0  0.00000000000E+00  0.00000000000E+00  0.23185313820E+03  0.37802660700E+04  0.37731493056E+04 0.  0.
        3    1    3    3  502    0  0.91768233575E+03  0.16283750404E+04 -0.14032482805E+03  0.18744164983E+04  0.10100000352E+00 0. -1.
       -3    1    3    3    0  502 -0.91768233575E+03 -0.16283750404E+04  0.37217796625E+03  0.19058495718E+04  0.10100000352E+00 0.  1.
</event>
<event>
 5   0  0.3509843E-07  0.3804192E+04  0.7818609E-02  0.8045256E-01
        2   -1    0    0  501    0  0.00000000000E+00  0.00000000000E+00  0.18571047130E+04  0.18571047130E+04  0.25500000920E-02 0.  1.
       -2   -1    0    0    0  501  0.00000000000E+00  0.00000000000E+00 -0.19481768873E+04  0.19481768873E+04  0.25500000920E-02 0. -1.
    10030    2    1    2    0    0  0.00000000000E+00  0.00000000000E+00 -0.91072174304E+02  0.38052816003E+04  0.38041916246E+04 0.  0.
        4    1    3    3  502    0 -0.33045023670E+03  0.59247112000E+03 -0.18230504336E+04  0.19451822237E+04  0.12699999809E+01 0. -1.
       -4    1    3    3    0  502  0.33045023670E+03 -0.59247112000E+03  0.17319782593E+04  0.18600993766E+04  0.12699999809E+01 0.  1.
</event>
<event>
 5   0  0.1084315E-07  0.3717269E+04  0.7818609E-02  0.8064146E-01
       -1   -1    0    0    0  501  0.00000000000E+00  0.00000000000E+00  0.21816415666E+04  0.21816415666E+04  0.50400001928E-02 0. -1.
        1   -1    0    0  501    0  0.00000000000E+00  0.00000000000E+00 -0.15834504620E+04  0.15834504620E+04  0.50400001928E-02 0.  1.
    10030    2    1    2    0    0  0.00000000000E+00  0.00000000000E+00  0.59819110452E+03  0.37650920286E+04  0.37172685384E+04 0.  0.
        4    1    3    3  502    0 -0.10109225566E+04 -0.43697385285E+03  0.18155578147E+04  0.21234788332E+04  0.12699999809E+01 0. -1.
       -4    1    3    3    0  502  0.10109225566E+04  0.43697385285E+03 -0.12173667102E+04  0.16416131954E+04  0.12699999809E+01 0.  1.
</event>
<event>
 5   0  0.1085771E-07  0.3819641E+04  0.7818609E-02  0.8041953E-01
       -1   -1    0    0    0  501  0.00000000000E+00  0.00000000000E+00  0.17148239284E+04  0.17148239284E+04  0.50400001928E-02 0. -1.
        1   -1    0    0  501    0  0.00000000000E+00  0.00000000000E+00 -0.21269908359E+04  0.21269908359E+04  0.50400001928E-02 0.  1.
    10030    2    1    2    0    0  0.00000000000E+00  0.00000000000E+00 -0.41216690753E+03  0.38418147643E+04  0.38196412297E+04 0.  0.
        1    1    3    3  502    0  0.60201332783E+03 -0.14894132943E+04  0.83269598849E+03  0.18094625217E+04  0.50400001928E-02 0. -1.
       -1    1    3    3    0  502 -0.60201332783E+03  0.14894132943E+04 -0.12448628960E+04  0.20323522426E+04  0.50400001928E-02 0.  1.
</event>
<event>
 5   0  0.3377396E-07  0.3738592E+04  0.7818609E-02  0.8059463E-01
        2   -1    0    0  501    0  0.00000000000E+00  0.00000000000E+00  0.19468536617E+04  0.19468536617E+04  0.25500000920E-02 0.  1.
       -2   -1    0    0    0  501  0.00000000000E+00  0.00000000000E+00 -0.17948278885E+04  0.17948278885E+04  0.25500000920E-02 0. -1.
    10030    2    1    2    0    0  0.00000000000E+00  0.00000000000E+00  0.15202577315E+03  0.37416815502E+04  0.37385918455E+04 0.  0.
        5    1    3    3  502    0 -0.18596858098E+04  0.23377271569E+02  0.26396411761E+03  0.18784772965E+04  0.46999998093E+01 0. -1.
       -5    1    3    3    0  502  0.18596858098E+04 -0.23377271569E+02 -0.11193834446E+03  0.18632042537E+04  0.46999998093E+01 0.  1.
</event>
<event>
 5   0  0.1070988E-07  0.3461427E+04  0.7818609E-02  0.8122992E-01
        1   -1    0    0  501    0  0.00000000000E+00  0.00000000000E+00  0.25363841715E+04  0.25363841716E+04  0.50400001928E-02 0. -1.
       -1   -1    0    0    0  501  0.00000000000E+00  0.00000000000E+00 -0.11809605635E+04  0.11809605635E+04  0.50400001928E-02 0.  1.
    10030    2    1    2    0    0  0.00000000000E+00  0.00000000000E+00  0.13554236081E+04  0.37173447350E+04  0.34614272666E+04 0.  0.
        5    1    3    3  502    0  0.11209935358E+04 -0.29165148396E+02  0.20934610222E+04  0.23748848929E+04  0.46999998093E+01 0. -1.
       -5    1    3    3    0  502 -0.11209935358E+04  0.29165148396E+02 -0.73803741408E+03  0.13424598421E+04  0.46999998093E+01 0.  1.
</event>
<event>
 5   0  0.3327241E-07  0.3788067E+04  0.7818609E-02  0.8048720E-01
        2   -1    0    0  501    0  0.00000000000E+00  0.00000000000E+00  0.18541315797E+04  0.18541315797E+04  0.25500000920E-02 0. -1.
       -2   -1    0    0    0  501  0.00000000000E+00  0.00000000000E+00 -0.19347943267E+04  0.19347943267E+04  0.25500000920E-02 0.  1.
    10030    2    1    2    0    0  0.00000000000E+00  0.00000000000E+00 -0.80662746994E+02  0.37889259064E+04  0.37880671912E+04 0.  0.
        3    1    3    3  502    0  0.22838984233E+03 -0.17215914510E+03 -0.19130705674E+04  0.19343318478E+04  0.10100000352E+00 0.  1.
       -3    1    3    3    0  502 -0.22838984233E+03  0.17215914510E+03  0.18324078205E+04  0.18545940585E+04  0.10100000352E+00 0. -1.
</event>
<event>
 5   0  0.3539010E-07  0.3818650E+04  0.7818609E-02  0.8042164E-01
       -2   -1    0    0    0  501  0.00000000000E+00  0.00000000000E+00  0.12164092730E+04  0.12164092730E+04  0.25500000920E-02 0.  1.
        2   -1    0    0  501    0  0.00000000000E+00  0.00000000000E+00 -0.29969533185E+04  0.29969533185E+04  0.25500000920E-02 0. -1.
    10030    2    1    2    0    0  0.00000000000E+00  0.00000000000E+00 -0.17805440455E+04  0.42133625914E+04  0.38186499223E+04 0.  0.
        1    1    3    3  502    0  0.10683507816E+04 -0.15824496691E+04 -0.88893909696E+03  0.21061180086E+04  0.50400001928E-02 0.  1.
       -1    1    3    3    0  502 -0.10683507816E+04  0.15824496691E+04 -0.89160494855E+03  0.21072445829E+04  0.50400001928E-02 0. -1.
</event>
<event>
 5   0  0.1070988E-07  0.3580534E+04  0.7818609E-02  0.8094965E-01
        1   -1    0    0  501    0  0.00000000000E+00  0.00000000000E+00  0.22606386020E+04  0.22606386020E+04  0.50400001928E-02 0. -1.
       -1   -1    0    0    0  501  0.00000000000E+00  0.00000000000E+00 -0.14177656401E+04  0.14177656401E+04  0.50400001928E-02 0.  1.
    10030    2    1    2    0    0  0.00000000000E+00  0.00000000000E+00  0.84287296188E+03  0.36784042421E+04  0.35805338902E+04 0.  0.
        2    1    3    3  502    0  0.42812262174E+03  0.13639296438E+04 -0.68573348520E+03  0.15855041675E+04  0.25500000920E-02 0.  1.
       -2    1    3    3    0  502 -0.42812262174E+03 -0.13639296438E+04  0.15286064471E+04  0.20929000746E+04  0.25500000920E-02 0. -1.
</event>
<event>
 5   0  0.1070988E-07  0.3724065E+04  0.7818609E-02  0.8062650E-01
        1   -1    0    0  501    0  0.00000000000E+00  0.00000000000E+00  0.18144311839E+04  0.18144311839E+04  0.50400001928E-02 0.  1.
       -1   -1    0    0    0  501  0.00000000000E+00  0.00000000000E+00 -0.19108827761E+04  0.19108827761E+04  0.50400001928E-02 0. -1.
    10030    2    1    2    0    0  0.00000000000E+00  0.00000000000E+00 -0.96451592207E+02  0.37253139600E+04  0.37240651432E+04 0.  0.
        2    1    3    3  502    0 -0.10584542074E+04 -0.15316417063E+04 -0.17988653426E+02  0.18618741143E+04  0.25500000920E-02 0. -1.
       -2    1    3    3    0  502  0.10584542074E+04  0.15316417063E+04 -0.78462938780E+02  0.18634398457E+04  0.25500000920E-02 0.  1.
</event>
<event>
 5   0  0.3327241E-07  0.3782288E+04  0.7818609E-02  0.8049966E-01
       -2   -1    0    0    0  501  0.00000000000E+00  0.00000000000E+00  0.13581161186E+04  0.13581161186E+04  0.25500000920E-02 0.  1.
        2   -1    0    0  501    0  0.00000000000E+00  0.00000000000E+00 -0.26333730258E+04  0.26333730258E+04  0.25500000920E-02 0. -1.
    10030    2    1    2    0    0  0.00000000000E+00  0.00000000000E+00 -0.12752569072E+04  0.39914891444E+04  0.37822883828E+04 0.  0.
        3    1    3    3  502    0  0.49101664193E+03 -0.10411319002E+04  0.94582053028E+03  0.14898420930E+04  0.10100000352E+00 0.  1.
       -3    1    3    3    0  502 -0.49101664193E+03  0.10411319002E+04 -0.22210774375E+04  0.25016470514E+04  0.10100000352E+00 0. -1.
</event>
<event>
 5   0  0.3377396E-07  0.3834411E+04  0.7818609E-02  0.8038811E-01
        2   -1    0    0  501    0  0.00000000000E+00  0.00000000000E+00  0.25389950418E+04  0.25389950418E+04  0.25500000920E-02 0.  1.
       -2   -1    0    0    0  501  0.00000000000E+00  0.00000000000E+00 -0.14476894697E+04  0.14476894697E+04  0.25500000920E-02 0. -1.
    10030    2    1    2    0    0  0.00000000000E+00  0.00000000000E+00  0.10913055722E+04  0.39866845115E+04  0.38344107165E+04 0.  0.
        5    1    3    3  502    0 -0.95282240830E+03  0.16134721142E+04  0.96733468346E+03  0.21087724592E+04  0.46999998093E+01 0.  1.
       -5    1    3    3    0  502  0.95282240830E+03 -0.16134721142E+04  0.12397088870E+03  0.18779120523E+04  0.46999998093E+01 0. -1.
</event>
<event>
 5   0  0.1084315E-07  0.3813144E+04  0.7818609E-02  0.8043340E-01
        1   -1    0    0  501    0  0.00000000000E+00  0.00000000000E+00  0.14000211965E+04  0.14000211965E+04  0.50400001928E-02 0.  1.
       -1   -1    0    0    0  501  0.00000000000E+00  0.00000000000E+00 -0.25964008004E+04  0.25964008004E+04  0.50400001928E-02 0. -1.
    10030    2    1    2    0    0  0.00000000000E+00  0.00000000000E+00 -0.11963796038E+04  0.39964219969E+04  0.38131436664E+04 0.  0.
        4    1    3    3  502    0  0.42833848580E+03 -0.58310351927E+03  0.12505476376E+04  0.14447680019E+04  0.12699999809E+01 0.  1.
       -4    1    3    3    0  502 -0.42833848580E+03  0.58310351927E+03 -0.24469272414E+04  0.25516539950E+04  0.12699999809E+01 0. -1.
</event>
<event>
 5   0  0.1084315E-07  0.3846706E+04  0.7818609E-02  0.8036206E-01
       -1   -1    0    0    0  501  0.00000000000E+00  0.00000000000E+00  0.33835268294E+04  0.33835268295E+04  0.50400001928E-02 0.  1.
        1   -1    0    0  501    0  0.00000000000E+00  0.00000000000E+00 -0.10933225549E+04  0.10933225549E+04  0.50400001928E-02 0. -1.
    10030    2    1    2    0    0  0.00000000000E+00  0.00000000000E+00  0.22902042745E+04  0.44768493844E+04  0.38467057064E+04 0.  0.
        4    1    3    3  502    0  0.14002519252E+04 -0.12975619102E+04  0.87238148776E+03  0.20989100595E+04  0.12699999809E+01 0.  1.
       -4    1    3    3    0  502 -0.14002519252E+04  0.12975619102E+04  0.14178227868E+04  0.23779393248E+04  0.12699999809E+01 0. -1.
</event>
<event>
 5   0  0.1085771E-07  0.3768365E+04  0.7818609E-02  0.8052978E-01
       -1   -1    0    0    0  501  0.00000000000E+00  0.00000000000E+00  0.18939762055E+04  0.18939762056E+04  0.50400001928E-02 0. -1.
        1   -1    0    0  501    0  0.00000000000E+00  0.00000000000E+00 -0.18744394822E+04  0.18744394822E+04  0.50400001928E-02 0.  1.
    10030    2    1    2    0    0  0.00000000000E+00  0.00000000000E+00  0.19536723319E+02  0.37684156878E+04  0.37683650450E+04 0.  0.
        1    1    3    3  502    0  0.10403370302E+03  0.16446485241E+04 -0.90372735666E+03  0.18794719775E+04  0.50400001928E-02 0.  1.
       -1    1    3    3    0  502 -0.10403370302E+03 -0.16446485241E+04  0.92326407998E+03  0.18889437103E+04  0.50400001928E-02 0. -1.
</event>
<event>
 5   0  0.1085771E-07  0.3793596E+04  0.7818609E-02  0.8047531E-01
        1   -1    0    0  501    0  0.00000000000E+00  0.00000000000E+00  0.21083872215E+04  0.21083872215E+04  0.50400001928E-02 0.  1.
       -1   -1    0    0    0  501  0.00000000000E+00  0.00000000000E+00 -0.17064426574E+04  0.17064426574E+04  0.50400001928E-02 0. -1.
    10030    2    1    2    0    0  0.00000000000E+00  0.00000000000E+00  0.40194456412E+03  0.38148298790E+04  0.37935955995E+04 0.  0.
        1    1    3    3  502    0 -0.56759713879E+03 -0.17178901909E+04 -0.37189059480E+03  0.18470559912E+04  0.50400001928E-02 0.  1.
       -1    1    3    3    0  502  0.56759713879E+03  0.17178901909E+04  0.77383515892E+03  0.19677738878E+04  0.50400001928E-02 0. -1.
</event>
<event>
 5   0  0.1070988E-07  0.3800622E+04  0.7818609E-02  0.8046021E-01
       -1   -1    0    0    0  501  0.00000000000E+00  0.00000000000E+00  0.22013406493E+04  0.22013406493E+04  0.50400001928E-02 0. -1.
        1   -1    0    0  501    0  0.00000000000E+00  0.00000000000E+00 -0.16404467905E+04  0.16404467905E+04  0.50400001928E-02 0.  1.
    10030    2    1    2    0    0  0.00000000000E+00  0.00000000000E+00  0.56089385885E+03  0.38417874398E+04  0.38006221611E+04 0.  0.
        2    1    3    3  502    0  0.17061867649E+04 -0.30205227513E+03  0.10692019171E+04  0.20360504889E+04  0.25500000920E-02 0. -1.
       -2    1    3    3    0  502 -0.17061867649E+04  0.30205227513E+03 -0.50830805823E+03  0.18057369509E+04  0.25500000920E-02 0.  1.
</event>
<event>
 5   0  0.1070988E-07  0.3841466E+04  0.7818609E-02  0.8037315E-01
       -1   -1    0    0    0  501  0.00000000000E+00  0.00000000000E+00  0.23085479428E+04  0.23085479429E+04  0.50400001928E-02 0. -1.
        1   -1    0    0  501    0  0.00000000000E+00  0.00000000000E+00 -0.15980672271E+04  0.15980672271E+04  0.50400001928E-02 0.  1.
    10030    2    1    2    0    0  0.00000000000E+00  0.00000000000E+00  0.71048071573E+03  0.39066151700E+04  0.38414657670E+04 0.  0.
        5    1    3    3  502    0 -0.14448940026E+04 -0.10094306370E+04  0.11314168995E+04  0.20944677558E+04  0.46999998093E+01 0. -1.
       -5    1    3    3    0  502  0.14448940026E+04  0.10094306370E+04 -0.42093618377E+03  0.18121474141E+04  0.46999998093E+01 0.  1.
</event>
<event>
 5   0  0.1070988E-07  0.3793046E+04  0.7818609E-02  0.8047649E-01
        1   -1    0    0  501    0  0.00000000000E+00  0.00000000000E+00  0.20531083270E+04  0.20531083270E+04  0.50400001928E-02 0. -1.
       -1   -1    0    0    0  501  0.00000000000E+00  0.00000000000E+00 -0.17518796356E+04  0.17518796356E+04  0.50400001928E-02 0.  1.
    10030    2    1    2    0    0  0.00000000000E+00  0.00000000000E+00  0.30122869139E+03  0.38049879626E+04  0.37930455667E+04 0.  0.
        2    1    3    3  502    0 -0.24111465959E+03  0.15744843480E+04  0.11832539801E+04  0.19842447487E+04  0.25500000920E-02 0. -1.
       -2    1    3    3    0  502  0.24111465959E+03 -0.15744843480E+04 -0.88202528870E+03  0.18207432140E+04  0.25500000920E-02 0.  1.
</event>
<event>
 5   0  0.3539010E-07  0.3621364E+04  0.7818609E-02  0.8085615E-01
       -2   -1    0    0    0  501  0.00000000000E+00  0.00000000000E+00  0.14516087527E+04  0.14516087527E+04  0.25500000920E-02 0.  1.
        2   -1    0    0  501    0  0.00000000000E+00  0.00000000000E+00 -0.22585769737E+04  0.22585769737E+04  0.25500000920E-02 0. -1.
    10030    2    1    2    0    0  0.00000000000E+00  0.00000000000E+00 -0.80696822099E+03  0.37101857263E+04  0.36213644410E+04 0.  0.
        1    1    3    3  502    0 -0.86730290393E+03 -0.48715863495E+03 -0.19535471909E+04  0.21922327636E+04  0.50400001928E-02 0.  1.
       -1    1    3    3    0  502  0.86730290393E+03  0.48715863495E+03  0.11465789699E+04  0.15179529627E+04  0.50400001928E-02 0. -1.
</event>
<event>
 5   0  0.3539010E-07  0.3670509E+04  0.7818609E-02  0.8074529E-01
       -2   -1    0    0    0  501  0.00000000000E+00  0.00000000000E+00  0.10391862692E+04  0.10391862692E+04  0.25500000920E-02 0.  1.
        2   -1    0    0  501    0  0.00000000000E+00  0.00000000000E+00 -0.32411513026E+04  0.32411513026E+04  0.25500000920E-02 0. -1.
    10030    2    1    2    0    0  0.00000000000E+00  0.00000000000E+00 -0.22019650334E+04  0.42803375718E+04  0.36705094633E+04 0.  0.
        1    1    3    3  502    0 -0.95037744096E+01  0.98036833429E+03 -0.29101758776E+04  0.30708852195E+04  0.50400001928E-02 0. -1.
       -1    1    3    3    0  502  0.95037744096E+01 -0.98036833429E+03  0.70821084421E+03  0.12094523523E+04  0.50400001928E-02 0.  1.
</event>
<event>
 5   0  0.3442126E-07  0.3803233E+04  0.7818609E-02  0.8045462E-01
        2   -1    0    0  501    0  0.00000000000E+00  0.00000000000E+00  0.19396399023E+04  0.19396399023E+04  0.25500000920E-02 0.  1.
       -2   -1    0    0    0  501  0.00000000000E+00  0.00000000000E+00 -0.18643381097E+04  0.18643381097E+04  0.25500000920E-02 0. -1.
    10030    2    1    2    0    0  0.00000000000E+00  0.00000000000E+00  0.75301792612E+02  0.38039780120E+04  0.38032326193E+04 0.  0.
        2    1    3    3  502    0  0.10865172369E+04  0.93639676698E+03  0.12864090988E+04  0.19267088469E+04  0.25500000920E-02 0.  1.
       -2    1    3    3    0  502 -0.10865172369E+04 -0.93639676698E+03 -0.12111073062E+04  0.18772691651E+04  0.25500000920E-02 0. -1.
</event>
<event>
 5   0  0.1084315E-07  0.3882116E+04  0.7818609E-02  0.8028759E-01
       -1   -1    0    0    0  501  0.00000000000E+00  0.00000000000E+00  0.25606961968E+04  0.25606961968E+04  0.50400001928E-02 0.  1.
        1   -1    0    0  501    0  0.00000000000E+00  0.00000000000E+00 -0.14713600065E+04  0.14713600065E+04  0.50400001928E-02 0. -1.
    10030    2    1    2    0    0  0.00000000000E+00  0.00000000000E+00  0.10893361903E+04  0.40320562033E+04  0.38821159039E+04 0.  0.
        4    1    3    3  502    0 -0.19958819599E+03 -0.14087164828E+04 -0.82670288257E+03  0.16455263127E+04  0.12699999809E+01 0. -1.
       -4    1    3    3    0  502  0.19958819599E+03  0.14087164828E+04  0.19160390728E+04  0.23865298906E+04  0.12699999809E+01 0.  1.
</event>
<event>
 5   0  0.1084315E-07  0.3782078E+04  0.7818609E-02  0.8050012E-01
       -1   -1    0    0    0  501  0.00000000000E+00  0.00000000000E+00  0.25011410758E+04  0.25011410758E+04  0.50400001928E-02 0.  1.
        1   -1    0    0  501    0  0.00000000000E+00  0.00000000000E+00 -0.14297590774E+04  0.14297590774E+04  0.50400001928E-02 0. -1.
    10030    2    1    2    0    0  0.00000000000E+00  0.00000000000E+00  0.10713819984E+04  0.39309001532E+04  0.37820783477E+04 0.  0.
        4    1    3    3  502    0  0.47496571140E+03  0.55580458146E+03  0.23483101812E+04  0.24594864260E+04  0.12699999809E+01 0.  1.
       -4    1    3    3    0  502 -0.47496571140E+03 -0.55580458146E+03 -0.12769281828E+04  0.14714137272E+04  0.12699999809E+01 0. -1.
</event>
<event>
 5   0  0.1085771E-07  0.3804371E+04  0.7818609E-02  0.8045218E-01
       -1   -1    0    0    0  501  0.00000000000E+00  0.00000000000E+00  0.28227561006E+04  0.28227561007E+04  0.50400001928E-02 0. -1.
        1   -1    0    0  501    0  0.00000000000E+00  0.00000000000E+00 -0.12818356995E+04  0.12818356995E+04  0.50400001928E-02 0.  1.
    10030    2    1    2    0    0  0.00000000000E+00  0.00000000000E+00  0.15409204012E+04  0.41045918001E+04  0.38043709287E+04 0.  0.
        1    1    3    3  502    0  0.40299447988E+03  0.34588705590E+03  0.27411466371E+04  0.27921187819E+04  0.50400001928E-02 0. -1.
       -1    1    3    3    0  502 -0.40299447988E+03 -0.34588705590E+03 -0.12002262359E+04  0.13124730182E+04  0.50400001928E-02 0.  1.
</event>
<event>
 5   0  0.1070988E-07  0.3731458E+04  0.7818609E-02  0.8061026E-01
        1   -1    0    0  501    0  0.00000000000E+00  0.00000000000E+00  0.15251861738E+04  0.15251861738E+04  0.50400001928E-02 0.  1.
       -1   -1    0    0    0  501  0.00000000000E+00  0.00000000000E+00 -0.22823074985E+04  0.22823074985E+04  0.50400001928E-02 0. -1.
    10030    2    1    2    0    0  0.00000000000E+00  0.00000000000E+00 -0.75712132465E+03  0.38074936723E+04  0.37314575388E+04 0.  0.
        2    1    3    3  502    0 -0.14666292990E+04  0.69606190353E+03 -0.13167751282E+04  0.20903110803E+04  0.25500000920E-02 0. -1.
       -2    1    3    3    0  502  0.14666292990E+04 -0.69606190353E+03  0.55965380354E+03  0.17171825920E+04  0.25500000920E-02 0.  1.
</event>
<event>
 5   0  0.1070988E-07  0.3585497E+04  0.7818609E-02  0.8093822E-01
       -1   -1    0    0    0  501  0.00000000000E+00  0.00000000000E+00  0.13320616406E+04  0.13320616406E+04  0.50400001928E-02 0.  1.
        1   -1    0    0  501    0  0.00000000000E+00  0.00000000000E+00 -0.24127618895E+04  0.24127618895E+04  0.50400001928E-02 0. -1.
    10030    2    1    2    0    0  0.00000000000E+00  0.00000000000E+00 -0.10807002488E+04  0.37448235301E+04  0.35854972101E+04 0.  0.
        2    1    3    3  502    0  0.10687189086E+04  0.14244287895E+03 -0.20363014472E+04  0.23041210175E+04  0.25500000920E-02 0. -1.
       -2    1    3    3    0  502 -0.10687189086E+04 -0.14244287895E+03  0.95560119838E+03  0.14407025126E+04  0.25500000920E-02 0.  1.
</event>
<event>
 5   0  0.3327241E-07  0.3800705E+04  0.7818609E-02  0.8046004E-01
        2   -1    0    0  501    0  0.00000000000E+00  0.00000000000E+00  0.24954394849E+04  0.24954394849E+04  0.25500000920E-02 0.  1.
       -2   -1    0    0    0  501  0.00000000000E+00  0.00000000000E+00 -0.14471759519E+04  0.14471759519E+04  0.25500000920E-02 0. -1.
    10030    2    1    2    0    0  0.00000000000E+00  0.00000000000E+00  0.10482635330E+04  0.39426154369E+04  0.38007052041E+04 0.  0.
        3    1    3    3  502    0  0.88249314634E+03  0.15910424643E+04  0.10933739116E+04  0.21226579558E+04  0.10100000352E+00 0.  1.
       -3    1    3    3    0  502 -0.88249314634E+03 -0.15910424643E+04 -0.45110378566E+02  0.18199574811E+04  0.10100000352E+00 0. -1.
</event>
<event>
 5   0  0.3539010E-07  0.3798701E+04  0.7818609E-02  0.8046434E-01
       -2   -1    0    0    0  501  0.00000000000E+00  0.00000000000E+00  0.23836822332E+04  0.23836822332E+04  0.25500000920E-02 0.  1.
        2   -1    0    0  501    0  0.00000000000E+00  0.00000000000E+00 -0.15134286134E+04  0.15134286134E+04  0.25500000920E-02 0. -1.
    10030    2    1    2    0    0  0.00000000000E+00  0.00000000000E+00  0.87025361981E+03  0.38971108465E+04  0.37987013027E+04 0.  0.
        1    1    3    3  502    0 -0.42652721931E+03  0.24022447326E+02 -0.14635009444E+04  0.15245778304E+04  0.50400001928E-02 0. -1.
       -1    1    3    3    0  502  0.42652721931E+03 -0.24022447326E+02  0.23337545642E+04  0.23725330161E+04  0.50400001928E-02 0.  1.
</event>
<event>
 5   0  0.3327241E-07  0.3802116E+04  0.7818609E-02  0.8045701E-01
        2   -1    0    0  501    0  0.00000000000E+00  0.00000000000E+00  0.25968013857E+04  0.25968013857E+04  0.25500000920E-02 0. -1.
       -2   -1    0    0    0  501  0.00000000000E+00  0.00000000000E+00 -0.13917207554E+04  0.13917207554E+04  0.25500000920E-02 0.  1.
    10030    2    1    2    0    0  0.00000000000E+00  0.00000000000E+00  0.12050806303E+04  0.39885221411E+04  0.38021164560E+04 0.  0.
        3    1    3    3  502    0 -0.16327313382E+04  0.82293078991E+03  0.56445859890E+02  0.18292656595E+04  0.10100000352E+00 0. -1.
       -3    1    3    3    0  502  0.16327313382E+04 -0.82293078991E+03  0.11486347704E+04  0.21592564817E+04  0.10100000352E+00 0.  1.
</event>
<event>
 5   0  0.1085771E-07  0.3805425E+04  0.7818609E-02  0.8044992E-01
       -1   -1    0    0    0  501  0.00000000000E+00  0.00000000000E+00  0.13897212905E+04  0.13897212905E+04  0.50400001928E-02 0. -1.
        1   -1    0    0  501    0  0.00000000000E+00  0.00000000000E+00 -0.26050660245E+04  0.26050660245E+04  0.50400001928E-02 0.  1.
    10030    2    1    2    0    0  0.00000000000E+00  0.00000000000E+00 -0.12153447340E+04  0.39947873150E+04  0.38054254519E+04 0.  0.
        1    1    3    3  502    0 -0.32279748082E+03  0.91744095812E+02 -0.25737546854E+04  0.25955400928E+04  0.50400001928E-02 0.  1.
       -1    1    3    3    0  502  0.32279748082E+03 -0.91744095812E+02  0.13584099514E+04  0.13992472222E+04  0.50400001928E-02 0. -1.
</event>
<event>
 5   0  0.3442126E-07  0.3813766E+04  0.7818609E-02  0.8043207E-01
       -2   -1    0    0    0  501  0.00000000000E+00  0.00000000000E+00  0.25104184618E+04  0.25104184618E+04  0.25500000920E-02 0.  1.
        2   -1    0    0  501    0  0.00000000000E+00  0.00000000000E+00 -0.14484446958E+04  0.14484446958E+04  0.25500000920E-02 0. -1.
    10030    2    1    2    0    0  0.00000000000E+00  0.00000000000E+00  0.10619737660E+04  0.39588631576E+04  0.38137657533E+04 0.  0.
        2    1    3    3  502    0 -0.10742218902E+03  0.15062555664E+04 -0.67772672343E+03  0.16551914903E+04  0.25500000920E-02 0. -1.
       -2    1    3    3    0  502  0.10742218902E+03 -0.15062555664E+04  0.17397004894E+04  0.23036716673E+04  0.25500000920E-02 0.  1.
</event>
<event>
 5   0  0.3442126E-07  0.3802799E+04  0.7818609E-02  0.8045555E-01
       -2   -1    0    0    0  501  0.00000000000E+00  0.00000000000E+00  0.14712133264E+04  0.14712133264E+04  0.25500000920E-02 0. -1.
        2   -1    0    0  501    0  0.00000000000E+00  0.00000000000E+00 -0.24573728975E+04  0.24573728975E+04  0.25500000920E-02 0.  1.
    10030    2    1    2    0    0  0.00000000000E+00  0.00000000000E+00 -0.98615957107E+03  0.39285862238E+04  0.38027988401E+04 0.  0.
        2    1    3    3  502    0  0.18460627558E+03 -0.78103470790E+03 -0.22738205946E+04  0.24112973247E+04  0.25500000920E-02 0.  1.
       -2    1    3    3    0  502 -0.18460627558E+03  0.78103470790E+03  0.12876610235E+04  0.15172888991E+04  0.25500000920E-02 0. -1.
</event>
<event>
 5   0  0.1085771E-07  0.3805380E+04  0.7818609E-02  0.8045001E-01
        1   -1    0    0  501    0  0.00000000000E+00  0.00000000000E+00  0.13025668905E+04  0.13025668906E+04  0.50400001928E-02 0.  1.
       -1   -1    0    0    0  501  0.00000000000E+00  0.00000000000E+00 -0.27793041111E+04  0.27793041111E+04  0.50400001928E-02 0. -1.
    10030    2    1    2    0    0  0.00000000000E+00  0.00000000000E+00 -0.14767372205E+04  0.40818710016E+04  0.38053801460E+04 0.  0.
        1    1    3    3  502    0  0.15749409363E+04  0.49157886400E+03 -0.17549295913E+04  0.24087064169E+04  0.50400001928E-02 0.  1.
       -1    1    3    3    0  502 -0.15749409363E+04 -0.49157886400E+03  0.27819237079E+03  0.16731645847E+04  0.50400001928E-02 0. -1.
</event>
<event>
 5   0  0.1084315E-07  0.3783872E+04  0.7818609E-02  0.8049625E-01
        1   -1    0    0  501    0  0.00000000000E+00  0.00000000000E+00  0.23995673407E+04  0.23995673407E+04  0.50400001928E-02 0. -1.
       -1   -1    0    0    0  501  0.00000000000E+00  0.00000000000E+00 -0.14916943284E+04  0.14916943284E+04  0.50400001928E-02 0.  1.
    10030    2    1    2    0    0  0.00000000000E+00  0.00000000000E+00  0.90787301229E+03  0.38912616692E+04  0.37838715585E+04 0.  0.
        4    1    3    3  502    0  0.11911929372E+04  0.70171266869E+03 -0.87425971368E+03  0.16357484351E+04  0.12699999809E+01 0.  1.
       -4    1    3    3    0  502 -0.11911929372E+04 -0.70171266869E+03  0.17821327260E+04  0.22555132340E+04  0.12699999809E+01 0. -1.
</event>
<event>
 5   0  0.1070988E-07  0.3577611E+04  0.7818609E-02  0.8095640E-01
        3   -1    0    0  501    0  0.00000000000E+00  0.00000000000E+00  0.16804377994E+04  0.16804378025E+04  0.10100000352E+00 0. -1.
       -3   -1    0    0    0  501  0.00000000000E+00  0.00000000000E+00 -0.19041614249E+04  0.19041614276E+04  0.10100000352E+00 0.  1.
    10030    2    1    2    0    0  0.00000000000E+00  0.00000000000E+00 -0.22372362550E+03  0.35845992301E+04  0.35776108480E+04 0.  0.
        2    1    3    3  502    0 -0.17523706152E+04 -0.13549634592E+03  0.22144819943E+03  0.17714969201E+04  0.25500000920E-02 0.  1.
       -2    1    3    3    0  502  0.17523706152E+04  0.13549634592E+03 -0.44517182493E+03  0.18131023100E+04  0.25500000920E-02 0. -1.
</event>
<event>
 5   0  0.3509843E-07  0.3816291E+04  0.7818609E-02  0.8042668E-01
       -2   -1    0    0    0  501  0.00000000000E+00  0.00000000000E+00  0.18599058664E+04  0.18599058664E+04  0.25500000920E-02 0.  1.
        2   -1    0    0  501    0  0.00000000000E+00  0.00000000000E+00 -0.19576358431E+04  0.19576358431E+04  0.25500000920E-02 0. -1.
    10030    2    1    2    0    0  0.00000000000E+00  0.00000000000E+00 -0.97729976700E+02  0.38175417095E+04  0.38162905491E+04 0.  0.
        4    1    3    3  502    0 -0.49641854070E+03  0.10225567413E+03 -0.18890683750E+04  0.19558804996E+04  0.12699999809E+01 0. -1.
       -4    1    3    3    0  502  0.49641854070E+03 -0.10225567413E+03  0.17913383983E+04  0.18616612099E+04  0.12699999809E+01 0.  1.
</event>
<event>
 5   0  0.1070988E-07  0.3779754E+04  0.7818609E-02  0.8050514E-01
       -1   -1    0    0    0  501  0.00000000000E+00  0.00000000000E+00  0.15506527051E+04  0.15506527051E+04  0.50400001928E-02 0. -1.
        1   -1    0    0  501    0  0.00000000000E+00  0.00000000000E+00 -0.23033106794E+04  0.23033106794E+04  0.50400001928E-02 0.  1.
    10030    2    1    2    0    0  0.00000000000E+00  0.00000000000E+00 -0.75265797432E+03  0.38539633845E+04  0.37797539262E+04 0.  0.
        5    1    3    3  502    0  0.75500339455E+03 -0.17183787538E+04 -0.60147452313E+03  0.19709513843E+04  0.46999998093E+01 0.  1.
       -5    1    3    3    0  502 -0.75500339455E+03  0.17183787538E+04 -0.15118345119E+03  0.18830120002E+04  0.46999998093E+01 0. -1.
</event>
<event>
 5   0  0.3327241E-07  0.3860718E+04  0.7818609E-02  0.8033249E-01
        2   -1    0    0  501    0  0.00000000000E+00  0.00000000000E+00  0.20681223738E+04  0.20681223738E+04  0.25500000920E-02 0.  1.
       -2   -1    0    0    0  501  0.00000000000E+00  0.00000000000E+00 -0.18017720057E+04  0.18017720057E+04  0.25500000920E-02 0. -1.
    10030    2    1    2    0    0  0.00000000000E+00  0.00000000000E+00  0.26635036817E+03  0.38698943795E+04  0.38607175486E+04 0.  0.
        3    1    3    3  502    0  0.19127714966E+04  0.22335329768E+03  0.26654592691E+03  0.19441265996E+04  0.10100000352E+00 0. -1.
       -3    1    3    3    0  502 -0.19127714966E+04 -0.22335329768E+03 -0.19555874918E+00  0.19257677799E+04  0.10100000352E+00 0.  1.
</event>
<event>
 5   0  0.1070988E-07  0.3715084E+04  0.7818609E-02  0.8064627E-01
        1   -1    0    0  501    0  0.00000000000E+00  0.00000000000E+00  0.23024066979E+04  0.23024066980E+04  0.50400001928E-02 0.  1.
       -1   -1    0    0    0  501  0.00000000000E+00  0.00000000000E+00 -0.14986329812E+04  0.14986329812E+04  0.50400001928E-02 0. -1.
    10030    2    1    2    0    0  0.00000000000E+00  0.00000000000E+00  0.80377371679E+03  0.38010396791E+04  0.37150841786E+04 0.  0.
        5    1    3    3  502    0 -0.17285369402E+04 -0.69758305552E+02 -0.29032732901E+03  0.17541431592E+04  0.46999998093E+01 0. -1.
       -5    1    3    3    0  502  0.17285369402E+04  0.69758305552E+02  0.10941010458E+04  0.20468965199E+04  0.46999998093E+01 0.  1.
</event>
<event>
 5   0  0.1070988E-07  0.3791052E+04  0.7818609E-02  0.8048078E-01
       -1   -1    0    0    0  501  0.00000000000E+00  0.00000000000E+00  0.18917763023E+04  0.18917763024E+04  0.50400001928E-02 0.  1.
        1   -1    0    0  501    0  0.00000000000E+00  0.00000000000E+00 -0.18992834638E+04  0.18992834638E+04  0.50400001928E-02 0. -1.
    10030    2    1    2    0    0  0.00000000000E+00  0.00000000000E+00 -0.75071614132E+01  0.37910597661E+04  0.37910523332E+04 0.  0.
        3    1    3    3  502    0  0.89770625484E+03  0.15822445560E+04 -0.53633802970E+03  0.18965845215E+04  0.10100000352E+00 0.  1.
       -3    1    3    3    0  502 -0.89770625484E+03 -0.15822445560E+04  0.52883086829E+03  0.18944752446E+04  0.10100000352E+00 0. -1.
</event>
<event>
 5   0  0.1070988E-07  0.3381761E+04  0.7818609E-02  0.8142397E-01
       -1   -1    0    0    0  501  0.00000000000E+00  0.00000000000E+00  0.11596204325E+04  0.11596204325E+04  0.50400001928E-02 0.  1.
        1   -1    0    0  501    0  0.00000000000E+00  0.00000000000E+00 -0.24655283564E+04  0.24655283564E+04  0.50400001928E-02 0. -1.
    10030    2    1    2    0    0  0.00000000000E+00  0.00000000000E+00 -0.13059079239E+04  0.36251487889E+04  0.33817611145E+04 0.  0.
        3    1    3    3  502    0 -0.39502062662E+03  0.14261393671E+04 -0.15298510532E+04  0.21284640108E+04  0.10100000352E+00 0. -1.
       -3    1    3    3    0  502  0.39502062662E+03 -0.14261393671E+04  0.22394312930E+03  0.14966847781E+04  0.10100000352E+00 0.  1.
</event>
<event>
 5   0  0.1070988E-07  0.3886934E+04  0.7818609E-02  0.8027752E-01
        3   -1    0    0  501    0  0.00000000000E+00  0.00000000000E+00  0.21372055639E+04  0.21372055663E+04  0.10100000352E+00 0. -1.
       -3   -1    0    0    0  501  0.00000000000E+00  0.00000000000E+00 -0.17672906056E+04  0.17672906085E+04  0.10100000352E+00 0.  1.
    10030    2    1    2    0    0  0.00000000000E+00  0.00000000000E+00  0.36991495827E+03  0.39044961748E+04  0.38869336633E+04 0.  0.
        3    1    3    3  502    0 -0.74757864057E+03 -0.10645503700E+04 -0.12654925766E+04  0.18148313381E+04  0.10100000352E+00 0.  1.
       -3    1    3    3    0  502  0.74757864057E+03  0.10645503700E+04  0.16354075349E+04  0.20896648367E+04  0.10100000352E+00 0. -1.
</event>
<event>
 5   0  0.3509843E-07  0.3834285E+04  0.7818609E-02  0.8038837E-01
        2   -1    0    0  501    0  0.00000000000E+00  0.00000000000E+00  0.26669922875E+04  0.26669922875E+04  0.25500000920E-02 0. -1.
       -2   -1    0    0    0  501  0.00000000000E+00  0.00000000000E+00 -0.13781200813E+04  0.13781200813E+04  0.25500000920E-02 0.  1.
    10030    2    1    2    0    0  0.00000000000E+00  0.00000000000E+00  0.12888722062E+04  0.40451123688E+04  0.38342851371E+04 0.  0.
        4    1    3    3  502    0 -0.17719788320E+04  0.56338757186E+03  0.15172379736E+03  0.18655659358E+04  0.12699999809E+01 0.  1.
       -4    1    3    3    0  502  0.17719788320E+04 -0.56338757186E+03  0.11371484088E+04  0.21795464330E+04  0.12699999809E+01 0. -1.
</event>
<event>
 5   0  0.3327241E-07  0.3779545E+04  0.7818609E-02  0.8050559E-01
       -2   -1    0    0    0  501  0.00000000000E+00  0.00000000000E+00  0.14964773039E+04  0.14964773039E+04  0.25500000920E-02 0. -1.
        2   -1    0    0  501    0  0.00000000000E+00  0.00000000000E+00 -0.23864311469E+04  0.23864311469E+04  0.25500000920E-02 0.  1.
    10030    2    1    2    0    0  0.00000000000E+00  0.00000000000E+00 -0.88995384302E+03  0.38829084508E+04  0.37795449719E+04 0.  0.
        3    1    3    3  502    0 -0.53151874540E+03 -0.15228070734E+04  0.56673227132E+03  0.17095727645E+04  0.10100000352E+00 0. -1.
       -3    1    3    3    0  502  0.53151874540E+03  0.15228070734E+04 -0.14566861143E+04  0.21733356863E+04  0.10100000352E+00 0.  1.
</event>
<event>
 5   0  0.3442126E-07  0.3629988E+04  0.7818609E-02  0.8083657E-01
        2   -1    0    0  501    0  0.00000000000E+00  0.00000000000E+00  0.23606768206E+04  0.23606768206E+04  0.25500000920E-02 0.  1.
       -2   -1    0    0    0  501  0.00000000000E+00  0.00000000000E+00 -0.13954484325E+04  0.13954484325E+04  0.25500000920E-02 0. -1.
    10030    2    1    2    0    0  0.00000000000E+00  0.00000000000E+00  0.96522838815E+03  0.37561252531E+04  0.36299877514E+04 0.  0.
        2    1    3    3  502    0 -0.12253785502E+04  0.12898854945E+04  0.85403795531E+03  0.19735090598E+04  0.25500000920E-02 0. -1.
       -2    1    3    3    0  502  0.12253785502E+04 -0.12898854945E+04  0.11119043285E+03  0.17826161933E+04  0.25500000920E-02 0.  1.
</event>
<event>
 5   0  0.3539010E-07  0.3696278E+04  0.7818609E-02  0.8068787E-01
        2   -1    0    0  501    0  0.00000000000E+00  0.00000000000E+00  0.20986471490E+04  0.20986471491E+04  0.25500000920E-02 0. -1.
       -2   -1    0    0    0  501  0.00000000000E+00  0.00000000000E+00 -0.16275327038E+04  0.16275327038E+04  0.25500000920E-02 0.  1.
    10030    2    1    2    0    0  0.00000000000E+00  0.00000000000E+00  0.47111444523E+03  0.37261798529E+04  0.36962775160E+04 0.  0.
        1    1    3    3  502    0 -0.15763944593E+04 -0.96409152900E+03  0.26936809857E+03  0.18673647582E+04  0.50400001928E-02 0.  1.
       -1    1    3    3    0  502  0.15763944593E+04  0.96409152900E+03  0.20174634666E+03  0.18588150947E+04  0.50400001928E-02 0. -1.
</event>
<event>
 5   0  0.3377396E-07  0.3784099E+04  0.7818609E-02  0.8049576E-01
       -2   -1    0    0    0  501  0.00000000000E+00  0.00000000000E+00  0.14781406550E+04  0.14781406550E+04  0.25500000920E-02 0. -1.
        2   -1    0    0  501    0  0.00000000000E+00  0.00000000000E+00 -0.24218615152E+04  0.24218615152E+04  0.25500000920E-02 0.  1.
    10030    2    1    2    0    0  0.00000000000E+00  0.00000000000E+00 -0.94372086016E+03  0.39000021702E+04  0.37840993467E+04 0.  0.
        5    1    3    3  502    0 -0.12544974073E+04  0.47199908389E+03  0.90443748903E+03  0.16169651022E+04  0.46999998093E+01 0. -1.
       -5    1    3    3    0  502  0.12544974073E+04 -0.47199908389E+03 -0.18481583492E+04  0.22830370680E+04  0.46999998093E+01 0.  1.
</event>
<event>
 5   0  0.3327241E-07  0.3815807E+04  0.7818609E-02  0.8042771E-01
       -2   -1    0    0    0  501  0.00000000000E+00  0.00000000000E+00  0.18021295307E+04  0.18021295307E+04  0.25500000920E-02 0. -1.
        2   -1    0    0  501    0  0.00000000000E+00  0.00000000000E+00 -0.20198855807E+04  0.20198855807E+04  0.25500000920E-02 0.  1.
    10030    2    1    2    0    0  0.00000000000E+00  0.00000000000E+00 -0.21775605000E+03  0.38220151115E+04  0.38158068367E+04 0.  0.
        3    1    3    3  502    0 -0.84266006853E+03  0.34338877123E+03  0.15707831224E+04  0.18153102950E+04  0.10100000352E+00 0. -1.
       -3    1    3    3    0  502  0.84266006853E+03 -0.34338877123E+03 -0.17885391724E+04  0.20067048165E+04  0.10100000352E+00 0.  1.
</event>
<event>
 5   0  0.1070988E-07  0.3881479E+04  0.7818609E-02  0.8028892E-01
        1   -1    0    0  501    0  0.00000000000E+00  0.00000000000E+00  0.18513828605E+04  0.18513828605E+04  0.50400001928E-02 0.  1.
       -1   -1    0    0    0  501  0.00000000000E+00  0.00000000000E+00 -0.20344088581E+04  0.20344088581E+04  0.50400001928E-02 0. -1.
    10030    2    1    2    0    0  0.00000000000E+00  0.00000000000E+00 -0.18302599760E+03  0.38857917186E+04  0.38814789403E+04 0.  0.
        3    1    3    3  502    0 -0.67506107293E+03  0.14443281253E+04  0.10163685517E+04  0.18907131535E+04  0.10100000352E+00 0.  1.
       -3    1    3    3    0  502  0.67506107293E+03 -0.14443281253E+04 -0.11993945493E+04  0.19950785651E+04  0.10100000352E+00 0. -1.
</event>
<event>
 5   0  0.1070988E-07  0.3755838E+04  0.7818609E-02  0.8055699E-01
        1   -1    0    0  501    0  0.00000000000E+00  0.00000000000E+00  0.33853146290E+04  0.33853146290E+04  0.50400001928E-02 0.  1.
       -1   -1    0    0    0  501  0.00000000000E+00  0.00000000000E+00 -0.10417288940E+04  0.10417288940E+04  0.50400001928E-02 0. -1.
    10030    2    1    2    0    0  0.00000000000E+00  0.00000000000E+00  0.23435857350E+04  0.44270435229E+04  0.37558381564E+04 0.  0.
        3    1    3    3  502    0 -0.49659983090E+03  0.13853491325E+04 -0.20319958132E+03  0.14856290557E+04  0.10100000352E+00 0. -1.
       -3    1    3    3    0  502  0.49659983090E+03 -0.13853491325E+04  0.25467853163E+04  0.29414144673E+04  0.10100000352E+00 0.  1.
</event>
<event>
 5   0  0.1070988E-07  0.3866341E+04  0.7818609E-02  0.8032066E-01
        1   -1    0    0  501    0  0.00000000000E+00  0.00000000000E+00  0.20941621265E+04  0.20941621265E+04  0.50400001928E-02 0.  1.
       -1   -1    0    0    0  501  0.00000000000E+00  0.00000000000E+00 -0.17845553264E+04  0.17845553264E+04  0.50400001928E-02 0. -1.
    10030    2    1    2    0    0  0.00000000000E+00  0.00000000000E+00  0.30960680009E+03  0.38787174529E+04  0.38663409975E+04 0.  0.
        5    1    3    3  502    0 -0.14647284336E+04 -0.97796775133E+03 -0.64478988621E+03  0.18755336292E+04  0.46999998093E+01 0. -1.
       -5    1    3    3    0  502  0.14647284336E+04  0.97796775133E+03  0.95439668630E+03  0.20031838237E+04  0.46999998093E+01 0.  1.
</event>
<event>
 5   0  0.1070988E-07  0.3825086E+04  0.7818609E-02  0.8040793E-01
        1   -1    0    0  501    0  0.00000000000E+00  0.00000000000E+00  0.15853208463E+04  0.15853208463E+04  0.50400001928E-02 0.  1.
       -1   -1    0    0    0  501  0.00000000000E+00  0.00000000000E+00 -0.23073065858E+04  0.23073065858E+04  0.50400001928E-02 0. -1.
    10030    2    1    2    0    0  0.00000000000E+00  0.00000000000E+00 -0.72198573958E+03  0.38926274321E+04  0.38250862627E+04 0.  0.
        5    1    3    3  502    0 -0.10682355704E+04  0.15796487258E+04 -0.50980002823E+03  0.19739137492E+04  0.46999998093E+01 0.  1.
       -5    1    3    3    0  502  0.10682355704E+04 -0.15796487258E+04 -0.21218571135E+03  0.19187136829E+04  0.46999998093E+01 0. -1.
</event>
<event>
 5   0  0.3442126E-07  0.3772703E+04  0.7818609E-02  0.8052038E-01
        2   -1    0    0  501    0  0.00000000000E+00  0.00000000000E+00  0.13719724699E+04  0.13719724699E+04  0.25500000920E-02 0.  1.
       -2   -1    0    0    0  501  0.00000000000E+00  0.00000000000E+00 -0.25935814598E+04  0.25935814599E+04  0.25500000920E-02 0. -1.
    10030    2    1    2    0    0  0.00000000000E+00  0.00000000000E+00 -0.12216089900E+04  0.39655539297E+04  0.37727032013E+04 0.  0.
        2    1    3    3  502    0 -0.20034374680E+03  0.17039793693E+04  0.21326017584E+03  0.17289196657E+04  0.25500000920E-02 0.  1.
       -2    1    3    3    0  502  0.20034374680E+03 -0.17039793693E+04 -0.14348691658E+04  0.22366342640E+04  0.25500000920E-02 0. -1.
</event>
<event>
 5   0  0.3327241E-07  0.3804450E+04  0.7818609E-02  0.8045201E-01
        2   -1    0    0  501    0  0.00000000000E+00  0.00000000000E+00  0.13467479148E+04  0.13467479148E+04  0.25500000920E-02 0. -1.
       -2   -1    0    0    0  501  0.00000000000E+00  0.00000000000E+00 -0.26868126798E+04  0.26868126798E+04  0.25500000920E-02 0.  1.
    10030    2    1    2    0    0  0.00000000000E+00  0.00000000000E+00 -0.13400647650E+04  0.40335605946E+04  0.38044496968E+04 0.  0.
        3    1    3    3  502    0 -0.18300393461E+04  0.26672000099E+03 -0.11421297632E+04  0.21736246165E+04  0.10100000352E+00 0. -1.
       -3    1    3    3    0  502  0.18300393461E+04 -0.26672000099E+03 -0.19793500181E+03  0.18599359781E+04  0.10100000352E+00 0.  1.
</event>
<event>
 5   0  0.1070988E-07  0.3354860E+04  0.7818609E-02  0.8149075E-01
        1   -1    0    0  501    0  0.00000000000E+00  0.00000000000E+00  0.17839523114E+04  0.17839523114E+04  0.50400001928E-02 0. -1.
       -1   -1    0    0    0  501  0.00000000000E+00  0.00000000000E+00 -0.15772682772E+04  0.15772682772E+04  0.50400001928E-02 0.  1.
    10030    2    1    2    0    0  0.00000000000E+00  0.00000000000E+00  0.20668403423E+03  0.33612205886E+04  0.33548599904E+04 0.  0.
        3    1    3    3  502    0  0.17829384768E+03  0.12549628189E+04  0.12040837336E+04  0.17482957474E+04  0.10100000352E+00 0. -1.
       -3    1    3    3    0  502 -0.17829384768E+03 -0.12549628189E+04 -0.99739969933E+03  0.16129248412E+04  0.10100000352E+00 0.  1.
</event>
<event>
 5   0  0.1070988E-07  0.3812687E+04  0.7818609E-02  0.8043438E-01
       -1   -1    0    0    0  501  0.00000000000E+00  0.00000000000E+00  0.22402564568E+04  0.22402564569E+04  0.50400001928E-02 0.  1.
        1   -1    0    0  501    0  0.00000000000E+00  0.00000000000E+00 -0.16222007415E+04  0.16222007415E+04  0.50400001928E-02 0. -1.
    10030    2    1    2    0    0  0.00000000000E+00  0.00000000000E+00  0.61805571538E+03  0.38624571983E+04  0.38126870763E+04 0.  0.
        2    1    3    3  502    0 -0.31749779611E+03 -0.11307507204E+03  0.22098350904E+04  0.22353885455E+04  0.25500000920E-02 0.  1.
       -2    1    3    3    0  502  0.31749779611E+03  0.11307507204E+03 -0.15917793750E+04  0.16270686529E+04  0.25500000920E-02 0. -1.
</event>
<event>
 5   0  0.3442126E-07  0.3808791E+04  0.7818609E-02  0.8044271E-01
       -2   -1    0    0    0  501  0.00000000000E+00  0.00000000000E+00  0.23407351118E+04  0.23407351118E+04  0.25500000920E-02 0. -1.
        2   -1    0    0  501    0  0.00000000000E+00  0.00000000000E+00 -0.15493944229E+04  0.15493944229E+04  0.25500000920E-02 0.  1.
    10030    2    1    2    0    0  0.00000000000E+00  0.00000000000E+00  0.79134068898E+03  0.38901295347E+04  0.38087908463E+04 0.  0.
        2    1    3    3  502    0 -0.12891841063E+04 -0.25306802875E+03 -0.10124240353E+04  0.16586263938E+04  0.25500000920E-02 0.  1.
       -2    1    3    3    0  502  0.12891841063E+04  0.25306802875E+03  0.18037647243E+04  0.22315031408E+04  0.25500000920E-02 0. -1.
</event>
<event>
 5   0  0.1084315E-07  0.3774880E+04  0.7818609E-02  0.8051567E-01
        1   -1    0    0  501    0  0.00000000000E+00  0.00000000000E+00  0.20623774799E+04  0.20623774799E+04  0.50400001928E-02 0. -1.
       -1   -1    0    0    0  501  0.00000000000E+00  0.00000000000E+00 -0.17273413858E+04  0.17273413858E+04  0.50400001928E-02 0.  1.
    10030    2    1    2    0    0  0.00000000000E+00  0.00000000000E+00  0.33503609408E+03  0.37897188658E+04  0.37748801169E+04 0.  0.
        4    1    3    3  502    0 -0.17021574691E+04  0.16220417914E+03  0.96989573663E+03  0.19657949024E+04  0.12699999809E+01 0. -1.
       -4    1    3    3    0  502  0.17021574691E+04 -0.16220417914E+03 -0.63485964255E+03  0.18239239634E+04  0.12699999809E+01 0.  1.
</event>
<event>
 5   0  0.3539010E-07  0.3448521E+04  0.7818609E-02  0.8126099E-01
       -2   -1    0    0    0  501  0.00000000000E+00  0.00000000000E+00  0.19455037380E+04  0.19455037380E+04  0.25500000920E-02 0. -1.
        2   -1    0    0  501    0  0.00000000000E+00  0.00000000000E+00 -0.15281773710E+04  0.15281773710E+04  0.25500000920E-02 0.  1.
    10030    2    1    2    0    0  0.00000000000E+00  0.00000000000E+00  0.41732636701E+03  0.34736811090E+04  0.34485212991E+04 0.  0.
        1    1    3    3  502    0 -0.50455382719E+03  0.11133945568E+04 -0.10162900425E+04  0.15896752669E+04  0.50400001928E-02 0.  1.
       -1    1    3    3    0  502  0.50455382719E+03 -0.11133945568E+04  0.14336164095E+04  0.18840058422E+04  0.50400001928E-02 0. -1.
</event>
<event>
 5   0  0.1084315E-07  0.3871495E+04  0.7818609E-02  0.8030984E-01
        1   -1    0    0  501    0  0.00000000000E+00  0.00000000000E+00  0.12646734601E+04  0.12646734601E+04  0.50400001928E-02 0. -1.
       -1   -1    0    0    0  501  0.00000000000E+00  0.00000000000E+00 -0.29629140128E+04  0.29629140128E+04  0.50400001928E-02 0.  1.
    10030    2    1    2    0    0  0.00000000000E+00  0.00000000000E+00 -0.16982405527E+04  0.42275874728E+04  0.38714951719E+04 0.  0.
        4    1    3    3  502    0  0.27210802452E+03 -0.10003703525E+04  0.93596598305E+03  0.13967167048E+04  0.12699999809E+01 0. -1.
       -4    1    3    3    0  502 -0.27210802452E+03  0.10003703525E+04 -0.26342065357E+04  0.28308707680E+04  0.12699999809E+01 0.  1.
</event>
<event>
 5   0  0.1070988E-07  0.3822820E+04  0.7818609E-02  0.8041275E-01
        1   -1    0    0  501    0  0.00000000000E+00  0.00000000000E+00  0.36008702004E+04  0.36008702004E+04  0.50400001928E-02 0. -1.
       -1   -1    0    0    0  501  0.00000000000E+00  0.00000000000E+00 -0.10146127040E+04  0.10146127040E+04  0.50400001928E-02 0.  1.
    10030    2    1    2    0    0  0.00000000000E+00  0.00000000000E+00  0.25862574964E+04  0.46154829044E+04  0.38228202421E+04 0.  0.
        3    1    3    3  502    0  0.28141100651E+03 -0.62371724863E+03  0.34479270220E+04  0.35151694298E+04  0.10100000352E+00 0. -1.
       -3    1    3    3    0  502 -0.28141100651E+03  0.62371724863E+03 -0.86166952564E+03  0.11003134746E+04  0.10100000352E+00 0.  1.
</event>
<event>
 5   0  0.1070988E-07  0.3766303E+04  0.7818609E-02  0.8053425E-01
        1   -1    0    0  501    0  0.00000000000E+00  0.00000000000E+00  0.21963285996E+04  0.21963285996E+04  0.50400001928E-02 0. -1.
       -1   -1    0    0    0  501  0.00000000000E+00  0.00000000000E+00 -0.16146304896E+04  0.16146304896E+04  0.50400001928E-02 0.  1.
    10030    2    1    2    0    0  0.00000000000E+00  0.00000000000E+00  0.58169811000E+03  0.38109590893E+04  0.37663027612E+04 0.  0.
        2    1    3    3  502    0  0.63817343272E+03 -0.13358482005E+04  0.14684797149E+04  0.20852310227E+04  0.25500000920E-02 0. -1.
       -2    1    3    3    0  502 -0.63817343272E+03  0.13358482005E+04 -0.88678160487E+03  0.17257280666E+04  0.25500000920E-02 0.  1.
</event>
<event>
 5   0  0.3539010E-07  0.3750875E+04  0.7818609E-02  0.8056780E-01
        2   -1    0    0  501    0  0.00000000000E+00  0.00000000000E+00  0.22618065618E+04  0.22618065618E+04  0.25500000920E-02 0. -1.
       -2   -1    0    0    0  501  0.00000000000E+00  0.00000000000E+00 -0.15550696310E+04  0.15550696310E+04  0.25500000920E-02 0.  1.
    10030    2    1    2    0    0  0.00000000000E+00  0.00000000000E+00  0.70673693084E+03  0.38168761928E+04  0.37508754687E+04 0.  0.
        1    1    3    3  502    0 -0.65023831377E+03  0.28224065215E+03  0.21202379411E+04  0.22355935626E+04  0.50400001928E-02 0. -1.
       -1    1    3    3    0  502  0.65023831377E+03 -0.28224065215E+03 -0.14135010102E+04  0.15812826301E+04  0.50400001928E-02 0.  1.
</event>
<event>
 5   0  0.3377396E-07  0.3825703E+04  0.7818609E-02  0.8040661E-01
        2   -1    0    0  501    0  0.00000000000E+00  0.00000000000E+00  0.18863261960E+04  0.18863261960E+04  0.25500000920E-02 0. -1.
       -2   -1    0    0    0  501  0.00000000000E+00  0.00000000000E+00 -0.19397501748E+04  0.19397501748E+04  0.25500000920E-02 0.  1.
    10030    2    1    2    0    0  0.00000000000E+00  0.00000000000E+00 -0.53423978825E+02  0.38260763709E+04  0.38257033699E+04 0.  0.
        5    1    3    3  502    0 -0.42484421440E+03 -0.12305211184E+04  0.13749611901E+04  0.18934664490E+04  0.46999998093E+01 0. -1.
       -5    1    3    3    0  502  0.42484421440E+03  0.12305211184E+04 -0.14283851689E+04  0.19326099219E+04  0.46999998093E+01 0.  1.
</event>
<event>
 5   0  0.1070988E-07  0.3910839E+04  0.7818609E-02  0.8022779E-01
       -1   -1    0    0    0  501  0.00000000000E+00  0.00000000000E+00  0.17916073129E+04  0.17916073129E+04  0.50400001928E-02 0. -1.
        1   -1    0    0  501    0  0.00000000000E+00  0.00000000000E+00 -0.21342091260E+04  0.21342091260E+04  0.50400001928E-02 0.  1.
    10030    2    1    2    0    0  0.00000000000E+00  0.00000000000E+00 -0.34260181308E+03  0.39258164389E+04  0.39108386197E+04 0.  0.
        5    1    3    3  502    0 -0.17274912089E+04 -0.74975289442E+03  0.35729657501E+03  0.19167780811E+04  0.46999998093E+01 0.  1.
       -5    1    3    3    0  502  0.17274912089E+04  0.74975289442E+03 -0.69989838809E+03  0.20090383578E+04  0.46999998093E+01 0. -1.
</event>
<event>
 5   0  0.3509843E-07  0.3864452E+04  0.7818609E-02  0.8032463E-01
       -2   -1    0    0    0  501  0.00000000000E+00  0.00000000000E+00  0.18414856354E+04  0.18414856354E+04  0.25500000920E-02 0.  1.
        2   -1    0    0  501    0  0.00000000000E+00  0.00000000000E+00 -0.20274381138E+04  0.20274381138E+04  0.25500000920E-02 0. -1.
    10030    2    1    2    0    0  0.00000000000E+00  0.00000000000E+00 -0.18595247838E+03  0.38689237493E+04  0.38644524390E+04 0.  0.
        4    1    3    3  502    0  0.23614782205E+03 -0.14267797660E+04  0.11899236907E+04  0.18728017239E+04  0.12699999809E+01 0.  1.
       -4    1    3    3    0  502 -0.23614782205E+03  0.14267797660E+04 -0.13758761691E+04  0.19961220254E+04  0.12699999809E+01 0. -1.
</event>
<event>
 5   0  0.1085771E-07  0.3818345E+04  0.7818609E-02  0.8042229E-01
        1   -1    0    0  501    0  0.00000000000E+00  0.00000000000E+00  0.12897687404E+04  0.12897687404E+04  0.50400001928E-02 0.  1.
       -1   -1    0    0    0  501  0.00000000000E+00  0.00000000000E+00 -0.28260415874E+04  0.28260415874E+04  0.50400001928E-02 0. -1.
    10030    2    1    2    0    0  0.00000000000E+00  0.00000000000E+00 -0.15362728471E+04  0.41158103278E+04  0.38183452429E+04 0.  0.
        1    1    3    3  502    0  0.27142076691E+03  0.11256671873E+04 -0.24043311605E+04  0.26686333916E+04  0.50400001928E-02 0. -1.
       -1    1    3    3    0  502 -0.27142076691E+03 -0.11256671873E+04  0.86805831339E+03  0.14471769363E+04  0.50400001928E-02 0.  1.
</event>
<event>
 5   0  0.1070988E-07  0.3388369E+04  0.7818609E-02  0.8140767E-01
        3   -1    0    0  501    0  0.00000000000E+00  0.00000000000E+00  0.18674296021E+04  0.18674296048E+04  0.10100000352E+00 0. -1.
       -3   -1    0    0    0  501  0.00000000000E+00  0.00000000000E+00 -0.15370116923E+04  0.15370116956E+04  0.10100000352E+00 0.  1.
    10030    2    1    2    0    0  0.00000000000E+00  0.00000000000E+00  0.33041790978E+03  0.34044413004E+04  0.33883690137E+04 0.  0.
        2    1    3    3  502    0 -0.11463417486E+04  0.11661055306E+04  0.61043570691E+03  0.17454321142E+04  0.25500000920E-02 0. -1.
       -2    1    3    3    0  502  0.11463417486E+04 -0.11661055306E+04 -0.28001779713E+03  0.16590091862E+04  0.25500000920E-02 0.  1.
</event>
<event>
 5   0  0.1070988E-07  0.4120571E+04  0.7818609E-02  0.7980656E-01
       -1   -1    0    0    0  501  0.00000000000E+00  0.00000000000E+00  0.19356711006E+04  0.19356711007E+04  0.50400001928E-02 0.  1.
        1   -1    0    0  501    0  0.00000000000E+00  0.00000000000E+00 -0.21929223467E+04  0.21929223467E+04  0.50400001928E-02 0. -1.
    10030    2    1    2    0    0  0.00000000000E+00  0.00000000000E+00 -0.25725124604E+03  0.41285934473E+04  0.41205710344E+04 0.  0.
        2    1    3    3  502    0  0.95740242553E+03 -0.16400891244E+04  0.67184448203E+03  0.20144197051E+04  0.25500000920E-02 0.  1.
       -2    1    3    3    0  502 -0.95740242553E+03  0.16400891244E+04 -0.92909572807E+03  0.21141737422E+04  0.25500000920E-02 0. -1.
</event>
<event>
 5   0  0.1070988E-07  0.3840956E+04  0.7818609E-02  0.8037423E-01
       -1   -1    0    0    0  501  0.00000000000E+00  0.00000000000E+00  0.12900051728E+04  0.12900051728E+04  0.50400001928E-02 0.  1.
        1   -1    0    0  501    0  0.00000000000E+00  0.00000000000E+00 -0.28590855579E+04  0.28590855579E+04  0.50400001928E-02 0. -1.
    10030    2    1    2    0    0  0.00000000000E+00  0.00000000000E+00 -0.15690803851E+04  0.41490907307E+04  0.38409556931E+04 0.  0.
        2    1    3    3  502    0 -0.15579048491E+04  0.71118826385E+03 -0.17233898613E+04  0.24295943858E+04  0.25500000920E-02 0. -1.
       -2    1    3    3    0  502  0.15579048491E+04 -0.71118826385E+03  0.15430947623E+03  0.17194963449E+04  0.25500000920E-02 0.  1.
</event>
<event>
 5   0  0.1070988E-07  0.3786203E+04  0.7818609E-02  0.8049122E-01
        3   -1    0    0  501    0  0.00000000000E+00  0.00000000000E+00  0.26006215230E+04  0.26006215250E+04  0.10100000352E+00 0. -1.
       -3   -1    0    0    0  501  0.00000000000E+00  0.00000000000E+00 -0.13780683419E+04  0.13780683456E+04  0.10100000352E+00 0.  1.
    10030    2    1    2    0    0  0.00000000000E+00  0.00000000000E+00  0.12225531811E+04  0.39786898706E+04  0.37862034818E+04 0.  0.
        5    1    3    3  502    0 -0.12612872298E+04  0.88907488444E+03 -0.54106419874E+03  0.16352590569E+04  0.46999998093E+01 0.  1.
       -5    1    3    3    0  502  0.12612872298E+04 -0.88907488444E+03  0.17636173798E+04  0.23434308137E+04  0.46999998093E+01 0. -1.
</event>
<event>
 5   0  0.1070988E-07  0.3778817E+04  0.7818609E-02  0.8050716E-01
       -3   -1    0    0    0  501  0.00000000000E+00  0.00000000000E+00  0.23560583896E+04  0.23560583918E+04  0.10100000352E+00 0.  1.
        3   -1    0    0  501    0  0.00000000000E+00  0.00000000000E+00 -0.15151854227E+04  0.15151854261E+04  0.10100000352E+00 0. -1.
    10030    2    1    2    0    0  0.00000000000E+00  0.00000000000E+00  0.84087296693E+03  0.38712438179E+04  0.37788174540E+04 0.  0.
        1    1    3    3  502    0  0.31044078181E+03 -0.18518063823E+04  0.63607229636E+03  0.19824601693E+04  0.50400001928E-02 0. -1.
       -1    1    3    3    0  502 -0.31044078181E+03  0.18518063823E+04  0.20480067057E+03  0.18887836486E+04  0.50400001928E-02 0.  1.
</event>
<event>
 5   0  0.1084315E-07  0.3805750E+04  0.7818609E-02  0.8044922E-01
        1   -1    0    0  501    0  0.00000000000E+00  0.00000000000E+00  0.25540071802E+04  0.25540071802E+04  0.50400001928E-02 0.  1.
       -1   -1    0    0    0  501  0.00000000000E+00  0.00000000000E+00 -0.14177458089E+04  0.14177458089E+04  0.50400001928E-02 0. -1.
    10030    2    1    2    0    0  0.00000000000E+00  0.00000000000E+00  0.11362613713E+04  0.39717529891E+04  0.38057498476E+04 0.  0.
        4    1    3    3  502    0 -0.97637702944E+03 -0.13186706948E+04 -0.43760994386E+03  0.16981485744E+04  0.12699999809E+01 0. -1.
       -4    1    3    3    0  502  0.97637702944E+03  0.13186706948E+04  0.15738713151E+04  0.22736044147E+04  0.12699999809E+01 0.  1.
</event>
<event>
 5   0  0.1070988E-07  0.3818601E+04  0.7818609E-02  0.8042175E-01
       -1   -1    0    0    0  501  0.00000000000E+00  0.00000000000E+00  0.16224576812E+04  0.16224576812E+04  0.50400001928E-02 0. -1.
        1   -1    0    0  501    0  0.00000000000E+00  0.00000000000E+00 -0.22468557901E+04  0.22468557901E+04  0.50400001928E-02 0.  1.
    10030    2    1    2    0    0  0.00000000000E+00  0.00000000000E+00 -0.62439810895E+03  0.38693134713E+04  0.38186010188E+04 0.  0.
        2    1    3    3  502    0  0.15154176340E+04 -0.39425713767E+03 -0.14191813787E+04  0.21132924743E+04  0.25500000920E-02 0.  1.
       -2    1    3    3    0  502 -0.15154176340E+04  0.39425713767E+03  0.79478326974E+03  0.17560209970E+04  0.25500000920E-02 0. -1.
</event>
<event>
 5   0  0.1070988E-07  0.3765316E+04  0.7818609E-02  0.8053639E-01
        1   -1    0    0  501    0  0.00000000000E+00  0.00000000000E+00  0.13205015362E+04  0.13205015362E+04  0.50400001928E-02 0. -1.
       -1   -1    0    0    0  501  0.00000000000E+00  0.00000000000E+00 -0.26841325440E+04  0.26841325440E+04  0.50400001928E-02 0.  1.
    10030    2    1    2    0    0  0.00000000000E+00  0.00000000000E+00 -0.13636310078E+04  0.40046340802E+04  0.37653160014E+04 0.  0.
        2    1    3    3  502    0 -0.14327939694E+04 -0.42955468599E+03  0.53408145042E+03  0.15882880037E+04  0.25500000920E-02 0. -1.
       -2    1    3    3    0  502  0.14327939694E+04  0.42955468599E+03 -0.18977124582E+04  0.24163460765E+04  0.25500000920E-02 0.  1.
</event>
<event>
 5   0  0.3539010E-07  0.3696814E+04  0.7818609E-02  0.8068668E-01
        2   -1    0    0  501    0  0.00000000000E+00  0.00000000000E+00  0.14573005765E+04  0.14573005765E+04  0.25500000920E-02 0.  1.
       -2   -1    0    0    0  501  0.00000000000E+00  0.00000000000E+00 -0.23444776275E+04  0.23444776275E+04  0.25500000920E-02 0. -1.
    10030    2    1    2    0    0  0.00000000000E+00  0.00000000000E+00 -0.88717705102E+03  0.38017782040E+04  0.36968140869E+04 0.  0.
        1    1    3    3  502    0 -0.60563536290E+03 -0.15690821730E+04 -0.12320351701E+04  0.20848797852E+04  0.50400001928E-02 0.  1.
       -1    1    3    3    0  502  0.60563536290E+03  0.15690821730E+04  0.34485811907E+03  0.17168984188E+04  0.50400001928E-02 0. -1.
</event>
<event>
 5   0  0.1070988E-07  0.3699634E+04  0.7818609E-02  0.8068043E-01
        3   -1    0    0  501    0  0.00000000000E+00  0.00000000000E+00  0.16801059615E+04  0.16801059645E+04  0.10100000352E+00 0. -1.
       -3   -1    0    0    0  501  0.00000000000E+00  0.00000000000E+00 -0.20366714325E+04  0.20366714350E+04  0.10100000352E+00 0.  1.
    10030    2    1    2    0    0  0.00000000000E+00  0.00000000000E+00 -0.35656547102E+03  0.37167773995E+04  0.36996344822E+04 0.  0.
        2    1    3    3  502    0  0.18667066659E+03 -0.18400512598E+04 -0.21292802076E+03  0.18617123619E+04  0.25500000920E-02 0.  1.
       -2    1    3    3    0  502 -0.18667066659E+03  0.18400512598E+04 -0.14363745026E+03  0.18550650376E+04  0.25500000920E-02 0. -1.
</event>
<event>
 5   0  0.1070988E-07  0.3807748E+04  0.7818609E-02  0.8044494E-01
        1   -1    0    0  501    0  0.00000000000E+00  0.00000000000E+00  0.18811199114E+04  0.18811199114E+04  0.50400001928E-02 0. -1.
       -1   -1    0    0    0  501  0.00000000000E+00  0.00000000000E+00 -0.19269032590E+04  0.19269032590E+04  0.50400001928E-02 0.  1.
    10030    2    1    2    0    0  0.00000000000E+00  0.00000000000E+00 -0.45783347575E+02  0.38080231704E+04  0.38077479369E+04 0.  0.
        2    1    3    3  502    0  0.11321142429E+04  0.13049317197E+03 -0.15481330431E+04  0.19223493559E+04  0.25500000920E-02 0.  1.
       -2    1    3    3    0  502 -0.11321142429E+04 -0.13049317197E+03  0.15023496955E+04  0.18856738145E+04  0.25500000920E-02 0. -1.
</event>
<event>
 5   0  0.1085771E-07  0.3858520E+04  0.7818609E-02  0.8033712E-01
       -1   -1    0    0    0  501  0.00000000000E+00  0.00000000000E+00  0.12738750596E+04  0.12738750596E+04  0.50400001928E-02 0.  1.
        1   -1    0    0  501    0  0.00000000000E+00  0.00000000000E+00 -0.29218277949E+04  0.29218277949E+04  0.50400001928E-02 0. -1.
    10030    2    1    2    0    0  0.00000000000E+00  0.00000000000E+00 -0.16479527353E+04  0.41957028545E+04  0.38585196936E+04 0.  0.
        1    1    3    3  502    0 -0.16740917623E+04  0.11447981832E+03 -0.18591974251E+04  0.25044568120E+04  0.50400001928E-02 0. -1.
       -1    1    3    3    0  502  0.16740917623E+04 -0.11447981832E+03  0.21124468974E+03  0.16912460426E+04  0.50400001928E-02 0.  1.
</event>
<event>
 5   0  0.3377396E-07  0.3835756E+04  0.7818609E-02  0.8038525E-01
       -2   -1    0    0    0  501  0.00000000000E+00  0.00000000000E+00  0.17356900489E+04  0.17356900489E+04  0.25500000920E-02 0. -1.
        2   -1    0    0  501    0  0.00000000000E+00  0.00000000000E+00 -0.21191895481E+04  0.21191895481E+04  0.25500000920E-02 0.  1.
    10030    2    1    2    0    0  0.00000000000E+00  0.00000000000E+00 -0.38349949922E+03  0.38548795969E+04  0.38357560977E+04 0.  0.
        5    1    3    3  502    0 -0.83153083093E+03 -0.16099903466E+04  0.43965133673E+03  0.18646253851E+04  0.46999998093E+01 0. -1.
       -5    1    3    3    0  502  0.83153083093E+03  0.16099903466E+04 -0.82315083595E+03  0.19902542118E+04  0.46999998093E+01 0.  1.
</event>
<event>
 5   0  0.3377396E-07  0.3891099E+04  0.7818609E-02  0.8026883E-01
       -2   -1    0    0    0  501  0.00000000000E+00  0.00000000000E+00  0.29273448535E+04  0.29273448535E+04  0.25500000920E-02 0.  1.
        2   -1    0    0  501    0  0.00000000000E+00  0.00000000000E+00 -0.12930360260E+04  0.12930360260E+04  0.25500000920E-02 0. -1.
    10030    2    1    2    0    0  0.00000000000E+00  0.00000000000E+00  0.16343088275E+04  0.42203808795E+04  0.38910987426E+04 0.  0.
        5    1    3    3  502    0 -0.16602751399E+04  0.31703700558E+03 -0.22775855265E+03  0.17055562293E+04  0.46999998093E+01 0. -1.
       -5    1    3    3    0  502  0.16602751399E+04 -0.31703700558E+03  0.18620673801E+04  0.25148246502E+04  0.46999998093E+01 0.  1.
</event>
<event>
 5   0  0.3509843E-07  0.3805388E+04  0.7818609E-02  0.8045000E-01
       -2   -1    0    0    0  501  0.00000000000E+00  0.00000000000E+00  0.18519071773E+04  0.18519071773E+04  0.25500000920E-02 0.  1.
        2   -1    0    0  501    0  0.00000000000E+00  0.00000000000E+00 -0.19548735065E+04  0.19548735065E+04  0.25500000920E-02 0. -1.
    10030    2    1    2    0    0  0.00000000000E+00  0.00000000000E+00 -0.10296632918E+03  0.38067806838E+04  0.38053879053E+04 0.  0.
        4    1    3    3  502    0 -0.99799141945E+03 -0.10669986569E+04  0.11678844769E+04  0.18704087177E+04  0.12699999809E+01 0.  1.
       -4    1    3    3    0  502  0.99799141945E+03  0.10669986569E+04 -0.12708508060E+04  0.19363719661E+04  0.12699999809E+01 0. -1.
</event>
<event>
 5   0  0.1070988E-07  0.3695450E+04  0.7818609E-02  0.8068971E-01
        1   -1    0    0  501    0  0.00000000000E+00  0.00000000000E+00  0.19664299485E+04  0.19664299485E+04  0.50400001928E-02 0. -1.
       -1   -1    0    0    0  501  0.00000000000E+00  0.00000000000E+00 -0.17361859318E+04  0.17361859318E+04  0.50400001928E-02 0.  1.
    10030    2    1    2    0    0  0.00000000000E+00  0.00000000000E+00  0.23024401673E+03  0.37026158803E+04  0.36954501823E+04 0.  0.
        5    1    3    3  502    0  0.51700775937E+03  0.63651277250E+03  0.17741165920E+04  0.19544711062E+04  0.46999998093E+01 0. -1.
       -5    1    3    3    0  502 -0.51700775937E+03 -0.63651277250E+03 -0.15438725753E+04  0.17481447742E+04  0.46999998093E+01 0.  1.
</event>
<event>
 5   0  0.3442126E-07  0.3813838E+04  0.7818609E-02  0.8043192E-01
       -2   -1    0    0    0  501  0.00000000000E+00  0.00000000000E+00  0.14307733797E+04  0.14307733797E+04  0.25500000920E-02 0.  1.
        2   -1    0    0  501    0  0.00000000000E+00  0.00000000000E+00 -0.25415213021E+04  0.25415213021E+04  0.25500000920E-02 0. -1.
    10030    2    1    2    0    0  0.00000000000E+00  0.00000000000E+00 -0.11107479224E+04  0.39722946818E+04  0.38138384984E+04 0.  0.
        2    1    3    3  502    0  0.29860925568E+03  0.18619951494E+04 -0.85023977173E+03  0.20685988237E+04  0.25500000920E-02 0. -1.
       -2    1    3    3    0  502 -0.29860925568E+03 -0.18619951494E+04 -0.26050815062E+03  0.19036958581E+04  0.25500000920E-02 0.  1.
</event>
<event>
 5   0  0.1070988E-07  0.3092399E+04  0.7818609E-02  0.8217827E-01
       -1   -1    0    0    0  501  0.00000000000E+00  0.00000000000E+00  0.18019590239E+04  0.18019590240E+04  0.50400001928E-02 0. -1.
        1   -1    0    0  501    0  0.00000000000E+00  0.00000000000E+00 -0.13267411157E+04  0.13267411157E+04  0.50400001928E-02 0.  1.
    10030    2    1    2    0    0  0.00000000000E+00  0.00000000000E+00  0.47521790824E+03  0.31287001397E+04  0.30923991501E+04 0.  0.
        2    1    3    3  502    0 -0.12660550114E+04 -0.11987484934E+03 -0.65218516462E+03  0.14291993424E+04  0.25500000920E-02 0. -1.
       -2    1    3    3    0  502  0.12660550114E+04  0.11987484934E+03  0.11274030729E+04  0.16995007973E+04  0.25500000920E-02 0.  1.
</event>
<event>
 5   0  0.3442126E-07  0.3833502E+04  0.7818609E-02  0.8039003E-01
        2   -1    0    0  501    0  0.00000000000E+00  0.00000000000E+00  0.19381829187E+04  0.19381829187E+04  0.25500000920E-02 0.  1.
       -2   -1    0    0    0  501  0.00000000000E+00  0.00000000000E+00 -0.18955557670E+04  0.18955557670E+04  0.25500000920E-02 0. -1.
    10030    2    1    2    0    0  0.00000000000E+00  0.00000000000E+00  0.42627151690E+02  0.38337386856E+04  0.38335016937E+04 0.  0.
        2    1    3    3  502    0  0.12787361750E+04  0.14145602385E+04  0.21571421250E+03  0.19190308739E+04  0.25500000920E-02 0.  1.
       -2    1    3    3    0  502 -0.12787361750E+04 -0.14145602385E+04 -0.17308706081E+03  0.19147078117E+04  0.25500000920E-02 0. -1.
</event>
<event>
 5   0  0.1070988E-07  0.3738165E+04  0.7818609E-02  0.8059556E-01
       -1   -1    0    0    0  501  0.00000000000E+00  0.00000000000E+00  0.14340055771E+04  0.14340055771E+04  0.50400001928E-02 0.  1.
        1   -1    0    0  501    0  0.00000000000E+00  0.00000000000E+00 -0.24361616943E+04  0.24361616943E+04  0.50400001928E-02 0. -1.
    10030    2    1    2    0    0  0.00000000000E+00  0.00000000000E+00 -0.10021561172E+04  0.38701672714E+04  0.37381650346E+04 0.  0.
        5    1    3    3  502    0 -0.11151881568E+04 -0.55388766842E+03 -0.19442195598E+04  0.23087762909E+04  0.46999998093E+01 0. -1.
       -5    1    3    3    0  502  0.11151881568E+04  0.55388766842E+03  0.94206344260E+03  0.15613909806E+04  0.46999998093E+01 0.  1.
</event>
<event>
 5   0  0.3509843E-07  0.3542819E+04  0.7818609E-02  0.8103717E-01
        2   -1    0    0  501    0  0.00000000000E+00  0.00000000000E+00  0.27906704573E+04  0.27906704573E+04  0.25500000920E-02 0.  1.
       -2   -1    0    0    0  501  0.00000000000E+00  0.00000000000E+00 -0.11244221222E+04  0.11244221222E+04  0.25500000920E-02 0. -1.
    10030    2    1    2    0    0  0.00000000000E+00  0.00000000000E+00  0.16662483351E+04  0.39150925795E+04  0.35428189895E+04 0.  0.
        4    1    3    3  502    0  0.83874679732E+03  0.13770828168E+04  0.16437100339E+04  0.23025285150E+04  0.12699999809E+01 0. -1.
       -4    1    3    3    0  502 -0.83874679732E+03 -0.13770828168E+04  0.22538301260E+02  0.16125640645E+04  0.12699999809E+01 0.  1.
</event>
<event>
 5   0  0.1085771E-07  0.3801355E+04  0.7818609E-02  0.8045864E-01
        1   -1    0    0  501    0  0.00000000000E+00  0.00000000000E+00  0.28333074137E+04  0.28333074137E+04  0.50400001928E-02 0.  1.
       -1   -1    0    0    0  501  0.00000000000E+00  0.00000000000E+00 -0.12750383699E+04  0.12750383699E+04  0.50400001928E-02 0. -1.
    10030    2    1    2    0    0  0.00000000000E+00  0.00000000000E+00  0.15582690438E+04  0.41083457836E+04  0.38013553721E+04 0.  0.
        1    1    3    3  502    0 -0.74175342416E+03 -0.17462302432E+04  0.65563709845E+03  0.20073311160E+04  0.50400001928E-02 0. -1.
       -1    1    3    3    0  502  0.74175342416E+03  0.17462302432E+04  0.90263194536E+03  0.21010146676E+04  0.50400001928E-02 0.  1.
</event>
<event>
 5   0  0.1070988E-07  0.3138649E+04  0.7818609E-02  0.8205210E-01
       -1   -1    0    0    0  501  0.00000000000E+00  0.00000000000E+00  0.10696042992E+04  0.10696042992E+04  0.50400001928E-02 0. -1.
        1   -1    0    0  501    0  0.00000000000E+00  0.00000000000E+00 -0.23025142067E+04  0.23025142067E+04  0.50400001928E-02 0.  1.
    10030    2    1    2    0    0  0.00000000000E+00  0.00000000000E+00 -0.12329099075E+04  0.33721185059E+04  0.31386488140E+04 0.  0.
        5    1    3    3  502    0  0.71556757082E+03  0.12223816350E+04  0.10945376737E+03  0.14206533804E+04  0.46999998093E+01 0. -1.
       -5    1    3    3    0  502 -0.71556757082E+03 -0.12223816350E+04 -0.13423636749E+04  0.19514651254E+04  0.46999998093E+01 0.  1.
</event>
<event>
 5   0  0.1085771E-07  0.3835554E+04  0.7818609E-02  0.8038568E-01
       -1   -1    0    0    0  501  0.00000000000E+00  0.00000000000E+00  0.18140066906E+04  0.18140066906E+04  0.50400001928E-02 0.  1.
        1   -1    0    0  501    0  0.00000000000E+00  0.00000000000E+00 -0.20274839920E+04  0.20274839920E+04  0.50400001928E-02 0. -1.
    10030    2    1    2    0    0  0.00000000000E+00  0.00000000000E+00 -0.21347730139E+03  0.38414906827E+04  0.38355544719E+04 0.  0.
        1    1    3    3  502    0  0.14045225322E+04  0.44310373452E+03 -0.13369902901E+04  0.19891122389E+04  0.50400001928E-02 0. -1.
       -1    1    3    3    0  502 -0.14045225322E+04 -0.44310373452E+03  0.11235129887E+04  0.18523784438E+04  0.50400001928E-02 0.  1.
</event>
<event>
 5   0  0.3442126E-07  0.3692967E+04  0.7818609E-02  0.8069522E-01
        2   -1    0    0  501    0  0.00000000000E+00  0.00000000000E+00  0.20877166576E+04  0.20877166576E+04  0.25500000920E-02 0.  1.
       -2   -1    0    0    0  501  0.00000000000E+00  0.00000000000E+00 -0.16331249411E+04  0.16331249411E+04  0.25500000920E-02 0. -1.
    10030    2    1    2    0    0  0.00000000000E+00  0.00000000000E+00  0.45459171651E+03  0.37208415987E+04  0.36929674482E+04 0.  0.
        2    1    3    3  502    0  0.92080829527E+03 -0.56746643812E+03 -0.12805277906E+04  0.16762032984E+04  0.25500000920E-02 0. -1.
       -2    1    3    3    0  502 -0.92080829527E+03  0.56746643812E+03  0.17351195071E+04  0.20446383003E+04  0.25500000920E-02 0.  1.
</event>
<event>
 5   0  0.3327241E-07  0.3802285E+04  0.7818609E-02  0.8045665E-01
        2   -1    0    0  501    0  0.00000000000E+00  0.00000000000E+00  0.26713824359E+04  0.26713824359E+04  0.25500000920E-02 0. -1.
       -2   -1    0    0    0  501  0.00000000000E+00  0.00000000000E+00 -0.13529856611E+04  0.13529856611E+04  0.25500000920E-02 0.  1.
    10030    2    1    2    0    0  0.00000000000E+00  0.00000000000E+00  0.13183967748E+04  0.40243680969E+04  0.38022846453E+04 0.  0.
        3    1    3    3  502    0  0.66146692004E+03  0.74844354628E+03 -0.10528842338E+04  0.14512999167E+04  0.10100000352E+00 0.  1.
       -3    1    3    3    0  502 -0.66146692004E+03 -0.74844354628E+03  0.23712810086E+04  0.25730681802E+04  0.10100000352E+00 0. -1.
</event>
<event>
 5   0  0.1070988E-07  0.3822372E+04  0.7818609E-02  0.8041371E-01
        1   -1    0    0  501    0  0.00000000000E+00  0.00000000000E+00  0.28147263615E+04  0.28147263615E+04  0.50400001928E-02 0.  1.
       -1   -1    0    0    0  501  0.00000000000E+00  0.00000000000E+00 -0.12976865266E+04  0.12976865266E+04  0.50400001928E-02 0. -1.
    10030    2    1    2    0    0  0.00000000000E+00  0.00000000000E+00  0.15170398348E+04  0.41124128881E+04  0.38223722872E+04 0.  0.
        5    1    3    3  502    0 -0.12790757952E+04 -0.63837918204E+03 -0.60621455708E+03  0.15527656131E+04  0.46999998093E+01 0. -1.
       -5    1    3    3    0  502  0.12790757952E+04  0.63837918204E+03  0.21232543919E+04  0.25596472750E+04  0.46999998093E+01 0.  1.
</event>
<event>
 5   0  0.3377396E-07  0.3800230E+04  0.7818609E-02  0.8046105E-01
       -2   -1    0    0    0  501  0.00000000000E+00  0.00000000000E+00  0.17762268256E+04  0.17762268256E+04  0.25500000920E-02 0. -1.
        2   -1    0    0  501    0  0.00000000000E+00  0.00000000000E+00 -0.20326443550E+04  0.20326443550E+04  0.25500000920E-02 0.  1.
    10030    2    1    2    0    0  0.00000000000E+00  0.00000000000E+00 -0.25641752940E+03  0.38088711806E+04  0.38002302195E+04 0.  0.
        5    1    3    3  502    0  0.27827565110E+03  0.95654156505E+03  0.14934957133E+04  0.17952606049E+04  0.46999998093E+01 0. -1.
       -5    1    3    3    0  502 -0.27827565110E+03 -0.95654156505E+03 -0.17499132427E+04  0.20136105758E+04  0.46999998093E+01 0.  1.
</event>
<event>
 5   0  0.3377396E-07  0.3818538E+04  0.7818609E-02  0.8042188E-01
        2   -1    0    0  501    0  0.00000000000E+00  0.00000000000E+00  0.33080469996E+04  0.33080469996E+04  0.25500000920E-02 0. -1.
       -2   -1    0    0    0  501  0.00000000000E+00  0.00000000000E+00 -0.11019518582E+04  0.11019518582E+04  0.25500000920E-02 0.  1.
    10030    2    1    2    0    0  0.00000000000E+00  0.00000000000E+00  0.22060951415E+04  0.44099988578E+04  0.38185382219E+04 0.  0.
        5    1    3    3  502    0 -0.17892195718E+04  0.17454298732E+03  0.18457018974E+04  0.25765111128E+04  0.46999998093E+01 0. -1.
       -5    1    3    3    0  502  0.17892195718E+04 -0.17454298732E+03  0.36039324402E+03  0.18334877449E+04  0.46999998093E+01 0.  1.
</event>
<event>
 5   0  0.3377396E-07  0.3766833E+04  0.7818609E-02  0.8053310E-01
       -2   -1    0    0    0  501  0.00000000000E+00  0.00000000000E+00  0.13741650643E+04  0.13741650643E+04  0.25500000920E-02 0.  1.
        2   -1    0    0  501    0  0.00000000000E+00  0.00000000000E+00 -0.25813908393E+04  0.25813908393E+04  0.25500000920E-02 0. -1.
    10030    2    1    2    0    0  0.00000000000E+00  0.00000000000E+00 -0.12072257751E+04  0.39555559036E+04  0.37668326794E+04 0.  0.
        5    1    3    3  502    0  0.13213873437E+04  0.13203341832E+04 -0.35095896978E+03  0.19006686076E+04  0.46999998093E+01 0.  1.
       -5    1    3    3    0  502 -0.13213873437E+04 -0.13203341832E+04 -0.85626680532E+03  0.20548872960E+04  0.46999998093E+01 0. -1.
</event>
<event>
 5   0  0.1085771E-07  0.3793146E+04  0.7818609E-02  0.8047627E-01
        1   -1    0    0  501    0  0.00000000000E+00  0.00000000000E+00  0.25942153701E+04  0.25942153701E+04  0.50400001928E-02 0.  1.
       -1   -1    0    0    0  501  0.00000000000E+00  0.00000000000E+00 -0.13865419956E+04  0.13865419957E+04  0.50400001928E-02 0. -1.
    10030    2    1    2    0    0  0.00000000000E+00  0.00000000000E+00  0.12076733744E+04  0.39807573657E+04  0.37931456900E+04 0.  0.
        1    1    3    3  502    0 -0.40490498397E+03 -0.16497959070E+04  0.14888836675E+04  0.22588822803E+04  0.50400001928E-02 0. -1.
       -1    1    3    3    0  502  0.40490498397E+03  0.16497959070E+04 -0.28121029309E+03  0.17218750854E+04  0.50400001928E-02 0.  1.
</event>
<event>
 5   0  0.3509843E-07  0.3762384E+04  0.7818609E-02  0.8054276E-01
       -2   -1    0    0    0  501  0.00000000000E+00  0.00000000000E+00  0.24627532261E+04  0.24627532261E+04  0.25500000920E-02 0. -1.
        2   -1    0    0  501    0  0.00000000000E+00  0.00000000000E+00 -0.14369618690E+04  0.14369618691E+04  0.25500000920E-02 0.  1.
    10030    2    1    2    0    0  0.00000000000E+00  0.00000000000E+00  0.10257913570E+04  0.38997150951E+04  0.37623835417E+04 0.  0.
        4    1    3    3  502    0  0.64825543053E+02 -0.95827689802E+03 -0.11636699089E+04  0.15088493080E+04  0.12699999809E+01 0.  1.
       -4    1    3    3    0  502 -0.64825543053E+02  0.95827689802E+03  0.21894612660E+04  0.23908657872E+04  0.12699999809E+01 0. -1.
</event>
<event>
 5   0  0.1085771E-07  0.3815355E+04  0.7818609E-02  0.8042868E-01
       -1   -1    0    0    0  501  0.00000000000E+00  0.00000000000E+00  0.19342868022E+04  0.19342868022E+04  0.50400001928E-02 0.  1.
        1   -1    0    0  501    0  0.00000000000E+00  0.00000000000E+00 -0.18814343506E+04  0.18814343506E+04  0.50400001928E-02 0. -1.
    10030    2    1    2    0    0  0.00000000000E+00  0.00000000000E+00  0.52852451638E+02  0.38157211528E+04  0.38153550993E+04 0.  0.
        1    1    3    3  502    0  0.42872525047E+03  0.32444527968E+03  0.18569470338E+04  0.19332155509E+04  0.50400001928E-02 0.  1.
       -1    1    3    3    0  502 -0.42872525047E+03 -0.32444527968E+03 -0.18040945821E+04  0.18825056019E+04  0.50400001928E-02 0. -1.
</event>
<event>
 5   0  0.1070988E-07  0.3717920E+04  0.7818609E-02  0.8064002E-01
       -1   -1    0    0    0  501  0.00000000000E+00  0.00000000000E+00  0.21773931810E+04  0.21773931810E+04  0.50400001928E-02 0. -1.
        1   -1    0    0  501    0  0.00000000000E+00  0.00000000000E+00 -0.15870961543E+04  0.15870961543E+04  0.50400001928E-02 0.  1.
    10030    2    1    2    0    0  0.00000000000E+00  0.00000000000E+00  0.59029702676E+03  0.37644893353E+04  0.37179200335E+04 0.  0.
        3    1    3    3  502    0 -0.25447630209E+03  0.58347886188E+03 -0.14733041201E+04  0.16049395039E+04  0.10100000352E+00 0.  1.
       -3    1    3    3    0  502  0.25447630209E+03 -0.58347886188E+03  0.20636011469E+04  0.21595498314E+04  0.10100000352E+00 0. -1.
</event>
<event>
 5   0  0.1084315E-07  0.3815207E+04  0.7818609E-02  0.8042899E-01
        1   -1    0    0  501    0  0.00000000000E+00  0.00000000000E+00  0.21979952011E+04  0.21979952011E+04  0.50400001928E-02 0. -1.
       -1   -1    0    0    0  501  0.00000000000E+00  0.00000000000E+00 -0.16555774042E+04  0.16555774042E+04  0.50400001928E-02 0.  1.
    10030    2    1    2    0    0  0.00000000000E+00  0.00000000000E+00  0.54241779684E+03  0.38535726053E+04  0.38152070400E+04 0.  0.
        4    1    3    3  502    0  0.20296865141E+03 -0.18289154319E+03 -0.16357125489E+04  0.16583735241E+04  0.12699999809E+01 0.  1.
       -4    1    3    3    0  502 -0.20296865141E+03  0.18289154319E+03  0.21781303457E+04  0.21951990812E+04  0.12699999809E+01 0. -1.
</event>
<event>
 5   0  0.3509843E-07  0.3830320E+04  0.7818609E-02  0.8039679E-01
       -2   -1    0    0    0  501  0.00000000000E+00  0.00000000000E+00  0.15477410076E+04  0.15477410076E+04  0.25500000920E-02 0.  1.
        2   -1    0    0  501    0  0.00000000000E+00  0.00000000000E+00 -0.23698009915E+04  0.23698009915E+04  0.25500000920E-02 0. -1.
    10030    2    1    2    0    0  0.00000000000E+00  0.00000000000E+00 -0.82205998390E+03  0.39175419991E+04  0.38303201822E+04 0.  0.
        4    1    3    3  502    0  0.13623627438E+04 -0.13272587030E+04 -0.18190031448E+03  0.19106902543E+04  0.12699999809E+01 0.  1.
       -4    1    3    3    0  502 -0.13623627438E+04  0.13272587030E+04 -0.64015966941E+03  0.20068517448E+04  0.12699999809E+01 0. -1.
</event>
<event>
 5   0  0.1084315E-07  0.3760379E+04  0.7818609E-02  0.8054711E-01
       -1   -1    0    0    0  501  0.00000000000E+00  0.00000000000E+00  0.29491088398E+04  0.29491088398E+04  0.50400001928E-02 0. -1.
        1   -1    0    0  501    0  0.00000000000E+00  0.00000000000E+00 -0.11987054459E+04  0.11987054459E+04  0.50400001928E-02 0.  1.
    10030    2    1    2    0    0  0.00000000000E+00  0.00000000000E+00  0.17504033940E+04  0.41478142857E+04  0.37603791441E+04 0.  0.
        4    1    3    3  502    0 -0.60898668714E+03 -0.12363272482E+04 -0.53553182366E+03  0.14785688340E+04  0.12699999809E+01 0.  1.
       -4    1    3    3    0  502  0.60898668714E+03  0.12363272482E+04  0.22859352176E+04  0.26692454518E+04  0.12699999809E+01 0. -1.
</event>
<event>
 5   0  0.1070988E-07  0.3800614E+04  0.7818609E-02  0.8046023E-01
        1   -1    0    0  501    0  0.00000000000E+00  0.00000000000E+00  0.26560500466E+04  0.26560500466E+04  0.50400001928E-02 0.  1.
       -1   -1    0    0    0  501  0.00000000000E+00  0.00000000000E+00 -0.13596000648E+04  0.13596000648E+04  0.50400001928E-02 0. -1.
    10030    2    1    2    0    0  0.00000000000E+00  0.00000000000E+00  0.12964499818E+04  0.40156501114E+04  0.38006135376E+04 0.  0.
        3    1    3    3  502    0 -0.18557763563E+04  0.22374011111E+03  0.28651001927E+03  0.18910456164E+04  0.10100000352E+00 0. -1.
       -3    1    3    3    0  502  0.18557763563E+04 -0.22374011111E+03  0.10099399625E+04  0.21246044950E+04  0.10100000352E+00 0.  1.
</event>
<event>
 5   0  0.3539010E-07  0.3617085E+04  0.7818609E-02  0.8086589E-01
        2   -1    0    0  501    0  0.00000000000E+00  0.00000000000E+00  0.16655796050E+04  0.16655796050E+04  0.25500000920E-02 0.  1.
       -2   -1    0    0    0  501  0.00000000000E+00  0.00000000000E+00 -0.19637765883E+04  0.19637765884E+04  0.25500000920E-02 0. -1.
    10030    2    1    2    0    0  0.00000000000E+00  0.00000000000E+00 -0.29819698332E+03  0.36293561934E+04  0.36170851438E+04 0.  0.
        1    1    3    3  502    0  0.39959128285E+02 -0.25664900462E+03 -0.19449639149E+04  0.19622308920E+04  0.50400001928E-02 0. -1.
       -1    1    3    3    0  502 -0.39959128285E+02  0.25664900462E+03  0.16467669315E+04  0.16671253013E+04  0.50400001928E-02 0.  1.
</event>
<event>
 5   0  0.3377396E-07  0.3800285E+04  0.7818609E-02  0.8046094E-01
       -2   -1    0    0    0  501  0.00000000000E+00  0.00000000000E+00  0.18605578635E+04  0.18605578635E+04  0.25500000920E-02 0. -1.
        2   -1    0    0  501    0  0.00000000000E+00  0.00000000000E+00 -0.19405688890E+04  0.19405688890E+04  0.25500000920E-02 0.  1.
    10030    2    1    2    0    0  0.00000000000E+00  0.00000000000E+00 -0.80011025463E+02  0.38011267525E+04  0.38002845715E+04 0.  0.
        5    1    3    3  502    0 -0.17583737052E+04  0.24593909087E+03  0.63701559345E+03  0.18863125615E+04  0.46999998093E+01 0. -1.
       -5    1    3    3    0  502  0.17583737052E+04 -0.24593909087E+03 -0.71702661891E+03  0.19148141909E+04  0.46999998093E+01 0.  1.
</event>
<event>
 5   0  0.1084315E-07  0.3863576E+04  0.7818609E-02  0.8032648E-01
        1   -1    0    0  501    0  0.00000000000E+00  0.00000000000E+00  0.18423119541E+04  0.18423119541E+04  0.50400001928E-02 0. -1.
       -1   -1    0    0    0  501  0.00000000000E+00  0.00000000000E+00 -0.20256095977E+04  0.20256095977E+04  0.50400001928E-02 0.  1.
    10030    2    1    2    0    0  0.00000000000E+00  0.00000000000E+00 -0.18329764364E+03  0.38679215519E+04  0.38635759479E+04 0.  0.
        4    1    3    3  502    0 -0.48388839172E+03  0.75262296223E+03  0.16223556734E+04  0.18527355026E+04  0.12699999809E+01 0. -1.
       -4    1    3    3    0  502  0.48388839172E+03 -0.75262296223E+03 -0.18056533170E+04  0.20151860492E+04  0.12699999809E+01 0.  1.
</event>
<event>
 5   0  0.3509843E-07  0.3795213E+04  0.7818609E-02  0.8047183E-01
        2   -1    0    0  501    0  0.00000000000E+00  0.00000000000E+00  0.22555172310E+04  0.22555172310E+04  0.25500000920E-02 0. -1.
       -2   -1    0    0    0  501  0.00000000000E+00  0.00000000000E+00 -0.15964900572E+04  0.15964900572E+04  0.25500000920E-02 0.  1.
    10030    2    1    2    0    0  0.00000000000E+00  0.00000000000E+00  0.65902717381E+03  0.38520072883E+04  0.37952132131E+04 0.  0.
        4    1    3    3  502    0  0.31681362077E+03  0.82754613835E+03 -0.13736036871E+04  0.16346229484E+04  0.12699999809E+01 0.  1.
       -4    1    3    3    0  502 -0.31681362077E+03 -0.82754613835E+03  0.20326308609E+04  0.22173843399E+04  0.12699999809E+01 0. -1.
</event>
<event>
 5   0  0.3442126E-07  0.3769469E+04  0.7818609E-02  0.8052739E-01
       -2   -1    0    0    0  501  0.00000000000E+00  0.00000000000E+00  0.19651847077E+04  0.19651847077E+04  0.25500000920E-02 0. -1.
        2   -1    0    0  501    0  0.00000000000E+00  0.00000000000E+00 -0.18075778676E+04  0.18075778676E+04  0.25500000920E-02 0.  1.
    10030    2    1    2    0    0  0.00000000000E+00  0.00000000000E+00  0.15760684012E+03  0.37727625752E+04  0.37694691315E+04 0.  0.
        2    1    3    3  502    0 -0.14871434977E+04 -0.10488520544E+03 -0.10752988899E+04  0.18381687604E+04  0.25500000920E-02 0.  1.
       -2    1    3    3    0  502  0.14871434977E+04  0.10488520544E+03  0.12329057301E+04  0.19345938148E+04  0.25500000920E-02 0. -1.
</event>
<event>
 5   0  0.1070988E-07  0.3806708E+04  0.7818609E-02  0.8044717E-01
       -1   -1    0    0    0  501  0.00000000000E+00  0.00000000000E+00  0.11886008715E+04  0.11886008715E+04  0.50400001928E-02 0.  1.
        1   -1    0    0  501    0  0.00000000000E+00  0.00000000000E+00 -0.30479161157E+04  0.30479161157E+04  0.50400001928E-02 0. -1.
    10030    2    1    2    0    0  0.00000000000E+00  0.00000000000E+00 -0.18593152442E+04  0.42365169873E+04  0.38067076334E+04 0.  0.
        3    1    3    3  502    0  0.65553460606E+03 -0.12194552917E+04  0.52393835647E+03  0.14803068060E+04  0.10100000352E+00 0.  1.
       -3    1    3    3    0  502 -0.65553460606E+03  0.12194552917E+04 -0.23832536007E+04  0.27562101813E+04  0.10100000352E+00 0. -1.
</event>
<event>
 5   0  0.3442126E-07  0.3839685E+04  0.7818609E-02  0.8037692E-01
       -2   -1    0    0    0  501  0.00000000000E+00  0.00000000000E+00  0.17583217108E+04  0.17583217108E+04  0.25500000920E-02 0. -1.
        2   -1    0    0  501    0  0.00000000000E+00  0.00000000000E+00 -0.20962003310E+04  0.20962003310E+04  0.25500000920E-02 0.  1.
    10030    2    1    2    0    0  0.00000000000E+00  0.00000000000E+00 -0.33787862021E+03  0.38545220417E+04  0.38396846496E+04 0.  0.
        2    1    3    3  502    0 -0.34813015008E+03 -0.11987034806E+04 -0.16332430944E+04  0.20556185544E+04  0.25500000920E-02 0.  1.
       -2    1    3    3    0  502  0.34813015008E+03  0.11987034806E+04  0.12953644742E+04  0.17989034873E+04  0.25500000920E-02 0. -1.
</event>
<event>
 5   0  0.1084315E-07  0.3769023E+04  0.7818609E-02  0.8052835E-01
       -1   -1    0    0    0  501  0.00000000000E+00  0.00000000000E+00  0.12532980068E+04  0.12532980068E+04  0.50400001928E-02 0.  1.
        1   -1    0    0  501    0  0.00000000000E+00  0.00000000000E+00 -0.28336299202E+04  0.28336299202E+04  0.50400001928E-02 0. -1.
    10030    2    1    2    0    0  0.00000000000E+00  0.00000000000E+00 -0.15803319134E+04  0.40869279271E+04  0.37690225423E+04 0.  0.
        4    1    3    3  502    0  0.11992059465E+03 -0.11813561763E+04  0.79661476503E+03  0.14298881288E+04  0.12699999809E+01 0.  1.
       -4    1    3    3    0  502 -0.11992059465E+03  0.11813561763E+04 -0.23769466784E+04  0.26570397982E+04  0.12699999809E+01 0. -1.
</event>
<event>
 5   0  0.1085771E-07  0.3771074E+04  0.7818609E-02  0.8052391E-01
        1   -1    0    0  501    0  0.00000000000E+00  0.00000000000E+00  0.13843652594E+04  0.13843652594E+04  0.50400001928E-02 0.  1.
       -1   -1    0    0    0  501  0.00000000000E+00  0.00000000000E+00 -0.25681436533E+04  0.25681436533E+04  0.50400001928E-02 0. -1.
    10030    2    1    2    0    0  0.00000000000E+00  0.00000000000E+00 -0.11837783939E+04  0.39525089127E+04  0.37710735102E+04 0.  0.
        1    1    3    3  502    0 -0.12133677746E+04 -0.78437268276E+03  0.67790535471E+03  0.15959503538E+04  0.50400001928E-02 0.  1.
       -1    1    3    3    0  502  0.12133677746E+04  0.78437268276E+03 -0.18616837486E+04  0.23565585589E+04  0.50400001928E-02 0. -1.
</event>
<event>
 5   0  0.3539010E-07  0.3745984E+04  0.7818609E-02  0.8057847E-01
       -2   -1    0    0    0  501  0.00000000000E+00  0.00000000000E+00  0.17310314248E+04  0.17310314248E+04  0.25500000920E-02 0.  1.
        2   -1    0    0  501    0  0.00000000000E+00  0.00000000000E+00 -0.20265945804E+04  0.20265945804E+04  0.25500000920E-02 0. -1.
    10030    2    1    2    0    0  0.00000000000E+00  0.00000000000E+00 -0.29556315560E+03  0.37576260052E+04  0.37459839317E+04 0.  0.
        1    1    3    3  502    0  0.11289426873E+04 -0.14182447981E+03 -0.16401799607E+04  0.19962004102E+04  0.50400001928E-02 0. -1.
       -1    1    3    3    0  502 -0.11289426873E+04  0.14182447981E+03  0.13446168051E+04  0.17614255950E+04  0.50400001928E-02 0.  1.
</event>
<event>
 5   0  0.3442126E-07  0.3784644E+04  0.7818609E-02  0.8049458E-01
       -2   -1    0    0    0  501  0.00000000000E+00  0.00000000000E+00  0.17711733573E+04  0.17711733573E+04  0.25500000920E-02 0. -1.
        2   -1    0    0  501    0  0.00000000000E+00  0.00000000000E+00 -0.20217575942E+04  0.20217575942E+04  0.25500000920E-02 0.  1.
    10030    2    1    2    0    0  0.00000000000E+00  0.00000000000E+00 -0.25058423695E+03  0.37929309515E+04  0.37846443351E+04 0.  0.
        2    1    3    3  502    0  0.83506019119E+03  0.82594302156E+03  0.13616599071E+04  0.17982283226E+04  0.25500000920E-02 0. -1.
       -2    1    3    3    0  502 -0.83506019119E+03 -0.82594302156E+03 -0.16122441440E+04  0.19947026289E+04  0.25500000920E-02 0.  1.
</event>
<event>
 5   0  0.1085771E-07  0.3830860E+04  0.7818609E-02  0.8039565E-01
        1   -1    0    0  501    0  0.00000000000E+00  0.00000000000E+00  0.28231630726E+04  0.28231630726E+04  0.50400001928E-02 0.  1.
       -1   -1    0    0    0  501  0.00000000000E+00  0.00000000000E+00 -0.12995607072E+04  0.12995607072E+04  0.50400001928E-02 0. -1.
    10030    2    1    2    0    0  0.00000000000E+00  0.00000000000E+00  0.15236023654E+04  0.41227237798E+04  0.38308598509E+04 0.  0.
        1    1    3    3  502    0  0.47096544014E+03  0.18160783866E+04  0.11771073188E+04  0.22148432884E+04  0.50400001928E-02 0.  1.
       -1    1    3    3    0  502 -0.47096544014E+03 -0.18160783866E+04  0.34649504657E+03  0.19078804914E+04  0.50400001928E-02 0. -1.
</event>
<event>
 5   0  0.1070988E-07  0.3800424E+04  0.7818609E-02  0.8046064E-01
        1   -1    0    0  501    0  0.00000000000E+00  0.00000000000E+00  0.19905427312E+04  0.19905427312E+04  0.50400001928E-02 0. -1.
       -1   -1    0    0    0  501  0.00000000000E+00  0.00000000000E+00 -0.18139807329E+04  0.18139807329E+04  0.50400001928E-02 0.  1.
    10030    2    1    2    0    0  0.00000000000E+00  0.00000000000E+00  0.17656199832E+03  0.38045234641E+04  0.38004242723E+04 0.  0.
        2    1    3    3  502    0  0.58907462159E+03 -0.31303598404E+03  0.18694712683E+04  0.19849239935E+04  0.25500000920E-02 0. -1.
       -2    1    3    3    0  502 -0.58907462159E+03  0.31303598404E+03 -0.16929092699E+04  0.18195994706E+04  0.25500000920E-02 0.  1.
</event>
<event>
 5   0  0.3539010E-07  0.3708985E+04  0.7818609E-02  0.8065974E-01
       -2   -1    0    0    0  501  0.00000000000E+00  0.00000000000E+00  0.18657397606E+04  0.18657397606E+04  0.25500000920E-02 0.  1.
        2   -1    0    0  501    0  0.00000000000E+00  0.00000000000E+00 -0.18433132028E+04  0.18433132028E+04  0.25500000920E-02 0. -1.
    10030    2    1    2    0    0  0.00000000000E+00  0.00000000000E+00  0.22426557749E+02  0.37090529634E+04  0.37089851624E+04 0.  0.
        1    1    3    3  502    0  0.14412794297E+04  0.58337157901E+03  0.10219413769E+04  0.18606377862E+04  0.50400001928E-02 0.  1.
       -1    1    3    3    0  502 -0.14412794297E+04 -0.58337157901E+03 -0.99951481914E+03  0.18484151772E+04  0.50400001928E-02 0. -1.
</event>
<event>
 5   0  0.1070988E-07  0.3797421E+04  0.7818609E-02  0.8046709E-01
       -1   -1    0    0    0  501  0.00000000000E+00  0.00000000000E+00  0.27798439703E+04  0.27798439703E+04  0.50400001928E-02 0.  1.
        1   -1    0    0  501    0  0.00000000000E+00  0.00000000000E+00 -0.12968719068E+04  0.12968719069E+04  0.50400001928E-02 0. -1.
    10030    2    1    2    0    0  0.00000000000E+00  0.00000000000E+00  0.14829720634E+04  0.40767158772E+04  0.37974209935E+04 0.  0.
        2    1    3    3  502    0 -0.65980209623E+03 -0.10231654998E+04  0.23056632834E+04  0.26073529916E+04  0.25500000920E-02 0.  1.
       -2    1    3    3    0  502  0.65980209623E+03  0.10231654998E+04 -0.82269121995E+03  0.14693628856E+04  0.25500000920E-02 0. -1.
</event>
<event>
 5   0  0.1070988E-07  0.3630017E+04  0.7818609E-02  0.8083650E-01
        1   -1    0    0  501    0  0.00000000000E+00  0.00000000000E+00  0.19313974824E+04  0.19313974824E+04  0.50400001928E-02 0. -1.
       -1   -1    0    0    0  501  0.00000000000E+00  0.00000000000E+00 -0.17056334141E+04  0.17056334142E+04  0.50400001928E-02 0.  1.
    10030    2    1    2    0    0  0.00000000000E+00  0.00000000000E+00  0.22576406829E+03  0.36370308966E+04  0.36300171251E+04 0.  0.
        3    1    3    3  502    0  0.61485073381E+03 -0.16055143623E+04 -0.47008259873E+03  0.17823286600E+04  0.10100000352E+00 0.  1.
       -3    1    3    3    0  502 -0.61485073381E+03  0.16055143623E+04  0.69584666702E+03  0.18547022366E+04  0.10100000352E+00 0. -1.
</event>
<event>
 5   0  0.3539010E-07  0.3853237E+04  0.7818609E-02  0.8034826E-01
       -2   -1    0    0    0  501  0.00000000000E+00  0.00000000000E+00  0.15917114187E+04  0.15917114187E+04  0.25500000920E-02 0. -1.
        2   -1    0    0  501    0  0.00000000000E+00  0.00000000000E+00 -0.23319917903E+04  0.23319917903E+04  0.25500000920E-02 0.  1.
    10030    2    1    2    0    0  0.00000000000E+00  0.00000000000E+00 -0.74028037160E+03  0.39237032091E+04  0.38532365414E+04 0.  0.
        1    1    3    3  502    0  0.18010825949E+04  0.49332151036E+03 -0.85271973258E+03  0.20528993080E+04  0.50400001928E-02 0. -1.
       -1    1    3    3    0  502 -0.18010825949E+04 -0.49332151036E+03  0.11243936098E+03  0.18708039011E+04  0.50400001928E-02 0.  1.
</event>
<event>
 5   0  0.3509843E-07  0.3803803E+04  0.7818609E-02  0.8045339E-01
        2   -1    0    0  501    0  0.00000000000E+00  0.00000000000E+00  0.28496147949E+04  0.28496147949E+04  0.25500000920E-02 0. -1.
       -2   -1    0    0    0  501  0.00000000000E+00  0.00000000000E+00 -0.12693748913E+04  0.12693748913E+04  0.25500000920E-02 0.  1.
    10030    2    1    2    0    0  0.00000000000E+00  0.00000000000E+00  0.15802399036E+04  0.41189896862E+04  0.38038030814E+04 0.  0.
        4    1    3    3  502    0 -0.92899176728E+03 -0.16527562838E+04  0.62733451038E+03  0.19970426230E+04  0.12699999809E+01 0. -1.
       -4    1    3    3    0  502  0.92899176728E+03  0.16527562838E+04  0.95290539322E+03  0.21219470631E+04  0.12699999809E+01 0.  1.
</event>
<event>
 5   0  0.3509843E-07  0.3773091E+04  0.7818609E-02  0.8051954E-01
       -2   -1    0    0    0  501  0.00000000000E+00  0.00000000000E+00  0.18809808768E+04  0.18809808768E+04  0.25500000920E-02 0.  1.
        2   -1    0    0  501    0  0.00000000000E+00  0.00000000000E+00 -0.18921265623E+04  0.18921265623E+04  0.25500000920E-02 0. -1.
    10030    2    1    2    0    0  0.00000000000E+00  0.00000000000E+00 -0.11145685547E+02  0.37731074391E+04  0.37730909770E+04 0.  0.
        4    1    3    3  502    0  0.13741600011E+04  0.87029618248E+03 -0.96125536483E+03  0.18893767870E+04  0.12699999809E+01 0. -1.
       -4    1    3    3    0  502 -0.13741600011E+04 -0.87029618248E+03  0.95010967928E+03  0.18837306521E+04  0.12699999809E+01 0.  1.
</event>
<event>
 5   0  0.3327241E-07  0.3776843E+04  0.7818609E-02  0.8051143E-01
        2   -1    0    0  501    0  0.00000000000E+00  0.00000000000E+00  0.28371760426E+04  0.28371760426E+04  0.25500000920E-02 0. -1.
       -2   -1    0    0    0  501  0.00000000000E+00  0.00000000000E+00 -0.12569316591E+04  0.12569316591E+04  0.25500000920E-02 0.  1.
    10030    2    1    2    0    0  0.00000000000E+00  0.00000000000E+00  0.15802443836E+04  0.40941077017E+04  0.37768433329E+04 0.  0.
        3    1    3    3  502    0 -0.11917908511E+04 -0.23973391981E+03  0.23566084561E+04  0.26516864843E+04  0.10100000352E+00 0. -1.
       -3    1    3    3    0  502  0.11917908511E+04  0.23973391981E+03 -0.77636407259E+03  0.14424212174E+04  0.10100000352E+00 0.  1.
</event>
<event>
 5   0  0.1085771E-07  0.3769843E+04  0.7818609E-02  0.8052658E-01
        1   -1    0    0  501    0  0.00000000000E+00  0.00000000000E+00  0.20369235486E+04  0.20369235486E+04  0.50400001928E-02 0. -1.
       -1   -1    0    0    0  501  0.00000000000E+00  0.00000000000E+00 -0.17442627855E+04  0.17442627855E+04  0.50400001928E-02 0.  1.
    10030    2    1    2    0    0  0.00000000000E+00  0.00000000000E+00  0.29266076309E+03  0.37811863341E+04  0.37698434677E+04 0.  0.
        1    1    3    3  502    0  0.60407059976E+03  0.17702401502E+04 -0.87347999885E+02  0.18725066494E+04  0.50400001928E-02 0. -1.
       -1    1    3    3    0  502 -0.60407059976E+03 -0.17702401502E+04  0.38000876298E+03  0.19086796847E+04  0.50400001928E-02 0.  1.
</event>
<event>
 5   0  0.3442126E-07  0.3821194E+04  0.7818609E-02  0.8041622E-01
        2   -1    0    0  501    0  0.00000000000E+00  0.00000000000E+00  0.21652286594E+04  0.21652286594E+04  0.25500000920E-02 0. -1.
       -2   -1    0    0    0  501  0.00000000000E+00  0.00000000000E+00 -0.16859097634E+04  0.16859097634E+04  0.25500000920E-02 0.  1.
    10030    2    1    2    0    0  0.00000000000E+00  0.00000000000E+00  0.47931889602E+03  0.38511384228E+04  0.38211936024E+04 0.  0.
        2    1    3    3  502    0  0.17912361222E+04  0.66406321789E+03  0.20987563728E+03  0.19218622703E+04  0.25500000920E-02 0. -1.
       -2    1    3    3    0  502 -0.17912361222E+04 -0.66406321789E+03  0.26944325875E+03  0.19292761525E+04  0.25500000920E-02 0.  1.
</event>
<event>
 5   0  0.3539010E-07  0.3536799E+04  0.7818609E-02  0.8105124E-01
       -2   -1    0    0    0  501  0.00000000000E+00  0.00000000000E+00  0.18785635280E+04  0.18785635280E+04  0.25500000920E-02 0.  1.
        2   -1    0    0  501    0  0.00000000000E+00  0.00000000000E+00 -0.16646953593E+04  0.16646953593E+04  0.25500000920E-02 0. -1.
    10030    2    1    2    0    0  0.00000000000E+00  0.00000000000E+00  0.21386816870E+03  0.35432588873E+04  0.35367985452E+04 0.  0.
        1    1    3    3  502    0  0.81998365446E+03  0.10361493345E+04  0.12843498939E+04  0.18426972857E+04  0.50400001928E-02 0.  1.
       -1    1    3    3    0  502 -0.81998365446E+03 -0.10361493345E+04 -0.10704817252E+04  0.17005616016E+04  0.50400001928E-02 0. -1.
</event>
<event>
 5   0  0.1070988E-07  0.3753362E+04  0.7818609E-02  0.8056238E-01
        1   -1    0    0  501    0  0.00000000000E+00  0.00000000000E+00  0.18926698315E+04  0.18926698315E+04  0.50400001928E-02 0.  1.
       -1   -1    0    0    0  501  0.00000000000E+00  0.00000000000E+00 -0.18608272802E+04  0.18608272802E+04  0.50400001928E-02 0. -1.
    10030    2    1    2    0    0  0.00000000000E+00  0.00000000000E+00  0.31842551288E+02  0.37534971118E+04  0.37533620422E+04 0.  0.
        2    1    3    3  502    0  0.18645905805E+04 -0.76395062734E+02 -0.18257369204E+03  0.18750646366E+04  0.25500000920E-02 0. -1.
       -2    1    3    3    0  502 -0.18645905805E+04  0.76395062734E+02  0.21441624332E+03  0.18784324752E+04  0.25500000920E-02 0.  1.
</event>
<event>
 5   0  0.1070988E-07  0.3935390E+04  0.7818609E-02  0.8017709E-01
        1   -1    0    0  501    0  0.00000000000E+00  0.00000000000E+00  0.21656229206E+04  0.21656229206E+04  0.50400001928E-02 0. -1.
       -1   -1    0    0    0  501  0.00000000000E+00  0.00000000000E+00 -0.17878572209E+04  0.17878572209E+04  0.50400001928E-02 0.  1.
    10030    2    1    2    0    0  0.00000000000E+00  0.00000000000E+00  0.37776569974E+03  0.39534801416E+04  0.39353904896E+04 0.  0.
        2    1    3    3  502    0  0.16132868091E+04 -0.44101788460E+03 -0.85252755388E+03  0.18772304955E+04  0.25500000920E-02 0.  1.
       -2    1    3    3    0  502 -0.16132868091E+04  0.44101788460E+03  0.12302932536E+04  0.20762496461E+04  0.25500000920E-02 0. -1.
</event>
<event>
 5   0  0.3539010E-07  0.3813224E+04  0.7818609E-02  0.8043323E-01
        2   -1    0    0  501    0  0.00000000000E+00  0.00000000000E+00  0.16934651353E+04  0.16934651353E+04  0.25500000920E-02 0. -1.
       -2   -1    0    0    0  501  0.00000000000E+00  0.00000000000E+00 -0.21465864874E+04  0.21465864874E+04  0.25500000920E-02 0.  1.
    10030    2    1    2    0    0  0.00000000000E+00  0.00000000000E+00 -0.45312135201E+03  0.38400516227E+04  0.38132240303E+04 0.  0.
        1    1    3    3  502    0  0.15170908287E+04  0.29792621847E+03  0.89701502832E+03  0.17874452650E+04  0.50400001928E-02 0. -1.
       -1    1    3    3    0  502 -0.15170908287E+04 -0.29792621847E+03 -0.13501363803E+04  0.20526063577E+04  0.50400001928E-02 0.  1.
</event>
<event>
 5   0  0.3509843E-07  0.4056339E+04  0.7818609E-02  0.7993277E-01
       -2   -1    0    0    0  501  0.00000000000E+00  0.00000000000E+00  0.12873904113E+04  0.12873904113E+04  0.25500000920E-02 0. -1.
        2   -1    0    0  501    0  0.00000000000E+00  0.00000000000E+00 -0.31952012800E+04  0.31952012800E+04  0.25500000920E-02 0.  1.
    10030    2    1    2    0    0  0.00000000000E+00  0.00000000000E+00 -0.19078108687E+04  0.44825916913E+04  0.40563389848E+04 0.  0.
        4    1    3    3  502    0  0.18321495038E+04 -0.36373720123E+03 -0.18271262201E+04  0.26129424779E+04  0.12699999809E+01 0.  1.
       -4    1    3    3    0  502 -0.18321495038E+04  0.36373720123E+03 -0.80684648594E+02  0.18696492134E+04  0.12699999809E+01 0. -1.
</event>
<event>
 5   0  0.3509843E-07  0.3831265E+04  0.7818609E-02  0.8039479E-01
       -2   -1    0    0    0  501  0.00000000000E+00  0.00000000000E+00  0.16619987583E+04  0.16619987583E+04  0.25500000920E-02 0.  1.
        2   -1    0    0  501    0  0.00000000000E+00  0.00000000000E+00 -0.22079722188E+04  0.22079722188E+04  0.25500000920E-02 0. -1.
    10030    2    1    2    0    0  0.00000000000E+00  0.00000000000E+00 -0.54597346054E+03  0.38699709771E+04  0.38312645881E+04 0.  0.
        4    1    3    3  502    0 -0.14719582081E+04 -0.43015828102E+03  0.88663076646E+03  0.17713872649E+04  0.12699999809E+01 0.  1.
       -4    1    3    3    0  502  0.14719582081E+04  0.43015828102E+03 -0.14326042270E+04  0.20985837123E+04  0.12699999809E+01 0. -1.
</event>
<event>
 5   0  0.1070988E-07  0.3789218E+04  0.7818609E-02  0.8048473E-01
       -1   -1    0    0    0  501  0.00000000000E+00  0.00000000000E+00  0.12265872765E+04  0.12265872765E+04  0.50400001928E-02 0. -1.
        1   -1    0    0  501    0  0.00000000000E+00  0.00000000000E+00 -0.29264480926E+04  0.29264480926E+04  0.50400001928E-02 0.  1.
    10030    2    1    2    0    0  0.00000000000E+00  0.00000000000E+00 -0.16998608161E+04  0.41530353691E+04  0.37892183868E+04 0.  0.
        3    1    3    3  502    0  0.75896804569E+03 -0.91193920769E+03  0.76901148924E+03  0.14138756288E+04  0.10100000352E+00 0. -1.
       -3    1    3    3    0  502 -0.75896804569E+03  0.91193920769E+03 -0.24688723053E+04  0.27391597403E+04  0.10100000352E+00 0.  1.
</event>
<event>
 5   0  0.1070988E-07  0.3803020E+04  0.7818609E-02  0.8045507E-01
        1   -1    0    0  501    0  0.00000000000E+00  0.00000000000E+00  0.21375467497E+04  0.21375467498E+04  0.50400001928E-02 0. -1.
       -1   -1    0    0    0  501  0.00000000000E+00  0.00000000000E+00 -0.16915373208E+04  0.16915373208E+04  0.50400001928E-02 0.  1.
    10030    2    1    2    0    0  0.00000000000E+00  0.00000000000E+00  0.44600942900E+03  0.38290840705E+04  0.38030199064E+04 0.  0.
        5    1    3    3  502    0 -0.60949576735E+03 -0.10735244502E+04  0.16792150760E+04  0.20841605497E+04  0.46999998093E+01 0. -1.
       -5    1    3    3    0  502  0.60949576735E+03  0.10735244502E+04 -0.12332056470E+04  0.17449235208E+04  0.46999998093E+01 0.  1.
</event>
<event>
 5   0  0.3442126E-07  0.3760512E+04  0.7818609E-02  0.8054682E-01
        2   -1    0    0  501    0  0.00000000000E+00  0.00000000000E+00  0.23635688195E+04  0.23635688195E+04  0.25500000920E-02 0. -1.
       -2   -1    0    0    0  501  0.00000000000E+00  0.00000000000E+00 -0.14957730785E+04  0.14957730785E+04  0.25500000920E-02 0.  1.
    10030    2    1    2    0    0  0.00000000000E+00  0.00000000000E+00  0.86779574100E+03  0.38593418979E+04  0.37605119914E+04 0.  0.
        2    1    3    3  502    0 -0.18206311028E+04 -0.42919080446E+03  0.62986178194E+03  0.19737345879E+04  0.25500000920E-02 0.  1.
       -2    1    3    3    0  502  0.18206311028E+04  0.42919080446E+03  0.23793395906E+03  0.18856073101E+04  0.25500000920E-02 0. -1.
</event>
<event>
 5   0  0.1070988E-07  0.3779813E+04  0.7818609E-02  0.8050501E-01
        1   -1    0    0  501    0  0.00000000000E+00  0.00000000000E+00  0.15068069247E+04  0.15068069247E+04  0.50400001928E-02 0.  1.
       -1   -1    0    0    0  501  0.00000000000E+00  0.00000000000E+00 -0.23704078197E+04  0.23704078197E+04  0.50400001928E-02 0. -1.
    10030    2    1    2    0    0  0.00000000000E+00  0.00000000000E+00 -0.86360089503E+03  0.38772147444E+04  0.37798131790E+04 0.  0.
        2    1    3    3  502    0  0.17190901631E+04  0.29997516736E+03 -0.11760951453E+04  0.21043896694E+04  0.25500000920E-02 0. -1.
       -2    1    3    3    0  502 -0.17190901631E+04 -0.29997516736E+03  0.31249425028E+03  0.17728250750E+04  0.25500000920E-02 0.  1.
</event>
<event>
 5   0  0.1070988E-07  0.3736775E+04  0.7818609E-02  0.8059861E-01
        1   -1    0    0  501    0  0.00000000000E+00  0.00000000000E+00  0.16172864269E+04  0.16172864269E+04  0.50400001928E-02 0. -1.
       -1   -1    0    0    0  501  0.00000000000E+00  0.00000000000E+00 -0.21584749760E+04  0.21584749760E+04  0.50400001928E-02 0.  1.
    10030    2    1    2    0    0  0.00000000000E+00  0.00000000000E+00 -0.54118854912E+03  0.37757614030E+04  0.37367752309E+04 0.  0.
        2    1    3    3  502    0  0.14223497336E+04  0.12070673578E+04 -0.37551358555E+03  0.19029190272E+04  0.25500000920E-02 0.  1.
       -2    1    3    3    0  502 -0.14223497336E+04 -0.12070673578E+04 -0.16567496357E+03  0.18728423758E+04  0.25500000920E-02 0. -1.
</event>
<event>
 5   0  0.1085771E-07  0.3705506E+04  0.7818609E-02  0.8066743E-01
       -1   -1    0    0    0  501  0.00000000000E+00  0.00000000000E+00  0.15231196148E+04  0.15231196148E+04  0.50400001928E-02 0. -1.
        1   -1    0    0  501    0  0.00000000000E+00  0.00000000000E+00 -0.22537259621E+04  0.22537259621E+04  0.50400001928E-02 0.  1.
    10030    2    1    2    0    0  0.00000000000E+00  0.00000000000E+00 -0.73060634722E+03  0.37768455769E+04  0.37055062916E+04 0.  0.
        1    1    3    3  502    0  0.24031329261E+03  0.11563744531E+03 -0.22340603100E+04  0.22499217689E+04  0.50400001928E-02 0.  1.
       -1    1    3    3    0  502 -0.24031329261E+03 -0.11563744531E+03  0.15034539628E+04  0.15269238080E+04  0.50400001928E-02 0. -1.
</event>
<event>
 5   0  0.3442126E-07  0.3738647E+04  0.7818609E-02  0.8059451E-01
       -2   -1    0    0    0  501  0.00000000000E+00  0.00000000000E+00  0.12436227786E+04  0.12436227786E+04  0.25500000920E-02 0.  1.
        2   -1    0    0  501    0  0.00000000000E+00  0.00000000000E+00 -0.28098319106E+04  0.28098319106E+04  0.25500000920E-02 0. -1.
    10030    2    1    2    0    0  0.00000000000E+00  0.00000000000E+00 -0.15662091320E+04  0.40534546892E+04  0.37386473319E+04 0.  0.
        2    1    3    3  502    0  0.17922576382E+04  0.34722612574E+03 -0.12189726549E+04  0.21951418536E+04  0.25500000920E-02 0.  1.
       -2    1    3    3    0  502 -0.17922576382E+04 -0.34722612574E+03 -0.34723647717E+03  0.18583128357E+04  0.25500000920E-02 0. -1.
</event>
<event>
 5   0  0.3509843E-07  0.3791438E+04  0.7818609E-02  0.8047995E-01
        2   -1    0    0  501    0  0.00000000000E+00  0.00000000000E+00  0.28307878336E+04  0.28307878336E+04  0.25500000920E-02 0. -1.
       -2   -1    0    0    0  501  0.00000000000E+00  0.00000000000E+00 -0.12695228764E+04  0.12695228764E+04  0.25500000920E-02 0.  1.
    10030    2    1    2    0    0  0.00000000000E+00  0.00000000000E+00  0.15612649571E+04  0.41003107100E+04  0.37914376762E+04 0.  0.
        4    1    3    3  502    0 -0.71371259443E+03  0.15771931953E+04 -0.54847562324E+02  0.17320317291E+04  0.12699999809E+01 0.  1.
       -4    1    3    3    0  502  0.71371259443E+03 -0.15771931953E+04  0.16161125195E+04  0.23682789809E+04  0.12699999809E+01 0. -1.
</event>
<event>
 5   0  0.1070988E-07  0.3782980E+04  0.7818609E-02  0.8049817E-01
       -1   -1    0    0    0  501  0.00000000000E+00  0.00000000000E+00  0.18406616261E+04  0.18406616261E+04  0.50400001928E-02 0. -1.
        1   -1    0    0  501    0  0.00000000000E+00  0.00000000000E+00 -0.19437216440E+04  0.19437216440E+04  0.50400001928E-02 0.  1.
    10030    2    1    2    0    0  0.00000000000E+00  0.00000000000E+00 -0.10306001786E+03  0.37843832701E+04  0.37829796944E+04 0.  0.
        3    1    3    3  502    0  0.16119433460E+04 -0.56882333045E+03 -0.86165298369E+03  0.19142536944E+04  0.10100000352E+00 0. -1.
       -3    1    3    3    0  502 -0.16119433460E+04  0.56882333045E+03  0.75859296583E+03  0.18701295757E+04  0.10100000352E+00 0.  1.
</event>
<event>
 5   0  0.3539010E-07  0.3762300E+04  0.7818609E-02  0.8054294E-01
       -2   -1    0    0    0  501  0.00000000000E+00  0.00000000000E+00  0.23116393435E+04  0.23116393435E+04  0.25500000920E-02 0. -1.
        2   -1    0    0  501    0  0.00000000000E+00  0.00000000000E+00 -0.15308294384E+04  0.15308294384E+04  0.25500000920E-02 0.  1.
    10030    2    1    2    0    0  0.00000000000E+00  0.00000000000E+00  0.78080990517E+03  0.38424687819E+04  0.37623001252E+04 0.  0.
        1    1    3    3  502    0  0.62286531015E+03  0.10233597627E+04  0.18716539935E+04  0.22222320018E+04  0.50400001928E-02 0. -1.
       -1    1    3    3    0  502 -0.62286531015E+03 -0.10233597627E+04 -0.10908440883E+04  0.16202367801E+04  0.50400001928E-02 0.  1.
</event>
<event>
 5   0  0.1070988E-07  0.3767915E+04  0.7818609E-02  0.8053076E-01
        1   -1    0    0  501    0  0.00000000000E+00  0.00000000000E+00  0.20769708790E+04  0.20769708790E+04  0.50400001928E-02 0. -1.
       -1   -1    0    0    0  501  0.00000000000E+00  0.00000000000E+00 -0.17088808421E+04  0.17088808421E+04  0.50400001928E-02 0.  1.
    10030    2    1    2    0    0  0.00000000000E+00  0.00000000000E+00  0.36809003684E+03  0.37858517211E+04  0.37679149379E+04 0.  0.
        2    1    3    3  502    0  0.18408359519E+04 -0.15100321520E+03  0.55704906801E+03  0.19291922240E+04  0.25500000920E-02 0. -1.
       -2    1    3    3    0  502 -0.18408359519E+04  0.15100321520E+03 -0.18895903117E+03  0.18566594971E+04  0.25500000920E-02 0.  1.
</event>
<event>
 5   0  0.1085771E-07  0.3729913E+04  0.7818609E-02  0.8061365E-01
        1   -1    0    0  501    0  0.00000000000E+00  0.00000000000E+00  0.20157331073E+04  0.20157331073E+04  0.50400001928E-02 0. -1.
       -1   -1    0    0    0  501  0.00000000000E+00  0.00000000000E+00 -0.17254578476E+04  0.17254578476E+04  0.50400001928E-02 0.  1.
    10030    2    1    2    0    0  0.00000000000E+00  0.00000000000E+00  0.29027525962E+03  0.37411909549E+04  0.37299128723E+04 0.  0.
        1    1    3    3  502    0  0.15490105743E+04  0.96415074620E+03  0.53236464770E+03  0.19006400340E+04  0.50400001928E-02 0. -1.
       -1    1    3    3    0  502 -0.15490105743E+04 -0.96415074620E+03 -0.24208938807E+03  0.18405509209E+04  0.50400001928E-02 0.  1.
</event>
<event>
 5   0  0.1070988E-07  0.3765941E+04  0.7818609E-02  0.8053504E-01
       -1   -1    0    0    0  501  0.00000000000E+00  0.00000000000E+00  0.12974177286E+04  0.12974177286E+04  0.50400001928E-02 0.  1.
        1   -1    0    0  501    0  0.00000000000E+00  0.00000000000E+00 -0.27327955253E+04  0.27327955253E+04  0.50400001928E-02 0. -1.
    10030    2    1    2    0    0  0.00000000000E+00  0.00000000000E+00 -0.14353777967E+04  0.40302132538E+04  0.37659407128E+04 0.  0.
        3    1    3    3  502    0  0.75723016037E+03 -0.49281729687E+02  0.11265389586E+04  0.13582769380E+04  0.10100000352E+00 0.  1.
       -3    1    3    3    0  502 -0.75723016037E+03  0.49281729687E+02 -0.25619167553E+04  0.26719363159E+04  0.10100000352E+00 0. -1.
</event>
<event>
 5   0  0.1085771E-07  0.3805101E+04  0.7818609E-02  0.8045061E-01
       -1   -1    0    0    0  501  0.00000000000E+00  0.00000000000E+00  0.28675338276E+04  0.28675338276E+04  0.50400001928E-02 0.  1.
        1   -1    0    0  501    0  0.00000000000E+00  0.00000000000E+00 -0.12623033364E+04  0.12623033365E+04  0.50400001928E-02 0. -1.
    10030    2    1    2    0    0  0.00000000000E+00  0.00000000000E+00  0.16052304911E+04  0.41298371640E+04  0.38051005337E+04 0.  0.
        1    1    3    3  502    0 -0.10450091631E+04  0.17843884715E+03  0.25172546848E+04  0.27313834812E+04  0.50400001928E-02 0.  1.
       -1    1    3    3    0  502  0.10450091631E+04 -0.17843884715E+03 -0.91202419370E+03  0.13984536828E+04  0.50400001928E-02 0. -1.
</event>
<event>
 5   0  0.1085771E-07  0.3764178E+04  0.7818609E-02  0.8053886E-01
       -1   -1    0    0    0  501  0.00000000000E+00  0.00000000000E+00  0.16534033588E+04  0.16534033588E+04  0.50400001928E-02 0. -1.
        1   -1    0    0  501    0  0.00000000000E+00  0.00000000000E+00 -0.21424048668E+04  0.21424048668E+04  0.50400001928E-02 0.  1.
    10030    2    1    2    0    0  0.00000000000E+00  0.00000000000E+00 -0.48900150803E+03  0.37958082256E+04  0.37641782119E+04 0.  0.
        1    1    3    3  502    0 -0.13730570410E+04  0.13973353389E+03 -0.15348815318E+04  0.20641396307E+04  0.50400001928E-02 0.  1.
       -1    1    3    3    0  502  0.13730570410E+04 -0.13973353389E+03  0.10458800238E+04  0.17316685949E+04  0.50400001928E-02 0. -1.
</event>
<event>
 5   0  0.1070988E-07  0.3674847E+04  0.7818609E-02  0.8073559E-01
        1   -1    0    0  501    0  0.00000000000E+00  0.00000000000E+00  0.14225627895E+04  0.14225627895E+04  0.50400001928E-02 0. -1.
       -1   -1    0    0    0  501  0.00000000000E+00  0.00000000000E+00 -0.23732696092E+04  0.23732696092E+04  0.50400001928E-02 0.  1.
    10030    2    1    2    0    0  0.00000000000E+00  0.00000000000E+00 -0.95070681963E+03  0.37958323987E+04  0.36748469549E+04 0.  0.
        2    1    3    3  502    0 -0.11338555364E+04 -0.87452430040E+03 -0.16646523706E+04  0.21957888433E+04  0.25500000920E-02 0.  1.
       -2    1    3    3    0  502  0.11338555364E+04  0.87452430040E+03  0.71394555093E+03  0.16000435554E+04  0.25500000920E-02 0. -1.
</event>
<event>
 5   0  0.1085771E-07  0.3810655E+04  0.7818609E-02  0.8043872E-01
        1   -1    0    0  501    0  0.00000000000E+00  0.00000000000E+00  0.30225892979E+04  0.30225892979E+04  0.50400001928E-02 0. -1.
       -1   -1    0    0    0  501  0.00000000000E+00  0.00000000000E+00 -0.12010472655E+04  0.12010472655E+04  0.50400001928E-02 0.  1.
    10030    2    1    2    0    0  0.00000000000E+00  0.00000000000E+00  0.18215420324E+04  0.42236365633E+04  0.38106548576E+04 0.  0.
        1    1    3    3  502    0 -0.11866070203E+04  0.75991105301E+03  0.23322476412E+04  0.27248633157E+04  0.50400001928E-02 0. -1.
       -1    1    3    3    0  502  0.11866070203E+04 -0.75991105301E+03 -0.51070560884E+03  0.14987732477E+04  0.50400001928E-02 0.  1.
</event>
<event>
 5   0  0.3442126E-07  0.3865723E+04  0.7818609E-02  0.8032196E-01
        2   -1    0    0  501    0  0.00000000000E+00  0.00000000000E+00  0.25490605490E+04  0.25490605490E+04  0.25500000920E-02 0.  1.
       -2   -1    0    0    0  501  0.00000000000E+00  0.00000000000E+00 -0.14656197357E+04  0.14656197357E+04  0.25500000920E-02 0. -1.
    10030    2    1    2    0    0  0.00000000000E+00  0.00000000000E+00  0.10834408132E+04  0.40146802847E+04  0.38657229327E+04 0.  0.
        2    1    3    3  502    0 -0.78110610916E+03  0.10288692216E+04  0.20349178859E+04  0.24103089908E+04  0.25500000920E-02 0.  1.
       -2    1    3    3    0  502  0.78110610916E+03 -0.10288692216E+04 -0.95147707266E+03  0.16043712939E+04  0.25500000920E-02 0. -1.
</event>
<event>
 5   0  0.1070988E-07  0.3693621E+04  0.7818609E-02  0.8069377E-01
       -1   -1    0    0    0  501  0.00000000000E+00  0.00000000000E+00  0.12622984347E+04  0.12622984347E+04  0.50400001928E-02 0.  1.
        1   -1    0    0  501    0  0.00000000000E+00  0.00000000000E+00 -0.27019828953E+04  0.27019828953E+04  0.50400001928E-02 0. -1.
    10030    2    1    2    0    0  0.00000000000E+00  0.00000000000E+00 -0.14396844606E+04  0.39642813300E+04  0.36936208681E+04 0.  0.
        2    1    3    3  502    0 -0.41027710737E+03  0.17762751539E+04 -0.10368283451E+04  0.20972586260E+04  0.25500000920E-02 0. -1.
       -2    1    3    3    0  502  0.41027710737E+03 -0.17762751539E+04 -0.40285611551E+03  0.18670227039E+04  0.25500000920E-02 0.  1.
</event>
<event>
 5   0  0.1070988E-07  0.3587855E+04  0.7818609E-02  0.8093279E-01
        1   -1    0    0  501    0  0.00000000000E+00  0.00000000000E+00  0.18683835600E+04  0.18683835600E+04  0.50400001928E-02 0. -1.
       -1   -1    0    0    0  501  0.00000000000E+00  0.00000000000E+00 -0.17224387509E+04  0.17224387509E+04  0.50400001928E-02 0.  1.
    10030    2    1    2    0    0  0.00000000000E+00  0.00000000000E+00  0.14594480911E+03  0.35908223110E+04  0.35878552063E+04 0.  0.
        5    1    3    3  502    0  0.25614179312E+03 -0.11326142688E+04 -0.12955392740E+04  0.17397895852E+04  0.46999998093E+01 0.  1.
       -5    1    3    3    0  502 -0.25614179312E+03  0.11326142688E+04  0.14414840832E+04  0.18510327258E+04  0.46999998093E+01 0. -1.
</event>
<event>
 5   0  0.3539010E-07  0.3825040E+04  0.7818609E-02  0.8040803E-01
        2   -1    0    0  501    0  0.00000000000E+00  0.00000000000E+00  0.10640970549E+04  0.10640970549E+04  0.25500000920E-02 0. -1.
       -2   -1    0    0    0  501  0.00000000000E+00  0.00000000000E+00 -0.34374052994E+04  0.34374052994E+04  0.25500000920E-02 0.  1.
    10030    2    1    2    0    0  0.00000000000E+00  0.00000000000E+00 -0.23733082445E+04  0.45015023543E+04  0.38250400550E+04 0.  0.
        1    1    3    3  502    0  0.81529066671E+03  0.10280240991E+04 -0.28242119715E+04  0.31141139478E+04  0.50400001928E-02 0.  1.
       -1    1    3    3    0  502 -0.81529066671E+03 -0.10280240991E+04  0.45090372703E+03  0.13873884066E+04  0.50400001928E-02 0. -1.
</event>
<event>
 5   0  0.3539010E-07  0.3823452E+04  0.7818609E-02  0.8041141E-01
       -2   -1    0    0    0  501  0.00000000000E+00  0.00000000000E+00  0.26807059893E+04  0.26807059893E+04  0.25500000920E-02 0. -1.
        2   -1    0    0  501    0  0.00000000000E+00  0.00000000000E+00 -0.13633336491E+04  0.13633336491E+04  0.25500000920E-02 0.  1.
    10030    2    1    2    0    0  0.00000000000E+00  0.00000000000E+00  0.13173723403E+04  0.40440396384E+04  0.38234521985E+04 0.  0.
        1    1    3    3  502    0 -0.14585659885E+03  0.18545350486E+04  0.19267380984E+03  0.18702132474E+04  0.50400001928E-02 0. -1.
       -1    1    3    3    0  502  0.14585659885E+03 -0.18545350486E+04  0.11246985304E+04  0.21738263910E+04  0.50400001928E-02 0.  1.
</event>
<event>
 5   0  0.3442126E-07  0.3720246E+04  0.7818609E-02  0.8063490E-01
        2   -1    0    0  501    0  0.00000000000E+00  0.00000000000E+00  0.16620381387E+04  0.16620381387E+04  0.25500000920E-02 0.  1.
       -2   -1    0    0    0  501  0.00000000000E+00  0.00000000000E+00 -0.20818154833E+04  0.20818154833E+04  0.25500000920E-02 0. -1.
    10030    2    1    2    0    0  0.00000000000E+00  0.00000000000E+00 -0.41977734454E+03  0.37438536220E+04  0.37202455462E+04 0.  0.
        2    1    3    3  502    0  0.16891613531E+04  0.25964291657E+03 -0.94897156253E+03  0.19547960373E+04  0.25500000920E-02 0. -1.
       -2    1    3    3    0  502 -0.16891613531E+04 -0.25964291657E+03  0.52919421799E+03  0.17890575847E+04  0.25500000920E-02 0.  1.
</event>
<event>
 5   0  0.3377396E-07  0.3816066E+04  0.7818609E-02  0.8042716E-01
        2   -1    0    0  501    0  0.00000000000E+00  0.00000000000E+00  0.35395238609E+04  0.35395238609E+04  0.25500000920E-02 0. -1.
       -2   -1    0    0    0  501  0.00000000000E+00  0.00000000000E+00 -0.10285534645E+04  0.10285534645E+04  0.25500000920E-02 0.  1.
    10030    2    1    2    0    0  0.00000000000E+00  0.00000000000E+00  0.25109703964E+04  0.45680773255E+04  0.38160657908E+04 0.  0.
        5    1    3    3  502    0 -0.25525468024E+02 -0.12980596147E+04 -0.41824792929E+03  0.13640248287E+04  0.46999998093E+01 0.  1.
       -5    1    3    3    0  502  0.25525468024E+02  0.12980596147E+04  0.29292183257E+04  0.32040524968E+04  0.46999998093E+01 0. -1.
</event>
<event>
 5   0  0.1084315E-07  0.3857488E+04  0.7818609E-02  0.8033929E-01
        1   -1    0    0  501    0  0.00000000000E+00  0.00000000000E+00  0.34567206111E+04  0.34567206111E+04  0.50400001928E-02 0.  1.
       -1   -1    0    0    0  501  0.00000000000E+00  0.00000000000E+00 -0.10761798083E+04  0.10761798083E+04  0.50400001928E-02 0. -1.
    10030    2    1    2    0    0  0.00000000000E+00  0.00000000000E+00  0.23805408027E+04  0.45329004194E+04  0.38574877445E+04 0.  0.
        4    1    3    3  502    0 -0.85142426352E+03 -0.81814414597E+03 -0.60179905039E+03  0.13253100883E+04  0.12699999809E+01 0. -1.
       -4    1    3    3    0  502  0.85142426352E+03  0.81814414597E+03  0.29823398531E+04  0.32075903312E+04  0.12699999809E+01 0.  1.
</event>
<event>
 5   0  0.3539010E-07  0.3807024E+04  0.7818609E-02  0.8044649E-01
        2   -1    0    0  501    0  0.00000000000E+00  0.00000000000E+00  0.13739721139E+04  0.13739721139E+04  0.25500000920E-02 0.  1.
       -2   -1    0    0    0  501  0.00000000000E+00  0.00000000000E+00 -0.26371403092E+04  0.26371403092E+04  0.25500000920E-02 0. -1.
    10030    2    1    2    0    0  0.00000000000E+00  0.00000000000E+00 -0.12631681954E+04  0.40111124231E+04  0.38070236381E+04 0.  0.
        1    1    3    3  502    0  0.17409807580E+04 -0.36590117765E+03 -0.13449786427E+04  0.22302164068E+04  0.50400001928E-02 0. -1.
       -1    1    3    3    0  502 -0.17409807580E+04  0.36590117765E+03  0.81810447379E+02  0.17808960163E+04  0.50400001928E-02 0.  1.
</event>
<event>
 5   0  0.1085771E-07  0.3874932E+04  0.7818609E-02  0.8030263E-01
       -1   -1    0    0    0  501  0.00000000000E+00  0.00000000000E+00  0.15949549551E+04  0.15949549551E+04  0.50400001928E-02 0.  1.
        1   -1    0    0  501    0  0.00000000000E+00  0.00000000000E+00 -0.23535306643E+04  0.23535306643E+04  0.50400001928E-02 0. -1.
    10030    2    1    2    0    0  0.00000000000E+00  0.00000000000E+00 -0.75857570922E+03  0.39484856194E+04  0.38749324614E+04 0.  0.
        1    1    3    3  502    0 -0.17737556403E+04  0.73605382358E+03 -0.64065438444E+03  0.20244560610E+04  0.50400001928E-02 0. -1.
       -1    1    3    3    0  502  0.17737556403E+04 -0.73605382358E+03 -0.11792132478E+03  0.19240295584E+04  0.50400001928E-02 0.  1.
</event>
<event>
 5   0  0.1070988E-07  0.3778935E+04  0.7818609E-02  0.8050690E-01
       -1   -1    0    0    0  501  0.00000000000E+00  0.00000000000E+00  0.21140652260E+04  0.21140652260E+04  0.50400001928E-02 0.  1.
        1   -1    0    0  501    0  0.00000000000E+00  0.00000000000E+00 -0.16887312592E+04  0.16887312593E+04  0.50400001928E-02 0. -1.
    10030    2    1    2    0    0  0.00000000000E+00  0.00000000000E+00  0.42533396677E+03  0.38027964853E+04  0.37789353164E+04 0.  0.
        2    1    3    3  502    0  0.18460668532E+04  0.87564170969E+02 -0.18282568464E+03  0.18571633050E+04  0.25500000920E-02 0. -1.
       -2    1    3    3    0  502 -0.18460668532E+04 -0.87564170969E+02  0.60815965141E+03  0.19456331803E+04  0.25500000920E-02 0.  1.
</event>
<event>
 5   0  0.1070988E-07  0.3225545E+04  0.7818609E-02  0.8182103E-01
       -1   -1    0    0    0  501  0.00000000000E+00  0.00000000000E+00  0.29007022143E+04  0.29007022143E+04  0.50400001928E-02 0. -1.
        1   -1    0    0  501    0  0.00000000000E+00  0.00000000000E+00 -0.89669164062E+03  0.89669164064E+03  0.50400001928E-02 0.  1.
    10030    2    1    2    0    0  0.00000000000E+00  0.00000000000E+00  0.20040105737E+04  0.37973938549E+04  0.32255451803E+04 0.  0.
        3    1    3    3  502    0 -0.10231569466E+03 -0.13747860574E+04  0.19873676022E+04  0.24187052738E+04  0.10100000352E+00 0. -1.
       -3    1    3    3    0  502  0.10231569466E+03  0.13747860574E+04  0.16642971459E+02  0.13786885811E+04  0.10100000352E+00 0.  1.
</event>
<event>
 5   0  0.1070988E-07  0.3654992E+04  0.7818609E-02  0.8078010E-01
       -1   -1    0    0    0  501  0.00000000000E+00  0.00000000000E+00  0.23722188810E+04  0.23722188810E+04  0.50400001928E-02 0. -1.
        1   -1    0    0  501    0  0.00000000000E+00  0.00000000000E+00 -0.14078558974E+04  0.14078558974E+04  0.50400001928E-02 0.  1.
    10030    2    1    2    0    0  0.00000000000E+00  0.00000000000E+00  0.96436298362E+03  0.37800747784E+04  0.36549923893E+04 0.  0.
        5    1    3    3  502    0  0.11195486050E+04 -0.14395274942E+04  0.60495272719E+03  0.19213584719E+04  0.46999998093E+01 0. -1.
       -5    1    3    3    0  502 -0.11195486050E+04  0.14395274942E+04  0.35941025643E+03  0.18587163065E+04  0.46999998093E+01 0.  1.
</event>
<event>
 5   0  0.1070988E-07  0.3781037E+04  0.7818609E-02  0.8050237E-01
       -1   -1    0    0    0  501  0.00000000000E+00  0.00000000000E+00  0.14644831196E+04  0.14644831196E+04  0.50400001928E-02 0. -1.
        1   -1    0    0  501    0  0.00000000000E+00  0.00000000000E+00 -0.24404921044E+04  0.24404921044E+04  0.50400001928E-02 0.  1.
    10030    2    1    2    0    0  0.00000000000E+00  0.00000000000E+00 -0.97600898488E+03  0.39049752240E+04  0.37810366252E+04 0.  0.
        2    1    3    3  502    0  0.18442681837E+04  0.38087752883E+03 -0.65978971557E+03  0.19954235877E+04  0.25500000920E-02 0.  1.
       -2    1    3    3    0  502 -0.18442681837E+04 -0.38087752883E+03 -0.31621926931E+03  0.19095516363E+04  0.25500000920E-02 0. -1.
</event>
<event>
 5   0  0.3539010E-07  0.3788575E+04  0.7818609E-02  0.8048611E-01
       -2   -1    0    0    0  501  0.00000000000E+00  0.00000000000E+00  0.13290695729E+04  0.13290695729E+04  0.25500000920E-02 0.  1.
        2   -1    0    0  501    0  0.00000000000E+00  0.00000000000E+00 -0.26998772643E+04  0.26998772643E+04  0.25500000920E-02 0. -1.
    10030    2    1    2    0    0  0.00000000000E+00  0.00000000000E+00 -0.13708076915E+04  0.40289468372E+04  0.37885747835E+04 0.  0.
        1    1    3    3  502    0  0.91268210738E+03 -0.13888178304E+04 -0.16522172259E+04  0.23434217198E+04  0.50400001928E-02 0. -1.
       -1    1    3    3    0  502 -0.91268210738E+03  0.13888178304E+04  0.28140953448E+03  0.16855251174E+04  0.50400001928E-02 0.  1.
</event>
<event>
 5   0  0.3327241E-07  0.3809685E+04  0.7818609E-02  0.8044080E-01
        2   -1    0    0  501    0  0.00000000000E+00  0.00000000000E+00  0.30608526000E+04  0.30608526000E+04  0.25500000920E-02 0.  1.
       -2   -1    0    0    0  501  0.00000000000E+00  0.00000000000E+00 -0.11854293622E+04  0.11854293622E+04  0.25500000920E-02 0. -1.
    10030    2    1    2    0    0  0.00000000000E+00  0.00000000000E+00  0.18754232377E+04  0.42462819622E+04  0.38096847878E+04 0.  0.
        3    1    3    3  502    0  0.15378510130E+03 -0.13854799751E+04  0.23846434695E+04  0.27621964278E+04  0.10100000352E+00 0.  1.
       -3    1    3    3    0  502 -0.15378510130E+03  0.13854799751E+04 -0.50922023175E+03  0.14840855344E+04  0.10100000352E+00 0. -1.
</event>
<event>
 5   0  0.1085771E-07  0.3686852E+04  0.7818609E-02  0.8070882E-01
        1   -1    0    0  501    0  0.00000000000E+00  0.00000000000E+00  0.22753245224E+04  0.22753245224E+04  0.50400001928E-02 0.  1.
       -1   -1    0    0    0  501  0.00000000000E+00  0.00000000000E+00 -0.14935099088E+04  0.14935099088E+04  0.50400001928E-02 0. -1.
    10030    2    1    2    0    0  0.00000000000E+00  0.00000000000E+00  0.78181461355E+03  0.37688344312E+04  0.36868521641E+04 0.  0.
        1    1    3    3  502    0 -0.62902011622E+03  0.15741359012E+04  0.11313407036E+04  0.20380142124E+04  0.50400001928E-02 0.  1.
       -1    1    3    3    0  502  0.62902011622E+03 -0.15741359012E+04 -0.34952609009E+03  0.17308202188E+04  0.50400001928E-02 0. -1.
</event>
<event>
 5   0  0.1070988E-07  0.3810084E+04  0.7818609E-02  0.8043994E-01
       -1   -1    0    0    0  501  0.00000000000E+00  0.00000000000E+00  0.12273450217E+04  0.12273450217E+04  0.50400001928E-02 0.  1.
        1   -1    0    0  501    0  0.00000000000E+00  0.00000000000E+00 -0.29569388809E+04  0.29569388810E+04  0.50400001928E-02 0. -1.
    10030    2    1    2    0    0  0.00000000000E+00  0.00000000000E+00 -0.17295938592E+04  0.41842839027E+04  0.38100835765E+04 0.  0.
        2    1    3    3  502    0 -0.10242316960E+04  0.10108794397E+04 -0.22356979570E+04  0.26588104790E+04  0.25500000920E-02 0. -1.
       -2    1    3    3    0  502  0.10242316960E+04 -0.10108794397E+04  0.50610409771E+03  0.15254734237E+04  0.25500000920E-02 0.  1.
</event>
<event>
 5   0  0.1085771E-07  0.3814094E+04  0.7818609E-02  0.8043137E-01
        1   -1    0    0  501    0  0.00000000000E+00  0.00000000000E+00  0.19412668203E+04  0.19412668203E+04  0.50400001928E-02 0. -1.
       -1   -1    0    0    0  501  0.00000000000E+00  0.00000000000E+00 -0.18734305952E+04  0.18734305952E+04  0.50400001928E-02 0.  1.
    10030    2    1    2    0    0  0.00000000000E+00  0.00000000000E+00  0.67836225113E+02  0.38146974156E+04  0.38140942069E+04 0.  0.
        1    1    3    3  502    0 -0.14376463136E+04 -0.27792189854E+03 -0.11880611652E+04  0.18856184230E+04  0.50400001928E-02 0.  1.
       -1    1    3    3    0  502  0.14376463136E+04  0.27792189854E+03  0.12558973903E+04  0.19290789926E+04  0.50400001928E-02 0. -1.
</event>
<event>
 5   0  0.1084315E-07  0.3796201E+04  0.7818609E-02  0.8046971E-01
       -1   -1    0    0    0  501  0.00000000000E+00  0.00000000000E+00  0.15865127846E+04  0.15865127846E+04  0.50400001928E-02 0. -1.
        1   -1    0    0  501    0  0.00000000000E+00  0.00000000000E+00 -0.22708836256E+04  0.22708836256E+04  0.50400001928E-02 0.  1.
    10030    2    1    2    0    0  0.00000000000E+00  0.00000000000E+00 -0.68437084094E+03  0.38573964102E+04  0.37962012088E+04 0.  0.
        4    1    3    3  502    0 -0.78095332901E+03  0.17172940537E+04 -0.55483710580E+03  0.19664264024E+04  0.12699999809E+01 0.  1.
       -4    1    3    3    0  502  0.78095332901E+03 -0.17172940537E+04 -0.12953373514E+03  0.18909700078E+04  0.12699999809E+01 0. -1.
</event>
<event>
 5   0  0.1070988E-07  0.3805503E+04  0.7818609E-02  0.8044975E-01
       -1   -1    0    0    0  501  0.00000000000E+00  0.00000000000E+00  0.26464734144E+04  0.26464734144E+04  0.50400001928E-02 0. -1.
        1   -1    0    0  501    0  0.00000000000E+00  0.00000000000E+00 -0.13680330421E+04  0.13680330421E+04  0.50400001928E-02 0.  1.
    10030    2    1    2    0    0  0.00000000000E+00  0.00000000000E+00  0.12784403723E+04  0.40145064565E+04  0.38055028976E+04 0.  0.
        5    1    3    3  502    0 -0.18946279477E+04 -0.98569436487E+02  0.79249264895E+03  0.20560636378E+04  0.46999998093E+01 0. -1.
       -5    1    3    3    0  502  0.18946279477E+04  0.98569436487E+02  0.48594772331E+03  0.19584428187E+04  0.46999998093E+01 0.  1.
</event>
<event>
 5   0  0.3539010E-07  0.3787429E+04  0.7818609E-02  0.8048858E-01
        2   -1    0    0  501    0  0.00000000000E+00  0.00000000000E+00  0.30042226565E+04  0.30042226565E+04  0.25500000920E-02 0.  1.
       -2   -1    0    0    0  501  0.00000000000E+00  0.00000000000E+00 -0.11937049239E+04  0.11937049239E+04  0.25500000920E-02 0. -1.
    10030    2    1    2    0    0  0.00000000000E+00  0.00000000000E+00  0.18105177326E+04  0.41979275804E+04  0.37874294067E+04 0.  0.
        1    1    3    3  502    0  0.10365631919E+04  0.55233706050E+03  0.25517286573E+04  0.28090672152E+04  0.50400001928E-02 0.  1.
       -1    1    3    3    0  502 -0.10365631919E+04 -0.55233706050E+03 -0.74121092467E+03  0.13888603652E+04  0.50400001928E-02 0. -1.
</event>
<event>
 5   0  0.1070988E-07  0.3353497E+04  0.7818609E-02  0.8149415E-01
       -1   -1    0    0    0  501  0.00000000000E+00  0.00000000000E+00  0.16083115432E+04  0.16083115432E+04  0.50400001928E-02 0.  1.
        1   -1    0    0  501    0  0.00000000000E+00  0.00000000000E+00 -0.17480980629E+04  0.17480980629E+04  0.50400001928E-02 0. -1.
    10030    2    1    2    0    0  0.00000000000E+00  0.00000000000E+00 -0.13978651971E+03  0.33564096060E+04  0.33534974538E+04 0.  0.
        5    1    3    3  502    0  0.84500933503E+02 -0.16608891602E+04 -0.28402060897E+03  0.16871227005E+04  0.46999998093E+01 0. -1.
       -5    1    3    3    0  502 -0.84500933503E+02  0.16608891602E+04  0.14423408925E+03  0.16692869055E+04  0.46999998093E+01 0.  1.
</event>
<event>
 5   0  0.3442126E-07  0.3666196E+04  0.7818609E-02  0.8075495E-01
        2   -1    0    0  501    0  0.00000000000E+00  0.00000000000E+00  0.21487268980E+04  0.21487268980E+04  0.25500000920E-02 0. -1.
       -2   -1    0    0    0  501  0.00000000000E+00  0.00000000000E+00 -0.15638322511E+04  0.15638322511E+04  0.25500000920E-02 0.  1.
    10030    2    1    2    0    0  0.00000000000E+00  0.00000000000E+00  0.58489464692E+03  0.37125591490E+04  0.36661960786E+04 0.  0.
        2    1    3    3  502    0  0.45892363963E+03 -0.17430389519E+04 -0.45619881185E+02  0.18030188209E+04  0.25500000920E-02 0. -1.
       -2    1    3    3    0  502 -0.45892363963E+03  0.17430389519E+04  0.63051452810E+03  0.19095403282E+04  0.25500000920E-02 0.  1.
</event>
<event>
 5   0  0.1084315E-07  0.3812441E+04  0.7818609E-02  0.8043490E-01
        1   -1    0    0  501    0  0.00000000000E+00  0.00000000000E+00  0.23218965227E+04  0.23218965227E+04  0.50400001928E-02 0.  1.
       -1   -1    0    0    0  501  0.00000000000E+00  0.00000000000E+00 -0.15649602859E+04  0.15649602859E+04  0.50400001928E-02 0. -1.
    10030    2    1    2    0    0  0.00000000000E+00  0.00000000000E+00  0.75693623680E+03  0.38868568085E+04  0.38124406072E+04 0.  0.
        4    1    3    3  502    0 -0.16580227059E+04 -0.88645286034E+03  0.57949235891E+02  0.18810097538E+04  0.12699999809E+01 0. -1.
       -4    1    3    3    0  502  0.16580227059E+04  0.88645286034E+03  0.69898700091E+03  0.20058470548E+04  0.12699999809E+01 0.  1.
</event>
<event>
 5   0  0.3327241E-07  0.3781859E+04  0.7818609E-02  0.8050059E-01
       -2   -1    0    0    0  501  0.00000000000E+00  0.00000000000E+00  0.31871888832E+04  0.31871888832E+04  0.25500000920E-02 0. -1.
        2   -1    0    0  501    0  0.00000000000E+00  0.00000000000E+00 -0.11218706560E+04  0.11218706560E+04  0.25500000920E-02 0.  1.
    10030    2    1    2    0    0  0.00000000000E+00  0.00000000000E+00  0.20653182272E+04  0.43090595391E+04  0.37818586346E+04 0.  0.
        3    1    3    3  502    0 -0.13856662151E+04  0.11108817004E+04  0.17723803569E+04  0.25090757565E+04  0.10100000352E+00 0.  1.
       -3    1    3    3    0  502  0.13856662151E+04 -0.11108817004E+04  0.29293787027E+03  0.17999837827E+04  0.10100000352E+00 0. -1.
</event>
<event>
 5   0  0.1085771E-07  0.3691802E+04  0.7818609E-02  0.8069781E-01
        1   -1    0    0  501    0  0.00000000000E+00  0.00000000000E+00  0.12877576613E+04  0.12877576614E+04  0.50400001928E-02 0.  1.
       -1   -1    0    0    0  501  0.00000000000E+00  0.00000000000E+00 -0.26459564145E+04  0.26459564145E+04  0.50400001928E-02 0. -1.
    10030    2    1    2    0    0  0.00000000000E+00  0.00000000000E+00 -0.13581987531E+04  0.39337140759E+04  0.36918020772E+04 0.  0.
        1    1    3    3  502    0  0.67318440531E+03 -0.13075820043E+04 -0.18677243559E+04  0.23772551842E+04  0.50400001928E-02 0. -1.
       -1    1    3    3    0  502 -0.67318440531E+03  0.13075820043E+04  0.50952560273E+03  0.15564588916E+04  0.50400001928E-02 0.  1.
</event>
<event>
 5   0  0.3327241E-07  0.3809692E+04  0.7818609E-02  0.8044078E-01
        2   -1    0    0  501    0  0.00000000000E+00  0.00000000000E+00  0.24281250672E+04  0.24281250672E+04  0.25500000920E-02 0.  1.
       -2   -1    0    0    0  501  0.00000000000E+00  0.00000000000E+00 -0.14943375692E+04  0.14943375692E+04  0.25500000920E-02 0. -1.
    10030    2    1    2    0    0  0.00000000000E+00  0.00000000000E+00  0.93378749803E+03  0.39224626363E+04  0.38096921191E+04 0.  0.
        3    1    3    3  502    0 -0.18904711949E+04 -0.14233146812E+03  0.65757549720E+03  0.20066253089E+04  0.10100000352E+00 0.  1.
       -3    1    3    3    0  502  0.18904711949E+04  0.14233146812E+03  0.27621200083E+03  0.19158373274E+04  0.10100000352E+00 0. -1.
</event>
<event>
 5   0  0.1070988E-07  0.3813684E+04  0.7818609E-02  0.8043225E-01
       -1   -1    0    0    0  501  0.00000000000E+00  0.00000000000E+00  0.19155786901E+04  0.19155786902E+04  0.50400001928E-02 0. -1.
        1   -1    0    0  501    0  0.00000000000E+00  0.00000000000E+00 -0.18981452463E+04  0.18981452464E+04  0.50400001928E-02 0.  1.
    10030    2    1    2    0    0  0.00000000000E+00  0.00000000000E+00  0.17433443805E+02  0.38137239365E+04  0.38136840901E+04 0.  0.
        5    1    3    3  502    0  0.39583420841E+03  0.81526317466E+03  0.16864367664E+04  0.19145312276E+04  0.46999998093E+01 0. -1.
       -5    1    3    3    0  502 -0.39583420841E+03 -0.81526317466E+03 -0.16690033226E+04  0.18991927089E+04  0.46999998093E+01 0.  1.
</event>
<event>
 5   0  0.1070988E-07  0.3828004E+04  0.7818609E-02  0.8040172E-01
       -1   -1    0    0    0  501  0.00000000000E+00  0.00000000000E+00  0.23881354496E+04  0.23881354496E+04  0.50400001928E-02 0. -1.
        1   -1    0    0  501    0  0.00000000000E+00  0.00000000000E+00 -0.15340019757E+04  0.15340019757E+04  0.50400001928E-02 0.  1.
    10030    2    1    2    0    0  0.00000000000E+00  0.00000000000E+00  0.85413347387E+03  0.39221374253E+04  0.38280044399E+04 0.  0.
        5    1    3    3  502    0 -0.13799806121E+04  0.11593779728E+04 -0.23288307383E+03  0.18173498259E+04  0.46999998093E+01 0.  1.
       -5    1    3    3    0  502  0.13799806121E+04 -0.11593779728E+04  0.10870165477E+04  0.21047875994E+04  0.46999998093E+01 0. -1.
</event>
<event>
 5   0  0.1070988E-07  0.3498542E+04  0.7818609E-02  0.8114136E-01
       -1   -1    0    0    0  501  0.00000000000E+00  0.00000000000E+00  0.12347987193E+04  0.12347987193E+04  0.50400001928E-02 0. -1.
        1   -1    0    0  501    0  0.00000000000E+00  0.00000000000E+00 -0.24780950037E+04  0.24780950037E+04  0.50400001928E-02 0.  1.
    10030    2    1    2    0    0  0.00000000000E+00  0.00000000000E+00 -0.12432962844E+04  0.37128937230E+04  0.34985417173E+04 0.  0.
        3    1    3    3  502    0 -0.23057669440E+03 -0.58198122645E+03  0.11118562544E+04  0.12759671236E+04  0.10100000352E+00 0. -1.
       -3    1    3    3    0  502  0.23057669440E+03  0.58198122645E+03 -0.23551525387E+04  0.24369265994E+04  0.10100000352E+00 0.  1.
</event>
<event>
 5   0  0.3377396E-07  0.3808877E+04  0.7818609E-02  0.8044253E-01
        2   -1    0    0  501    0  0.00000000000E+00  0.00000000000E+00  0.12140422710E+04  0.12140422710E+04  0.25500000920E-02 0. -1.
       -2   -1    0    0    0  501  0.00000000000E+00  0.00000000000E+00 -0.29874462310E+04  0.29874462310E+04  0.25500000920E-02 0.  1.
    10030    2    1    2    0    0  0.00000000000E+00  0.00000000000E+00 -0.17734039600E+04  0.42014885020E+04  0.38088770034E+04 0.  0.
        5    1    3    3  502    0 -0.23468962381E+03  0.17860082467E+04 -0.15684356455E+04  0.23884968372E+04  0.46999998093E+01 0.  1.
       -5    1    3    3    0  502  0.23468962381E+03 -0.17860082467E+04 -0.20496831450E+03  0.18129916649E+04  0.46999998093E+01 0. -1.
</event>
<event>
 5   0  0.3539010E-07  0.3790274E+04  0.7818609E-02  0.8048245E-01
        2   -1    0    0  501    0  0.00000000000E+00  0.00000000000E+00  0.19606136573E+04  0.19606136573E+04  0.25500000920E-02 0. -1.
       -2   -1    0    0    0  501  0.00000000000E+00  0.00000000000E+00 -0.18318467724E+04  0.18318467724E+04  0.25500000920E-02 0.  1.
    10030    2    1    2    0    0  0.00000000000E+00  0.00000000000E+00  0.12876688490E+03  0.37924604297E+04  0.37902737632E+04 0.  0.
        1    1    3    3  502    0  0.63050138738E+03 -0.32396991151E+03 -0.16942013780E+04  0.18365203000E+04  0.50400001928E-02 0.  1.
       -1    1    3    3    0  502 -0.63050138738E+03  0.32396991151E+03  0.18229682629E+04  0.19559401296E+04  0.50400001928E-02 0. -1.
</event>
<event>
 5   0  0.3539010E-07  0.3832570E+04  0.7818609E-02  0.8039201E-01
        2   -1    0    0  501    0  0.00000000000E+00  0.00000000000E+00  0.14563346330E+04  0.14563346330E+04  0.25500000920E-02 0.  1.
       -2   -1    0    0    0  501  0.00000000000E+00  0.00000000000E+00 -0.25214997422E+04  0.25214997422E+04  0.25500000920E-02 0. -1.
    10030    2    1    2    0    0  0.00000000000E+00  0.00000000000E+00 -0.10651651092E+04  0.39778343752E+04  0.38325695827E+04 0.  0.
        1    1    3    3  502    0 -0.77653112506E+03 -0.66342514131E+03 -0.22154623206E+04  0.24395505324E+04  0.50400001928E-02 0. -1.
       -1    1    3    3    0  502  0.77653112506E+03  0.66342514131E+03  0.11502972114E+04  0.15382838427E+04  0.50400001928E-02 0.  1.
</event>
<event>
 5   0  0.1070988E-07  0.3741755E+04  0.7818609E-02  0.8058771E-01
       -1   -1    0    0    0  501  0.00000000000E+00  0.00000000000E+00  0.17437151966E+04  0.17437151966E+04  0.50400001928E-02 0.  1.
        1   -1    0    0  501    0  0.00000000000E+00  0.00000000000E+00 -0.20073137654E+04  0.20073137654E+04  0.50400001928E-02 0. -1.
    10030    2    1    2    0    0  0.00000000000E+00  0.00000000000E+00 -0.26359856876E+03  0.37510289620E+04  0.37417554795E+04 0.  0.
        2    1    3    3  502    0  0.53383866490E+03  0.14679267961E+04 -0.11641041466E+04  0.19480583315E+04  0.25500000920E-02 0. -1.
       -2    1    3    3    0  502 -0.53383866490E+03 -0.14679267961E+04  0.90050557780E+03  0.18029706305E+04  0.25500000920E-02 0.  1.
</event>
<event>
 5   0  0.1070988E-07  0.3800475E+04  0.7818609E-02  0.8046053E-01
        1   -1    0    0  501    0  0.00000000000E+00  0.00000000000E+00  0.19244660183E+04  0.19244660183E+04  0.50400001928E-02 0.  1.
       -1   -1    0    0    0  501  0.00000000000E+00  0.00000000000E+00 -0.18763136877E+04  0.18763136877E+04  0.50400001928E-02 0. -1.
    10030    2    1    2    0    0  0.00000000000E+00  0.00000000000E+00  0.48152330687E+02  0.38007797060E+04  0.38004746712E+04 0.  0.
        2    1    3    3  502    0 -0.12130249927E+04 -0.58750365603E+03 -0.13155505721E+04  0.18834180328E+04  0.25500000920E-02 0. -1.
       -2    1    3    3    0  502  0.12130249927E+04  0.58750365603E+03  0.13637029027E+04  0.19173616732E+04  0.25500000920E-02 0.  1.
</event>
<event>
 5   0  0.3442126E-07  0.3818584E+04  0.7818609E-02  0.8042178E-01
       -2   -1    0    0    0  501  0.00000000000E+00  0.00000000000E+00  0.16636414975E+04  0.16636414975E+04  0.25500000920E-02 0. -1.
        2   -1    0    0  501    0  0.00000000000E+00  0.00000000000E+00 -0.21912151829E+04  0.21912151829E+04  0.25500000920E-02 0.  1.
    10030    2    1    2    0    0  0.00000000000E+00  0.00000000000E+00 -0.52757368538E+03  0.38548566805E+04  0.38185842970E+04 0.  0.
        2    1    3    3  502    0  0.13836286776E+04  0.64101241080E+03 -0.14236441021E+04  0.20861658030E+04  0.25500000920E-02 0.  1.
       -2    1    3    3    0  502 -0.13836286776E+04 -0.64101241080E+03  0.89607041669E+03  0.17686908775E+04  0.25500000920E-02 0. -1.
</event>
<event>
 5   0  0.1070988E-07  0.3773748E+04  0.7818609E-02  0.8051812E-01
        1   -1    0    0  501    0  0.00000000000E+00  0.00000000000E+00  0.28387187070E+04  0.28387187070E+04  0.50400001928E-02 0.  1.
       -1   -1    0    0    0  501  0.00000000000E+00  0.00000000000E+00 -0.12541902738E+04  0.12541902738E+04  0.50400001928E-02 0. -1.
    10030    2    1    2    0    0  0.00000000000E+00  0.00000000000E+00  0.15845284332E+04  0.40929089807E+04  0.37737479472E+04 0.  0.
        5    1    3    3  502    0  0.80475939623E+03  0.74765470358E+03  0.24561739961E+04  0.26906203803E+04  0.46999998093E+01 0.  1.
       -5    1    3    3    0  502 -0.80475939623E+03 -0.74765470358E+03 -0.87164556291E+03  0.14022886004E+04  0.46999998093E+01 0. -1.
</event>
<event>
 5   0  0.1084315E-07  0.3764584E+04  0.7818609E-02  0.8053798E-01
       -1   -1    0    0    0  501  0.00000000000E+00  0.00000000000E+00  0.21375306212E+04  0.21375306212E+04  0.50400001928E-02 0. -1.
        1   -1    0    0  501    0  0.00000000000E+00  0.00000000000E+00 -0.16575310846E+04  0.16575310846E+04  0.50400001928E-02 0.  1.
    10030    2    1    2    0    0  0.00000000000E+00  0.00000000000E+00  0.47999953663E+03  0.37950617058E+04  0.37645841464E+04 0.  0.
        4    1    3    3  502    0  0.92706039408E+03 -0.89649179511E+03  0.16221882843E+04  0.20723501045E+04  0.12699999809E+01 0. -1.
       -4    1    3    3    0  502 -0.92706039408E+03  0.89649179511E+03 -0.11421887477E+04  0.17227116013E+04  0.12699999809E+01 0.  1.
</event>
<event>
 5   0  0.1070988E-07  0.3789590E+04  0.7818609E-02  0.8048392E-01
       -1   -1    0    0    0  501  0.00000000000E+00  0.00000000000E+00  0.13975714104E+04  0.13975714104E+04  0.50400001928E-02 0.  1.
        1   -1    0    0  501    0  0.00000000000E+00  0.00000000000E+00 -0.25689198961E+04  0.25689198961E+04  0.50400001928E-02 0. -1.
    10030    2    1    2    0    0  0.00000000000E+00  0.00000000000E+00 -0.11713484856E+04  0.39664913065E+04  0.37895904805E+04 0.  0.
        3    1    3    3  502    0 -0.11601965317E+04  0.11501222566E+04 -0.15903851331E+04  0.22799478237E+04  0.10100000352E+00 0. -1.
       -3    1    3    3    0  502  0.11601965317E+04 -0.11501222566E+04  0.41903664748E+03  0.16865434828E+04  0.10100000352E+00 0.  1.
</event>
<event>
 5   0  0.1070988E-07  0.3786140E+04  0.7818609E-02  0.8049136E-01
       -1   -1    0    0    0  501  0.00000000000E+00  0.00000000000E+00  0.20749200266E+04  0.20749200266E+04  0.50400001928E-02 0. -1.
        1   -1    0    0  501    0  0.00000000000E+00  0.00000000000E+00 -0.17271572923E+04  0.17271572924E+04  0.50400001928E-02 0.  1.
    10030    2    1    2    0    0  0.00000000000E+00  0.00000000000E+00  0.34776273424E+03  0.38020773189E+04  0.37861395933E+04 0.  0.
        5    1    3    3  502    0  0.11077620200E+04  0.13687693618E+04  0.87180689661E+03  0.19648754703E+04  0.46999998093E+01 0. -1.
       -5    1    3    3    0  502 -0.11077620200E+04 -0.13687693618E+04 -0.52404416238E+03  0.18372018487E+04  0.46999998093E+01 0.  1.
</event>
<event>
 5   0  0.3442126E-07  0.3752060E+04  0.7818609E-02  0.8056522E-01
        2   -1    0    0  501    0  0.00000000000E+00  0.00000000000E+00  0.19996591899E+04  0.19996591899E+04  0.25500000920E-02 0. -1.
       -2   -1    0    0    0  501  0.00000000000E+00  0.00000000000E+00 -0.17600437344E+04  0.17600437344E+04  0.25500000920E-02 0.  1.
    10030    2    1    2    0    0  0.00000000000E+00  0.00000000000E+00  0.23961545551E+03  0.37597029243E+04  0.37520595027E+04 0.  0.
        2    1    3    3  502    0 -0.62783156323E+03 -0.14940478501E+04  0.10667917550E+04  0.19402051692E+04  0.25500000920E-02 0. -1.
       -2    1    3    3    0  502  0.62783156323E+03  0.14940478501E+04 -0.82717629945E+03  0.18194977550E+04  0.25500000920E-02 0.  1.
</event>
<event>
 5   0  0.3442126E-07  0.3535431E+04  0.7818609E-02  0.8105444E-01
       -2   -1    0    0    0  501  0.00000000000E+00  0.00000000000E+00  0.19594062961E+04  0.19594062961E+04  0.25500000920E-02 0.  1.
        2   -1    0    0  501    0  0.00000000000E+00  0.00000000000E+00 -0.15947779677E+04  0.15947779677E+04  0.25500000920E-02 0. -1.
    10030    2    1    2    0    0  0.00000000000E+00  0.00000000000E+00  0.36462832841E+03  0.35541842638E+04  0.35354309445E+04 0.  0.
        2    1    3    3  502    0 -0.92547934413E+03  0.12379807434E+03 -0.13266407027E+04  0.16222865141E+04  0.25500000920E-02 0. -1.
       -2    1    3    3    0  502  0.92547934413E+03 -0.12379807434E+03  0.16912690311E+04  0.19318977497E+04  0.25500000920E-02 0.  1.
</event>
<event>
 5   0  0.1084315E-07  0.3780999E+04  0.7818609E-02  0.8050245E-01
        1   -1    0    0  501    0  0.00000000000E+00  0.00000000000E+00  0.13777248556E+04  0.13777248556E+04  0.50400001928E-02 0.  1.
       -1   -1    0    0    0  501  0.00000000000E+00  0.00000000000E+00 -0.25941238686E+04  0.25941238686E+04  0.50400001928E-02 0. -1.
    10030    2    1    2    0    0  0.00000000000E+00  0.00000000000E+00 -0.12163990130E+04  0.39718487241E+04  0.37809993029E+04 0.  0.
        4    1    3    3  502    0 -0.10504265469E+04  0.43863904934E+03  0.97735363714E+03  0.15003405916E+04  0.12699999809E+01 0.  1.
       -4    1    3    3    0  502  0.10504265469E+04 -0.43863904934E+03 -0.21937526502E+04  0.24715081325E+04  0.12699999809E+01 0. -1.
</event>
<event>
 5   0  0.1070988E-07  0.3915100E+04  0.7818609E-02  0.8021896E-01
       -1   -1    0    0    0  501  0.00000000000E+00  0.00000000000E+00  0.21421690434E+04  0.21421690434E+04  0.50400001928E-02 0. -1.
        1   -1    0    0  501    0  0.00000000000E+00  0.00000000000E+00 -0.17888417266E+04  0.17888417266E+04  0.50400001928E-02 0.  1.
    10030    2    1    2    0    0  0.00000000000E+00  0.00000000000E+00  0.35332731678E+03  0.39310107699E+04  0.39150996770E+04 0.  0.
        3    1    3    3  502    0  0.27063407835E+03 -0.15322910453E+04 -0.10159525547E+04  0.18583105918E+04  0.10100000352E+00 0.  1.
       -3    1    3    3    0  502 -0.27063407835E+03  0.15322910453E+04  0.13692798715E+04  0.20727001782E+04  0.10100000352E+00 0. -1.
</event>
<event>
 5   0  0.1085771E-07  0.3818745E+04  0.7818609E-02  0.8042144E-01
       -1   -1    0    0    0  501  0.00000000000E+00  0.00000000000E+00  0.16716226342E+04  0.16716226342E+04  0.50400001928E-02 0.  1.
        1   -1    0    0  501    0  0.00000000000E+00  0.00000000000E+00 -0.21809368559E+04  0.21809368559E+04  0.50400001928E-02 0. -1.
    10030    2    1    2    0    0  0.00000000000E+00  0.00000000000E+00 -0.50931422171E+03  0.38525594901E+04  0.38187450357E+04 0.  0.
        1    1    3    3  502    0 -0.80641302628E+03  0.13653161668E+04 -0.13277075074E+04  0.20681386388E+04  0.50400001928E-02 0. -1.
       -1    1    3    3    0  502  0.80641302628E+03 -0.13653161668E+04  0.81839328565E+03  0.17844208512E+04  0.50400001928E-02 0.  1.
</event>
<event>
 5   0  0.1070988E-07  0.3803918E+04  0.7818609E-02  0.8045315E-01
        1   -1    0    0  501    0  0.00000000000E+00  0.00000000000E+00  0.11317572991E+04  0.11317572991E+04  0.50400001928E-02 0.  1.
       -1   -1    0    0    0  501  0.00000000000E+00  0.00000000000E+00 -0.31963103552E+04  0.31963103552E+04  0.50400001928E-02 0. -1.
    10030    2    1    2    0    0  0.00000000000E+00  0.00000000000E+00 -0.20645530561E+04  0.43280676543E+04  0.38039177565E+04 0.  0.
        5    1    3    3  502    0  0.16060005161E+04 -0.11301991935E+02  0.12696563813E+03  0.16110579617E+04  0.46999998093E+01 0.  1.
       -5    1    3    3    0  502 -0.16060005161E+04  0.11301991935E+02 -0.21915186942E+04  0.27170096926E+04  0.46999998093E+01 0. -1.
</event>
<event>
 5   0  0.3539010E-07  0.3733114E+04  0.7818609E-02  0.8060663E-01
       -2   -1    0    0    0  501  0.00000000000E+00  0.00000000000E+00  0.22691306749E+04  0.22691306749E+04  0.25500000920E-02 0. -1.
        2   -1    0    0  501    0  0.00000000000E+00  0.00000000000E+00 -0.15354048990E+04  0.15354048990E+04  0.25500000920E-02 0.  1.
    10030    2    1    2    0    0  0.00000000000E+00  0.00000000000E+00  0.73372577593E+03  0.38045355738E+04  0.37331136359E+04 0.  0.
        1    1    3    3  502    0  0.86336547121E+03 -0.16513827059E+04  0.47648272842E+03  0.19234085808E+04  0.50400001928E-02 0. -1.
       -1    1    3    3    0  502 -0.86336547121E+03  0.16513827059E+04  0.25724304751E+03  0.18811269930E+04  0.50400001928E-02 0.  1.
</event>
<event>
 5   0  0.3327241E-07  0.3904864E+04  0.7818609E-02  0.8024018E-01
        2   -1    0    0  501    0  0.00000000000E+00  0.00000000000E+00  0.13840405339E+04  0.13840405339E+04  0.25500000920E-02 0.  1.
       -2   -1    0    0    0  501  0.00000000000E+00  0.00000000000E+00 -0.27542472435E+04  0.27542472435E+04  0.25500000920E-02 0. -1.
    10030    2    1    2    0    0  0.00000000000E+00  0.00000000000E+00 -0.13702067096E+04  0.41382877774E+04  0.39048635446E+04 0.  0.
        3    1    3    3  502    0  0.78806128486E+03  0.16120229924E+04 -0.15007406834E+04  0.23392052765E+04  0.10100000352E+00 0. -1.
       -3    1    3    3    0  502 -0.78806128486E+03 -0.16120229924E+04  0.13053397383E+03  0.17990825009E+04  0.10100000352E+00 0.  1.
</event>
<event>
 5   0  0.3539010E-07  0.3799007E+04  0.7818609E-02  0.8046368E-01
        2   -1    0    0  501    0  0.00000000000E+00  0.00000000000E+00  0.17890283562E+04  0.17890283562E+04  0.25500000920E-02 0.  1.
       -2   -1    0    0    0  501  0.00000000000E+00  0.00000000000E+00 -0.20168003650E+04  0.20168003650E+04  0.25500000920E-02 0. -1.
    10030    2    1    2    0    0  0.00000000000E+00  0.00000000000E+00 -0.22777200881E+03  0.38058287212E+04  0.37990067343E+04 0.  0.
        1    1    3    3  502    0 -0.24476250083E+03 -0.73675836816E+03 -0.18506055834E+04  0.20068539060E+04  0.50400001928E-02 0. -1.
       -1    1    3    3    0  502  0.24476250083E+03  0.73675836816E+03  0.16228335746E+04  0.17989748152E+04  0.50400001928E-02 0.  1.
</event>
<event>
 5   0  0.3327241E-07  0.3861511E+04  0.7818609E-02  0.8033082E-01
       -2   -1    0    0    0  501  0.00000000000E+00  0.00000000000E+00  0.24529186917E+04  0.24529186917E+04  0.25500000920E-02 0.  1.
        2   -1    0    0  501    0  0.00000000000E+00  0.00000000000E+00 -0.15197475272E+04  0.15197475272E+04  0.25500000920E-02 0. -1.
    10030    2    1    2    0    0  0.00000000000E+00  0.00000000000E+00  0.93317116451E+03  0.39726662190E+04  0.38615111634E+04 0.  0.
        3    1    3    3  502    0 -0.30774227686E+03 -0.18467652249E+04  0.95193900518E+03  0.21003416352E+04  0.10100000352E+00 0.  1.
       -3    1    3    3    0  502  0.30774227686E+03  0.18467652249E+04 -0.18767840666E+02  0.18723245837E+04  0.10100000352E+00 0. -1.
</event>
<event>
 5   0  0.3377396E-07  0.3782588E+04  0.7818609E-02  0.8049902E-01
       -2   -1    0    0    0  501  0.00000000000E+00  0.00000000000E+00  0.14699086252E+04  0.14699086252E+04  0.25500000920E-02 0. -1.
        2   -1    0    0  501    0  0.00000000000E+00  0.00000000000E+00 -0.24334801703E+04  0.24334801703E+04  0.25500000920E-02 0.  1.
    10030    2    1    2    0    0  0.00000000000E+00  0.00000000000E+00 -0.96357154502E+03  0.39033887955E+04  0.37825882629E+04 0.  0.
        5    1    3    3  502    0 -0.11995433212E+04 -0.73939071578E+02  0.10251941526E+04  0.15796886738E+04  0.46999998093E+01 0. -1.
       -5    1    3    3    0  502  0.11995433212E+04  0.73939071578E+02 -0.19887656976E+04  0.23237001217E+04  0.46999998093E+01 0.  1.
</event>
<event>
 5   0  0.1070988E-07  0.3847772E+04  0.7818609E-02  0.8035980E-01
       -1   -1    0    0    0  501  0.00000000000E+00  0.00000000000E+00  0.12044024658E+04  0.12044024658E+04  0.50400001928E-02 0. -1.
        1   -1    0    0  501    0  0.00000000000E+00  0.00000000000E+00 -0.30731726318E+04  0.30731726318E+04  0.50400001928E-02 0.  1.
    10030    2    1    2    0    0  0.00000000000E+00  0.00000000000E+00 -0.18687701660E+04  0.42775750976E+04  0.38477716645E+04 0.  0.
        2    1    3    3  502    0  0.16699179692E+04  0.42452379941E+03  0.17072133773E+02  0.17231186662E+04  0.25500000920E-02 0. -1.
       -2    1    3    3    0  502 -0.16699179692E+04 -0.42452379941E+03 -0.18858422997E+04  0.25544564314E+04  0.25500000920E-02 0.  1.
</event>
<event>
 5   0  0.1070988E-07  0.3805886E+04  0.7818609E-02  0.8044893E-01
       -1   -1    0    0    0  501  0.00000000000E+00  0.00000000000E+00  0.22762111809E+04  0.22762111809E+04  0.50400001928E-02 0. -1.
        1   -1    0    0  501    0  0.00000000000E+00  0.00000000000E+00 -0.15908859141E+04  0.15908859141E+04  0.50400001928E-02 0.  1.
    10030    2    1    2    0    0  0.00000000000E+00  0.00000000000E+00  0.68532526677E+03  0.38670970950E+04  0.38058861282E+04 0.  0.
        3    1    3    3  502    0 -0.12427075236E+04 -0.26675745230E+03  0.17816713988E+04  0.21885690556E+04  0.10100000352E+00 0. -1.
       -3    1    3    3    0  502  0.12427075236E+04  0.26675745230E+03 -0.10963461321E+04  0.16785280394E+04  0.10100000352E+00 0.  1.
</event>
<event>
 5   0  0.3539010E-07  0.3524133E+04  0.7818609E-02  0.8108094E-01
        2   -1    0    0  501    0  0.00000000000E+00  0.00000000000E+00  0.28433463007E+04  0.28433463007E+04  0.25500000920E-02 0. -1.
       -2   -1    0    0    0  501  0.00000000000E+00  0.00000000000E+00 -0.10919804537E+04  0.10919804537E+04  0.25500000920E-02 0.  1.
    10030    2    1    2    0    0  0.00000000000E+00  0.00000000000E+00  0.17513658470E+04  0.39353267544E+04  0.35241331323E+04 0.  0.
        1    1    3    3  502    0  0.48109950533E+03 -0.84637327518E+03 -0.76438194819E+03  0.12377738960E+04  0.50400001928E-02 0.  1.
       -1    1    3    3    0  502 -0.48109950533E+03  0.84637327518E+03  0.25157477952E+04  0.26975528584E+04  0.50400001928E-02 0. -1.
</event>
<event>
 5   0  0.1070988E-07  0.3613832E+04  0.7818609E-02  0.8087331E-01
        1   -1    0    0  501    0  0.00000000000E+00  0.00000000000E+00  0.17569042611E+04  0.17569042611E+04  0.50400001928E-02 0.  1.
       -1   -1    0    0    0  501  0.00000000000E+00  0.00000000000E+00 -0.18583513422E+04  0.18583513422E+04  0.50400001928E-02 0. -1.
    10030    2    1    2    0    0  0.00000000000E+00  0.00000000000E+00 -0.10144708112E+03  0.36152556033E+04  0.36138319782E+04 0.  0.
        5    1    3    3  502    0 -0.15809881931E+04 -0.54561413814E+03 -0.73488244964E+03  0.18268258700E+04  0.46999998093E+01 0. -1.
       -5    1    3    3    0  502  0.15809881931E+04  0.54561413814E+03  0.63343536852E+03  0.17884297332E+04  0.46999998093E+01 0.  1.
</event>
<event>
 5   0  0.1070988E-07  0.3792360E+04  0.7818609E-02  0.8047796E-01
       -1   -1    0    0    0  501  0.00000000000E+00  0.00000000000E+00  0.29883143241E+04  0.29883143241E+04  0.50400001928E-02 0.  1.
        1   -1    0    0  501    0  0.00000000000E+00  0.00000000000E+00 -0.12031863313E+04  0.12031863313E+04  0.50400001928E-02 0. -1.
    10030    2    1    2    0    0  0.00000000000E+00  0.00000000000E+00  0.17851279929E+04  0.41915006554E+04  0.37923601877E+04 0.  0.
        2    1    3    3  502    0 -0.14640590537E+04  0.70948068242E+02  0.22220803574E+04  0.26619811524E+04  0.25500000920E-02 0.  1.
       -2    1    3    3    0  502  0.14640590537E+04 -0.70948068242E+02 -0.43695236453E+03  0.15295195030E+04  0.25500000920E-02 0. -1.
</event>
<event>
 5   0  0.1084315E-07  0.3496788E+04  0.7818609E-02  0.8114552E-01
       -1   -1    0    0    0  501  0.00000000000E+00  0.00000000000E+00  0.12530432317E+04  0.12530432317E+04  0.50400001928E-02 0. -1.
        1   -1    0    0  501    0  0.00000000000E+00  0.00000000000E+00 -0.24395662550E+04  0.24395662550E+04  0.50400001928E-02 0.  1.
    10030    2    1    2    0    0  0.00000000000E+00  0.00000000000E+00 -0.11865230234E+04  0.36926094867E+04  0.34967882316E+04 0.  0.
        4    1    3    3  502    0 -0.55264272568E+03  0.95233915774E+03 -0.20274469992E+04  0.23071425619E+04  0.12699999809E+01 0.  1.
       -4    1    3    3    0  502  0.55264272568E+03 -0.95233915774E+03  0.84092397586E+03  0.13854669248E+04  0.12699999809E+01 0. -1.
</event>
<event>
 5   0  0.3509843E-07  0.3791333E+04  0.7818609E-02  0.8048017E-01
        2   -1    0    0  501    0  0.00000000000E+00  0.00000000000E+00  0.20060375839E+04  0.20060375839E+04  0.25500000920E-02 0. -1.
       -2   -1    0    0    0  501  0.00000000000E+00  0.00000000000E+00 -0.17913675221E+04  0.17913675221E+04  0.25500000920E-02 0.  1.
    10030    2    1    2    0    0  0.00000000000E+00  0.00000000000E+00  0.21467006179E+03  0.37974051059E+04  0.37913325234E+04 0.  0.
        4    1    3    3  502    0  0.64778117261E+02  0.99690079641E+03  0.17209839345E+04  0.19899232945E+04  0.12699999809E+01 0. -1.
       -4    1    3    3    0  502 -0.64778117261E+02 -0.99690079641E+03 -0.15063138727E+04  0.18074818114E+04  0.12699999809E+01 0.  1.
</event>
<event>
 5   0  0.1070988E-07  0.3500587E+04  0.7818609E-02  0.8113651E-01
       -3   -1    0    0    0  501  0.00000000000E+00  0.00000000000E+00  0.20004282624E+04  0.20004282649E+04  0.10100000352E+00 0.  1.
        3   -1    0    0  501    0  0.00000000000E+00  0.00000000000E+00 -0.15314357563E+04  0.15314357596E+04  0.10100000352E+00 0. -1.
    10030    2    1    2    0    0  0.00000000000E+00  0.00000000000E+00  0.46899250613E+03  0.35318640245E+04  0.35005870246E+04 0.  0.
        5    1    3    3  502    0  0.58757997328E+02  0.16329425324E+02 -0.15303571336E+04  0.15315789888E+04  0.46999998093E+01 0. -1.
       -5    1    3    3    0  502 -0.58757997328E+02 -0.16329425324E+02  0.19993496398E+04  0.20002850358E+04  0.46999998093E+01 0.  1.
</event>
<event>
 5   0  0.1070988E-07  0.3767012E+04  0.7818609E-02  0.8053271E-01
       -1   -1    0    0    0  501  0.00000000000E+00  0.00000000000E+00  0.12652343751E+04  0.12652343751E+04  0.50400001928E-02 0.  1.
        1   -1    0    0  501    0  0.00000000000E+00  0.00000000000E+00 -0.28039029157E+04  0.28039029157E+04  0.50400001928E-02 0. -1.
    10030    2    1    2    0    0  0.00000000000E+00  0.00000000000E+00 -0.15386685407E+04  0.40691372908E+04  0.37670117352E+04 0.  0.
        5    1    3    3  502    0 -0.15529151791E+04  0.94884913457E+03 -0.24489374535E+03  0.18362612206E+04  0.46999998093E+01 0.  1.
       -5    1    3    3    0  502  0.15529151791E+04 -0.94884913457E+03 -0.12937747953E+04  0.22328760702E+04  0.46999998093E+01 0. -1.
</event>
<event>
 5   0  0.1070988E-07  0.3802869E+04  0.7818609E-02  0.8045540E-01
       -1   -1    0    0    0  501  0.00000000000E+00  0.00000000000E+00  0.19098164669E+04  0.19098164669E+04  0.50400001928E-02 0.  1.
        1   -1    0    0  501    0  0.00000000000E+00  0.00000000000E+00 -0.18930890645E+04  0.18930890645E+04  0.50400001928E-02 0. -1.
    10030    2    1    2    0    0  0.00000000000E+00  0.00000000000E+00  0.16727402360E+02  0.38029055314E+04  0.38028687428E+04 0.  0.
        5    1    3    3  502    0  0.77069455136E+03  0.70158645846E+02 -0.17284715286E+04  0.18938131487E+04  0.46999998093E+01 0. -1.
       -5    1    3    3    0  502 -0.77069455136E+03 -0.70158645846E+02  0.17451989310E+04  0.19090923827E+04  0.46999998093E+01 0.  1.
</event>
<event>
 5   0  0.3377396E-07  0.3786869E+04  0.7818609E-02  0.8048979E-01
        2   -1    0    0  501    0  0.00000000000E+00  0.00000000000E+00  0.10889768477E+04  0.10889768478E+04  0.25500000920E-02 0.  1.
       -2   -1    0    0    0  501  0.00000000000E+00  0.00000000000E+00 -0.32921672583E+04  0.32921672583E+04  0.25500000920E-02 0. -1.
    10030    2    1    2    0    0  0.00000000000E+00  0.00000000000E+00 -0.22031904106E+04  0.43811441061E+04  0.37868688508E+04 0.  0.
        5    1    3    3  502    0 -0.78624626485E+03  0.76391903682E+02  0.88921729238E+03  0.11894319632E+04  0.46999998093E+01 0.  1.
       -5    1    3    3    0  502  0.78624626485E+03 -0.76391903682E+02 -0.30924077029E+04  0.31917121429E+04  0.46999998093E+01 0. -1.
</event>
<event>
 5   0  0.3327241E-07  0.3586768E+04  0.7818609E-02  0.8093529E-01
        2   -1    0    0  501    0  0.00000000000E+00  0.00000000000E+00  0.18583717720E+04  0.18583717720E+04  0.25500000920E-02 0. -1.
       -2   -1    0    0    0  501  0.00000000000E+00  0.00000000000E+00 -0.17306686521E+04  0.17306686521E+04  0.25500000920E-02 0.  1.
    10030    2    1    2    0    0  0.00000000000E+00  0.00000000000E+00  0.12770311989E+03  0.35890404241E+04  0.35867677760E+04 0.  0.
        3    1    3    3  502    0  0.36996146486E+03 -0.17436518240E+04  0.26154341661E+03  0.18015543671E+04  0.10100000352E+00 0. -1.
       -3    1    3    3    0  502 -0.36996146486E+03  0.17436518240E+04 -0.13384029672E+03  0.17874860570E+04  0.10100000352E+00 0.  1.
</event>
<event>
 5   0  0.1070988E-07  0.3815395E+04  0.7818609E-02  0.8042859E-01
       -1   -1    0    0    0  501  0.00000000000E+00  0.00000000000E+00  0.15651642650E+04  0.15651642650E+04  0.50400001928E-02 0. -1.
        1   -1    0    0  501    0  0.00000000000E+00  0.00000000000E+00 -0.23251931784E+04  0.23251931784E+04  0.50400001928E-02 0.  1.
    10030    2    1    2    0    0  0.00000000000E+00  0.00000000000E+00 -0.76002891338E+03  0.38903574435E+04  0.38153947487E+04 0.  0.
        2    1    3    3  502    0 -0.51942425506E+02  0.12872374581E+04  0.10546229465E+04  0.16649047566E+04  0.25500000920E-02 0. -1.
       -2    1    3    3    0  502  0.51942425506E+02 -0.12872374581E+04 -0.18146518599E+04  0.22254526869E+04  0.25500000920E-02 0.  1.
</event>
<event>
 5   0  0.1070988E-07  0.3844907E+04  0.7818609E-02  0.8036586E-01
        1   -1    0    0  501    0  0.00000000000E+00  0.00000000000E+00  0.18939951511E+04  0.18939951511E+04  0.50400001928E-02 0. -1.
       -1   -1    0    0    0  501  0.00000000000E+00  0.00000000000E+00 -0.19513392869E+04  0.19513392870E+04  0.50400001928E-02 0.  1.
    10030    2    1    2    0    0  0.00000000000E+00  0.00000000000E+00 -0.57344135887E+02  0.38453344380E+04  0.38449068377E+04 0.  0.
        2    1    3    3  502    0  0.99138412352E+03  0.55784952181E+03  0.15212707775E+04  0.18995534601E+04  0.25500000920E-02 0. -1.
       -2    1    3    3    0  502 -0.99138412352E+03 -0.55784952181E+03 -0.15786149134E+04  0.19457809779E+04  0.25500000920E-02 0.  1.
</event>
<event>
 5   0  0.3539010E-07  0.3527670E+04  0.7818609E-02  0.8107264E-01
        2   -1    0    0  501    0  0.00000000000E+00  0.00000000000E+00  0.25517166022E+04  0.25517166022E+04  0.25500000920E-02 0.  1.
       -2   -1    0    0    0  501  0.00000000000E+00  0.00000000000E+00 -0.12192239134E+04  0.12192239134E+04  0.25500000920E-02 0. -1.
    10030    2    1    2    0    0  0.00000000000E+00  0.00000000000E+00  0.13324926888E+04  0.37709405156E+04  0.35276699968E+04 0.  0.
        1    1    3    3  502    0  0.93285931642E+02  0.16019830552E+04 -0.11640657963E+03  0.16089134426E+04  0.50400001928E-02 0.  1.
       -1    1    3    3    0  502 -0.93285931642E+02 -0.16019830552E+04  0.14488992684E+04  0.21620270729E+04  0.50400001928E-02 0. -1.
</event>
<event>
 5   0  0.3539010E-07  0.3830852E+04  0.7818609E-02  0.8039566E-01
       -2   -1    0    0    0  501  0.00000000000E+00  0.00000000000E+00  0.13486519842E+04  0.13486519842E+04  0.25500000920E-02 0.  1.
        2   -1    0    0  501    0  0.00000000000E+00  0.00000000000E+00 -0.27203880574E+04  0.27203880574E+04  0.25500000920E-02 0. -1.
    10030    2    1    2    0    0  0.00000000000E+00  0.00000000000E+00 -0.13717360733E+04  0.40690400416E+04  0.38308519947E+04 0.  0.
        1    1    3    3  502    0  0.81441638665E+02  0.32893555492E+03  0.13165597109E+04  0.13594707838E+04  0.50400001928E-02 0.  1.
       -1    1    3    3    0  502 -0.81441638665E+02 -0.32893555492E+03 -0.26882957841E+04  0.27095692578E+04  0.50400001928E-02 0. -1.
</event>
<event>
 5   0  0.3327241E-07  0.3799031E+04  0.7818609E-02  0.8046363E-01
        2   -1    0    0  501    0  0.00000000000E+00  0.00000000000E+00  0.18839191794E+04  0.18839191794E+04  0.25500000920E-02 0.  1.
       -2   -1    0    0    0  501  0.00000000000E+00  0.00000000000E+00 -0.19152409761E+04  0.19152409761E+04  0.25500000920E-02 0. -1.
    10030    2    1    2    0    0  0.00000000000E+00  0.00000000000E+00 -0.31321796672E+02  0.37991601555E+04  0.37990310386E+04 0.  0.
        3    1    3    3  502    0  0.15951585667E+04  0.95063522923E+03 -0.41557573505E+03  0.19028771357E+04  0.10100000352E+00 0. -1.
       -3    1    3    3    0  502 -0.15951585667E+04 -0.95063522923E+03  0.38425393838E+03  0.18962830198E+04  0.10100000352E+00 0.  1.
</event>
<event>
 5   0  0.1084315E-07  0.3769043E+04  0.7818609E-02  0.8052831E-01
       -1   -1    0    0    0  501  0.00000000000E+00  0.00000000000E+00  0.24704870479E+04  0.24704870479E+04  0.50400001928E-02 0.  1.
        1   -1    0    0  501    0  0.00000000000E+00  0.00000000000E+00 -0.14375387491E+04  0.14375387491E+04  0.50400001928E-02 0. -1.
    10030    2    1    2    0    0  0.00000000000E+00  0.00000000000E+00  0.10329482988E+04  0.39080257970E+04  0.37690427753E+04 0.  0.
        4    1    3    3  502    0 -0.47383353057E+03 -0.13848092881E+04 -0.71439909215E+03  0.16286751226E+04  0.12699999809E+01 0. -1.
       -4    1    3    3    0  502  0.47383353057E+03  0.13848092881E+04  0.17473473909E+04  0.22793506744E+04  0.12699999809E+01 0.  1.
</event>
<event>
 5   0  0.1084315E-07  0.3578308E+04  0.7818609E-02  0.8095479E-01
        1   -1    0    0  501    0  0.00000000000E+00  0.00000000000E+00  0.18184383317E+04  0.18184383317E+04  0.50400001928E-02 0. -1.
       -1   -1    0    0    0  501  0.00000000000E+00  0.00000000000E+00 -0.17603411122E+04  0.17603411122E+04  0.50400001928E-02 0.  1.
    10030    2    1    2    0    0  0.00000000000E+00  0.00000000000E+00  0.58097219545E+02  0.35787794439E+04  0.35783078433E+04 0.  0.
        4    1    3    3  502    0  0.98436211248E+03 -0.14938608869E+04  0.50983772723E+02  0.17897458132E+04  0.12699999809E+01 0. -1.
       -4    1    3    3    0  502 -0.98436211248E+03  0.14938608869E+04  0.71134468221E+01  0.17890336307E+04  0.12699999809E+01 0.  1.
</event>
<event>
 5   0  0.1070988E-07  0.3771047E+04  0.7818609E-02  0.8052397E-01
        1   -1    0    0  501    0  0.00000000000E+00  0.00000000000E+00  0.16120850299E+04  0.16120850299E+04  0.50400001928E-02 0.  1.
       -1   -1    0    0    0  501  0.00000000000E+00  0.00000000000E+00 -0.22053416794E+04  0.22053416794E+04  0.50400001928E-02 0. -1.
    10030    2    1    2    0    0  0.00000000000E+00  0.00000000000E+00 -0.59325664950E+03  0.38174267093E+04  0.37710467020E+04 0.  0.
        3    1    3    3  502    0  0.75664745218E+02  0.81307974915E+03 -0.20170525346E+04  0.21760801387E+04  0.10100000352E+00 0. -1.
       -3    1    3    3    0  502 -0.75664745218E+02 -0.81307974915E+03  0.14237958851E+04  0.16413465706E+04  0.10100000352E+00 0.  1.
</event>
<event>
 5   0  0.3377396E-07  0.3839781E+04  0.7818609E-02  0.8037672E-01
        2   -1    0    0  501    0  0.00000000000E+00  0.00000000000E+00  0.22372366932E+04  0.22372366932E+04  0.25500000920E-02 0. -1.
       -2   -1    0    0    0  501  0.00000000000E+00  0.00000000000E+00 -0.16475589596E+04  0.16475589596E+04  0.25500000920E-02 0.  1.
    10030    2    1    2    0    0  0.00000000000E+00  0.00000000000E+00  0.58967773361E+03  0.38847956527E+04  0.38397809096E+04 0.  0.
        5    1    3    3  502    0 -0.34057253664E+03  0.10208960190E+04 -0.13136862358E+04  0.16982378958E+04  0.46999998093E+01 0.  1.
       -5    1    3    3    0  502  0.34057253664E+03 -0.10208960190E+04  0.19033639695E+04  0.21865577570E+04  0.46999998093E+01 0. -1.
</event>
<event>
 5   0  0.1070988E-07  0.3728408E+04  0.7818609E-02  0.8061695E-01
       -1   -1    0    0    0  501  0.00000000000E+00  0.00000000000E+00  0.18472536879E+04  0.18472536879E+04  0.50400001928E-02 0. -1.
        1   -1    0    0  501    0  0.00000000000E+00  0.00000000000E+00 -0.18813102824E+04  0.18813102824E+04  0.50400001928E-02 0.  1.
    10030    2    1    2    0    0  0.00000000000E+00  0.00000000000E+00 -0.34056594499E+02  0.37285639704E+04  0.37284084312E+04 0.  0.
        3    1    3    3  502    0  0.10868719758E+04  0.11514757542E+04  0.96691835528E+03  0.18552946452E+04  0.10100000352E+00 0. -1.
       -3    1    3    3    0  502 -0.10868719758E+04 -0.11514757542E+04 -0.10009749498E+04  0.18732693252E+04  0.10100000352E+00 0.  1.
</event>
<event>
 5   0  0.3377396E-07  0.3788164E+04  0.7818609E-02  0.8048700E-01
       -2   -1    0    0    0  501  0.00000000000E+00  0.00000000000E+00  0.16049332889E+04  0.16049332889E+04  0.25500000920E-02 0. -1.
        2   -1    0    0  501    0  0.00000000000E+00  0.00000000000E+00 -0.22353240830E+04  0.22353240830E+04  0.25500000920E-02 0.  1.
    10030    2    1    2    0    0  0.00000000000E+00  0.00000000000E+00 -0.63039079415E+03  0.38402573719E+04  0.37881636883E+04 0.  0.
        5    1    3    3  502    0  0.15861342582E+04 -0.52804608784E+03  0.58748169148E+03  0.17719512927E+04  0.46999998093E+01 0. -1.
       -5    1    3    3    0  502 -0.15861342582E+04  0.52804608784E+03 -0.12178724856E+04  0.20683060792E+04  0.46999998093E+01 0.  1.
</event>
<event>
 5   0  0.3539010E-07  0.3755013E+04  0.7818609E-02  0.8055878E-01
        2   -1    0    0  501    0  0.00000000000E+00  0.00000000000E+00  0.26220496159E+04  0.26220496159E+04  0.25500000920E-02 0.  1.
       -2   -1    0    0    0  501  0.00000000000E+00  0.00000000000E+00 -0.13443801108E+04  0.13443801108E+04  0.25500000920E-02 0. -1.
    10030    2    1    2    0    0  0.00000000000E+00  0.00000000000E+00  0.12776695051E+04  0.39664297267E+04  0.37550133705E+04 0.  0.
        1    1    3    3  502    0  0.45702553636E+03 -0.16030157996E+04  0.15514821002E+04  0.22771975544E+04  0.50400001928E-02 0.  1.
       -1    1    3    3    0  502 -0.45702553636E+03  0.16030157996E+04 -0.27381259513E+03  0.16892321723E+04  0.50400001928E-02 0. -1.
</event>
<event>
 5   0  0.3509843E-07  0.3789563E+04  0.7818609E-02  0.8048398E-01
        2   -1    0    0  501    0  0.00000000000E+00  0.00000000000E+00  0.18287884755E+04  0.18287884755E+04  0.25500000920E-02 0.  1.
       -2   -1    0    0    0  501  0.00000000000E+00  0.00000000000E+00 -0.19631562635E+04  0.19631562636E+04  0.25500000920E-02 0. -1.
    10030    2    1    2    0    0  0.00000000000E+00  0.00000000000E+00 -0.13436778809E+03  0.37919447390E+04  0.37895633259E+04 0.  0.
        4    1    3    3  502    0 -0.91260621775E+02  0.18759049488E+04 -0.31803658683E+03  0.19048613496E+04  0.12699999809E+01 0.  1.
       -4    1    3    3    0  502  0.91260621775E+02 -0.18759049488E+04  0.18366879874E+03  0.18870833894E+04  0.12699999809E+01 0. -1.
</event>
<event>
 5   0  0.3377396E-07  0.3828915E+04  0.7818609E-02  0.8039978E-01
        2   -1    0    0  501    0  0.00000000000E+00  0.00000000000E+00  0.17790179291E+04  0.17790179291E+04  0.25500000920E-02 0.  1.
       -2   -1    0    0    0  501  0.00000000000E+00  0.00000000000E+00 -0.20602078009E+04  0.20602078009E+04  0.25500000920E-02 0. -1.
    10030    2    1    2    0    0  0.00000000000E+00  0.00000000000E+00 -0.28118987180E+03  0.38392257300E+04  0.38289145279E+04 0.  0.
        5    1    3    3  502    0  0.52111245496E+03  0.43928371866E+03  0.16532438705E+04  0.17882297843E+04  0.46999998093E+01 0.  1.
       -5    1    3    3    0  502 -0.52111245496E+03 -0.43928371866E+03 -0.19344337423E+04  0.20509959457E+04  0.46999998093E+01 0. -1.
</event>
<event>
 5   0  0.1084315E-07  0.3797377E+04  0.7818609E-02  0.8046718E-01
        1   -1    0    0  501    0  0.00000000000E+00  0.00000000000E+00  0.21657792963E+04  0.21657792963E+04  0.50400001928E-02 0.  1.
       -1   -1    0    0    0  501  0.00000000000E+00  0.00000000000E+00 -0.16645361253E+04  0.16645361253E+04  0.50400001928E-02 0. -1.
    10030    2    1    2    0    0  0.00000000000E+00  0.00000000000E+00  0.50124317097E+03  0.38303154216E+04  0.37973769253E+04 0.  0.
        4    1    3    3  502    0 -0.41085048862E+03 -0.39401553254E+03 -0.15764348195E+04  0.16760652484E+04  0.12699999809E+01 0. -1.
       -4    1    3    3    0  502  0.41085048862E+03  0.39401553254E+03  0.20776779905E+04  0.21542501732E+04  0.12699999809E+01 0.  1.
</event>
<event>
 5   0  0.3539010E-07  0.3827468E+04  0.7818609E-02  0.8040286E-01
        2   -1    0    0  501    0  0.00000000000E+00  0.00000000000E+00  0.31689996299E+04  0.31689996299E+04  0.25500000920E-02 0. -1.
       -2   -1    0    0    0  501  0.00000000000E+00  0.00000000000E+00 -0.11556887923E+04  0.11556887923E+04  0.25500000920E-02 0.  1.
    10030    2    1    2    0    0  0.00000000000E+00  0.00000000000E+00  0.20133108375E+04  0.43246884222E+04  0.38274677557E+04 0.  0.
        1    1    3    3  502    0  0.18191270302E+04 -0.22540750279E+03  0.16279465483E+04  0.24515794212E+04  0.50400001928E-02 0. -1.
       -1    1    3    3    0  502 -0.18191270302E+04  0.22540750279E+03  0.38536428925E+03  0.18731090010E+04  0.50400001928E-02 0.  1.
</event>
<event>
 5   0  0.1085771E-07  0.3830233E+04  0.7818609E-02  0.8039698E-01
        1   -1    0    0  501    0  0.00000000000E+00  0.00000000000E+00  0.19870399905E+04  0.19870399905E+04  0.50400001928E-02 0. -1.
       -1   -1    0    0    0  501  0.00000000000E+00  0.00000000000E+00 -0.18457965101E+04  0.18457965101E+04  0.50400001928E-02 0.  1.
    10030    2    1    2    0    0  0.00000000000E+00  0.00000000000E+00  0.14124348039E+03  0.38328365006E+04  0.38302331417E+04 0.  0.
        1    1    3    3  502    0 -0.59659512914E+03  0.16752917679E+04  0.78183910204E+03  0.19426272513E+04  0.50400001928E-02 0. -1.
       -1    1    3    3    0  502  0.59659512914E+03 -0.16752917679E+04 -0.64059562165E+03  0.18902092494E+04  0.50400001928E-02 0.  1.
</event>
<event>
 5   0  0.1070988E-07  0.3340778E+04  0.7818609E-02  0.8152596E-01
       -1   -1    0    0    0  501  0.00000000000E+00  0.00000000000E+00  0.19100673745E+04  0.19100673745E+04  0.50400001928E-02 0. -1.
        1   -1    0    0  501    0  0.00000000000E+00  0.00000000000E+00 -0.14607862373E+04  0.14607862373E+04  0.50400001928E-02 0.  1.
    10030    2    1    2    0    0  0.00000000000E+00  0.00000000000E+00  0.44928113716E+03  0.33708536118E+04  0.33407784320E+04 0.  0.
        2    1    3    3  502    0  0.11032297244E+04 -0.20103273257E+03  0.14737962534E+04  0.18519193776E+04  0.25500000920E-02 0. -1.
       -2    1    3    3    0  502 -0.11032297244E+04  0.20103273257E+03 -0.10245151163E+04  0.15189342342E+04  0.25500000920E-02 0.  1.
</event>
<event>
 5   0  0.1070988E-07  0.3761768E+04  0.7818609E-02  0.8054409E-01
        1   -1    0    0  501    0  0.00000000000E+00  0.00000000000E+00  0.16692811383E+04  0.16692811383E+04  0.50400001928E-02 0. -1.
       -1   -1    0    0    0  501  0.00000000000E+00  0.00000000000E+00 -0.21193106099E+04  0.21193106099E+04  0.50400001928E-02 0.  1.
    10030    2    1    2    0    0  0.00000000000E+00  0.00000000000E+00 -0.45002947156E+03  0.37885917482E+04  0.37617683221E+04 0.  0.
        2    1    3    3  502    0  0.21598525150E+03 -0.26680863897E+03 -0.20874953166E+04  0.21155314168E+04  0.25500000920E-02 0.  1.
       -2    1    3    3    0  502 -0.21598525150E+03  0.26680863897E+03  0.16374658451E+04  0.16730603314E+04  0.25500000920E-02 0. -1.
</event>
<event>
 5   0  0.1085771E-07  0.3734836E+04  0.7818609E-02  0.8060285E-01
        1   -1    0    0  501    0  0.00000000000E+00  0.00000000000E+00  0.16561871935E+04  0.16561871936E+04  0.50400001928E-02 0.  1.
       -1   -1    0    0    0  501  0.00000000000E+00  0.00000000000E+00 -0.21055895898E+04  0.21055895898E+04  0.50400001928E-02 0. -1.
    10030    2    1    2    0    0  0.00000000000E+00  0.00000000000E+00 -0.44940239630E+03  0.37617767834E+04  0.37348362821E+04 0.  0.
        1    1    3    3  502    0 -0.34518632748E+03 -0.51536513271E+03  0.15493945142E+04  0.16689452302E+04  0.50400001928E-02 0.  1.
       -1    1    3    3    0  502  0.34518632748E+03  0.51536513271E+03 -0.19987969105E+04  0.20928315532E+04  0.50400001928E-02 0. -1.
</event>
<event>
 5   0  0.1084315E-07  0.3248315E+04  0.7818609E-02  0.8176173E-01
        1   -1    0    0  501    0  0.00000000000E+00  0.00000000000E+00  0.29932497497E+04  0.29932497497E+04  0.50400001928E-02 0.  1.
       -1   -1    0    0    0  501  0.00000000000E+00  0.00000000000E+00 -0.88127862535E+03  0.88127862537E+03  0.50400001928E-02 0. -1.
    10030    2    1    2    0    0  0.00000000000E+00  0.00000000000E+00  0.21119711243E+04  0.38745283750E+04  0.32483146552E+04 0.  0.
        4    1    3    3  502    0 -0.15985856366E+04  0.19728506699E+03  0.80724571935E+03  0.18016783008E+04  0.12699999809E+01 0.  1.
       -4    1    3    3    0  502  0.15985856366E+04 -0.19728506699E+03  0.13047254050E+04  0.20728500743E+04  0.12699999809E+01 0. -1.
</event>
<event>
 5   0  0.3509843E-07  0.3772053E+04  0.7818609E-02  0.8052179E-01
        2   -1    0    0  501    0  0.00000000000E+00  0.00000000000E+00  0.27522667570E+04  0.27522667570E+04  0.25500000920E-02 0. -1.
       -2   -1    0    0    0  501  0.00000000000E+00  0.00000000000E+00 -0.12924241596E+04  0.12924241596E+04  0.25500000920E-02 0.  1.
    10030    2    1    2    0    0  0.00000000000E+00  0.00000000000E+00  0.14598425974E+04  0.40446909165E+04  0.37720530486E+04 0.  0.
        4    1    3    3  502    0  0.12087318351E+04 -0.37321887205E+03 -0.77003076144E+03  0.14809706149E+04  0.12699999809E+01 0.  1.
       -4    1    3    3    0  502 -0.12087318351E+04  0.37321887205E+03  0.22298733588E+04  0.25637203016E+04  0.12699999809E+01 0. -1.
</event>
<event>
 5   0  0.3509843E-07  0.3263018E+04  0.7818609E-02  0.8172370E-01
        2   -1    0    0  501    0  0.00000000000E+00  0.00000000000E+00  0.14439668305E+04  0.14439668305E+04  0.25500000920E-02 0. -1.
       -2   -1    0    0    0  501  0.00000000000E+00  0.00000000000E+00 -0.18434095493E+04  0.18434095493E+04  0.25500000920E-02 0.  1.
    10030    2    1    2    0    0  0.00000000000E+00  0.00000000000E+00 -0.39944271880E+03  0.32873763798E+04  0.32630183844E+04 0.  0.
        4    1    3    3  502    0  0.10765794508E+04 -0.80221395430E+03  0.73415569027E+03  0.15302146035E+04  0.12699999809E+01 0. -1.
       -4    1    3    3    0  502 -0.10765794508E+04  0.80221395430E+03 -0.11335984091E+04  0.17571617763E+04  0.12699999809E+01 0.  1.
</event>
<event>
 5   0  0.1070988E-07  0.3805718E+04  0.7818609E-02  0.8044929E-01
        1   -1    0    0  501    0  0.00000000000E+00  0.00000000000E+00  0.17007993309E+04  0.17007993310E+04  0.50400001928E-02 0. -1.
       -1   -1    0    0    0  501  0.00000000000E+00  0.00000000000E+00 -0.21289236310E+04  0.21289236310E+04  0.50400001928E-02 0.  1.
    10030    2    1    2    0    0  0.00000000000E+00  0.00000000000E+00 -0.42812430007E+03  0.38297229620E+04  0.38057177443E+04 0.  0.
        5    1    3    3  502    0 -0.13682094458E+04 -0.23429486443E+03 -0.15237933792E+04  0.20612761881E+04  0.46999998093E+01 0.  1.
       -5    1    3    3    0  502  0.13682094458E+04  0.23429486443E+03  0.10956690791E+04  0.17684467739E+04  0.46999998093E+01 0. -1.
</event>
<event>
 5   0  0.3442126E-07  0.3782512E+04  0.7818609E-02  0.8049918E-01
        2   -1    0    0  501    0  0.00000000000E+00  0.00000000000E+00  0.12170594498E+04  0.12170594498E+04  0.25500000920E-02 0. -1.
       -2   -1    0    0    0  501  0.00000000000E+00  0.00000000000E+00 -0.29389271357E+04  0.29389271357E+04  0.25500000920E-02 0.  1.
    10030    2    1    2    0    0  0.00000000000E+00  0.00000000000E+00 -0.17218676859E+04  0.41559865856E+04  0.37825118865E+04 0.  0.
        2    1    3    3  502    0 -0.13324809845E+04 -0.26253995120E+03  0.58523819169E+03  0.14788294496E+04  0.25500000920E-02 0. -1.
       -2    1    3    3    0  502  0.13324809845E+04  0.26253995120E+03 -0.23071058776E+04  0.26771571359E+04  0.25500000920E-02 0.  1.
</event>
<event>
 5   0  0.1070988E-07  0.3794108E+04  0.7818609E-02  0.8047420E-01
       -3   -1    0    0    0  501  0.00000000000E+00  0.00000000000E+00  0.14778548550E+04  0.14778548584E+04  0.10100000352E+00 0. -1.
        3   -1    0    0  501    0  0.00000000000E+00  0.00000000000E+00 -0.24351611767E+04  0.24351611788E+04  0.10100000352E+00 0.  1.
    10030    2    1    2    0    0  0.00000000000E+00  0.00000000000E+00 -0.95730632170E+03  0.39130160372E+04  0.37941084742E+04 0.  0.
        3    1    3    3  502    0 -0.16320802788E+04  0.57629207523E+03  0.32222484260E+03  0.17605758864E+04  0.10100000352E+00 0.  1.
       -3    1    3    3    0  502  0.16320802788E+04 -0.57629207523E+03 -0.12795311643E+04  0.21524401508E+04  0.10100000352E+00 0. -1.
</event>
<event>
 5   0  0.3539010E-07  0.3782534E+04  0.7818609E-02  0.8049913E-01
        2   -1    0    0  501    0  0.00000000000E+00  0.00000000000E+00  0.14101324698E+04  0.14101324698E+04  0.25500000920E-02 0. -1.
       -2   -1    0    0    0  501  0.00000000000E+00  0.00000000000E+00 -0.25365641669E+04  0.25365641669E+04  0.25500000920E-02 0.  1.
    10030    2    1    2    0    0  0.00000000000E+00  0.00000000000E+00 -0.11264316971E+04  0.39466966367E+04  0.37825343322E+04 0.  0.
        1    1    3    3  502    0 -0.61312993528E+03  0.93843100479E+03  0.10261501309E+04  0.15197253566E+04  0.50400001928E-02 0. -1.
       -1    1    3    3    0  502  0.61312993528E+03 -0.93843100479E+03 -0.21525818280E+04  0.24269712801E+04  0.50400001928E-02 0.  1.
</event>
<event>
 5   0  0.3509843E-07  0.3291019E+04  0.7818609E-02  0.8165184E-01
       -2   -1    0    0    0  501  0.00000000000E+00  0.00000000000E+00  0.10110923025E+04  0.10110923025E+04  0.25500000920E-02 0. -1.
        2   -1    0    0  501    0  0.00000000000E+00  0.00000000000E+00 -0.26779964436E+04  0.26779964436E+04  0.25500000920E-02 0.  1.
    10030    2    1    2    0    0  0.00000000000E+00  0.00000000000E+00 -0.16669041411E+04  0.36890887460E+04  0.32910190459E+04 0.  0.
        4    1    3    3  502    0 -0.90566011497E+03 -0.58609911393E+03 -0.22263131179E+04  0.24739046318E+04  0.12699999809E+01 0.  1.
       -4    1    3    3    0  502  0.90566011497E+03  0.58609911393E+03  0.55940897683E+03  0.12151841142E+04  0.12699999809E+01 0. -1.
</event>
<event>
 5   0  0.1070988E-07  0.3795333E+04  0.7818609E-02  0.8047157E-01
        1   -1    0    0  501    0  0.00000000000E+00  0.00000000000E+00  0.10613920209E+04  0.10613920209E+04  0.50400001928E-02 0. -1.
       -1   -1    0    0    0  501  0.00000000000E+00  0.00000000000E+00 -0.33928449175E+04  0.33928449175E+04  0.50400001928E-02 0.  1.
    10030    2    1    2    0    0  0.00000000000E+00  0.00000000000E+00 -0.23314528966E+04  0.44542369384E+04  0.37953331994E+04 0.  0.
        5    1    3    3  502    0 -0.43515274984E+03  0.12593416882E+04  0.42008676634E+03  0.13970663494E+04  0.46999998093E+01 0. -1.
       -5    1    3    3    0  502  0.43515274984E+03 -0.12593416882E+04 -0.27515396630E+04  0.30571705890E+04  0.46999998093E+01 0.  1.
</event>
<event>
 5   0  0.3509843E-07  0.3795226E+04  0.7818609E-02  0.8047180E-01
        2   -1    0    0  501    0  0.00000000000E+00  0.00000000000E+00  0.15393258115E+04  0.15393258115E+04  0.25500000920E-02 0. -1.
       -2   -1    0    0    0  501  0.00000000000E+00  0.00000000000E+00 -0.23392941789E+04  0.23392941789E+04  0.25500000920E-02 0.  1.
    10030    2    1    2    0    0  0.00000000000E+00  0.00000000000E+00 -0.79996836741E+03  0.38786199904E+04  0.37952264281E+04 0.  0.
        4    1    3    3  502    0 -0.70273189946E+03 -0.17485535053E+04 -0.62773251402E+03  0.19862832641E+04  0.12699999809E+01 0.  1.
       -4    1    3    3    0  502  0.70273189946E+03  0.17485535053E+04 -0.17223585339E+03  0.18923367262E+04  0.12699999809E+01 0. -1.
</event>
<event>
 5   0  0.3377396E-07  0.3793617E+04  0.7818609E-02  0.8047526E-01
        2   -1    0    0  501    0  0.00000000000E+00  0.00000000000E+00  0.25951667126E+04  0.25951667126E+04  0.25500000920E-02 0. -1.
       -2   -1    0    0    0  501  0.00000000000E+00  0.00000000000E+00 -0.13863781748E+04  0.13863781748E+04  0.25500000920E-02 0.  1.
    10030    2    1    2    0    0  0.00000000000E+00  0.00000000000E+00  0.12087885378E+04  0.39815448873E+04  0.37936170024E+04 0.  0.
        5    1    3    3  502    0  0.27510829384E+03 -0.91641742383E+03 -0.11145280674E+04  0.14689112877E+04  0.46999998093E+01 0.  1.
       -5    1    3    3    0  502 -0.27510829384E+03  0.91641742383E+03  0.23233166052E+04  0.25126335996E+04  0.46999998093E+01 0. -1.
</event>
<event>
 5   0  0.3539010E-07  0.3771147E+04  0.7818609E-02  0.8052375E-01
       -2   -1    0    0    0  501  0.00000000000E+00  0.00000000000E+00  0.19086054462E+04  0.19086054462E+04  0.25500000920E-02 0. -1.
        2   -1    0    0  501    0  0.00000000000E+00  0.00000000000E+00 -0.18628199321E+04  0.18628199321E+04  0.25500000920E-02 0.  1.
    10030    2    1    2    0    0  0.00000000000E+00  0.00000000000E+00  0.45785514032E+02  0.37714253783E+04  0.37711474475E+04 0.  0.
        1    1    3    3  502    0  0.16456460114E+04  0.85009647353E+03  0.37586842328E+03  0.18899978521E+04  0.50400001928E-02 0. -1.
       -1    1    3    3    0  502 -0.16456460114E+04 -0.85009647353E+03 -0.33008290925E+03  0.18814275262E+04  0.50400001928E-02 0.  1.
</event>
<event>
 5   0  0.1084315E-07  0.3304486E+04  0.7818609E-02  0.8161755E-01
       -1   -1    0    0    0  501  0.00000000000E+00  0.00000000000E+00  0.12943854853E+04  0.12943854853E+04  0.50400001928E-02 0.  1.
        1   -1    0    0  501    0  0.00000000000E+00  0.00000000000E+00 -0.21090376000E+04  0.21090376000E+04  0.50400001928E-02 0. -1.
    10030    2    1    2    0    0  0.00000000000E+00  0.00000000000E+00 -0.81465211471E+03  0.34034230853E+04  0.33044864396E+04 0.  0.
        4    1    3    3  502    0 -0.46241946255E+03  0.64560109046E+03  0.10849407528E+04  0.13445187159E+04  0.12699999809E+01 0.  1.
       -4    1    3    3    0  502  0.46241946255E+03 -0.64560109046E+03 -0.18995928675E+04  0.20589043694E+04  0.12699999809E+01 0. -1.
</event>
<event>
 5   0  0.3539010E-07  0.3816281E+04  0.7818609E-02  0.8042670E-01
        2   -1    0    0  501    0  0.00000000000E+00  0.00000000000E+00  0.14377614575E+04  0.14377614575E+04  0.25500000920E-02 0.  1.
       -2   -1    0    0    0  501  0.00000000000E+00  0.00000000000E+00 -0.25324093904E+04  0.25324093904E+04  0.25500000920E-02 0. -1.
    10030    2    1    2    0    0  0.00000000000E+00  0.00000000000E+00 -0.10946479328E+04  0.39701708479E+04  0.38162812350E+04 0.  0.
        1    1    3    3  502    0 -0.13563790765E+04 -0.17515319060E+03 -0.19316037483E+04  0.23667564048E+04  0.50400001928E-02 0. -1.
       -1    1    3    3    0  502  0.13563790765E+04  0.17515319060E+03  0.83695581545E+03  0.16034144431E+04  0.50400001928E-02 0.  1.
</event>
<event>
 5   0  0.1084315E-07  0.3769229E+04  0.7818609E-02  0.8052791E-01
       -1   -1    0    0    0  501  0.00000000000E+00  0.00000000000E+00  0.23712305632E+04  0.23712305632E+04  0.50400001928E-02 0. -1.
        1   -1    0    0  501    0  0.00000000000E+00  0.00000000000E+00 -0.14978604228E+04  0.14978604228E+04  0.50400001928E-02 0.  1.
    10030    2    1    2    0    0  0.00000000000E+00  0.00000000000E+00  0.87337014036E+03  0.38690909860E+04  0.37692293186E+04 0.  0.
        4    1    3    3  502    0  0.10186300100E+04 -0.57209245586E+03  0.19546727802E+04  0.22772009498E+04  0.12699999809E+01 0. -1.
       -4    1    3    3    0  502 -0.10186300100E+04  0.57209245586E+03 -0.10813026399E+04  0.15918900362E+04  0.12699999809E+01 0.  1.
</event>
<event>
 5   0  0.3327241E-07  0.3802200E+04  0.7818609E-02  0.8045683E-01
       -2   -1    0    0    0  501  0.00000000000E+00  0.00000000000E+00  0.11627250794E+04  0.11627250794E+04  0.25500000920E-02 0.  1.
        2   -1    0    0  501    0  0.00000000000E+00  0.00000000000E+00 -0.31083713807E+04  0.31083713807E+04  0.25500000920E-02 0. -1.
    10030    2    1    2    0    0  0.00000000000E+00  0.00000000000E+00 -0.19456463013E+04  0.42710964601E+04  0.38022000791E+04 0.  0.
        3    1    3    3  502    0 -0.85503926060E+03 -0.14944023734E+04 -0.67275665842E+02  0.17230370328E+04  0.10100000352E+00 0.  1.
       -3    1    3    3    0  502  0.85503926060E+03  0.14944023734E+04 -0.18783706354E+04  0.25480594273E+04  0.10100000352E+00 0. -1.
</event>
<event>
 5   0  0.1084315E-07  0.3817578E+04  0.7818609E-02  0.8042393E-01
       -1   -1    0    0    0  501  0.00000000000E+00  0.00000000000E+00  0.12812536425E+04  0.12812536426E+04  0.50400001928E-02 0. -1.
        1   -1    0    0  501    0  0.00000000000E+00  0.00000000000E+00 -0.28436796859E+04  0.28436796859E+04  0.50400001928E-02 0.  1.
    10030    2    1    2    0    0  0.00000000000E+00  0.00000000000E+00 -0.15624260434E+04  0.41249333285E+04  0.38175777429E+04 0.  0.
        4    1    3    3  502    0 -0.64458729841E+02  0.48252045706E+03  0.12130514722E+04  0.13070869927E+04  0.12699999809E+01 0. -1.
       -4    1    3    3    0  502  0.64458729841E+02 -0.48252045706E+03 -0.27754775156E+04  0.28178463357E+04  0.12699999809E+01 0.  1.
</event>
<event>
 5   0  0.1085771E-07  0.3713420E+04  0.7818609E-02  0.8064994E-01
        1   -1    0    0  501    0  0.00000000000E+00  0.00000000000E+00  0.14749397884E+04  0.14749397885E+04  0.50400001928E-02 0.  1.
       -1   -1    0    0    0  501  0.00000000000E+00  0.00000000000E+00 -0.23372967311E+04  0.23372967311E+04  0.50400001928E-02 0. -1.
    10030    2    1    2    0    0  0.00000000000E+00  0.00000000000E+00 -0.86235694267E+03  0.38122365196E+04  0.37134199580E+04 0.  0.
        1    1    3    3  502    0 -0.36078196811E+03  0.60712071863E+03  0.13316686053E+04  0.15073488215E+04  0.50400001928E-02 0.  1.
       -1    1    3    3    0  502  0.36078196811E+03 -0.60712071863E+03 -0.21940255479E+04  0.23048876980E+04  0.50400001928E-02 0. -1.
</event>
<event>
 5   0  0.3327241E-07  0.3286526E+04  0.7818609E-02  0.8166332E-01
       -2   -1    0    0    0  501  0.00000000000E+00  0.00000000000E+00  0.10938376195E+04  0.10938376195E+04  0.25500000920E-02 0.  1.
        2   -1    0    0  501    0  0.00000000000E+00  0.00000000000E+00 -0.24686598932E+04  0.24686598932E+04  0.25500000920E-02 0. -1.
    10030    2    1    2    0    0  0.00000000000E+00  0.00000000000E+00 -0.13748222738E+04  0.35624975127E+04  0.32865258623E+04 0.  0.
        3    1    3    3  502    0  0.75188364339E+02 -0.15126072503E+04 -0.13786743168E+04  0.20480177894E+04  0.10100000352E+00 0. -1.
       -3    1    3    3    0  502 -0.75188364339E+02  0.15126072503E+04  0.38520430022E+01  0.15144797233E+04  0.10100000352E+00 0.  1.
</event>
<event>
 5   0  0.3509843E-07  0.4182411E+04  0.7818609E-02  0.7968726E-01
       -2   -1    0    0    0  501  0.00000000000E+00  0.00000000000E+00  0.18719708117E+04  0.18719708117E+04  0.25500000920E-02 0. -1.
        2   -1    0    0  501    0  0.00000000000E+00  0.00000000000E+00 -0.23361160801E+04  0.23361160801E+04  0.25500000920E-02 0.  1.
    10030    2    1    2    0    0  0.00000000000E+00  0.00000000000E+00 -0.46414526833E+03  0.42080868918E+04  0.41824113211E+04 0.  0.
        4    1    3    3  502    0  0.55144846460E+03 -0.76667012249E+03 -0.21093405200E+04  0.23111030977E+04  0.12699999809E+01 0.  1.
       -4    1    3    3    0  502 -0.55144846460E+03  0.76667012249E+03  0.16451952517E+04  0.18969837941E+04  0.12699999809E+01 0. -1.
</event>
<event>
 5   0  0.1070988E-07  0.3775926E+04  0.7818609E-02  0.8051341E-01
        3   -1    0    0  501    0  0.00000000000E+00  0.00000000000E+00  0.15605213145E+04  0.15605213178E+04  0.10100000352E+00 0.  1.
       -3   -1    0    0    0  501  0.00000000000E+00  0.00000000000E+00 -0.22841108135E+04  0.22841108157E+04  0.10100000352E+00 0. -1.
    10030    2    1    2    0    0  0.00000000000E+00  0.00000000000E+00 -0.72358949897E+03  0.38446321335E+04  0.37759256453E+04 0.  0.
        3    1    3    3  502    0 -0.10487317530E+03  0.16412707256E+04 -0.13058307627E+04  0.20999909449E+04  0.10100000352E+00 0. -1.
       -3    1    3    3    0  502  0.10487317530E+03 -0.16412707256E+04  0.58224126369E+03  0.17446411886E+04  0.10100000352E+00 0.  1.
</event>
<event>
 5   0  0.3539010E-07  0.3802663E+04  0.7818609E-02  0.8045584E-01
        2   -1    0    0  501    0  0.00000000000E+00  0.00000000000E+00  0.20677567993E+04  0.20677567993E+04  0.25500000920E-02 0.  1.
       -2   -1    0    0    0  501  0.00000000000E+00  0.00000000000E+00 -0.17483011790E+04  0.17483011790E+04  0.25500000920E-02 0. -1.
    10030    2    1    2    0    0  0.00000000000E+00  0.00000000000E+00  0.31945562025E+03  0.38160579783E+04  0.38026630932E+04 0.  0.
        1    1    3    3  502    0  0.17590758910E+04 -0.60117659239E+03 -0.24080260417E+03  0.18744991810E+04  0.50400001928E-02 0. -1.
       -1    1    3    3    0  502 -0.17590758910E+04  0.60117659239E+03  0.56025822442E+03  0.19415587973E+04  0.50400001928E-02 0.  1.
</event>
<event>
 5   0  0.3327241E-07  0.3675921E+04  0.7818609E-02  0.8073319E-01
        2   -1    0    0  501    0  0.00000000000E+00  0.00000000000E+00  0.19123449710E+04  0.19123449710E+04  0.25500000920E-02 0. -1.
       -2   -1    0    0    0  501  0.00000000000E+00  0.00000000000E+00 -0.17664688992E+04  0.17664688992E+04  0.25500000920E-02 0.  1.
    10030    2    1    2    0    0  0.00000000000E+00  0.00000000000E+00  0.14587607176E+03  0.36788138702E+04  0.36759205192E+04 0.  0.
        3    1    3    3  502    0 -0.18301799528E+04  0.46153078825E+02 -0.89698766480E+02  0.18329578951E+04  0.10100000352E+00 0. -1.
       -3    1    3    3    0  502  0.18301799528E+04 -0.46153078825E+02  0.23557483824E+03  0.18458559751E+04  0.10100000352E+00 0.  1.
</event>
<event>
 5   0  0.1085771E-07  0.3665764E+04  0.7818609E-02  0.8075591E-01
       -1   -1    0    0    0  501  0.00000000000E+00  0.00000000000E+00  0.17053157910E+04  0.17053157911E+04  0.50400001928E-02 0.  1.
        1   -1    0    0  501    0  0.00000000000E+00  0.00000000000E+00 -0.19699911908E+04  0.19699911908E+04  0.50400001928E-02 0. -1.
    10030    2    1    2    0    0  0.00000000000E+00  0.00000000000E+00 -0.26467539975E+03  0.36753069819E+04  0.36657643601E+04 0.  0.
        1    1    3    3  502    0 -0.10981967529E+04  0.14666865580E+04 -0.17991138918E+03  0.18410794864E+04  0.50400001928E-02 0.  1.
       -1    1    3    3    0  502  0.10981967529E+04 -0.14666865580E+04 -0.84764010569E+02  0.18342274954E+04  0.50400001928E-02 0. -1.
</event>
<event>
 5   0  0.1085771E-07  0.3745866E+04  0.7818609E-02  0.8057873E-01
        1   -1    0    0  501    0  0.00000000000E+00  0.00000000000E+00  0.16722409289E+04  0.16722409289E+04  0.50400001928E-02 0.  1.
       -1   -1    0    0    0  501  0.00000000000E+00  0.00000000000E+00 -0.20977103492E+04  0.20977103492E+04  0.50400001928E-02 0. -1.
    10030    2    1    2    0    0  0.00000000000E+00  0.00000000000E+00 -0.42546942029E+03  0.37699512781E+04  0.37458655091E+04 0.  0.
        1    1    3    3  502    0 -0.10084139789E+03  0.53472036420E+03  0.15909333042E+04  0.16814171504E+04  0.50400001928E-02 0.  1.
       -1    1    3    3    0  502  0.10084139789E+03 -0.53472036420E+03 -0.20164027245E+04  0.20885341277E+04  0.50400001928E-02 0. -1.
</event>
<event>
 5   0  0.1070988E-07  0.3804381E+04  0.7818609E-02  0.8045215E-01
        1   -1    0    0  501    0  0.00000000000E+00  0.00000000000E+00  0.29709716287E+04  0.29709716287E+04  0.50400001928E-02 0. -1.
       -1   -1    0    0    0  501  0.00000000000E+00  0.00000000000E+00 -0.12178937597E+04  0.12178937597E+04  0.50400001928E-02 0.  1.
    10030    2    1    2    0    0  0.00000000000E+00  0.00000000000E+00  0.17530778691E+04  0.41888653884E+04  0.38043805314E+04 0.  0.
        3    1    3    3  502    0  0.15736236871E+04  0.18652536453E+03  0.20351408297E+04  0.25793180159E+04  0.10100000352E+00 0. -1.
       -3    1    3    3    0  502 -0.15736236871E+04 -0.18652536453E+03 -0.28206296067E+03  0.16095473725E+04  0.10100000352E+00 0.  1.
</event>
<event>
 5   0  0.1070988E-07  0.3736158E+04  0.7818609E-02  0.8059996E-01
       -1   -1    0    0    0  501  0.00000000000E+00  0.00000000000E+00  0.13985417992E+04  0.13985417992E+04  0.50400001928E-02 0. -1.
        1   -1    0    0  501    0  0.00000000000E+00  0.00000000000E+00 -0.24952556039E+04  0.24952556039E+04  0.50400001928E-02 0.  1.
    10030    2    1    2    0    0  0.00000000000E+00  0.00000000000E+00 -0.10967138047E+04  0.38937974031E+04  0.37361580596E+04 0.  0.
        5    1    3    3  502    0 -0.76567508575E+03  0.62018466166E+03  0.11056823021E+04  0.14810276144E+04  0.46999998093E+01 0. -1.
       -5    1    3    3    0  502  0.76567508575E+03 -0.62018466166E+03 -0.22023961068E+04  0.24127697886E+04  0.46999998093E+01 0.  1.
</event>
<event>
 5   0  0.1070988E-07  0.3766632E+04  0.7818609E-02  0.8053354E-01
       -1   -1    0    0    0  501  0.00000000000E+00  0.00000000000E+00  0.16730672581E+04  0.16730672581E+04  0.50400001928E-02 0. -1.
        1   -1    0    0  501    0  0.00000000000E+00  0.00000000000E+00 -0.21199863239E+04  0.21199863239E+04  0.50400001928E-02 0.  1.
    10030    2    1    2    0    0  0.00000000000E+00  0.00000000000E+00 -0.44691906575E+03  0.37930535820E+04  0.37666322922E+04 0.  0.
        5    1    3    3  502    0 -0.16307998905E+04  0.53975642216E+03 -0.10008932599E+04  0.19881284379E+04  0.46999998093E+01 0.  1.
       -5    1    3    3    0  502  0.16307998905E+04 -0.53975642216E+03  0.55397419411E+03  0.18049251441E+04  0.46999998093E+01 0. -1.
</event>
<event>
 5   0  0.3509843E-07  0.3441394E+04  0.7818609E-02  0.8127821E-01
       -2   -1    0    0    0  501  0.00000000000E+00  0.00000000000E+00  0.10581815651E+04  0.10581815652E+04  0.25500000920E-02 0. -1.
        2   -1    0    0  501    0  0.00000000000E+00  0.00000000000E+00 -0.27980063138E+04  0.27980063138E+04  0.25500000920E-02 0.  1.
    10030    2    1    2    0    0  0.00000000000E+00  0.00000000000E+00 -0.17398247487E+04  0.38561878790E+04  0.34413943107E+04 0.  0.
        4    1    3    3  502    0  0.14847802756E+04 -0.44192450774E+03 -0.30689994418E+02  0.15494557839E+04  0.12699999809E+01 0. -1.
       -4    1    3    3    0  502 -0.14847802756E+04  0.44192450774E+03 -0.17091347542E+04  0.23067320951E+04  0.12699999809E+01 0.  1.
</event>
<event>
 5   0  0.3539010E-07  0.3811046E+04  0.7818609E-02  0.8043789E-01
       -2   -1    0    0    0  501  0.00000000000E+00  0.00000000000E+00  0.19038898755E+04  0.19038898755E+04  0.25500000920E-02 0.  1.
        2   -1    0    0  501    0  0.00000000000E+00  0.00000000000E+00 -0.19071573439E+04  0.19071573440E+04  0.25500000920E-02 0. -1.
    10030    2    1    2    0    0  0.00000000000E+00  0.00000000000E+00 -0.32674684364E+01  0.38110472195E+04  0.38110458188E+04 0.  0.
        1    1    3    3  502    0  0.15059935383E+04 -0.15732828258E+03 -0.11584612131E+04  0.19065154361E+04  0.50400001928E-02 0. -1.
       -1    1    3    3    0  502 -0.15059935383E+04  0.15732828258E+03  0.11551937447E+04  0.19045317833E+04  0.50400001928E-02 0.  1.
</event>
<event>
 5   0  0.1084315E-07  0.3733503E+04  0.7818609E-02  0.8060577E-01
       -1   -1    0    0    0  501  0.00000000000E+00  0.00000000000E+00  0.17998059072E+04  0.17998059072E+04  0.50400001928E-02 0.  1.
        1   -1    0    0  501    0  0.00000000000E+00  0.00000000000E+00 -0.19361873215E+04  0.19361873215E+04  0.50400001928E-02 0. -1.
    10030    2    1    2    0    0  0.00000000000E+00  0.00000000000E+00 -0.13638141431E+03  0.37359932287E+04  0.37335031157E+04 0.  0.
        4    1    3    3  502    0 -0.81781158559E+03  0.28058754374E+03 -0.17237471310E+04  0.19284322503E+04  0.12699999809E+01 0. -1.
       -4    1    3    3    0  502  0.81781158559E+03 -0.28058754374E+03  0.15873657167E+04  0.18075609784E+04  0.12699999809E+01 0.  1.
</event>
<event>
 5   0  0.3377396E-07  0.3814442E+04  0.7818609E-02  0.8043063E-01
        2   -1    0    0  501    0  0.00000000000E+00  0.00000000000E+00  0.18436732489E+04  0.18436732489E+04  0.25500000920E-02 0. -1.
       -2   -1    0    0    0  501  0.00000000000E+00  0.00000000000E+00 -0.19729592301E+04  0.19729592301E+04  0.25500000920E-02 0.  1.
    10030    2    1    2    0    0  0.00000000000E+00  0.00000000000E+00 -0.12928598125E+03  0.38166324790E+04  0.38144421106E+04 0.  0.
        5    1    3    3  502    0  0.53423691015E+03  0.15731799956E+04  0.87246605778E+03  0.18765722706E+04  0.46999998093E+01 0. -1.
       -5    1    3    3    0  502 -0.53423691015E+03 -0.15731799956E+04 -0.10017520390E+04  0.19400602084E+04  0.46999998093E+01 0.  1.
</event>
<event>
 5   0  0.1070988E-07  0.3815251E+04  0.7818609E-02  0.8042890E-01
        1   -1    0    0  501    0  0.00000000000E+00  0.00000000000E+00  0.20247176356E+04  0.20247176356E+04  0.50400001928E-02 0. -1.
       -1   -1    0    0    0  501  0.00000000000E+00  0.00000000000E+00 -0.17973053899E+04  0.17973053899E+04  0.50400001928E-02 0.  1.
    10030    2    1    2    0    0  0.00000000000E+00  0.00000000000E+00  0.22741224574E+03  0.38220230255E+04  0.38152514567E+04 0.  0.
        2    1    3    3  502    0 -0.92237783812E+03  0.70683735209E+03 -0.14018027901E+04  0.18208379886E+04  0.25500000920E-02 0.  1.
       -2    1    3    3    0  502  0.92237783812E+03 -0.70683735209E+03  0.16292150358E+04  0.20011850368E+04  0.25500000920E-02 0. -1.
</event>
<event>
 5   0  0.3442126E-07  0.3718889E+04  0.7818609E-02  0.8063789E-01
        2   -1    0    0  501    0  0.00000000000E+00  0.00000000000E+00  0.14658505431E+04  0.14658505431E+04  0.25500000920E-02 0. -1.
       -2   -1    0    0    0  501  0.00000000000E+00  0.00000000000E+00 -0.23587225529E+04  0.23587225529E+04  0.25500000920E-02 0.  1.
    10030    2    1    2    0    0  0.00000000000E+00  0.00000000000E+00 -0.89287200980E+03  0.38245730960E+04  0.37188894768E+04 0.  0.
        2    1    3    3  502    0 -0.44799349700E+03 -0.11459732338E+04 -0.18801783696E+04  0.22470032326E+04  0.25500000920E-02 0.  1.
       -2    1    3    3    0  502  0.44799349700E+03  0.11459732338E+04  0.98730635978E+03  0.15775698634E+04  0.25500000920E-02 0. -1.
</event>
<event>
 5   0  0.3327241E-07  0.3775263E+04  0.7818609E-02  0.8051484E-01
       -2   -1    0    0    0  501  0.00000000000E+00  0.00000000000E+00  0.18780932615E+04  0.18780932615E+04  0.25500000920E-02 0. -1.
        2   -1    0    0  501    0  0.00000000000E+00  0.00000000000E+00 -0.18972179404E+04  0.18972179404E+04  0.25500000920E-02 0.  1.
    10030    2    1    2    0    0  0.00000000000E+00  0.00000000000E+00 -0.19124678898E+02  0.37753112018E+04  0.37752627614E+04 0.  0.
        3    1    3    3  502    0  0.18282028516E+04  0.37584092192E+03  0.27252310130E+03  0.18862266344E+04  0.10100000352E+00 0. -1.
       -3    1    3    3    0  502 -0.18282028516E+04 -0.37584092192E+03 -0.29164778020E+03  0.18890845675E+04  0.10100000352E+00 0.  1.
</event>
<event>
 5   0  0.3539010E-07  0.3760089E+04  0.7818609E-02  0.8054774E-01
        2   -1    0    0  501    0  0.00000000000E+00  0.00000000000E+00  0.24782866082E+04  0.24782866082E+04  0.25500000920E-02 0.  1.
       -2   -1    0    0    0  501  0.00000000000E+00  0.00000000000E+00 -0.14262142111E+04  0.14262142111E+04  0.25500000920E-02 0. -1.
    10030    2    1    2    0    0  0.00000000000E+00  0.00000000000E+00  0.10520723971E+04  0.39045008193E+04  0.37600891371E+04 0.  0.
        1    1    3    3  502    0  0.56938521147E+03  0.13128168676E+04 -0.74017260266E+03  0.16110689397E+04  0.50400001928E-02 0. -1.
       -1    1    3    3    0  502 -0.56938521147E+03 -0.13128168676E+04  0.17922449998E+04  0.22934318795E+04  0.50400001928E-02 0.  1.
</event>
<event>
 5   0  0.3509843E-07  0.3788328E+04  0.7818609E-02  0.8048664E-01
        2   -1    0    0  501    0  0.00000000000E+00  0.00000000000E+00  0.11118480341E+04  0.11118480341E+04  0.25500000920E-02 0. -1.
       -2   -1    0    0    0  501  0.00000000000E+00  0.00000000000E+00 -0.32269317512E+04  0.32269317512E+04  0.25500000920E-02 0.  1.
    10030    2    1    2    0    0  0.00000000000E+00  0.00000000000E+00 -0.21150837171E+04  0.43387797853E+04  0.37883282454E+04 0.  0.
        4    1    3    3  502    0  0.30824998006E+03  0.71491601525E+03  0.92013072515E+03  0.12053070660E+04  0.12699999809E+01 0. -1.
       -4    1    3    3    0  502 -0.30824998006E+03 -0.71491601525E+03 -0.30352144423E+04  0.31334727193E+04  0.12699999809E+01 0.  1.
</event>
<event>
 5   0  0.1070988E-07  0.3847849E+04  0.7818609E-02  0.8035964E-01
       -1   -1    0    0    0  501  0.00000000000E+00  0.00000000000E+00  0.27850492366E+04  0.27850492366E+04  0.50400001928E-02 0.  1.
        1   -1    0    0  501    0  0.00000000000E+00  0.00000000000E+00 -0.13290554101E+04  0.13290554101E+04  0.50400001928E-02 0. -1.
    10030    2    1    2    0    0  0.00000000000E+00  0.00000000000E+00  0.14559938265E+04  0.41141046467E+04  0.38478486224E+04 0.  0.
        5    1    3    3  502    0  0.10199422290E+04  0.15164489234E+04  0.13709058361E+04  0.22845796964E+04  0.46999998093E+01 0.  1.
       -5    1    3    3    0  502 -0.10199422290E+04 -0.15164489234E+04  0.85087990377E+02  0.18295249503E+04  0.46999998093E+01 0. -1.
</event>
<event>
 5   0  0.1084315E-07  0.3340675E+04  0.7818609E-02  0.8152622E-01
        1   -1    0    0  501    0  0.00000000000E+00  0.00000000000E+00  0.17366078736E+04  0.17366078736E+04  0.50400001928E-02 0. -1.
       -1   -1    0    0    0  501  0.00000000000E+00  0.00000000000E+00 -0.16065963427E+04  0.16065963427E+04  0.50400001928E-02 0.  1.
    10030    2    1    2    0    0  0.00000000000E+00  0.00000000000E+00  0.13001153097E+03  0.33432042163E+04  0.33406752961E+04 0.  0.
        4    1    3    3  502    0 -0.35354458976E+03 -0.97161250937E+03  0.13778683679E+04  0.17226571039E+04  0.12699999809E+01 0. -1.
       -4    1    3    3    0  502  0.35354458976E+03  0.97161250937E+03 -0.12478568369E+04  0.16205471125E+04  0.12699999809E+01 0.  1.
</event>
<event>
 5   0  0.3327241E-07  0.3548667E+04  0.7818609E-02  0.8102352E-01
       -2   -1    0    0    0  501  0.00000000000E+00  0.00000000000E+00  0.14240658868E+04  0.14240658868E+04  0.25500000920E-02 0.  1.
        2   -1    0    0  501    0  0.00000000000E+00  0.00000000000E+00 -0.22107543502E+04  0.22107543502E+04  0.25500000920E-02 0. -1.
    10030    2    1    2    0    0  0.00000000000E+00  0.00000000000E+00 -0.78668846348E+03  0.36348202370E+04  0.35486672733E+04 0.  0.
        3    1    3    3  502    0 -0.97812726521E+03 -0.17174803468E+03 -0.18994256997E+04  0.21433731204E+04  0.10100000352E+00 0. -1.
       -3    1    3    3    0  502  0.97812726521E+03  0.17174803468E+03  0.11127372363E+04  0.14914471166E+04  0.10100000352E+00 0.  1.
</event>
<event>
 5   0  0.3442126E-07  0.3794357E+04  0.7818609E-02  0.8047367E-01
       -2   -1    0    0    0  501  0.00000000000E+00  0.00000000000E+00  0.30772378799E+04  0.30772378799E+04  0.25500000920E-02 0.  1.
        2   -1    0    0  501    0  0.00000000000E+00  0.00000000000E+00 -0.11696480627E+04  0.11696480627E+04  0.25500000920E-02 0. -1.
    10030    2    1    2    0    0  0.00000000000E+00  0.00000000000E+00  0.19075898173E+04  0.42468859426E+04  0.37943565065E+04 0.  0.
        2    1    3    3  502    0 -0.17325737366E+04 -0.77274259024E+03  0.97450767362E+03  0.21327466023E+04  0.25500000920E-02 0.  1.
       -2    1    3    3    0  502  0.17325737366E+04  0.77274259024E+03  0.93308214365E+03  0.21141393403E+04  0.25500000920E-02 0. -1.
</event>
<event>
 5   0  0.3377396E-07  0.3798026E+04  0.7818609E-02  0.8046579E-01
        2   -1    0    0  501    0  0.00000000000E+00  0.00000000000E+00  0.16783768439E+04  0.16783768439E+04  0.25500000920E-02 0.  1.
       -2   -1    0    0    0  501  0.00000000000E+00  0.00000000000E+00 -0.21486535685E+04  0.21486535685E+04  0.25500000920E-02 0. -1.
    10030    2    1    2    0    0  0.00000000000E+00  0.00000000000E+00 -0.47027672461E+03  0.38270304123E+04  0.37980260109E+04 0.  0.
        5    1    3    3  502    0 -0.31030391724E+03  0.45333847159E+03  0.15965511702E+04  0.16884318227E+04  0.46999998093E+01 0.  1.
       -5    1    3    3    0  502  0.31030391724E+03 -0.45333847159E+03 -0.20668278948E+04  0.21385985896E+04  0.46999998093E+01 0. -1.
</event>
<event>
 5   0  0.1084315E-07  0.3768115E+04  0.7818609E-02  0.8053032E-01
       -1   -1    0    0    0  501  0.00000000000E+00  0.00000000000E+00  0.19176540680E+04  0.19176540680E+04  0.50400001928E-02 0. -1.
        1   -1    0    0  501    0  0.00000000000E+00  0.00000000000E+00 -0.18510498200E+04  0.18510498200E+04  0.50400001928E-02 0.  1.
    10030    2    1    2    0    0  0.00000000000E+00  0.00000000000E+00  0.66604247983E+02  0.37687038880E+04  0.37681152941E+04 0.  0.
        4    1    3    3  502    0  0.90433239792E+03 -0.15696995540E+04 -0.48436719947E+03  0.18752031817E+04  0.12699999809E+01 0. -1.
       -4    1    3    3    0  502 -0.90433239792E+03  0.15696995540E+04  0.55097144745E+03  0.18935007063E+04  0.12699999809E+01 0.  1.
</event>
<event>
 5   0  0.1070988E-07  0.3774407E+04  0.7818609E-02  0.8051669E-01
       -1   -1    0    0    0  501  0.00000000000E+00  0.00000000000E+00  0.18525990832E+04  0.18525990832E+04  0.50400001928E-02 0.  1.
        1   -1    0    0  501    0  0.00000000000E+00  0.00000000000E+00 -0.19224544671E+04  0.19224544671E+04  0.50400001928E-02 0. -1.
    10030    2    1    2    0    0  0.00000000000E+00  0.00000000000E+00 -0.69855383878E+02  0.37750535503E+04  0.37744071764E+04 0.  0.
        3    1    3    3  502    0 -0.83843750554E+03 -0.16450281667E+04  0.35557771104E+03  0.18803006777E+04  0.10100000352E+00 0.  1.
       -3    1    3    3    0  502  0.83843750554E+03  0.16450281667E+04 -0.42543309492E+03  0.18947528726E+04  0.10100000352E+00 0. -1.
</event>
<event>
 5   0  0.3442126E-07  0.3793492E+04  0.7818609E-02  0.8047553E-01
        2   -1    0    0  501    0  0.00000000000E+00  0.00000000000E+00  0.20740785353E+04  0.20740785353E+04  0.25500000920E-02 0.  1.
       -2   -1    0    0    0  501  0.00000000000E+00  0.00000000000E+00 -0.17345755981E+04  0.17345755981E+04  0.25500000920E-02 0. -1.
    10030    2    1    2    0    0  0.00000000000E+00  0.00000000000E+00  0.33950293717E+03  0.38086541335E+04  0.37934923308E+04 0.  0.
        2    1    3    3  502    0  0.65846896724E+03  0.71153074062E+03 -0.14670369592E+04  0.17584239578E+04  0.25500000920E-02 0. -1.
       -2    1    3    3    0  502 -0.65846896724E+03 -0.71153074062E+03  0.18065398964E+04  0.20502301756E+04  0.25500000920E-02 0.  1.
</event>
<event>
 5   0  0.1085771E-07  0.3752533E+04  0.7818609E-02  0.8056419E-01
       -1   -1    0    0    0  501  0.00000000000E+00  0.00000000000E+00  0.19517866440E+04  0.19517866440E+04  0.50400001928E-02 0.  1.
        1   -1    0    0  501    0  0.00000000000E+00  0.00000000000E+00 -0.18036680298E+04  0.18036680298E+04  0.50400001928E-02 0. -1.
    10030    2    1    2    0    0  0.00000000000E+00  0.00000000000E+00  0.14811861418E+03  0.37554546738E+04  0.37525325692E+04 0.  0.
        1    1    3    3  502    0  0.13797831743E+04  0.60286450957E+03 -0.10462443715E+04  0.18335415211E+04  0.50400001928E-02 0. -1.
       -1    1    3    3    0  502 -0.13797831743E+04 -0.60286450957E+03  0.11943629856E+04  0.19219131527E+04  0.50400001928E-02 0.  1.
</event>
<event>
 5   0  0.3509843E-07  0.3826589E+04  0.7818609E-02  0.8040473E-01
        2   -1    0    0  501    0  0.00000000000E+00  0.00000000000E+00  0.16409414108E+04  0.16409414108E+04  0.25500000920E-02 0.  1.
       -2   -1    0    0    0  501  0.00000000000E+00  0.00000000000E+00 -0.22308515906E+04  0.22308515906E+04  0.25500000920E-02 0. -1.
    10030    2    1    2    0    0  0.00000000000E+00  0.00000000000E+00 -0.58991017980E+03  0.38717930014E+04  0.38265894770E+04 0.  0.
        4    1    3    3  502    0  0.13800852061E+04 -0.13211571439E+04 -0.39914613043E+03  0.19517711498E+04  0.12699999809E+01 0. -1.
       -4    1    3    3    0  502 -0.13800852061E+04  0.13211571439E+04 -0.19076404937E+03  0.19200218516E+04  0.12699999809E+01 0.  1.
</event>
<event>
 5   0  0.1070988E-07  0.3831837E+04  0.7818609E-02  0.8039357E-01
       -1   -1    0    0    0  501  0.00000000000E+00  0.00000000000E+00  0.30830779542E+04  0.30830779542E+04  0.50400001928E-02 0.  1.
        1   -1    0    0  501    0  0.00000000000E+00  0.00000000000E+00 -0.11906103607E+04  0.11906103607E+04  0.50400001928E-02 0. -1.
    10030    2    1    2    0    0  0.00000000000E+00  0.00000000000E+00  0.18924675935E+04  0.42736883149E+04  0.38318374471E+04 0.  0.
        5    1    3    3  502    0  0.10239897832E+04 -0.13106816571E+04  0.20068236476E+04  0.26064928016E+04  0.46999998093E+01 0.  1.
       -5    1    3    3    0  502 -0.10239897832E+04  0.13106816571E+04 -0.11435605412E+03  0.16671955133E+04  0.46999998093E+01 0. -1.
</event>
<event>
 5   0  0.3377396E-07  0.3820160E+04  0.7818609E-02  0.8041842E-01
        2   -1    0    0  501    0  0.00000000000E+00  0.00000000000E+00  0.29529289441E+04  0.29529289441E+04  0.25500000920E-02 0.  1.
       -2   -1    0    0    0  501  0.00000000000E+00  0.00000000000E+00 -0.12355208322E+04  0.12355208322E+04  0.25500000920E-02 0. -1.
    10030    2    1    2    0    0  0.00000000000E+00  0.00000000000E+00  0.17174081119E+04  0.41884497763E+04  0.38201598011E+04 0.  0.
        5    1    3    3  502    0 -0.12863117699E+04 -0.25805572334E+01  0.24068440743E+04  0.27290154115E+04  0.46999998093E+01 0.  1.
       -5    1    3    3    0  502  0.12863117699E+04  0.25805572334E+01 -0.68943596241E+03  0.14594343647E+04  0.46999998093E+01 0. -1.
</event>
<event>
 5   0  0.3539010E-07  0.3773670E+04  0.7818609E-02  0.8051829E-01
       -2   -1    0    0    0  501  0.00000000000E+00  0.00000000000E+00  0.17952938890E+04  0.17952938890E+04  0.25500000920E-02 0.  1.
        2   -1    0    0  501    0  0.00000000000E+00  0.00000000000E+00 -0.19830442493E+04  0.19830442493E+04  0.25500000920E-02 0. -1.
    10030    2    1    2    0    0  0.00000000000E+00  0.00000000000E+00 -0.18775036030E+03  0.37783381383E+04  0.37736704797E+04 0.  0.
        1    1    3    3  502    0 -0.17026761353E+04 -0.62943091103E+03 -0.60915524025E+03  0.19147739815E+04  0.50400001928E-02 0. -1.
       -1    1    3    3    0  502  0.17026761353E+04  0.62943091103E+03  0.42140487995E+03  0.18635641568E+04  0.50400001928E-02 0.  1.
</event>
<event>
 5   0  0.1070988E-07  0.3803018E+04  0.7818609E-02  0.8045508E-01
       -1   -1    0    0    0  501  0.00000000000E+00  0.00000000000E+00  0.34508314304E+04  0.34508314304E+04  0.50400001928E-02 0.  1.
        1   -1    0    0  501    0  0.00000000000E+00  0.00000000000E+00 -0.10477870479E+04  0.10477870479E+04  0.50400001928E-02 0. -1.
    10030    2    1    2    0    0  0.00000000000E+00  0.00000000000E+00  0.24030443825E+04  0.44986184783E+04  0.38030180001E+04 0.  0.
        3    1    3    3  502    0  0.88214483438E+03  0.16778928318E+04  0.10251435703E+04  0.21550923910E+04  0.10100000352E+00 0.  1.
       -3    1    3    3    0  502 -0.88214483438E+03 -0.16778928318E+04  0.13779008122E+04  0.23435260873E+04  0.10100000352E+00 0. -1.
</event>
<event>
 5   0  0.1084315E-07  0.3779468E+04  0.7818609E-02  0.8050575E-01
       -1   -1    0    0    0  501  0.00000000000E+00  0.00000000000E+00  0.13706792023E+04  0.13706792023E+04  0.50400001928E-02 0. -1.
        1   -1    0    0  501    0  0.00000000000E+00  0.00000000000E+00 -0.26053461762E+04  0.26053461762E+04  0.50400001928E-02 0.  1.
    10030    2    1    2    0    0  0.00000000000E+00  0.00000000000E+00 -0.12346669739E+04  0.39760253784E+04  0.37794675913E+04 0.  0.
        4    1    3    3  502    0 -0.17176486032E+04 -0.58279890385E+03 -0.59550704905E+02  0.18148055504E+04  0.12699999809E+01 0. -1.
       -4    1    3    3    0  502  0.17176486032E+04  0.58279890385E+03 -0.11751162690E+04  0.21612198280E+04  0.12699999809E+01 0.  1.
</event>
<event>
 5   0  0.1084315E-07  0.3780696E+04  0.7818609E-02  0.8050310E-01
       -1   -1    0    0    0  501  0.00000000000E+00  0.00000000000E+00  0.14220303406E+04  0.14220303406E+04  0.50400001928E-02 0. -1.
        1   -1    0    0  501    0  0.00000000000E+00  0.00000000000E+00 -0.25128969869E+04  0.25128969869E+04  0.50400001928E-02 0.  1.
    10030    2    1    2    0    0  0.00000000000E+00  0.00000000000E+00 -0.10908666463E+04  0.39349273275E+04  0.37806961043E+04 0.  0.
        4    1    3    3  502    0  0.11380660617E+03  0.18625704805E+04 -0.85990725719E+03  0.20546442130E+04  0.12699999809E+01 0.  1.
       -4    1    3    3    0  502 -0.11380660617E+03 -0.18625704805E+04 -0.23095938909E+03  0.18802831145E+04  0.12699999809E+01 0. -1.
</event>
<event>
 5   0  0.1084315E-07  0.3797255E+04  0.7818609E-02  0.8046744E-01
        1   -1    0    0  501    0  0.00000000000E+00  0.00000000000E+00  0.23439117257E+04  0.23439117257E+04  0.50400001928E-02 0. -1.
       -1   -1    0    0    0  501  0.00000000000E+00  0.00000000000E+00 -0.15379360846E+04  0.15379360846E+04  0.50400001928E-02 0.  1.
    10030    2    1    2    0    0  0.00000000000E+00  0.00000000000E+00  0.80597564106E+03  0.38818478104E+04  0.37972550202E+04 0.  0.
        4    1    3    3  502    0  0.14309805963E+04 -0.90654608175E+03 -0.47358359192E+03  0.17589241874E+04  0.12699999809E+01 0.  1.
       -4    1    3    3    0  502 -0.14309805963E+04  0.90654608175E+03  0.12795592330E+04  0.21229236230E+04  0.12699999809E+01 0. -1.
</event>
<event>
 5   0  0.1070988E-07  0.3746752E+04  0.7818609E-02  0.8057679E-01
       -1   -1    0    0    0  501  0.00000000000E+00  0.00000000000E+00  0.10754941961E+04  0.10754941961E+04  0.50400001928E-02 0. -1.
        1   -1    0    0  501    0  0.00000000000E+00  0.00000000000E+00 -0.32631858920E+04  0.32631858920E+04  0.50400001928E-02 0.  1.
    10030    2    1    2    0    0  0.00000000000E+00  0.00000000000E+00 -0.21876916959E+04  0.43386800880E+04  0.37467519200E+04 0.  0.
        3    1    3    3  502    0 -0.42606082523E+03  0.17703719391E+04 -0.16036126658E+04  0.24263796532E+04  0.10100000352E+00 0.  1.
       -3    1    3    3    0  502  0.42606082523E+03 -0.17703719391E+04 -0.58407903013E+03  0.19123004348E+04  0.10100000352E+00 0. -1.
</event>
<event>
 5   0  0.3377396E-07  0.3822025E+04  0.7818609E-02  0.8041445E-01
       -2   -1    0    0    0  501  0.00000000000E+00  0.00000000000E+00  0.14376381997E+04  0.14376381997E+04  0.25500000920E-02 0. -1.
        2   -1    0    0  501    0  0.00000000000E+00  0.00000000000E+00 -0.25402559742E+04  0.25402559742E+04  0.25500000920E-02 0.  1.
    10030    2    1    2    0    0  0.00000000000E+00  0.00000000000E+00 -0.11026177745E+04  0.39778941739E+04  0.38220251310E+04 0.  0.
        5    1    3    3  502    0 -0.14795537631E+04  0.27965898086E+03  0.67339477714E+03  0.16494760075E+04  0.46999998093E+01 0. -1.
       -5    1    3    3    0  502  0.14795537631E+04 -0.27965898086E+03 -0.17760125517E+04  0.23284181663E+04  0.46999998093E+01 0.  1.
</event>
<event>
 5   0  0.3442126E-07  0.3809275E+04  0.7818609E-02  0.8044167E-01
        2   -1    0    0  501    0  0.00000000000E+00  0.00000000000E+00  0.20977911758E+04  0.20977911758E+04  0.25500000920E-02 0. -1.
       -2   -1    0    0    0  501  0.00000000000E+00  0.00000000000E+00 -0.17292687659E+04  0.17292687659E+04  0.25500000920E-02 0.  1.
    10030    2    1    2    0    0  0.00000000000E+00  0.00000000000E+00  0.36852240994E+03  0.38270599417E+04  0.38092753944E+04 0.  0.
        2    1    3    3  502    0 -0.13637037906E+04  0.52437245589E+02  0.15190751078E+04  0.20420643664E+04  0.25500000920E-02 0. -1.
       -2    1    3    3    0  502  0.13637037906E+04 -0.52437245589E+02 -0.11505526979E+04  0.17849955753E+04  0.25500000920E-02 0.  1.
</event>
<event>
 5   0  0.1070988E-07  0.3818082E+04  0.7818609E-02  0.8042286E-01
        1   -1    0    0  501    0  0.00000000000E+00  0.00000000000E+00  0.12959590758E+04  0.12959590758E+04  0.50400001928E-02 0.  1.
       -1   -1    0    0    0  501  0.00000000000E+00  0.00000000000E+00 -0.28121545996E+04  0.28121545996E+04  0.50400001928E-02 0. -1.
    10030    2    1    2    0    0  0.00000000000E+00  0.00000000000E+00 -0.15161955239E+04  0.41081136754E+04  0.38180818618E+04 0.  0.
        2    1    3    3  502    0  0.74226825217E+03 -0.17588048822E+04 -0.74844378663E+03  0.20504938121E+04  0.25500000920E-02 0. -1.
       -2    1    3    3    0  502 -0.74226825217E+03  0.17588048822E+04 -0.76775173723E+03  0.20576198633E+04  0.25500000920E-02 0.  1.
</event>
<event>
 5   0  0.1085771E-07  0.3802453E+04  0.7818609E-02  0.8045629E-01
       -1   -1    0    0    0  501  0.00000000000E+00  0.00000000000E+00  0.12978243554E+04  0.12978243554E+04  0.50400001928E-02 0. -1.
        1   -1    0    0  501    0  0.00000000000E+00  0.00000000000E+00 -0.27851701905E+04  0.27851701905E+04  0.50400001928E-02 0.  1.
    10030    2    1    2    0    0  0.00000000000E+00  0.00000000000E+00 -0.14873458352E+04  0.40829945459E+04  0.38024527385E+04 0.  0.
        1    1    3    3  502    0  0.16746679299E+04  0.29733203192E+03 -0.16559067463E+04  0.23738041547E+04  0.50400001928E-02 0.  1.
       -1    1    3    3    0  502 -0.16746679299E+04 -0.29733203192E+03  0.16856091111E+03  0.17091903912E+04  0.50400001928E-02 0. -1.
</event>
<event>
 5   0  0.1070988E-07  0.3768451E+04  0.7818609E-02  0.8052959E-01
        1   -1    0    0  501    0  0.00000000000E+00  0.00000000000E+00  0.17026780462E+04  0.17026780462E+04  0.50400001928E-02 0.  1.
       -1   -1    0    0    0  501  0.00000000000E+00  0.00000000000E+00 -0.20851308863E+04  0.20851308864E+04  0.50400001928E-02 0. -1.
    10030    2    1    2    0    0  0.00000000000E+00  0.00000000000E+00 -0.38245284018E+03  0.37878089325E+04  0.37684514505E+04 0.  0.
        3    1    3    3  502    0  0.55282794311E+03  0.15861088564E+04  0.66694288586E+03  0.18072556162E+04  0.10100000352E+00 0. -1.
       -3    1    3    3    0  502 -0.55282794311E+03 -0.15861088564E+04 -0.10493957260E+04  0.19805533164E+04  0.10100000352E+00 0.  1.
</event>
<event>
 5   0  0.1085771E-07  0.3801937E+04  0.7818609E-02  0.8045739E-01
       -1   -1    0    0    0  501  0.00000000000E+00  0.00000000000E+00  0.20161889443E+04  0.20161889443E+04  0.50400001928E-02 0. -1.
        1   -1    0    0  501    0  0.00000000000E+00  0.00000000000E+00 -0.17923322532E+04  0.17923322532E+04  0.50400001928E-02 0.  1.
    10030    2    1    2    0    0  0.00000000000E+00  0.00000000000E+00  0.22385669106E+03  0.38085211975E+04  0.38019365978E+04 0.  0.
        1    1    3    3  502    0  0.12847916808E+04  0.66551685448E+03  0.13469781232E+04  0.19768541704E+04  0.50400001928E-02 0. -1.
       -1    1    3    3    0  502 -0.12847916808E+04 -0.66551685448E+03 -0.11231214322E+04  0.18316670271E+04  0.50400001928E-02 0.  1.
</event>
<event>
 5   0  0.1084315E-07  0.3623683E+04  0.7818609E-02  0.8085088E-01
        1   -1    0    0  501    0  0.00000000000E+00  0.00000000000E+00  0.25438588113E+04  0.25438588113E+04  0.50400001928E-02 0.  1.
       -1   -1    0    0    0  501  0.00000000000E+00  0.00000000000E+00 -0.12904686110E+04  0.12904686110E+04  0.50400001928E-02 0. -1.
    10030    2    1    2    0    0  0.00000000000E+00  0.00000000000E+00  0.12533902003E+04  0.38343274223E+04  0.36236831797E+04 0.  0.
        4    1    3    3  502    0  0.14917570845E+04  0.10273057545E+04  0.57852959752E+03  0.19014190544E+04  0.12699999809E+01 0. -1.
       -4    1    3    3    0  502 -0.14917570845E+04 -0.10273057545E+04  0.67486060273E+03  0.19329083678E+04  0.12699999809E+01 0.  1.
</event>
<event>
 5   0  0.1084315E-07  0.3806043E+04  0.7818609E-02  0.8044859E-01
        1   -1    0    0  501    0  0.00000000000E+00  0.00000000000E+00  0.12375196224E+04  0.12375196224E+04  0.50400001928E-02 0.  1.
       -1   -1    0    0    0  501  0.00000000000E+00  0.00000000000E+00 -0.29264105328E+04  0.29264105328E+04  0.50400001928E-02 0. -1.
    10030    2    1    2    0    0  0.00000000000E+00  0.00000000000E+00 -0.16888909104E+04  0.41639301552E+04  0.38060428046E+04 0.  0.
        4    1    3    3  502    0  0.39841172724E+03  0.14998982991E+04  0.36051077884E+03  0.15932345862E+04  0.12699999809E+01 0. -1.
       -4    1    3    3    0  502 -0.39841172724E+03 -0.14998982991E+04 -0.20494016893E+04  0.25706955691E+04  0.12699999809E+01 0.  1.
</event>
<event>
 5   0  0.1070988E-07  0.3595357E+04  0.7818609E-02  0.8091556E-01
        1   -1    0    0  501    0  0.00000000000E+00  0.00000000000E+00  0.22264076880E+04  0.22264076881E+04  0.50400001928E-02 0. -1.
       -1   -1    0    0    0  501  0.00000000000E+00  0.00000000000E+00 -0.14515075365E+04  0.14515075365E+04  0.50400001928E-02 0.  1.
    10030    2    1    2    0    0  0.00000000000E+00  0.00000000000E+00  0.77490015151E+03  0.36779152246E+04  0.35953567493E+04 0.  0.
        3    1    3    3  502    0  0.71008117143E+03  0.69826113325E+03  0.19184335949E+04  0.21615206102E+04  0.10100000352E+00 0. -1.
       -3    1    3    3    0  502 -0.71008117143E+03 -0.69826113325E+03 -0.11435334434E+04  0.15163946144E+04  0.10100000352E+00 0.  1.
</event>
<event>
 5   0  0.3442126E-07  0.3785465E+04  0.7818609E-02  0.8049281E-01
       -2   -1    0    0    0  501  0.00000000000E+00  0.00000000000E+00  0.16000217024E+04  0.16000217024E+04  0.25500000920E-02 0. -1.
        2   -1    0    0  501    0  0.00000000000E+00  0.00000000000E+00 -0.22389923814E+04  0.22389923814E+04  0.25500000920E-02 0.  1.
    10030    2    1    2    0    0  0.00000000000E+00  0.00000000000E+00 -0.63897067902E+03  0.38390140839E+04  0.37854650451E+04 0.  0.
        2    1    3    3  502    0 -0.32263799063E+03 -0.25623230518E+03 -0.21929635185E+04  0.22313312754E+04  0.25500000920E-02 0.  1.
       -2    1    3    3    0  502  0.32263799063E+03  0.25623230518E+03  0.15539928395E+04  0.16076828084E+04  0.25500000920E-02 0. -1.
</event>
<event>
 5   0  0.1070988E-07  0.3782362E+04  0.7818609E-02  0.8049951E-01
        3   -1    0    0  501    0  0.00000000000E+00  0.00000000000E+00  0.20355279831E+04  0.20355279856E+04  0.10100000352E+00 0. -1.
       -3   -1    0    0    0  501  0.00000000000E+00  0.00000000000E+00 -0.17570701432E+04  0.17570701461E+04  0.10100000352E+00 0.  1.
    10030    2    1    2    0    0  0.00000000000E+00  0.00000000000E+00  0.27845783987E+03  0.37925981317E+04  0.37823619367E+04 0.  0.
        5    1    3    3  502    0 -0.83004109993E+02  0.11454936621E+04 -0.13673345228E+04  0.17856850785E+04  0.46999998093E+01 0. -1.
       -5    1    3    3    0  502  0.83004109993E+02 -0.11454936621E+04  0.16457923627E+04  0.20069130532E+04  0.46999998093E+01 0.  1.
</event>
<event>
 5   0  0.3539010E-07  0.3782840E+04  0.7818609E-02  0.8049848E-01
        2   -1    0    0  501    0  0.00000000000E+00  0.00000000000E+00  0.26762720521E+04  0.26762720521E+04  0.25500000920E-02 0. -1.
       -2   -1    0    0    0  501  0.00000000000E+00  0.00000000000E+00 -0.13367358091E+04  0.13367358091E+04  0.25500000920E-02 0.  1.
    10030    2    1    2    0    0  0.00000000000E+00  0.00000000000E+00  0.13395362431E+04  0.40130078612E+04  0.37828395086E+04 0.  0.
        1    1    3    3  502    0  0.93082041216E+03 -0.29501474141E+03 -0.10486731739E+04  0.14328907017E+04  0.50400001928E-02 0.  1.
       -1    1    3    3    0  502 -0.93082041216E+03  0.29501474141E+03  0.23882094170E+04  0.25801171595E+04  0.50400001928E-02 0. -1.
</event>
<event>
 5   0  0.1070988E-07  0.3811178E+04  0.7818609E-02  0.8043760E-01
       -1   -1    0    0    0  501  0.00000000000E+00  0.00000000000E+00  0.15867601316E+04  0.15867601316E+04  0.50400001928E-02 0. -1.
        1   -1    0    0  501    0  0.00000000000E+00  0.00000000000E+00 -0.22884802903E+04  0.22884802903E+04  0.50400001928E-02 0.  1.
    10030    2    1    2    0    0  0.00000000000E+00  0.00000000000E+00 -0.70172015879E+03  0.38752404219E+04  0.38111779211E+04 0.  0.
        3    1    3    3  502    0 -0.38153485363E+03  0.18358121797E+04 -0.69641674615E+03  0.20001928652E+04  0.10100000352E+00 0.  1.
       -3    1    3    3    0  502  0.38153485363E+03 -0.18358121797E+04 -0.53034126423E+01  0.18750475567E+04  0.10100000352E+00 0. -1.
</event>
<event>
 5   0  0.3539010E-07  0.3277089E+04  0.7818609E-02  0.8168750E-01
       -2   -1    0    0    0  501  0.00000000000E+00  0.00000000000E+00  0.10196327152E+04  0.10196327152E+04  0.25500000920E-02 0.  1.
        2   -1    0    0  501    0  0.00000000000E+00  0.00000000000E+00 -0.26331331985E+04  0.26331331985E+04  0.25500000920E-02 0. -1.
    10030    2    1    2    0    0  0.00000000000E+00  0.00000000000E+00 -0.16135004834E+04  0.36527659137E+04  0.32770894114E+04 0.  0.
        1    1    3    3  502    0  0.11818492309E+04  0.12761549667E+03 -0.20637603395E+04  0.23816297064E+04  0.50400001928E-02 0. -1.
       -1    1    3    3    0  502 -0.11818492309E+04 -0.12761549667E+03  0.45025985613E+03  0.12711362073E+04  0.50400001928E-02 0.  1.
</event>
<event>
 5   0  0.1085771E-07  0.3773580E+04  0.7818609E-02  0.8051848E-01
       -1   -1    0    0    0  501  0.00000000000E+00  0.00000000000E+00  0.22904981121E+04  0.22904981121E+04  0.50400001928E-02 0. -1.
        1   -1    0    0  501    0  0.00000000000E+00  0.00000000000E+00 -0.15542367197E+04  0.15542367197E+04  0.50400001928E-02 0.  1.
    10030    2    1    2    0    0  0.00000000000E+00  0.00000000000E+00  0.73626139245E+03  0.38447348318E+04  0.37735798771E+04 0.  0.
        1    1    3    3  502    0 -0.10774782298E+04 -0.24109098498E+03  0.19269778718E+04  0.22208844899E+04  0.50400001928E-02 0. -1.
       -1    1    3    3    0  502  0.10774782298E+04  0.24109098498E+03 -0.11907164794E+04  0.16238503420E+04  0.50400001928E-02 0.  1.
</event>
<event>
 5   0  0.3377396E-07  0.3754606E+04  0.7818609E-02  0.8055967E-01
       -2   -1    0    0    0  501  0.00000000000E+00  0.00000000000E+00  0.18807085285E+04  0.18807085285E+04  0.25500000920E-02 0.  1.
        2   -1    0    0  501    0  0.00000000000E+00  0.00000000000E+00 -0.18739037328E+04  0.18739037328E+04  0.25500000920E-02 0. -1.
    10030    2    1    2    0    0  0.00000000000E+00  0.00000000000E+00  0.68047957281E+01  0.37546122614E+04  0.37546060949E+04 0.  0.
        5    1    3    3  502    0  0.36400861145E+03  0.13001798452E+03 -0.18336737524E+04  0.18739766449E+04  0.46999998093E+01 0. -1.
       -5    1    3    3    0  502 -0.36400861145E+03 -0.13001798452E+03  0.18404785481E+04  0.18806356164E+04  0.46999998093E+01 0.  1.
</event>
<event>
 5   0  0.1070988E-07  0.3841736E+04  0.7818609E-02  0.8037257E-01
       -1   -1    0    0    0  501  0.00000000000E+00  0.00000000000E+00  0.14774854380E+04  0.14774854380E+04  0.50400001928E-02 0.  1.
        1   -1    0    0  501    0  0.00000000000E+00  0.00000000000E+00 -0.24973062820E+04  0.24973062820E+04  0.50400001928E-02 0. -1.
    10030    2    1    2    0    0  0.00000000000E+00  0.00000000000E+00 -0.10198208441E+04  0.39747917200E+04  0.38417358919E+04 0.  0.
        2    1    3    3  502    0 -0.11466665820E+04 -0.23406087984E+03  0.10660332253E+04  0.15830526154E+04  0.25500000920E-02 0.  1.
       -2    1    3    3    0  502  0.11466665820E+04  0.23406087984E+03 -0.20858540693E+04  0.23917391046E+04  0.25500000920E-02 0. -1.
</event>
<event>
 5   0  0.3327241E-07  0.3827004E+04  0.7818609E-02  0.8040385E-01
       -2   -1    0    0    0  501  0.00000000000E+00  0.00000000000E+00  0.15099230488E+04  0.15099230488E+04  0.25500000920E-02 0. -1.
        2   -1    0    0  501    0  0.00000000000E+00  0.00000000000E+00 -0.24249514242E+04  0.24249514242E+04  0.25500000920E-02 0.  1.
    10030    2    1    2    0    0  0.00000000000E+00  0.00000000000E+00 -0.91502837541E+03  0.39348744730E+04  0.38270040751E+04 0.  0.
        3    1    3    3  502    0  0.13558216930E+04  0.42509057648E+03  0.86022466238E+03  0.16610060028E+04  0.10100000352E+00 0. -1.
       -3    1    3    3    0  502 -0.13558216930E+04 -0.42509057648E+03 -0.17752530378E+04  0.22738684702E+04  0.10100000352E+00 0.  1.
</event>
<event>
 5   0  0.3442126E-07  0.3726838E+04  0.7818609E-02  0.8062040E-01
        2   -1    0    0  501    0  0.00000000000E+00  0.00000000000E+00  0.19680764588E+04  0.19680764588E+04  0.25500000920E-02 0. -1.
       -2   -1    0    0    0  501  0.00000000000E+00  0.00000000000E+00 -0.17643269889E+04  0.17643269889E+04  0.25500000920E-02 0.  1.
    10030    2    1    2    0    0  0.00000000000E+00  0.00000000000E+00  0.20374946991E+03  0.37324034476E+04  0.37268380230E+04 0.  0.
        2    1    3    3  502    0  0.24278303729E+03  0.17042484201E+04 -0.61257978208E+03  0.18272001177E+04  0.25500000920E-02 0. -1.
       -2    1    3    3    0  502 -0.24278303729E+03 -0.17042484201E+04  0.81632925199E+03  0.19052033299E+04  0.25500000920E-02 0.  1.
</event>
<event>
 5   0  0.1070988E-07  0.3825082E+04  0.7818609E-02  0.8040794E-01
        1   -1    0    0  501    0  0.00000000000E+00  0.00000000000E+00  0.13583903397E+04  0.13583903397E+04  0.50400001928E-02 0. -1.
       -1   -1    0    0    0  501  0.00000000000E+00  0.00000000000E+00 -0.26927552870E+04  0.26927552870E+04  0.50400001928E-02 0.  1.
    10030    2    1    2    0    0  0.00000000000E+00  0.00000000000E+00 -0.13343649473E+04  0.40511456268E+04  0.38250818392E+04 0.  0.
        2    1    3    3  502    0  0.17305590190E+04 -0.42321914442E+03  0.69531135361E+02  0.17829143393E+04  0.25500000920E-02 0. -1.
       -2    1    3    3    0  502 -0.17305590190E+04  0.42321914442E+03 -0.14038960826E+04  0.22682312875E+04  0.25500000920E-02 0.  1.
</event>
<event>
 5   0  0.3377396E-07  0.3785144E+04  0.7818609E-02  0.8049351E-01
       -2   -1    0    0    0  501  0.00000000000E+00  0.00000000000E+00  0.25327170714E+04  0.25327170714E+04  0.25500000920E-02 0. -1.
        2   -1    0    0  501    0  0.00000000000E+00  0.00000000000E+00 -0.14142235113E+04  0.14142235113E+04  0.25500000920E-02 0.  1.
    10030    2    1    2    0    0  0.00000000000E+00  0.00000000000E+00  0.11184935602E+04  0.39469405827E+04  0.37851436062E+04 0.  0.
        5    1    3    3  502    0 -0.14030136413E+04 -0.10962719731E+04 -0.10969395541E+03  0.17839042492E+04  0.46999998093E+01 0.  1.
       -5    1    3    3    0  502  0.14030136413E+04  0.10962719731E+04  0.12281875156E+04  0.21630363335E+04  0.46999998093E+01 0. -1.
</event>
<event>
 5   0  0.3377396E-07  0.3810591E+04  0.7818609E-02  0.8043886E-01
       -2   -1    0    0    0  501  0.00000000000E+00  0.00000000000E+00  0.15262941903E+04  0.15262941903E+04  0.25500000920E-02 0. -1.
        2   -1    0    0  501    0  0.00000000000E+00  0.00000000000E+00 -0.23784085112E+04  0.23784085112E+04  0.25500000920E-02 0.  1.
    10030    2    1    2    0    0  0.00000000000E+00  0.00000000000E+00 -0.85211432091E+03  0.39047027015E+04  0.38105910790E+04 0.  0.
        5    1    3    3  502    0  0.30780101988E+03  0.11096228617E+04  0.11293661763E+04  0.16129148810E+04  0.46999998093E+01 0. -1.
       -5    1    3    3    0  502 -0.30780101988E+03 -0.11096228617E+04 -0.19814804973E+04  0.22917878205E+04  0.46999998093E+01 0.  1.
</event>
<event>
 5   0  0.3327241E-07  0.3156067E+04  0.7818609E-02  0.8200517E-01
        2   -1    0    0  501    0  0.00000000000E+00  0.00000000000E+00  0.25183290068E+04  0.25183290068E+04  0.25500000920E-02 0.  1.
       -2   -1    0    0    0  501  0.00000000000E+00  0.00000000000E+00 -0.98882608464E+03  0.98882608464E+03  0.25500000920E-02 0. -1.
    10030    2    1    2    0    0  0.00000000000E+00  0.00000000000E+00  0.15295029222E+04  0.35071550915E+04  0.31560668001E+04 0.  0.
        3    1    3    3  502    0 -0.47302195610E+02  0.14524179700E+04  0.81148670783E+02  0.14554520172E+04  0.10100000352E+00 0. -1.
       -3    1    3    3    0  502  0.47302195610E+02 -0.14524179700E+04  0.14483542514E+04  0.20517030743E+04  0.10100000352E+00 0.  1.
</event>
<event>
 5   0  0.3539010E-07  0.3800601E+04  0.7818609E-02  0.8046026E-01
       -2   -1    0    0    0  501  0.00000000000E+00  0.00000000000E+00  0.16114583728E+04  0.16114583728E+04  0.25500000920E-02 0. -1.
        2   -1    0    0  501    0  0.00000000000E+00  0.00000000000E+00 -0.22409150141E+04  0.22409150141E+04  0.25500000920E-02 0.  1.
    10030    2    1    2    0    0  0.00000000000E+00  0.00000000000E+00 -0.62945664125E+03  0.38523733869E+04  0.38006006168E+04 0.  0.
        1    1    3    3  502    0  0.31340607322E+03  0.14160622753E+04 -0.15593332667E+04  0.21295483021E+04  0.50400001928E-02 0.  1.
       -1    1    3    3    0  502 -0.31340607322E+03 -0.14160622753E+04  0.92987662547E+03  0.17228250848E+04  0.50400001928E-02 0. -1.
</event>
<event>
 5   0  0.1070988E-07  0.3746721E+04  0.7818609E-02  0.8057686E-01
        1   -1    0    0  501    0  0.00000000000E+00  0.00000000000E+00  0.22387805483E+04  0.22387805483E+04  0.50400001928E-02 0.  1.
       -1   -1    0    0    0  501  0.00000000000E+00  0.00000000000E+00 -0.15675850569E+04  0.15675850569E+04  0.50400001928E-02 0. -1.
    10030    2    1    2    0    0  0.00000000000E+00  0.00000000000E+00  0.67119549148E+03  0.38063656052E+04  0.37467206638E+04 0.  0.
        5    1    3    3  502    0 -0.77209543588E+03 -0.15305556792E+04 -0.43189195248E+03  0.17678475041E+04  0.46999998093E+01 0.  1.
       -5    1    3    3    0  502  0.77209543588E+03  0.15305556792E+04  0.11030874440E+04  0.20385181011E+04  0.46999998093E+01 0. -1.
</event>
<event>
 5   0  0.1070988E-07  0.3835487E+04  0.7818609E-02  0.8038582E-01
        1   -1    0    0  501    0  0.00000000000E+00  0.00000000000E+00  0.12513256609E+04  0.12513256610E+04  0.50400001928E-02 0. -1.
       -1   -1    0    0    0  501  0.00000000000E+00  0.00000000000E+00 -0.29390753932E+04  0.29390753932E+04  0.50400001928E-02 0.  1.
    10030    2    1    2    0    0  0.00000000000E+00  0.00000000000E+00 -0.16877497323E+04  0.41904010542E+04  0.38354871706E+04 0.  0.
        3    1    3    3  502    0  0.23466485443E+03  0.20271836226E+02  0.12354626068E+04  0.12577147547E+04  0.10100000352E+00 0. -1.
       -3    1    3    3    0  502 -0.23466485443E+03 -0.20271836226E+02 -0.29232123391E+04  0.29326862994E+04  0.10100000352E+00 0.  1.
</event>
<event>
 5   0  0.3442126E-07  0.3783073E+04  0.7818609E-02  0.8049797E-01
       -2   -1    0    0    0  501  0.00000000000E+00  0.00000000000E+00  0.15678782700E+04  0.15678782700E+04  0.25500000920E-02 0. -1.
        2   -1    0    0  501    0  0.00000000000E+00  0.00000000000E+00 -0.22820079699E+04  0.22820079699E+04  0.25500000920E-02 0.  1.
    10030    2    1    2    0    0  0.00000000000E+00  0.00000000000E+00 -0.71412969989E+03  0.38498862400E+04  0.37830731994E+04 0.  0.
        2    1    3    3  502    0  0.18256056350E+03  0.26835078943E+02 -0.22728269047E+04  0.22803049400E+04  0.25500000920E-02 0.  1.
       -2    1    3    3    0  502 -0.18256056350E+03 -0.26835078943E+02  0.15586972048E+04  0.15695812999E+04  0.25500000920E-02 0. -1.
</event>
<event>
 5   0  0.1070988E-07  0.3761000E+04  0.7818609E-02  0.8054576E-01
       -1   -1    0    0    0  501  0.00000000000E+00  0.00000000000E+00  0.11511898714E+04  0.11511898714E+04  0.50400001928E-02 0. -1.
        1   -1    0    0  501    0  0.00000000000E+00  0.00000000000E+00 -0.30718486965E+04  0.30718486965E+04  0.50400001928E-02 0.  1.
    10030    2    1    2    0    0  0.00000000000E+00  0.00000000000E+00 -0.19206588251E+04  0.42230385679E+04  0.37610004552E+04 0.  0.
        2    1    3    3  502    0 -0.10893443929E+03 -0.15595640026E+04 -0.21337877665E+04  0.26452139465E+04  0.25500000920E-02 0.  1.
       -2    1    3    3    0  502  0.10893443929E+03  0.15595640026E+04  0.21312894137E+03  0.15778246214E+04  0.25500000920E-02 0. -1.
</event>
<event>
 5   0  0.3327241E-07  0.3694567E+04  0.7818609E-02  0.8069167E-01
        2   -1    0    0  501    0  0.00000000000E+00  0.00000000000E+00  0.19323193732E+04  0.19323193732E+04  0.25500000920E-02 0.  1.
       -2   -1    0    0    0  501  0.00000000000E+00  0.00000000000E+00 -0.17659895630E+04  0.17659895630E+04  0.25500000920E-02 0. -1.
    10030    2    1    2    0    0  0.00000000000E+00  0.00000000000E+00  0.16632981018E+03  0.36983089361E+04  0.36945667380E+04 0.  0.
        3    1    3    3  502    0  0.21382166500E+03 -0.17988925933E+04 -0.27875568891E+03  0.18328772493E+04  0.10100000352E+00 0. -1.
       -3    1    3    3    0  502 -0.21382166500E+03  0.17988925933E+04  0.44508549910E+03  0.18654316869E+04  0.10100000352E+00 0.  1.
</event>
<event>
 5   0  0.3377396E-07  0.3785703E+04  0.7818609E-02  0.8049230E-01
        2   -1    0    0  501    0  0.00000000000E+00  0.00000000000E+00  0.18947191472E+04  0.18947191472E+04  0.25500000920E-02 0.  1.
       -2   -1    0    0    0  501  0.00000000000E+00  0.00000000000E+00 -0.18909857000E+04  0.18909857000E+04  0.25500000920E-02 0. -1.
    10030    2    1    2    0    0  0.00000000000E+00  0.00000000000E+00  0.37334472251E+01  0.37857048472E+04  0.37857030062E+04 0.  0.
        5    1    3    3  502    0 -0.59372729169E+03  0.16911171250E+04 -0.60680055479E+03  0.18922521583E+04  0.46999998093E+01 0. -1.
       -5    1    3    3    0  502  0.59372729169E+03 -0.16911171250E+04  0.61053400201E+03  0.18934526889E+04  0.46999998093E+01 0.  1.
</event>
<event>
 5   0  0.1070988E-07  0.3782926E+04  0.7818609E-02  0.8049829E-01
        1   -1    0    0  501    0  0.00000000000E+00  0.00000000000E+00  0.25337075252E+04  0.25337075252E+04  0.50400001928E-02 0. -1.
       -1   -1    0    0    0  501  0.00000000000E+00  0.00000000000E+00 -0.14120150647E+04  0.14120150647E+04  0.50400001928E-02 0.  1.
    10030    2    1    2    0    0  0.00000000000E+00  0.00000000000E+00  0.11216924605E+04  0.39457225899E+04  0.37829264836E+04 0.  0.
        5    1    3    3  502    0  0.94681981501E+02  0.18384651683E+04  0.10776540672E+03  0.18440591979E+04  0.46999998093E+01 0.  1.
       -5    1    3    3    0  502 -0.94681981501E+02 -0.18384651683E+04  0.10139270538E+04  0.21016633920E+04  0.46999998093E+01 0. -1.
</event>
<event>
 5   0  0.1070988E-07  0.3798682E+04  0.7818609E-02  0.8046438E-01
        1   -1    0    0  501    0  0.00000000000E+00  0.00000000000E+00  0.18534860927E+04  0.18534860927E+04  0.50400001928E-02 0. -1.
       -1   -1    0    0    0  501  0.00000000000E+00  0.00000000000E+00 -0.19463304619E+04  0.19463304619E+04  0.50400001928E-02 0.  1.
    10030    2    1    2    0    0  0.00000000000E+00  0.00000000000E+00 -0.92844369209E+02  0.37998165545E+04  0.37986821098E+04 0.  0.
        5    1    3    3  502    0 -0.53805126641E+03  0.40897147076E+03 -0.18219783441E+04  0.19432920536E+04  0.46999998093E+01 0.  1.
       -5    1    3    3    0  502  0.53805126641E+03 -0.40897147076E+03  0.17291339749E+04  0.18565245009E+04  0.46999998093E+01 0. -1.
</event>
<event>
 5   0  0.3539010E-07  0.3732140E+04  0.7818609E-02  0.8060876E-01
        2   -1    0    0  501    0  0.00000000000E+00  0.00000000000E+00  0.30166863012E+04  0.30166863012E+04  0.25500000920E-02 0. -1.
       -2   -1    0    0    0  501  0.00000000000E+00  0.00000000000E+00 -0.11543183976E+04  0.11543183976E+04  0.25500000920E-02 0.  1.
    10030    2    1    2    0    0  0.00000000000E+00  0.00000000000E+00  0.18623679036E+04  0.41710046988E+04  0.37321395993E+04 0.  0.
        1    1    3    3  502    0 -0.76660142677E+03 -0.13463422235E+03 -0.96424876831E+03  0.12391851389E+04  0.50400001928E-02 0.  1.
       -1    1    3    3    0  502  0.76660142677E+03  0.13463422235E+03  0.28266166720E+04  0.29318195599E+04  0.50400001928E-02 0. -1.
</event>
<event>
 5   0  0.3509843E-07  0.3795788E+04  0.7818609E-02  0.8047059E-01
       -2   -1    0    0    0  501  0.00000000000E+00  0.00000000000E+00  0.17753770847E+04  0.17753770847E+04  0.25500000920E-02 0. -1.
        2   -1    0    0  501    0  0.00000000000E+00  0.00000000000E+00 -0.20288658342E+04  0.20288658342E+04  0.25500000920E-02 0.  1.
    10030    2    1    2    0    0  0.00000000000E+00  0.00000000000E+00 -0.25348874949E+03  0.38042429190E+04  0.37957881448E+04 0.  0.
        4    1    3    3  502    0 -0.97533512785E+03 -0.13954940078E+04  0.71376428314E+03  0.18461157067E+04  0.12699999809E+01 0. -1.
       -4    1    3    3    0  502  0.97533512785E+03  0.13954940078E+04 -0.96725303263E+03  0.19581272123E+04  0.12699999809E+01 0.  1.
</event>
<event>
 5   0  0.1070988E-07  0.3378383E+04  0.7818609E-02  0.8143232E-01
        1   -1    0    0  501    0  0.00000000000E+00  0.00000000000E+00  0.28668448542E+04  0.28668448542E+04  0.50400001928E-02 0.  1.
       -1   -1    0    0    0  501  0.00000000000E+00  0.00000000000E+00 -0.99529894100E+03  0.99529894101E+03  0.50400001928E-02 0. -1.
    10030    2    1    2    0    0  0.00000000000E+00  0.00000000000E+00  0.18715459132E+04  0.38621437952E+04  0.33783828365E+04 0.  0.
        2    1    3    3  502    0  0.39033865076E+03 -0.14572792242E+04  0.18044045974E+04  0.23519997769E+04  0.25500000920E-02 0.  1.
       -2    1    3    3    0  502 -0.39033865076E+03  0.14572792242E+04  0.67141315824E+02  0.15101440183E+04  0.25500000920E-02 0. -1.
</event>
<event>
 5   0  0.1084315E-07  0.3823047E+04  0.7818609E-02  0.8041227E-01
        1   -1    0    0  501    0  0.00000000000E+00  0.00000000000E+00  0.11981352032E+04  0.11981352032E+04  0.50400001928E-02 0.  1.
       -1   -1    0    0    0  501  0.00000000000E+00  0.00000000000E+00 -0.30496749645E+04  0.30496749645E+04  0.50400001928E-02 0. -1.
    10030    2    1    2    0    0  0.00000000000E+00  0.00000000000E+00 -0.18515397613E+04  0.42478101677E+04  0.38230474406E+04 0.  0.
        4    1    3    3  502    0 -0.15460318066E+04  0.98091081419E+03 -0.31565143140E+03  0.18579660415E+04  0.12699999809E+01 0.  1.
       -4    1    3    3    0  502  0.15460318066E+04 -0.98091081419E+03 -0.15358883299E+04  0.23898441261E+04  0.12699999809E+01 0. -1.
</event>
<event>
 5   0  0.3377396E-07  0.3768388E+04  0.7818609E-02  0.8052973E-01
        2   -1    0    0  501    0  0.00000000000E+00  0.00000000000E+00  0.14688537814E+04  0.14688537814E+04  0.25500000920E-02 0.  1.
       -2   -1    0    0    0  501  0.00000000000E+00  0.00000000000E+00 -0.24169783304E+04  0.24169783304E+04  0.25500000920E-02 0. -1.
    10030    2    1    2    0    0  0.00000000000E+00  0.00000000000E+00 -0.94812454901E+03  0.38858321118E+04  0.37683883877E+04 0.  0.
        5    1    3    3  502    0 -0.93460310153E+03  0.14255532440E+04  0.35375278178E+03  0.17409331204E+04  0.46999998093E+01 0.  1.
       -5    1    3    3    0  502  0.93460310153E+03 -0.14255532440E+04 -0.13018773308E+04  0.21448989914E+04  0.46999998093E+01 0. -1.
</event>
<event>
 5   0  0.1085771E-07  0.3796614E+04  0.7818609E-02  0.8046882E-01
        1   -1    0    0  501    0  0.00000000000E+00  0.00000000000E+00  0.26140027700E+04  0.26140027700E+04  0.50400001928E-02 0.  1.
       -1   -1    0    0    0  501  0.00000000000E+00  0.00000000000E+00 -0.13785633968E+04  0.13785633968E+04  0.50400001928E-02 0. -1.
    10030    2    1    2    0    0  0.00000000000E+00  0.00000000000E+00  0.12354393732E+04  0.39925661668E+04  0.37966135109E+04 0.  0.
        1    1    3    3  502    0  0.91629695168E+03 -0.11312305673E+04  0.18989125332E+04  0.23927288832E+04  0.50400001928E-02 0.  1.
       -1    1    3    3    0  502 -0.91629695168E+03  0.11312305673E+04 -0.66347315992E+03  0.15998372836E+04  0.50400001928E-02 0. -1.
</event>
<event>
 5   0  0.3377396E-07  0.3797983E+04  0.7818609E-02  0.8046588E-01
       -2   -1    0    0    0  501  0.00000000000E+00  0.00000000000E+00  0.29785921857E+04  0.29785921857E+04  0.25500000920E-02 0.  1.
        2   -1    0    0  501    0  0.00000000000E+00  0.00000000000E+00 -0.12106959056E+04  0.12106959056E+04  0.25500000920E-02 0. -1.
    10030    2    1    2    0    0  0.00000000000E+00  0.00000000000E+00  0.17678962801E+04  0.41892880913E+04  0.37979833406E+04 0.  0.
        5    1    3    3  502    0 -0.91595198736E+03 -0.81274953767E+03  0.24849063931E+04  0.27702548125E+04  0.46999998093E+01 0.  1.
       -5    1    3    3    0  502  0.91595198736E+03  0.81274953767E+03 -0.71701011301E+03  0.14190332788E+04  0.46999998093E+01 0. -1.
</event>
<event>
 5   0  0.1070988E-07  0.3781148E+04  0.7818609E-02  0.8050213E-01
        1   -1    0    0  501    0  0.00000000000E+00  0.00000000000E+00  0.28239048505E+04  0.28239048505E+04  0.50400001928E-02 0. -1.
       -1   -1    0    0    0  501  0.00000000000E+00  0.00000000000E+00 -0.12657187065E+04  0.12657187065E+04  0.50400001928E-02 0.  1.
    10030    2    1    2    0    0  0.00000000000E+00  0.00000000000E+00  0.15581861440E+04  0.40896235570E+04  0.37811475479E+04 0.  0.
        2    1    3    3  502    0 -0.10071970623E+04 -0.11824290518E+04  0.19448388852E+04  0.24889722124E+04  0.25500000920E-02 0.  1.
       -2    1    3    3    0  502  0.10071970623E+04  0.11824290518E+04 -0.38665274119E+03  0.16006513446E+04  0.25500000920E-02 0. -1.
</event>
<event>
 5   0  0.3539010E-07  0.3953488E+04  0.7818609E-02  0.8013996E-01
       -2   -1    0    0    0  501  0.00000000000E+00  0.00000000000E+00  0.12816749772E+04  0.12816749772E+04  0.25500000920E-02 0. -1.
        2   -1    0    0  501    0  0.00000000000E+00  0.00000000000E+00 -0.30487575801E+04  0.30487575801E+04  0.25500000920E-02 0.  1.
    10030    2    1    2    0    0  0.00000000000E+00  0.00000000000E+00 -0.17670826029E+04  0.43304325573E+04  0.39534877270E+04 0.  0.
        1    1    3    3  502    0  0.17181566538E+03 -0.50719867860E+03  0.12007089610E+04  0.13147140874E+04  0.50400001928E-02 0. -1.
       -1    1    3    3    0  502 -0.17181566538E+03  0.50719867860E+03 -0.29677915639E+04  0.30157184699E+04  0.50400001928E-02 0.  1.
</event>
<event>
 5   0  0.3442126E-07  0.3805401E+04  0.7818609E-02  0.8044997E-01
       -2   -1    0    0    0  501  0.00000000000E+00  0.00000000000E+00  0.26514384971E+04  0.26514384971E+04  0.25500000920E-02 0. -1.
        2   -1    0    0  501    0  0.00000000000E+00  0.00000000000E+00 -0.13653980375E+04  0.13653980375E+04  0.25500000920E-02 0.  1.
    10030    2    1    2    0    0  0.00000000000E+00  0.00000000000E+00  0.12860404596E+04  0.40168365346E+04  0.38054008570E+04 0.  0.
        2    1    3    3  502    0 -0.14544869551E+04 -0.99375213381E+03 -0.11609935829E+03  0.17653766360E+04  0.25500000920E-02 0.  1.
       -2    1    3    3    0  502  0.14544869551E+04  0.99375213381E+03  0.14021398179E+04  0.22514598986E+04  0.25500000920E-02 0. -1.
</event>
<event>
 5   0  0.1084315E-07  0.3727764E+04  0.7818609E-02  0.8061837E-01
       -1   -1    0    0    0  501  0.00000000000E+00  0.00000000000E+00  0.18758840505E+04  0.18758840505E+04  0.50400001928E-02 0.  1.
        1   -1    0    0  501    0  0.00000000000E+00  0.00000000000E+00 -0.18519572085E+04  0.18519572085E+04  0.50400001928E-02 0. -1.
    10030    2    1    2    0    0  0.00000000000E+00  0.00000000000E+00  0.23926842020E+02  0.37278412590E+04  0.37277644720E+04 0.  0.
        4    1    3    3  502    0 -0.15277540801E+04  0.82915162028E+03  0.68468110422E+03  0.18682384125E+04  0.12699999809E+01 0.  1.
       -4    1    3    3    0  502  0.15277540801E+04 -0.82915162028E+03 -0.66075426220E+03  0.18596028465E+04  0.12699999809E+01 0. -1.
</event>
<event>
 5   0  0.3509843E-07  0.3722669E+04  0.7818609E-02  0.8062957E-01
        2   -1    0    0  501    0  0.00000000000E+00  0.00000000000E+00  0.26131916344E+04  0.26131916344E+04  0.25500000920E-02 0. -1.
       -2   -1    0    0    0  501  0.00000000000E+00  0.00000000000E+00 -0.13257986529E+04  0.13257986529E+04  0.25500000920E-02 0.  1.
    10030    2    1    2    0    0  0.00000000000E+00  0.00000000000E+00  0.12873929815E+04  0.39389902874E+04  0.37226689076E+04 0.  0.
        4    1    3    3  502    0  0.33572188547E+03  0.18192738318E+04  0.86079687561E+03  0.20404507672E+04  0.12699999809E+01 0. -1.
       -4    1    3    3    0  502 -0.33572188547E+03 -0.18192738318E+04  0.42659610590E+03  0.18985395202E+04  0.12699999809E+01 0.  1.
</event>
<event>
 5   0  0.3377396E-07  0.3669451E+04  0.7818609E-02  0.8074766E-01
        2   -1    0    0  501    0  0.00000000000E+00  0.00000000000E+00  0.13975368230E+04  0.13975368230E+04  0.25500000920E-02 0. -1.
       -2   -1    0    0    0  501  0.00000000000E+00  0.00000000000E+00 -0.24086791862E+04  0.24086791862E+04  0.25500000920E-02 0.  1.
    10030    2    1    2    0    0  0.00000000000E+00  0.00000000000E+00 -0.10111423632E+04  0.38062160092E+04  0.36694511075E+04 0.  0.
        5    1    3    3  502    0 -0.24618544059E+03 -0.16310729081E+04  0.32760342895E+03  0.16817705549E+04  0.46999998093E+01 0. -1.
       -5    1    3    3    0  502  0.24618544059E+03  0.16310729081E+04 -0.13387457921E+04  0.21244454543E+04  0.46999998093E+01 0.  1.
</event>
<event>
 5   0  0.1085771E-07  0.3774982E+04  0.7818609E-02  0.8051545E-01
       -1   -1    0    0    0  501  0.00000000000E+00  0.00000000000E+00  0.16863656703E+04  0.16863656703E+04  0.50400001928E-02 0.  1.
        1   -1    0    0  501    0  0.00000000000E+00  0.00000000000E+00 -0.21126038458E+04  0.21126038458E+04  0.50400001928E-02 0. -1.
    10030    2    1    2    0    0  0.00000000000E+00  0.00000000000E+00 -0.42623817542E+03  0.37989695161E+04  0.37749821724E+04 0.  0.
        1    1    3    3  502    0  0.10770068779E+04 -0.47598080599E+03  0.12714227089E+04  0.17329215930E+04  0.50400001928E-02 0.  1.
       -1    1    3    3    0  502 -0.10770068779E+04  0.47598080599E+03 -0.16976608843E+04  0.20660479232E+04  0.50400001928E-02 0. -1.
</event>
<event>
 5   0  0.3509843E-07  0.3826589E+04  0.7818609E-02  0.8040473E-01
       -2   -1    0    0    0  501  0.00000000000E+00  0.00000000000E+00  0.29683871681E+04  0.29683871681E+04  0.25500000920E-02 0. -1.
        2   -1    0    0  501    0  0.00000000000E+00  0.00000000000E+00 -0.12332274895E+04  0.12332274895E+04  0.25500000920E-02 0.  1.
    10030    2    1    2    0    0  0.00000000000E+00  0.00000000000E+00  0.17351596786E+04  0.42016146576E+04  0.38265894241E+04 0.  0.
        4    1    3    3  502    0  0.11848824784E+04  0.14850525206E+04  0.61872342132E+03  0.19980359760E+04  0.12699999809E+01 0.  1.
       -4    1    3    3    0  502 -0.11848824784E+04 -0.14850525206E+04  0.11164362572E+04  0.22035786816E+04  0.12699999809E+01 0. -1.
</event>
<event>
 5   0  0.1070988E-07  0.3823209E+04  0.7818609E-02  0.8041192E-01
       -1   -1    0    0    0  501  0.00000000000E+00  0.00000000000E+00  0.16985737074E+04  0.16985737075E+04  0.50400001928E-02 0.  1.
        1   -1    0    0  501    0  0.00000000000E+00  0.00000000000E+00 -0.21513535604E+04  0.21513535604E+04  0.50400001928E-02 0. -1.
    10030    2    1    2    0    0  0.00000000000E+00  0.00000000000E+00 -0.45277985294E+03  0.38499272679E+04  0.38232094335E+04 0.  0.
        5    1    3    3  502    0 -0.95525603918E+03  0.25400032971E+03  0.14212535413E+04  0.17311886052E+04  0.46999998093E+01 0.  1.
       -5    1    3    3    0  502  0.95525603918E+03 -0.25400032971E+03 -0.18740333943E+04  0.21187386627E+04  0.46999998093E+01 0. -1.
</event>
<event>
 5   0  0.1070988E-07  0.3816549E+04  0.7818609E-02  0.8042613E-01
       -1   -1    0    0    0  501  0.00000000000E+00  0.00000000000E+00  0.29159177536E+04  0.29159177536E+04  0.50400001928E-02 0. -1.
        1   -1    0    0  501    0  0.00000000000E+00  0.00000000000E+00 -0.12488386857E+04  0.12488386857E+04  0.50400001928E-02 0.  1.
    10030    2    1    2    0    0  0.00000000000E+00  0.00000000000E+00  0.16670790679E+04  0.41647564394E+04  0.38165486477E+04 0.  0.
        2    1    3    3  502    0 -0.10457321257E+04 -0.54275768757E+03 -0.80454003397E+03  0.14266836553E+04  0.25500000920E-02 0.  1.
       -2    1    3    3    0  502  0.10457321257E+04  0.54275768757E+03  0.24716191019E+04  0.27380727841E+04  0.25500000920E-02 0. -1.
</event>
<event>
 5   0  0.1070988E-07  0.3768543E+04  0.7818609E-02  0.8052939E-01
       -1   -1    0    0    0  501  0.00000000000E+00  0.00000000000E+00  0.16580422299E+04  0.16580422299E+04  0.50400001928E-02 0. -1.
        1   -1    0    0  501    0  0.00000000000E+00  0.00000000000E+00 -0.21413685554E+04  0.21413685554E+04  0.50400001928E-02 0.  1.
    10030    2    1    2    0    0  0.00000000000E+00  0.00000000000E+00 -0.48332632549E+03  0.37994107853E+04  0.37685432170E+04 0.  0.
        2    1    3    3  502    0  0.23524413221E+03  0.70517919210E+03  0.15039522577E+04  0.16776441483E+04  0.25500000920E-02 0. -1.
       -2    1    3    3    0  502 -0.23524413221E+03 -0.70517919210E+03 -0.19872785832E+04  0.21217666370E+04  0.25500000920E-02 0.  1.
</event>
<event>
 5   0  0.1070988E-07  0.3779810E+04  0.7818609E-02  0.8050502E-01
       -1   -1    0    0    0  501  0.00000000000E+00  0.00000000000E+00  0.16645387834E+04  0.16645387834E+04  0.50400001928E-02 0. -1.
        1   -1    0    0  501    0  0.00000000000E+00  0.00000000000E+00 -0.21457840499E+04  0.21457840500E+04  0.50400001928E-02 0.  1.
    10030    2    1    2    0    0  0.00000000000E+00  0.00000000000E+00 -0.48124526651E+03  0.38103228334E+04  0.37798099275E+04 0.  0.
        3    1    3    3  502    0 -0.63460009120E+03  0.19086254282E+03  0.15435790118E+04  0.16798160500E+04  0.10100000352E+00 0. -1.
       -3    1    3    3    0  502  0.63460009120E+03 -0.19086254282E+03 -0.20248242783E+04  0.21305067834E+04  0.10100000352E+00 0.  1.
</event>
<event>
 5   0  0.1070988E-07  0.3803154E+04  0.7818609E-02  0.8045478E-01
        1   -1    0    0  501    0  0.00000000000E+00  0.00000000000E+00  0.28707678176E+04  0.28707678176E+04  0.50400001928E-02 0. -1.
       -1   -1    0    0    0  501  0.00000000000E+00  0.00000000000E+00 -0.12595919472E+04  0.12595919472E+04  0.50400001928E-02 0.  1.
    10030    2    1    2    0    0  0.00000000000E+00  0.00000000000E+00  0.16111758704E+04  0.41303597647E+04  0.38031544934E+04 0.  0.
        5    1    3    3  502    0  0.17195055429E+04 -0.76241328918E+03  0.11089022343E+04  0.21834971011E+04  0.46999998093E+01 0. -1.
       -5    1    3    3    0  502 -0.17195055429E+04  0.76241328918E+03  0.50227363612E+03  0.19468626636E+04  0.46999998093E+01 0.  1.
</event>
<event>
 5   0  0.1070988E-07  0.3746966E+04  0.7818609E-02  0.8057633E-01
        1   -1    0    0  501    0  0.00000000000E+00  0.00000000000E+00  0.27124326609E+04  0.27124326609E+04  0.50400001928E-02 0. -1.
       -1   -1    0    0    0  501  0.00000000000E+00  0.00000000000E+00 -0.12940187599E+04  0.12940187599E+04  0.50400001928E-02 0.  1.
    10030    2    1    2    0    0  0.00000000000E+00  0.00000000000E+00  0.14184139010E+04  0.40064514208E+04  0.37469661051E+04 0.  0.
        2    1    3    3  502    0 -0.75655701947E+03 -0.10598504152E+04  0.21494372809E+04  0.25131140147E+04  0.25500000920E-02 0. -1.
       -2    1    3    3    0  502  0.75655701947E+03  0.10598504152E+04 -0.73102337992E+03  0.14933374061E+04  0.25500000920E-02 0.  1.
</event>
<event>
 5   0  0.3509843E-07  0.3810965E+04  0.7818609E-02  0.8043806E-01
       -2   -1    0    0    0  501  0.00000000000E+00  0.00000000000E+00  0.19417504318E+04  0.19417504318E+04  0.25500000920E-02 0.  1.
        2   -1    0    0  501    0  0.00000000000E+00  0.00000000000E+00 -0.18698919957E+04  0.18698919957E+04  0.25500000920E-02 0. -1.
    10030    2    1    2    0    0  0.00000000000E+00  0.00000000000E+00  0.71858436044E+02  0.38116424275E+04  0.38109650170E+04 0.  0.
        4    1    3    3  502    0  0.71589837796E+03  0.15100469784E+03 -0.17238007769E+04  0.18726461593E+04  0.12699999809E+01 0. -1.
       -4    1    3    3    0  502 -0.71589837796E+03 -0.15100469784E+03  0.17956592130E+04  0.19389962683E+04  0.12699999809E+01 0.  1.
</event>
<event>
 5   0  0.3509843E-07  0.3783513E+04  0.7818609E-02  0.8049702E-01
        2   -1    0    0  501    0  0.00000000000E+00  0.00000000000E+00  0.18590820415E+04  0.18590820415E+04  0.25500000920E-02 0.  1.
       -2   -1    0    0    0  501  0.00000000000E+00  0.00000000000E+00 -0.19250053604E+04  0.19250053604E+04  0.25500000920E-02 0. -1.
    10030    2    1    2    0    0  0.00000000000E+00  0.00000000000E+00 -0.65923318855E+02  0.37840874019E+04  0.37835131269E+04 0.  0.
        4    1    3    3  502    0 -0.92729915318E+03  0.11078609191E+04  0.11884942555E+04  0.18707644811E+04  0.12699999809E+01 0.  1.
       -4    1    3    3    0  502  0.92729915318E+03 -0.11078609191E+04 -0.12544175744E+04  0.19133229208E+04  0.12699999809E+01 0. -1.
</event>
<event>
 5   0  0.3539010E-07  0.3828238E+04  0.7818609E-02  0.8040122E-01
       -2   -1    0    0    0  501  0.00000000000E+00  0.00000000000E+00  0.27496043628E+04  0.27496043628E+04  0.25500000920E-02 0. -1.
        2   -1    0    0  501    0  0.00000000000E+00  0.00000000000E+00 -0.13325016971E+04  0.13325016971E+04  0.25500000920E-02 0.  1.
    10030    2    1    2    0    0  0.00000000000E+00  0.00000000000E+00  0.14171026656E+04  0.40821060599E+04  0.38282384878E+04 0.  0.
        1    1    3    3  502    0  0.18833817414E+04 -0.88334495519E+02  0.35663086683E+03  0.19188838793E+04  0.50400001928E-02 0.  1.
       -1    1    3    3    0  502 -0.18833817414E+04  0.88334495519E+02  0.10604717988E+04  0.21632221807E+04  0.50400001928E-02 0. -1.
</event>
<event>
 5   0  0.1084315E-07  0.3733937E+04  0.7818609E-02  0.8060482E-01
        1   -1    0    0  501    0  0.00000000000E+00  0.00000000000E+00  0.21473846475E+04  0.21473846475E+04  0.50400001928E-02 0. -1.
       -1   -1    0    0    0  501  0.00000000000E+00  0.00000000000E+00 -0.16231702837E+04  0.16231702837E+04  0.50400001928E-02 0.  1.
    10030    2    1    2    0    0  0.00000000000E+00  0.00000000000E+00  0.52421436376E+03  0.37705549312E+04  0.37339367683E+04 0.  0.
        4    1    3    3  502    0  0.35277200939E+03 -0.14753771041E+04  0.13610738332E+04  0.20380650829E+04  0.12699999809E+01 0. -1.
       -4    1    3    3    0  502 -0.35277200939E+03  0.14753771041E+04 -0.83685946941E+03  0.17324898483E+04  0.12699999809E+01 0.  1.
</event>
<event>
 5   0  0.1084315E-07  0.3777920E+04  0.7818609E-02  0.8050910E-01
        1   -1    0    0  501    0  0.00000000000E+00  0.00000000000E+00  0.21523748244E+04  0.21523748244E+04  0.50400001928E-02 0.  1.
       -1   -1    0    0    0  501  0.00000000000E+00  0.00000000000E+00 -0.16577823675E+04  0.16577823675E+04  0.50400001928E-02 0. -1.
    10030    2    1    2    0    0  0.00000000000E+00  0.00000000000E+00  0.49459245691E+03  0.38101571919E+04  0.37779195503E+04 0.  0.
        4    1    3    3  502    0  0.31885398545E+03  0.18605156006E+04  0.31847648996E+03  0.19143184301E+04  0.12699999809E+01 0.  1.
       -4    1    3    3    0  502 -0.31885398545E+03 -0.18605156006E+04  0.17611596695E+03  0.18958387619E+04  0.12699999809E+01 0. -1.
</event>
<event>
 5   0  0.3377396E-07  0.3732374E+04  0.7818609E-02  0.8060825E-01
       -2   -1    0    0    0  501  0.00000000000E+00  0.00000000000E+00  0.17708252593E+04  0.17708252593E+04  0.25500000920E-02 0.  1.
        2   -1    0    0  501    0  0.00000000000E+00  0.00000000000E+00 -0.19666838170E+04  0.19666838170E+04  0.25500000920E-02 0. -1.
    10030    2    1    2    0    0  0.00000000000E+00  0.00000000000E+00 -0.19585855772E+03  0.37375090763E+04  0.37323737113E+04 0.  0.
        5    1    3    3  502    0  0.46882572796E+02  0.88979142727E+03 -0.17399123440E+04  0.19548001981E+04  0.46999998093E+01 0. -1.
       -5    1    3    3    0  502 -0.46882572796E+02 -0.88979142727E+03  0.15440537863E+04  0.17827088782E+04  0.46999998093E+01 0.  1.
</event>
<event>
 5   0  0.1070988E-07  0.3808089E+04  0.7818609E-02  0.8044421E-01
       -1   -1    0    0    0  501  0.00000000000E+00  0.00000000000E+00  0.21781551496E+04  0.21781551496E+04  0.50400001928E-02 0. -1.
        1   -1    0    0  501    0  0.00000000000E+00  0.00000000000E+00 -0.16644297702E+04  0.16644297702E+04  0.50400001928E-02 0.  1.
    10030    2    1    2    0    0  0.00000000000E+00  0.00000000000E+00  0.51372537941E+03  0.38425849198E+04  0.38080894292E+04 0.  0.
        5    1    3    3  502    0 -0.10633523412E+03  0.16028756244E+04 -0.77457412958E+03  0.17833969332E+04  0.46999998093E+01 0.  1.
       -5    1    3    3    0  502  0.10633523412E+03 -0.16028756244E+04  0.12882995090E+04  0.20591879866E+04  0.46999998093E+01 0. -1.
</event>
<event>
 5   0  0.3442126E-07  0.3809318E+04  0.7818609E-02  0.8044158E-01
        2   -1    0    0  501    0  0.00000000000E+00  0.00000000000E+00  0.22511437212E+04  0.22511437212E+04  0.25500000920E-02 0. -1.
       -2   -1    0    0    0  501  0.00000000000E+00  0.00000000000E+00 -0.16115034694E+04  0.16115034694E+04  0.25500000920E-02 0.  1.
    10030    2    1    2    0    0  0.00000000000E+00  0.00000000000E+00  0.63964025177E+03  0.38626471905E+04  0.38093180055E+04 0.  0.
        2    1    3    3  502    0  0.33107494748E+03 -0.17028177651E+04 -0.47765496696E+03  0.17992646357E+04  0.25500000920E-02 0.  1.
       -2    1    3    3    0  502 -0.33107494748E+03  0.17028177651E+04  0.11172952187E+04  0.20633825548E+04  0.25500000920E-02 0. -1.
</event>
<event>
 5   0  0.1070988E-07  0.3836130E+04  0.7818609E-02  0.8038446E-01
       -1   -1    0    0    0  501  0.00000000000E+00  0.00000000000E+00  0.28551581565E+04  0.28551581565E+04  0.50400001928E-02 0.  1.
        1   -1    0    0  501    0  0.00000000000E+00  0.00000000000E+00 -0.12885360621E+04  0.12885360621E+04  0.50400001928E-02 0. -1.
    10030    2    1    2    0    0  0.00000000000E+00  0.00000000000E+00  0.15666220944E+04  0.41436942187E+04  0.38361304711E+04 0.  0.
        3    1    3    3  502    0 -0.39802986657E+03 -0.10916582492E+04 -0.86509084711E+03  0.14486295909E+04  0.10100000352E+00 0. -1.
       -3    1    3    3    0  502  0.39802986657E+03  0.10916582492E+04  0.24317129415E+04  0.26950646278E+04  0.10100000352E+00 0.  1.
</event>
<event>
 5   0  0.3327241E-07  0.3802526E+04  0.7818609E-02  0.8045613E-01
        2   -1    0    0  501    0  0.00000000000E+00  0.00000000000E+00  0.23680123301E+04  0.23680123301E+04  0.25500000920E-02 0. -1.
       -2   -1    0    0    0  501  0.00000000000E+00  0.00000000000E+00 -0.15265128763E+04  0.15265128763E+04  0.25500000920E-02 0.  1.
    10030    2    1    2    0    0  0.00000000000E+00  0.00000000000E+00  0.84149945373E+03  0.38945252064E+04  0.38025261673E+04 0.  0.
        3    1    3    3  502    0  0.28140305218E+03  0.10108875021E+04 -0.12030810378E+04  0.15963975737E+04  0.10100000352E+00 0.  1.
       -3    1    3    3    0  502 -0.28140305218E+03 -0.10108875021E+04  0.20445804915E+04  0.22981276327E+04  0.10100000352E+00 0. -1.
</event>
<event>
 5   0  0.3509843E-07  0.3714832E+04  0.7818609E-02  0.8064683E-01
        2   -1    0    0  501    0  0.00000000000E+00  0.00000000000E+00  0.19114509840E+04  0.19114509840E+04  0.25500000920E-02 0. -1.
       -2   -1    0    0    0  501  0.00000000000E+00  0.00000000000E+00 -0.18049087825E+04  0.18049087825E+04  0.25500000920E-02 0.  1.
    10030    2    1    2    0    0  0.00000000000E+00  0.00000000000E+00  0.10654220151E+03  0.37163597665E+04  0.37148322537E+04 0.  0.
        4    1    3    3  502    0 -0.45879903667E+03 -0.16320467589E+04 -0.70593480135E+03  0.18364146416E+04  0.12699999809E+01 0.  1.
       -4    1    3    3    0  502  0.45879903667E+03  0.16320467589E+04  0.81247700287E+03  0.18799451248E+04  0.12699999809E+01 0. -1.
</event>
<event>
 5   0  0.3509843E-07  0.3794177E+04  0.7818609E-02  0.8047406E-01
       -2   -1    0    0    0  501  0.00000000000E+00  0.00000000000E+00  0.20017791870E+04  0.20017791870E+04  0.25500000920E-02 0. -1.
        2   -1    0    0  501    0  0.00000000000E+00  0.00000000000E+00 -0.17978730251E+04  0.17978730251E+04  0.25500000920E-02 0.  1.
    10030    2    1    2    0    0  0.00000000000E+00  0.00000000000E+00  0.20390616189E+03  0.37996522121E+04  0.37941770136E+04 0.  0.
        4    1    3    3  502    0  0.50226709639E+02 -0.18704932114E+04  0.41493505970E+03  0.19166221049E+04  0.12699999809E+01 0.  1.
       -4    1    3    3    0  502 -0.50226709639E+02  0.18704932114E+04 -0.21102889781E+03  0.18830301073E+04  0.12699999809E+01 0. -1.
</event>
<event>
 5   0  0.1084315E-07  0.3841373E+04  0.7818609E-02  0.8037334E-01
       -1   -1    0    0    0  501  0.00000000000E+00  0.00000000000E+00  0.25111987766E+04  0.25111987766E+04  0.50400001928E-02 0.  1.
        1   -1    0    0  501    0  0.00000000000E+00  0.00000000000E+00 -0.14690343414E+04  0.14690343414E+04  0.50400001928E-02 0. -1.
    10030    2    1    2    0    0  0.00000000000E+00  0.00000000000E+00  0.10421644353E+04  0.39802331180E+04  0.38413733174E+04 0.  0.
        4    1    3    3  502    0  0.15013738440E+03 -0.10995583192E+04 -0.11032159089E+04  0.15648184195E+04  0.12699999809E+01 0. -1.
       -4    1    3    3    0  502 -0.15013738440E+03  0.10995583192E+04  0.21453803442E+04  0.24154146985E+04  0.12699999809E+01 0.  1.
</event>
<event>
 5   0  0.3539010E-07  0.3766854E+04  0.7818609E-02  0.8053306E-01
       -2   -1    0    0    0  501  0.00000000000E+00  0.00000000000E+00  0.14648842061E+04  0.14648842061E+04  0.25500000920E-02 0.  1.
        2   -1    0    0  501    0  0.00000000000E+00  0.00000000000E+00 -0.24215543361E+04  0.24215543361E+04  0.25500000920E-02 0. -1.
    10030    2    1    2    0    0  0.00000000000E+00  0.00000000000E+00 -0.95667012997E+03  0.38864385422E+04  0.37668537010E+04 0.  0.
        1    1    3    3  502    0  0.18800690217E+04  0.54957188996E+02 -0.57951402157E+03  0.19681250774E+04  0.50400001928E-02 0. -1.
       -1    1    3    3    0  502 -0.18800690217E+04 -0.54957188996E+02 -0.37715610840E+03  0.19183134648E+04  0.50400001928E-02 0.  1.
</event>
<event>
 5   0  0.1070988E-07  0.3800797E+04  0.7818609E-02  0.8045984E-01
        1   -1    0    0  501    0  0.00000000000E+00  0.00000000000E+00  0.19122839539E+04  0.19122839539E+04  0.50400001928E-02 0. -1.
       -1   -1    0    0    0  501  0.00000000000E+00  0.00000000000E+00 -0.18885865939E+04  0.18885865939E+04  0.50400001928E-02 0.  1.
    10030    2    1    2    0    0  0.00000000000E+00  0.00000000000E+00  0.23697360013E+02  0.38008705478E+04  0.38007966739E+04 0.  0.
        3    1    3    3  502    0  0.97959261654E+03 -0.10685913292E+03 -0.16131423676E+04  0.18903039112E+04  0.10100000352E+00 0.  1.
       -3    1    3    3    0  502 -0.97959261654E+03  0.10685913292E+03  0.16368397276E+04  0.19105666365E+04  0.10100000352E+00 0. -1.
</event>
<event>
 5   0  0.1070988E-07  0.3494909E+04  0.7818609E-02  0.8114997E-01
        3   -1    0    0  501    0  0.00000000000E+00  0.00000000000E+00  0.17376550351E+04  0.17376550380E+04  0.10100000352E+00 0.  1.
       -3   -1    0    0    0  501  0.00000000000E+00  0.00000000000E+00 -0.17573094058E+04  0.17573094088E+04  0.10100000352E+00 0. -1.
    10030    2    1    2    0    0  0.00000000000E+00  0.00000000000E+00 -0.19654370789E+02  0.34949644467E+04  0.34949091819E+04 0.  0.
        1    1    3    3  502    0  0.10839119848E+04 -0.83840611448E+03 -0.10941909298E+04  0.17535802789E+04  0.50400001928E-02 0. -1.
       -1    1    3    3    0  502 -0.10839119848E+04  0.83840611448E+03  0.10745365590E+04  0.17413841679E+04  0.50400001928E-02 0.  1.
</event>
<event>
 5   0  0.3539010E-07  0.3805196E+04  0.7818609E-02  0.8045041E-01
       -2   -1    0    0    0  501  0.00000000000E+00  0.00000000000E+00  0.23753612754E+04  0.23753612755E+04  0.25500000920E-02 0.  1.
        2   -1    0    0  501    0  0.00000000000E+00  0.00000000000E+00 -0.15239280508E+04  0.15239280508E+04  0.25500000920E-02 0. -1.
    10030    2    1    2    0    0  0.00000000000E+00  0.00000000000E+00  0.85143322464E+03  0.38992893263E+04  0.38051962780E+04 0.  0.
        1    1    3    3  502    0 -0.22068986832E+03 -0.16208466226E+04 -0.56992199690E+03  0.17322409978E+04  0.50400001928E-02 0. -1.
       -1    1    3    3    0  502  0.22068986832E+03  0.16208466226E+04  0.14213552215E+04  0.21670483284E+04  0.50400001928E-02 0.  1.
</event>
<event>
 5   0  0.1070988E-07  0.3785426E+04  0.7818609E-02  0.8049290E-01
       -1   -1    0    0    0  501  0.00000000000E+00  0.00000000000E+00  0.16268120565E+04  0.16268120565E+04  0.50400001928E-02 0. -1.
        1   -1    0    0  501    0  0.00000000000E+00  0.00000000000E+00 -0.22020754355E+04  0.22020754355E+04  0.50400001928E-02 0.  1.
    10030    2    1    2    0    0  0.00000000000E+00  0.00000000000E+00 -0.57526337894E+03  0.38288874920E+04  0.37854261941E+04 0.  0.
        5    1    3    3  502    0  0.13229264369E+03 -0.56273694432E+03  0.15353275918E+04  0.16405569530E+04  0.46999998093E+01 0. -1.
       -5    1    3    3    0  502 -0.13229264369E+03  0.56273694432E+03 -0.21105909707E+04  0.21883305390E+04  0.46999998093E+01 0.  1.
</event>
<event>
 5   0  0.1070988E-07  0.3788480E+04  0.7818609E-02  0.8048632E-01
       -1   -1    0    0    0  501  0.00000000000E+00  0.00000000000E+00  0.16354164126E+04  0.16354164127E+04  0.50400001928E-02 0. -1.
        1   -1    0    0  501    0  0.00000000000E+00  0.00000000000E+00 -0.21940248691E+04  0.21940248691E+04  0.50400001928E-02 0.  1.
    10030    2    1    2    0    0  0.00000000000E+00  0.00000000000E+00 -0.55860845647E+03  0.38294412818E+04  0.37884795265E+04 0.  0.
        5    1    3    3  502    0 -0.84926102196E+03 -0.82287777434E+03  0.12164758515E+04  0.16965281318E+04  0.46999998093E+01 0.  1.
       -5    1    3    3    0  502  0.84926102196E+03  0.82287777434E+03 -0.17750843079E+04  0.21329131499E+04  0.46999998093E+01 0. -1.
</event>
<event>
 5   0  0.1085771E-07  0.3802499E+04  0.7818609E-02  0.8045619E-01
       -1   -1    0    0    0  501  0.00000000000E+00  0.00000000000E+00  0.31962247280E+04  0.31962247280E+04  0.50400001928E-02 0.  1.
        1   -1    0    0  501    0  0.00000000000E+00  0.00000000000E+00 -0.11309433077E+04  0.11309433077E+04  0.50400001928E-02 0. -1.
    10030    2    1    2    0    0  0.00000000000E+00  0.00000000000E+00  0.20652814203E+04  0.43271680357E+04  0.38024986344E+04 0.  0.
        1    1    3    3  502    0  0.35372625205E+03 -0.30655200566E+01 -0.10931651244E+04  0.11489741721E+04  0.50400001928E-02 0. -1.
       -1    1    3    3    0  502 -0.35372625205E+03  0.30655200566E+01  0.31584465448E+04  0.31781938636E+04  0.50400001928E-02 0.  1.
</event>
<event>
 5   0  0.3377396E-07  0.3816643E+04  0.7818609E-02  0.8042593E-01
       -2   -1    0    0    0  501  0.00000000000E+00  0.00000000000E+00  0.16759803282E+04  0.16759803282E+04  0.25500000920E-02 0.  1.
        2   -1    0    0  501    0  0.00000000000E+00  0.00000000000E+00 -0.21728718747E+04  0.21728718747E+04  0.25500000920E-02 0. -1.
    10030    2    1    2    0    0  0.00000000000E+00  0.00000000000E+00 -0.49689154647E+03  0.38488522029E+04  0.38166427749E+04 0.  0.
        5    1    3    3  502    0  0.15969197826E+03  0.11611501952E+04  0.12702171710E+04  0.17283648502E+04  0.46999998093E+01 0.  1.
       -5    1    3    3    0  502 -0.15969197826E+03 -0.11611501952E+04 -0.17671087175E+04  0.21204873527E+04  0.46999998093E+01 0. -1.
</event>
<event>
 5   0  0.3539010E-07  0.3724104E+04  0.7818609E-02  0.8062641E-01
        2   -1    0    0  501    0  0.00000000000E+00  0.00000000000E+00  0.19752846010E+04  0.19752846010E+04  0.25500000920E-02 0. -1.
       -2   -1    0    0    0  501  0.00000000000E+00  0.00000000000E+00 -0.17553101297E+04  0.17553101297E+04  0.25500000920E-02 0.  1.
    10030    2    1    2    0    0  0.00000000000E+00  0.00000000000E+00  0.21997447131E+03  0.37305947306E+04  0.37241036876E+04 0.  0.
        1    1    3    3  502    0 -0.17439516080E+04  0.64145585527E+03  0.23021410579E+03  0.18723865412E+04  0.50400001928E-02 0.  1.
       -1    1    3    3    0  502  0.17439516080E+04 -0.64145585527E+03 -0.10239634483E+02  0.18582081894E+04  0.50400001928E-02 0. -1.
</event>
<event>
 5   0  0.1070988E-07  0.3751507E+04  0.7818609E-02  0.8056642E-01
        1   -1    0    0  501    0  0.00000000000E+00  0.00000000000E+00  0.15310540213E+04  0.15310540213E+04  0.50400001928E-02 0. -1.
       -1   -1    0    0    0  501  0.00000000000E+00  0.00000000000E+00 -0.22980580735E+04  0.22980580735E+04  0.50400001928E-02 0.  1.
    10030    2    1    2    0    0  0.00000000000E+00  0.00000000000E+00 -0.76700405225E+03  0.38291120948E+04  0.37515069263E+04 0.  0.
        2    1    3    3  502    0 -0.15018464446E+03  0.12277437223E+04 -0.18228294501E+04  0.22028656971E+04  0.25500000920E-02 0.  1.
       -2    1    3    3    0  502  0.15018464446E+03 -0.12277437223E+04  0.10558253979E+04  0.16262463977E+04  0.25500000920E-02 0. -1.
</event>
<event>
 5   0  0.1070988E-07  0.3780491E+04  0.7818609E-02  0.8050354E-01
       -1   -1    0    0    0  501  0.00000000000E+00  0.00000000000E+00  0.15139559713E+04  0.15139559713E+04  0.50400001928E-02 0. -1.
        1   -1    0    0  501    0  0.00000000000E+00  0.00000000000E+00 -0.23600613289E+04  0.23600613289E+04  0.50400001928E-02 0.  1.
    10030    2    1    2    0    0  0.00000000000E+00  0.00000000000E+00 -0.84610535758E+03  0.38740173003E+04  0.37804914716E+04 0.  0.
        5    1    3    3  502    0  0.17121454342E+04 -0.80051115899E+03 -0.45105540973E+03  0.19431245910E+04  0.46999998093E+01 0.  1.
       -5    1    3    3    0  502 -0.17121454342E+04  0.80051115899E+03 -0.39504994785E+03  0.19308927093E+04  0.46999998093E+01 0. -1.
</event>
<event>
 5   0  0.3327241E-07  0.3819660E+04  0.7818609E-02  0.8041949E-01
        2   -1    0    0  501    0  0.00000000000E+00  0.00000000000E+00  0.32382236239E+04  0.32382236239E+04  0.25500000920E-02 0. -1.
       -2   -1    0    0    0  501  0.00000000000E+00  0.00000000000E+00 -0.11263738610E+04  0.11263738610E+04  0.25500000920E-02 0.  1.
    10030    2    1    2    0    0  0.00000000000E+00  0.00000000000E+00  0.21118497628E+04  0.43645974849E+04  0.38196599043E+04 0.  0.
        3    1    3    3  502    0  0.95903559090E+03 -0.18643995466E+03  0.29310616375E+04  0.30896005331E+04  0.10100000352E+00 0. -1.
       -3    1    3    3    0  502 -0.95903559090E+03  0.18643995466E+03 -0.81921187463E+03  0.12749969518E+04  0.10100000352E+00 0.  1.
</event>
<event>
 5   0  0.3539010E-07  0.3832501E+04  0.7818609E-02  0.8039216E-01
       -2   -1    0    0    0  501  0.00000000000E+00  0.00000000000E+00  0.27262818121E+04  0.27262818121E+04  0.25500000920E-02 0. -1.
        2   -1    0    0  501    0  0.00000000000E+00  0.00000000000E+00 -0.13468949794E+04  0.13468949794E+04  0.25500000920E-02 0.  1.
    10030    2    1    2    0    0  0.00000000000E+00  0.00000000000E+00  0.13793868327E+04  0.40731767916E+04  0.38325006381E+04 0.  0.
        1    1    3    3  502    0 -0.96477032360E+03 -0.14462837619E+04 -0.16683056792E+03  0.17465253894E+04  0.50400001928E-02 0.  1.
       -1    1    3    3    0  502  0.96477032360E+03  0.14462837619E+04  0.15462174006E+04  0.23266514022E+04  0.50400001928E-02 0. -1.
</event>
<event>
 5   0  0.1070988E-07  0.3803662E+04  0.7818609E-02  0.8045369E-01
       -1   -1    0    0    0  501  0.00000000000E+00  0.00000000000E+00  0.12140679915E+04  0.12140679915E+04  0.50400001928E-02 0. -1.
        1   -1    0    0  501    0  0.00000000000E+00  0.00000000000E+00 -0.29792080007E+04  0.29792080007E+04  0.50400001928E-02 0.  1.
    10030    2    1    2    0    0  0.00000000000E+00  0.00000000000E+00 -0.17651400092E+04  0.41932759922E+04  0.38036619585E+04 0.  0.
        2    1    3    3  502    0 -0.17272726998E+04  0.75680626056E+03 -0.11542569860E+04  0.22110033662E+04  0.25500000920E-02 0.  1.
       -2    1    3    3    0  502  0.17272726998E+04 -0.75680626056E+03 -0.61088302325E+03  0.19822726260E+04  0.25500000920E-02 0. -1.
</event>
<event>
 5   0  0.1070988E-07  0.3833187E+04  0.7818609E-02  0.8039070E-01
        1   -1    0    0  501    0  0.00000000000E+00  0.00000000000E+00  0.23528136458E+04  0.23528136458E+04  0.50400001928E-02 0.  1.
       -1   -1    0    0    0  501  0.00000000000E+00  0.00000000000E+00 -0.15612501261E+04  0.15612501261E+04  0.50400001928E-02 0. -1.
    10030    2    1    2    0    0  0.00000000000E+00  0.00000000000E+00  0.79156351967E+03  0.39140637719E+04  0.38331869775E+04 0.  0.
        5    1    3    3  502    0 -0.70577437293E+03  0.16301981060E+03  0.22076545951E+04  0.23234573001E+04  0.46999998093E+01 0.  1.
       -5    1    3    3    0  502  0.70577437293E+03 -0.16301981060E+03 -0.14160910754E+04  0.15906064718E+04  0.46999998093E+01 0. -1.
</event>
<event>
 5   0  0.1070988E-07  0.3743493E+04  0.7818609E-02  0.8058391E-01
        1   -1    0    0  501    0  0.00000000000E+00  0.00000000000E+00  0.18676212148E+04  0.18676212148E+04  0.50400001928E-02 0.  1.
       -1   -1    0    0    0  501  0.00000000000E+00  0.00000000000E+00 -0.18758809803E+04  0.18758809803E+04  0.50400001928E-02 0. -1.
    10030    2    1    2    0    0  0.00000000000E+00  0.00000000000E+00 -0.82597655325E+01  0.37435021951E+04  0.37434930828E+04 0.  0.
        2    1    3    3  502    0 -0.19948523378E+03 -0.10953259214E+03  0.18537345288E+04  0.18676518547E+04  0.25500000920E-02 0.  1.
       -2    1    3    3    0  502  0.19948523378E+03  0.10953259214E+03 -0.18619942943E+04  0.18758503403E+04  0.25500000920E-02 0. -1.
</event>
<event>
 5   0  0.1070988E-07  0.3564438E+04  0.7818609E-02  0.8098686E-01
        3   -1    0    0  501    0  0.00000000000E+00  0.00000000000E+00  0.25407152221E+04  0.25407152241E+04  0.10100000352E+00 0.  1.
       -3   -1    0    0    0  501  0.00000000000E+00  0.00000000000E+00 -0.12501618086E+04  0.12501618127E+04  0.10100000352E+00 0. -1.
    10030    2    1    2    0    0  0.00000000000E+00  0.00000000000E+00  0.12905534135E+04  0.37908770368E+04  0.35644383282E+04 0.  0.
        4    1    3    3  502    0 -0.15668135812E+04  0.81280990145E+03  0.38316784630E+03  0.18062070606E+04  0.12699999809E+01 0.  1.
       -4    1    3    3    0  502  0.15668135812E+04 -0.81280990145E+03  0.90738556719E+03  0.19846699763E+04  0.12699999809E+01 0. -1.
</event>
<event>
 5   0  0.1070988E-07  0.3797148E+04  0.7818609E-02  0.8046767E-01
       -1   -1    0    0    0  501  0.00000000000E+00  0.00000000000E+00  0.19306781223E+04  0.19306781223E+04  0.50400001928E-02 0.  1.
        1   -1    0    0  501    0  0.00000000000E+00  0.00000000000E+00 -0.18670034101E+04  0.18670034101E+04  0.50400001928E-02 0. -1.
    10030    2    1    2    0    0  0.00000000000E+00  0.00000000000E+00  0.63674712195E+02  0.37976815324E+04  0.37971476865E+04 0.  0.
        2    1    3    3  502    0 -0.10241772774E+04  0.41398441641E+03 -0.15124847946E+04  0.18729475291E+04  0.25500000920E-02 0. -1.
       -2    1    3    3    0  502  0.10241772774E+04 -0.41398441641E+03  0.15761595068E+04  0.19247340034E+04  0.25500000920E-02 0.  1.
</event>
<event>
 5   0  0.3327241E-07  0.3825392E+04  0.7818609E-02  0.8040728E-01
       -2   -1    0    0    0  501  0.00000000000E+00  0.00000000000E+00  0.17495116428E+04  0.17495116428E+04  0.25500000920E-02 0. -1.
        2   -1    0    0  501    0  0.00000000000E+00  0.00000000000E+00 -0.20911016098E+04  0.20911016098E+04  0.25500000920E-02 0.  1.
    10030    2    1    2    0    0  0.00000000000E+00  0.00000000000E+00 -0.34158996700E+03  0.38406132526E+04  0.38253923264E+04 0.  0.
        3    1    3    3  502    0 -0.24740045974E+03  0.18965754275E+04 -0.18503814225E+03  0.19215734344E+04  0.10100000352E+00 0. -1.
       -3    1    3    3    0  502  0.24740045974E+03 -0.18965754275E+04 -0.15655182475E+03  0.19190398182E+04  0.10100000352E+00 0.  1.
</event>
<event>
 5   0  0.3442126E-07  0.3731227E+04  0.7818609E-02  0.8061077E-01
       -2   -1    0    0    0  501  0.00000000000E+00  0.00000000000E+00  0.16787071610E+04  0.16787071610E+04  0.25500000920E-02 0.  1.
        2   -1    0    0  501    0  0.00000000000E+00  0.00000000000E+00 -0.20733293603E+04  0.20733293603E+04  0.25500000920E-02 0. -1.
    10030    2    1    2    0    0  0.00000000000E+00  0.00000000000E+00 -0.39462219925E+03  0.37520365213E+04  0.37312265245E+04 0.  0.
        2    1    3    3  502    0  0.81432156394E+03 -0.16087734387E+04  0.28415069705E+03  0.18253802906E+04  0.25500000920E-02 0. -1.
       -2    1    3    3    0  502 -0.81432156394E+03  0.16087734387E+04 -0.67877289630E+03  0.19266562307E+04  0.25500000920E-02 0.  1.
</event>
<event>
 5   0  0.3539010E-07  0.3916642E+04  0.7818609E-02  0.8021577E-01
       -2   -1    0    0    0  501  0.00000000000E+00  0.00000000000E+00  0.12666352852E+04  0.12666352852E+04  0.25500000920E-02 0. -1.
        2   -1    0    0  501    0  0.00000000000E+00  0.00000000000E+00 -0.30277233500E+04  0.30277233500E+04  0.25500000920E-02 0.  1.
    10030    2    1    2    0    0  0.00000000000E+00  0.00000000000E+00 -0.17610880648E+04  0.42943586351E+04  0.39166420458E+04 0.  0.
        1    1    3    3  502    0 -0.30331434373E+03 -0.19216212799E+04 -0.11266775755E+04  0.22481170552E+04  0.50400001928E-02 0.  1.
       -1    1    3    3    0  502  0.30331434373E+03  0.19216212799E+04 -0.63441048924E+03  0.20462415799E+04  0.50400001928E-02 0. -1.
</event>
<event>
 5   0  0.1070988E-07  0.3799041E+04  0.7818609E-02  0.8046361E-01
        1   -1    0    0  501    0  0.00000000000E+00  0.00000000000E+00  0.15851056005E+04  0.15851056005E+04  0.50400001928E-02 0.  1.
       -1   -1    0    0    0  501  0.00000000000E+00  0.00000000000E+00 -0.22763009926E+04  0.22763009926E+04  0.50400001928E-02 0. -1.
    10030    2    1    2    0    0  0.00000000000E+00  0.00000000000E+00 -0.69119539214E+03  0.38614065931E+04  0.37990406430E+04 0.  0.
        2    1    3    3  502    0 -0.17444753876E+04 -0.21995092158E+03  0.38495366831E+03  0.17999339190E+04  0.25500000920E-02 0.  1.
       -2    1    3    3    0  502  0.17444753876E+04  0.21995092158E+03 -0.10761490604E+04  0.20614726741E+04  0.25500000920E-02 0. -1.
</event>
<event>
 5   0  0.3509843E-07  0.3213746E+04  0.7818609E-02  0.8185196E-01
       -2   -1    0    0    0  501  0.00000000000E+00  0.00000000000E+00  0.12264541716E+04  0.12264541716E+04  0.25500000920E-02 0. -1.
        2   -1    0    0  501    0  0.00000000000E+00  0.00000000000E+00 -0.21052891851E+04  0.21052891851E+04  0.25500000920E-02 0.  1.
    10030    2    1    2    0    0  0.00000000000E+00  0.00000000000E+00 -0.87883501342E+03  0.33317433567E+04  0.32137459162E+04 0.  0.
        4    1    3    3  502    0 -0.33828396748E+03 -0.45451935665E+03  0.11194591144E+04  0.12546769345E+04  0.12699999809E+01 0. -1.
       -4    1    3    3    0  502  0.33828396748E+03  0.45451935665E+03 -0.19982941278E+04  0.20770664222E+04  0.12699999809E+01 0.  1.
</event>
<event>
 5   0  0.1085771E-07  0.3699912E+04  0.7818609E-02  0.8067981E-01
       -1   -1    0    0    0  501  0.00000000000E+00  0.00000000000E+00  0.20953672867E+04  0.20953672867E+04  0.50400001928E-02 0.  1.
        1   -1    0    0  501    0  0.00000000000E+00  0.00000000000E+00 -0.16332870670E+04  0.16332870670E+04  0.50400001928E-02 0. -1.
    10030    2    1    2    0    0  0.00000000000E+00  0.00000000000E+00  0.46208021972E+03  0.37286543537E+04  0.36999115071E+04 0.  0.
        1    1    3    3  502    0  0.61500851235E+03  0.14504172837E+04 -0.74623066408E+03  0.17432171326E+04  0.50400001928E-02 0. -1.
       -1    1    3    3    0  502 -0.61500851235E+03 -0.14504172837E+04  0.12083108838E+04  0.19854372212E+04  0.50400001928E-02 0.  1.
</event>
<event>
 5   0  0.1084315E-07  0.3755390E+04  0.7818609E-02  0.8055796E-01
       -1   -1    0    0    0  501  0.00000000000E+00  0.00000000000E+00  0.18160814294E+04  0.18160814294E+04  0.50400001928E-02 0. -1.
        1   -1    0    0  501    0  0.00000000000E+00  0.00000000000E+00 -0.19413992625E+04  0.19413992625E+04  0.50400001928E-02 0.  1.
    10030    2    1    2    0    0  0.00000000000E+00  0.00000000000E+00 -0.12531783310E+03  0.37574806919E+04  0.37553903380E+04 0.  0.
        4    1    3    3  502    0  0.12586268412E+04  0.11888016769E+04  0.66462021188E+03  0.18544844543E+04  0.12699999809E+01 0. -1.
       -4    1    3    3    0  502 -0.12586268412E+04 -0.11888016769E+04 -0.78993804498E+03  0.19029962376E+04  0.12699999809E+01 0.  1.
</event>
<event>
 5   0  0.3327241E-07  0.3791524E+04  0.7818609E-02  0.8047976E-01
        2   -1    0    0  501    0  0.00000000000E+00  0.00000000000E+00  0.21168274861E+04  0.21168274861E+04  0.25500000920E-02 0.  1.
       -2   -1    0    0    0  501  0.00000000000E+00  0.00000000000E+00 -0.16977826560E+04  0.16977826560E+04  0.25500000920E-02 0. -1.
    10030    2    1    2    0    0  0.00000000000E+00  0.00000000000E+00  0.41904483007E+03  0.38146101421E+04  0.37915236998E+04 0.  0.
        3    1    3    3  502    0  0.77619543034E+03  0.20331912742E+03 -0.15185199380E+04  0.17174751311E+04  0.10100000352E+00 0. -1.
       -3    1    3    3    0  502 -0.77619543034E+03 -0.20331912742E+03  0.19375647681E+04  0.20971350110E+04  0.10100000352E+00 0.  1.
</event>
<event>
 5   0  0.1070988E-07  0.3801567E+04  0.7818609E-02  0.8045819E-01
       -1   -1    0    0    0  501  0.00000000000E+00  0.00000000000E+00  0.33736180429E+04  0.33736180429E+04  0.50400001928E-02 0.  1.
        1   -1    0    0  501    0  0.00000000000E+00  0.00000000000E+00 -0.10709503815E+04  0.10709503815E+04  0.50400001928E-02 0. -1.
    10030    2    1    2    0    0  0.00000000000E+00  0.00000000000E+00  0.23026676614E+04  0.44445684244E+04  0.38015667981E+04 0.  0.
        5    1    3    3  502    0 -0.38852825386E+03 -0.14988207186E+04 -0.13766102853E+03  0.15544743160E+04  0.46999998093E+01 0. -1.
       -5    1    3    3    0  502  0.38852825386E+03  0.14988207186E+04  0.24403286899E+04  0.28900941084E+04  0.46999998093E+01 0.  1.
</event>
<event>
 5   0  0.3327241E-07  0.3781430E+04  0.7818609E-02  0.8050152E-01
        2   -1    0    0  501    0  0.00000000000E+00  0.00000000000E+00  0.20426737072E+04  0.20426737072E+04  0.25500000920E-02 0. -1.
       -2   -1    0    0    0  501  0.00000000000E+00  0.00000000000E+00 -0.17500606654E+04  0.17500606654E+04  0.25500000920E-02 0.  1.
    10030    2    1    2    0    0  0.00000000000E+00  0.00000000000E+00  0.29261304179E+03  0.37927343727E+04  0.37814298393E+04 0.  0.
        3    1    3    3  502    0 -0.11010018456E+04 -0.15292080241E+04 -0.94660197271E+01  0.18843491876E+04  0.10100000352E+00 0. -1.
       -3    1    3    3    0  502  0.11010018456E+04  0.15292080241E+04  0.30207906152E+03  0.19083851851E+04  0.10100000352E+00 0.  1.
</event>
<event>
 5   0  0.1085771E-07  0.3836411E+04  0.7818609E-02  0.8038386E-01
        1   -1    0    0  501    0  0.00000000000E+00  0.00000000000E+00  0.24313636633E+04  0.24313636633E+04  0.50400001928E-02 0.  1.
       -1   -1    0    0    0  501  0.00000000000E+00  0.00000000000E+00 -0.15133535346E+04  0.15133535346E+04  0.50400001928E-02 0. -1.
    10030    2    1    2    0    0  0.00000000000E+00  0.00000000000E+00  0.91801012874E+03  0.39447171979E+04  0.38364112364E+04 0.  0.
        1    1    3    3  502    0 -0.16000115329E+04 -0.64026807362E+03  0.13251227794E+04  0.21739205348E+04  0.50400001928E-02 0. -1.
       -1    1    3    3    0  502  0.16000115329E+04  0.64026807362E+03 -0.40711265062E+03  0.17707966630E+04  0.50400001928E-02 0.  1.
</event>
<event>
 5   0  0.1070988E-07  0.3772007E+04  0.7818609E-02  0.8052189E-01
       -3   -1    0    0    0  501  0.00000000000E+00  0.00000000000E+00  0.16808151384E+04  0.16808151415E+04  0.10100000352E+00 0.  1.
        3   -1    0    0  501    0  0.00000000000E+00  0.00000000000E+00 -0.21162409079E+04  0.21162409104E+04  0.10100000352E+00 0. -1.
    10030    2    1    2    0    0  0.00000000000E+00  0.00000000000E+00 -0.43542576952E+03  0.37970560518E+04  0.37720072985E+04 0.  0.
        4    1    3    3  502    0 -0.48920633547E+03  0.15571232506E+04  0.73357721740E+03  0.17894392426E+04  0.12699999809E+01 0.  1.
       -4    1    3    3    0  502  0.48920633547E+03 -0.15571232506E+04 -0.11690029869E+04  0.20076168092E+04  0.12699999809E+01 0. -1.
</event>
<event>
 5   0  0.3377396E-07  0.3833303E+04  0.7818609E-02  0.8039046E-01
       -2   -1    0    0    0  501  0.00000000000E+00  0.00000000000E+00  0.16734624292E+04  0.16734624292E+04  0.25500000920E-02 0.  1.
        2   -1    0    0  501    0  0.00000000000E+00  0.00000000000E+00 -0.21951810743E+04  0.21951810743E+04  0.25500000920E-02 0. -1.
    10030    2    1    2    0    0  0.00000000000E+00  0.00000000000E+00 -0.52171864507E+03  0.38686435035E+04  0.38333030421E+04 0.  0.
        5    1    3    3  502    0 -0.25222510851E+03  0.15378474619E+04  0.86519549007E+03  0.17824639260E+04  0.46999998093E+01 0.  1.
       -5    1    3    3    0  502  0.25222510851E+03 -0.15378474619E+04 -0.13869141351E+04  0.20861795775E+04  0.46999998093E+01 0. -1.
</event>
<event>
 5   0  0.1085771E-07  0.3794839E+04  0.7818609E-02  0.8047263E-01
        1   -1    0    0  501    0  0.00000000000E+00  0.00000000000E+00  0.21592549160E+04  0.21592549160E+04  0.50400001928E-02 0.  1.
       -1   -1    0    0    0  501  0.00000000000E+00  0.00000000000E+00 -0.16673351640E+04  0.16673351640E+04  0.50400001928E-02 0. -1.
    10030    2    1    2    0    0  0.00000000000E+00  0.00000000000E+00  0.49191975202E+03  0.38265900799E+04  0.37948394693E+04 0.  0.
        1    1    3    3  502    0 -0.59623875965E+03  0.16463857211E+04 -0.49098658788E+03  0.18185583386E+04  0.50400001928E-02 0. -1.
       -1    1    3    3    0  502  0.59623875965E+03 -0.16463857211E+04  0.98290633990E+03  0.20080317414E+04  0.50400001928E-02 0.  1.
</event>
<event>
 5   0  0.3377396E-07  0.3805626E+04  0.7818609E-02  0.8044949E-01
       -2   -1    0    0    0  501  0.00000000000E+00  0.00000000000E+00  0.16006636832E+04  0.16006636832E+04  0.25500000920E-02 0. -1.
        2   -1    0    0  501    0  0.00000000000E+00  0.00000000000E+00 -0.22619977646E+04  0.22619977646E+04  0.25500000920E-02 0.  1.
    10030    2    1    2    0    0  0.00000000000E+00  0.00000000000E+00 -0.66133408137E+03  0.38626614478E+04  0.38056261894E+04 0.  0.
        5    1    3    3  502    0 -0.16798206124E+04 -0.87310118298E+03 -0.52477285390E+03  0.19645639729E+04  0.46999998093E+01 0.  1.
       -5    1    3    3    0  502  0.16798206124E+04  0.87310118298E+03 -0.13656122747E+03  0.18980974749E+04  0.46999998093E+01 0. -1.
</event>
<event>
 5   0  0.1070988E-07  0.3793195E+04  0.7818609E-02  0.8047617E-01
       -1   -1    0    0    0  501  0.00000000000E+00  0.00000000000E+00  0.16457487970E+04  0.16457487970E+04  0.50400001928E-02 0. -1.
        1   -1    0    0  501    0  0.00000000000E+00  0.00000000000E+00 -0.21856805611E+04  0.21856805611E+04  0.50400001928E-02 0.  1.
    10030    2    1    2    0    0  0.00000000000E+00  0.00000000000E+00 -0.53993176412E+03  0.38314293581E+04  0.37931945134E+04 0.  0.
        2    1    3    3  502    0  0.15064065942E+04  0.11379168069E+04 -0.86571239200E+02  0.18898703834E+04  0.25500000920E-02 0.  1.
       -2    1    3    3    0  502 -0.15064065942E+04 -0.11379168069E+04 -0.45336052492E+03  0.19415589747E+04  0.25500000920E-02 0. -1.
</event>
<event>
 5   0  0.1070988E-07  0.3649531E+04  0.7818609E-02  0.8079239E-01
        1   -1    0    0  501    0  0.00000000000E+00  0.00000000000E+00  0.27284161358E+04  0.27284161358E+04  0.50400001928E-02 0.  1.
       -1   -1    0    0    0  501  0.00000000000E+00  0.00000000000E+00 -0.12204034434E+04  0.12204034434E+04  0.50400001928E-02 0. -1.
    10030    2    1    2    0    0  0.00000000000E+00  0.00000000000E+00  0.15080126924E+04  0.39488195792E+04  0.36495306258E+04 0.  0.
        3    1    3    3  502    0  0.73489105464E+01 -0.64006577537E+03  0.26029511777E+04  0.26805023870E+04  0.10100000352E+00 0.  1.
       -3    1    3    3    0  502 -0.73489105464E+01  0.64006577537E+03 -0.10949384853E+04  0.12683171922E+04  0.10100000352E+00 0. -1.
</event>
<event>
 5   0  0.1070988E-07  0.3794945E+04  0.7818609E-02  0.8047241E-01
       -1   -1    0    0    0  501  0.00000000000E+00  0.00000000000E+00  0.20791009135E+04  0.20791009135E+04  0.50400001928E-02 0. -1.
        1   -1    0    0  501    0  0.00000000000E+00  0.00000000000E+00 -0.17317108863E+04  0.17317108863E+04  0.50400001928E-02 0.  1.
    10030    2    1    2    0    0  0.00000000000E+00  0.00000000000E+00  0.34739002714E+03  0.38108117998E+04  0.37949448932E+04 0.  0.
        5    1    3    3  502    0  0.10764769050E+04  0.13624589410E+04  0.94193139821E+03  0.19754376077E+04  0.46999998093E+01 0. -1.
       -5    1    3    3    0  502 -0.10764769050E+04 -0.13624589410E+04 -0.59454137107E+03  0.18353741921E+04  0.46999998093E+01 0.  1.
</event>
<event>
 5   0  0.3442126E-07  0.3765192E+04  0.7818609E-02  0.8053666E-01
       -2   -1    0    0    0  501  0.00000000000E+00  0.00000000000E+00  0.19895572695E+04  0.19895572695E+04  0.25500000920E-02 0.  1.
        2   -1    0    0  501    0  0.00000000000E+00  0.00000000000E+00 -0.17813848579E+04  0.17813848579E+04  0.25500000920E-02 0. -1.
    10030    2    1    2    0    0  0.00000000000E+00  0.00000000000E+00  0.20817241167E+03  0.37709421274E+04  0.37651917315E+04 0.  0.
        2    1    3    3  502    0 -0.14679795460E+04 -0.39144701551E+03 -0.10093546977E+04  0.18240042816E+04  0.25500000920E-02 0. -1.
       -2    1    3    3    0  502  0.14679795460E+04  0.39144701551E+03  0.12175271093E+04  0.19469378458E+04  0.25500000920E-02 0.  1.
</event>
<event>
 5   0  0.3539010E-07  0.3821506E+04  0.7818609E-02  0.8041555E-01
        2   -1    0    0  501    0  0.00000000000E+00  0.00000000000E+00  0.23136420859E+04  0.23136420859E+04  0.25500000920E-02 0. -1.
       -2   -1    0    0    0  501  0.00000000000E+00  0.00000000000E+00 -0.15780218558E+04  0.15780218558E+04  0.25500000920E-02 0.  1.
    10030    2    1    2    0    0  0.00000000000E+00  0.00000000000E+00  0.73562023011E+03  0.38916639417E+04  0.38215063930E+04 0.  0.
        1    1    3    3  502    0  0.46714826861E+03  0.12216924529E+04  0.17862991561E+04  0.22139612981E+04  0.50400001928E-02 0. -1.
       -1    1    3    3    0  502 -0.46714826861E+03 -0.12216924529E+04 -0.10506789260E+04  0.16777026435E+04  0.50400001928E-02 0.  1.
</event>
<event>
 5   0  0.1085771E-07  0.3797399E+04  0.7818609E-02  0.8046713E-01
       -1   -1    0    0    0  501  0.00000000000E+00  0.00000000000E+00  0.20943545429E+04  0.20943545429E+04  0.50400001928E-02 0.  1.
        1   -1    0    0  501    0  0.00000000000E+00  0.00000000000E+00 -0.17213226702E+04  0.17213226702E+04  0.50400001928E-02 0. -1.
    10030    2    1    2    0    0  0.00000000000E+00  0.00000000000E+00  0.37303187267E+03  0.38156772131E+04  0.37973990857E+04 0.  0.
        1    1    3    3  502    0  0.14028045869E+04  0.12479173534E+04  0.47054508917E+03  0.19356061353E+04  0.50400001928E-02 0.  1.
       -1    1    3    3    0  502 -0.14028045869E+04 -0.12479173534E+04 -0.97513216505E+02  0.18800710778E+04  0.50400001928E-02 0. -1.
</event>
<event>
 5   0  0.1070988E-07  0.3838374E+04  0.7818609E-02  0.8037970E-01
        1   -1    0    0  501    0  0.00000000000E+00  0.00000000000E+00  0.20558703051E+04  0.20558703051E+04  0.50400001928E-02 0. -1.
       -1   -1    0    0    0  501  0.00000000000E+00  0.00000000000E+00 -0.17915907206E+04  0.17915907206E+04  0.50400001928E-02 0.  1.
    10030    2    1    2    0    0  0.00000000000E+00  0.00000000000E+00  0.26427958452E+03  0.38474610258E+04  0.38383736981E+04 0.  0.
        3    1    3    3  502    0  0.52895460370E+03  0.94754582087E+02 -0.17146408456E+04  0.17968763573E+04  0.10100000352E+00 0.  1.
       -3    1    3    3    0  502 -0.52895460370E+03 -0.94754582087E+02  0.19789204302E+04  0.20505846685E+04  0.10100000352E+00 0. -1.
</event>
<event>
 5   0  0.1070988E-07  0.3799386E+04  0.7818609E-02  0.8046287E-01
       -1   -1    0    0    0  501  0.00000000000E+00  0.00000000000E+00  0.13811607959E+04  0.13811607959E+04  0.50400001928E-02 0. -1.
        1   -1    0    0  501    0  0.00000000000E+00  0.00000000000E+00 -0.26128992736E+04  0.26128992736E+04  0.50400001928E-02 0.  1.
    10030    2    1    2    0    0  0.00000000000E+00  0.00000000000E+00 -0.12317384777E+04  0.39940600694E+04  0.37993862874E+04 0.  0.
        3    1    3    3  502    0 -0.64463291549E+03  0.25031266898E+03 -0.24758854754E+04  0.25706452353E+04  0.10100000352E+00 0.  1.
       -3    1    3    3    0  502  0.64463291549E+03 -0.25031266898E+03  0.12441469977E+04  0.14234148342E+04  0.10100000352E+00 0. -1.
</event>
<event>
 5   0  0.1084315E-07  0.3683921E+04  0.7818609E-02  0.8071535E-01
        1   -1    0    0  501    0  0.00000000000E+00  0.00000000000E+00  0.17098644905E+04  0.17098644905E+04  0.50400001928E-02 0. -1.
       -1   -1    0    0    0  501  0.00000000000E+00  0.00000000000E+00 -0.19842615095E+04  0.19842615095E+04  0.50400001928E-02 0.  1.
    10030    2    1    2    0    0  0.00000000000E+00  0.00000000000E+00 -0.27439701894E+03  0.36941260000E+04  0.36839208976E+04 0.  0.
        4    1    3    3  502    0 -0.59724495416E+03  0.11716883321E+04 -0.14304461313E+04  0.19431245020E+04  0.12699999809E+01 0.  1.
       -4    1    3    3    0  502  0.59724495416E+03 -0.11716883321E+04  0.11560491124E+04  0.17510014980E+04  0.12699999809E+01 0. -1.
</event>
<event>
 5   0  0.3539010E-07  0.3813805E+04  0.7818609E-02  0.8043199E-01
        2   -1    0    0  501    0  0.00000000000E+00  0.00000000000E+00  0.24759238891E+04  0.24759238891E+04  0.25500000920E-02 0.  1.
       -2   -1    0    0    0  501  0.00000000000E+00  0.00000000000E+00 -0.14686545127E+04  0.14686545127E+04  0.25500000920E-02 0. -1.
    10030    2    1    2    0    0  0.00000000000E+00  0.00000000000E+00  0.10072693763E+04  0.39445784018E+04  0.38138048156E+04 0.  0.
        1    1    3    3  502    0  0.11600503295E+04 -0.73647648902E+03  0.18711525830E+04  0.23214922733E+04  0.50400001928E-02 0.  1.
       -1    1    3    3    0  502 -0.11600503295E+04  0.73647648902E+03 -0.86388320665E+03  0.16230861286E+04  0.50400001928E-02 0. -1.
</event>
<event>
 5   0  0.3327241E-07  0.3731709E+04  0.7818609E-02  0.8060971E-01
       -2   -1    0    0    0  501  0.00000000000E+00  0.00000000000E+00  0.25640586305E+04  0.25640586305E+04  0.25500000920E-02 0.  1.
        2   -1    0    0  501    0  0.00000000000E+00  0.00000000000E+00 -0.13577746943E+04  0.13577746943E+04  0.25500000920E-02 0. -1.
    10030    2    1    2    0    0  0.00000000000E+00  0.00000000000E+00  0.12062839362E+04  0.39218333248E+04  0.37317094866E+04 0.  0.
        3    1    3    3  502    0 -0.18396790770E+04  0.97723986826E+02  0.29236532431E+03  0.18653274718E+04  0.10100000352E+00 0.  1.
       -3    1    3    3    0  502  0.18396790770E+04 -0.97723986826E+02  0.91391861186E+03  0.20565058530E+04  0.10100000352E+00 0. -1.
</event>
<event>
 5   0  0.1070988E-07  0.3747618E+04  0.7818609E-02  0.8057490E-01
        1   -1    0    0  501    0  0.00000000000E+00  0.00000000000E+00  0.14457253217E+04  0.14457253217E+04  0.50400001928E-02 0.  1.
       -1   -1    0    0    0  501  0.00000000000E+00  0.00000000000E+00 -0.24286496617E+04  0.24286496617E+04  0.50400001928E-02 0. -1.
    10030    2    1    2    0    0  0.00000000000E+00  0.00000000000E+00 -0.98292434001E+03  0.38743749834E+04  0.37476180773E+04 0.  0.
        3    1    3    3  502    0  0.70031286676E+03  0.74190638146E+03  0.11334164416E+04  0.15249577143E+04  0.10100000352E+00 0.  1.
       -3    1    3    3    0  502 -0.70031286676E+03 -0.74190638146E+03 -0.21163407816E+04  0.23494172691E+04  0.10100000352E+00 0. -1.
</event>
<event>
 5   0  0.3509843E-07  0.3779814E+04  0.7818609E-02  0.8050501E-01
       -2   -1    0    0    0  501  0.00000000000E+00  0.00000000000E+00  0.17874928158E+04  0.17874928158E+04  0.25500000920E-02 0.  1.
        2   -1    0    0  501    0  0.00000000000E+00  0.00000000000E+00 -0.19981887411E+04  0.19981887411E+04  0.25500000920E-02 0. -1.
    10030    2    1    2    0    0  0.00000000000E+00  0.00000000000E+00 -0.21069592525E+03  0.37856815569E+04  0.37798137623E+04 0.  0.
        4    1    3    3  502    0  0.61321256687E+03  0.12318217979E+04  0.11921676451E+04  0.18206262386E+04  0.12699999809E+01 0.  1.
       -4    1    3    3    0  502 -0.61321256687E+03 -0.12318217979E+04 -0.14028635704E+04  0.19650553183E+04  0.12699999809E+01 0. -1.
</event>
<event>
 5   0  0.1070988E-07  0.3839652E+04  0.7818609E-02  0.8037699E-01
        1   -1    0    0  501    0  0.00000000000E+00  0.00000000000E+00  0.21607049413E+04  0.21607049413E+04  0.50400001928E-02 0.  1.
       -1   -1    0    0    0  501  0.00000000000E+00  0.00000000000E+00 -0.17058005414E+04  0.17058005414E+04  0.50400001928E-02 0. -1.
    10030    2    1    2    0    0  0.00000000000E+00  0.00000000000E+00  0.45490439994E+03  0.38665054827E+04  0.38396518898E+04 0.  0.
        5    1    3    3  502    0  0.93642422826E+03 -0.99944812762E+03 -0.11272904033E+04  0.17738637598E+04  0.46999998093E+01 0. -1.
       -5    1    3    3    0  502 -0.93642422826E+03  0.99944812762E+03  0.15821948032E+04  0.20926417229E+04  0.46999998093E+01 0.  1.
</event>
<event>
 5   0  0.1070988E-07  0.3744851E+04  0.7818609E-02  0.8058094E-01
        1   -1    0    0  501    0  0.00000000000E+00  0.00000000000E+00  0.26582939449E+04  0.26582939449E+04  0.50400001928E-02 0.  1.
       -1   -1    0    0    0  501  0.00000000000E+00  0.00000000000E+00 -0.13188826334E+04  0.13188826335E+04  0.50400001928E-02 0. -1.
    10030    2    1    2    0    0  0.00000000000E+00  0.00000000000E+00  0.13394113115E+04  0.39771765784E+04  0.37448512486E+04 0.  0.
        5    1    3    3  502    0  0.99992925927E+03  0.95945270506E+03 -0.66759773443E+03  0.15382187237E+04  0.46999998093E+01 0. -1.
       -5    1    3    3    0  502 -0.99992925927E+03 -0.95945270506E+03  0.20070090459E+04  0.24389578547E+04  0.46999998093E+01 0.  1.
</event>
<event>
 5   0  0.3377396E-07  0.3773549E+04  0.7818609E-02  0.8051855E-01
        2   -1    0    0  501    0  0.00000000000E+00  0.00000000000E+00  0.16806919164E+04  0.16806919164E+04  0.25500000920E-02 0.  1.
       -2   -1    0    0    0  501  0.00000000000E+00  0.00000000000E+00 -0.21181266823E+04  0.21181266823E+04  0.25500000920E-02 0. -1.
    10030    2    1    2    0    0  0.00000000000E+00  0.00000000000E+00 -0.43743476588E+03  0.37988185986E+04  0.37735492008E+04 0.  0.
        5    1    3    3  502    0  0.97266079115E+03 -0.34835888126E+03  0.13706115988E+04  0.17163977306E+04  0.46999998093E+01 0.  1.
       -5    1    3    3    0  502 -0.97266079115E+03  0.34835888126E+03 -0.18080463647E+04  0.20824208681E+04  0.46999998093E+01 0. -1.
</event>
<event>
 5   0  0.1084315E-07  0.3772835E+04  0.7818609E-02  0.8052010E-01
        1   -1    0    0  501    0  0.00000000000E+00  0.00000000000E+00  0.19841915486E+04  0.19841915486E+04  0.50400001928E-02 0. -1.
       -1   -1    0    0    0  501  0.00000000000E+00  0.00000000000E+00 -0.17934614586E+04  0.17934614586E+04  0.50400001928E-02 0.  1.
    10030    2    1    2    0    0  0.00000000000E+00  0.00000000000E+00  0.19073008994E+03  0.37776530072E+04  0.37728350448E+04 0.  0.
        4    1    3    3  502    0  0.15161093268E+03 -0.10121415572E+04 -0.14913203991E+04  0.18087162720E+04  0.12699999809E+01 0.  1.
       -4    1    3    3    0  502 -0.15161093268E+03  0.10121415572E+04  0.16820504891E+04  0.19689367352E+04  0.12699999809E+01 0. -1.
</event>
<event>
 5   0  0.1070988E-07  0.3767222E+04  0.7818609E-02  0.8053226E-01
        1   -1    0    0  501    0  0.00000000000E+00  0.00000000000E+00  0.20471704805E+04  0.20471704805E+04  0.50400001928E-02 0.  1.
       -1   -1    0    0    0  501  0.00000000000E+00  0.00000000000E+00 -0.17331191134E+04  0.17331191134E+04  0.50400001928E-02 0. -1.
    10030    2    1    2    0    0  0.00000000000E+00  0.00000000000E+00  0.31405136719E+03  0.37802895939E+04  0.37672219410E+04 0.  0.
        3    1    3    3  502    0  0.94532997116E+03  0.12090538878E+04 -0.93879264612E+03  0.17991085850E+04  0.10100000352E+00 0. -1.
       -3    1    3    3    0  502 -0.94532997116E+03 -0.12090538878E+04  0.12528440133E+04  0.19811810089E+04  0.10100000352E+00 0.  1.
</event>
<event>
 5   0  0.3442126E-07  0.3788670E+04  0.7818609E-02  0.8048591E-01
        2   -1    0    0  501    0  0.00000000000E+00  0.00000000000E+00  0.25219520294E+04  0.25219520294E+04  0.25500000920E-02 0. -1.
       -2   -1    0    0    0  501  0.00000000000E+00  0.00000000000E+00 -0.14229075251E+04  0.14229075251E+04  0.25500000920E-02 0.  1.
    10030    2    1    2    0    0  0.00000000000E+00  0.00000000000E+00  0.10990445042E+04  0.39448595545E+04  0.37886696983E+04 0.  0.
        2    1    3    3  502    0 -0.76823715007E+03 -0.25554512057E+03 -0.12336848598E+04  0.14756252779E+04  0.25500000920E-02 0.  1.
       -2    1    3    3    0  502  0.76823715007E+03  0.25554512057E+03  0.23327293640E+04  0.24692342767E+04  0.25500000920E-02 0. -1.
</event>
<event>
 5   0  0.1085771E-07  0.3792236E+04  0.7818609E-02  0.8047823E-01
        1   -1    0    0  501    0  0.00000000000E+00  0.00000000000E+00  0.18691383538E+04  0.18691383538E+04  0.50400001928E-02 0. -1.
       -1   -1    0    0    0  501  0.00000000000E+00  0.00000000000E+00 -0.19234874032E+04  0.19234874032E+04  0.50400001928E-02 0.  1.
    10030    2    1    2    0    0  0.00000000000E+00  0.00000000000E+00 -0.54349049468E+02  0.37926257570E+04  0.37922363209E+04 0.  0.
        1    1    3    3  502    0  0.79981040930E+03  0.13433898362E+04 -0.11000713140E+04  0.19116876938E+04  0.50400001928E-02 0.  1.
       -1    1    3    3    0  502 -0.79981040930E+03 -0.13433898362E+04  0.10457222645E+04  0.18809380632E+04  0.50400001928E-02 0. -1.
</event>
<event>
 5   0  0.3539010E-07  0.3831775E+04  0.7818609E-02  0.8039370E-01
        2   -1    0    0  501    0  0.00000000000E+00  0.00000000000E+00  0.16648130201E+04  0.16648130201E+04  0.25500000920E-02 0. -1.
       -2   -1    0    0    0  501  0.00000000000E+00  0.00000000000E+00 -0.22048267334E+04  0.22048267334E+04  0.25500000920E-02 0.  1.
    10030    2    1    2    0    0  0.00000000000E+00  0.00000000000E+00 -0.54001371328E+03  0.38696397535E+04  0.38317746556E+04 0.  0.
        1    1    3    3  502    0  0.10441073936E+04 -0.14689921797E+04 -0.92645025332E+03  0.20264274833E+04  0.50400001928E-02 0.  1.
       -1    1    3    3    0  502 -0.10441073936E+04  0.14689921797E+04  0.38643654004E+03  0.18432122702E+04  0.50400001928E-02 0. -1.
</event>
<event>
 5   0  0.1070988E-07  0.3807410E+04  0.7818609E-02  0.8044567E-01
        1   -1    0    0  501    0  0.00000000000E+00  0.00000000000E+00  0.20942342163E+04  0.20942342163E+04  0.50400001928E-02 0.  1.
       -1   -1    0    0    0  501  0.00000000000E+00  0.00000000000E+00 -0.17305096261E+04  0.17305096261E+04  0.50400001928E-02 0. -1.
    10030    2    1    2    0    0  0.00000000000E+00  0.00000000000E+00  0.36372459020E+03  0.38247438425E+04  0.38074098654E+04 0.  0.
        2    1    3    3  502    0  0.12581976726E+04 -0.12935915745E+04 -0.42724127637E+03  0.18544475331E+04  0.25500000920E-02 0.  1.
       -2    1    3    3    0  502 -0.12581976726E+04  0.12935915745E+04  0.79096586657E+03  0.19702963094E+04  0.25500000920E-02 0. -1.
</event>
<event>
 5   0  0.1084315E-07  0.3729909E+04  0.7818609E-02  0.8061366E-01
       -1   -1    0    0    0  501  0.00000000000E+00  0.00000000000E+00  0.14455130254E+04  0.14455130254E+04  0.50400001928E-02 0.  1.
        1   -1    0    0  501    0  0.00000000000E+00  0.00000000000E+00 -0.24061040878E+04  0.24061040878E+04  0.50400001928E-02 0. -1.
    10030    2    1    2    0    0  0.00000000000E+00  0.00000000000E+00 -0.96059106231E+03  0.38516171132E+04  0.37299087385E+04 0.  0.
        4    1    3    3  502    0 -0.11831689330E+04 -0.86542314364E+03  0.71023695820E+03  0.16288904479E+04  0.12699999809E+01 0.  1.
       -4    1    3    3    0  502  0.11831689330E+04  0.86542314364E+03 -0.16708280205E+04  0.22227266653E+04  0.12699999809E+01 0. -1.
</event>
<event>
 5   0  0.3327241E-07  0.3889899E+04  0.7818609E-02  0.8027133E-01
       -2   -1    0    0    0  501  0.00000000000E+00  0.00000000000E+00  0.15110829773E+04  0.15110829773E+04  0.25500000920E-02 0. -1.
        2   -1    0    0  501    0  0.00000000000E+00  0.00000000000E+00 -0.25033894052E+04  0.25033894052E+04  0.25500000920E-02 0.  1.
    10030    2    1    2    0    0  0.00000000000E+00  0.00000000000E+00 -0.99230642787E+03  0.40144723825E+04  0.38898992870E+04 0.  0.
        3    1    3    3  502    0  0.89342004113E+03 -0.91889398593E+03  0.10136618280E+04  0.16340366700E+04  0.10100000352E+00 0. -1.
       -3    1    3    3    0  502 -0.89342004113E+03  0.91889398593E+03 -0.20059682559E+04  0.23804357124E+04  0.10100000352E+00 0.  1.
</event>
<event>
 5   0  0.1070988E-07  0.3858537E+04  0.7818609E-02  0.8033708E-01
        1   -1    0    0  501    0  0.00000000000E+00  0.00000000000E+00  0.21294847140E+04  0.21294847140E+04  0.50400001928E-02 0.  1.
       -1   -1    0    0    0  501  0.00000000000E+00  0.00000000000E+00 -0.17478771537E+04  0.17478771537E+04  0.50400001928E-02 0. -1.
    10030    2    1    2    0    0  0.00000000000E+00  0.00000000000E+00  0.38160756034E+03  0.38773618677E+04  0.38585373813E+04 0.  0.
        3    1    3    3  502    0 -0.30793837146E+03 -0.11633377843E+04 -0.13244975376E+04  0.17895459140E+04  0.10100000352E+00 0. -1.
       -3    1    3    3    0  502  0.30793837146E+03  0.11633377843E+04  0.17061050980E+04  0.20878159537E+04  0.10100000352E+00 0.  1.
</event>
<event>
 5   0  0.3442126E-07  0.3768437E+04  0.7818609E-02  0.8052962E-01
        2   -1    0    0  501    0  0.00000000000E+00  0.00000000000E+00  0.21712036093E+04  0.21712036093E+04  0.25500000920E-02 0.  1.
       -2   -1    0    0    0  501  0.00000000000E+00  0.00000000000E+00 -0.16351661800E+04  0.16351661800E+04  0.25500000920E-02 0. -1.
    10030    2    1    2    0    0  0.00000000000E+00  0.00000000000E+00  0.53603742934E+03  0.38063697893E+04  0.37684366582E+04 0.  0.
        2    1    3    3  502    0  0.16715246214E+03  0.64526298591E+03  0.20481363268E+04  0.21538724845E+04  0.25500000920E-02 0.  1.
       -2    1    3    3    0  502 -0.16715246214E+03 -0.64526298591E+03 -0.15120988974E+04  0.16524973047E+04  0.25500000920E-02 0. -1.
</event>
<event>
 5   0  0.3327241E-07  0.3763884E+04  0.7818609E-02  0.8053950E-01
       -2   -1    0    0    0  501  0.00000000000E+00  0.00000000000E+00  0.11519508937E+04  0.11519508937E+04  0.25500000920E-02 0.  1.
        2   -1    0    0  501    0  0.00000000000E+00  0.00000000000E+00 -0.30745286246E+04  0.30745286246E+04  0.25500000920E-02 0. -1.
    10030    2    1    2    0    0  0.00000000000E+00  0.00000000000E+00 -0.19225777309E+04  0.42264795183E+04  0.37638841623E+04 0.  0.
        3    1    3    3  502    0 -0.51505689477E+03  0.15692062957E+04  0.51825450673E+02  0.16523855152E+04  0.10100000352E+00 0.  1.
       -3    1    3    3    0  502  0.51505689477E+03 -0.15692062957E+04 -0.19744031815E+04  0.25740940031E+04  0.10100000352E+00 0. -1.
</event>
<event>
 5   0  0.3442126E-07  0.3808723E+04  0.7818609E-02  0.8044285E-01
        2   -1    0    0  501    0  0.00000000000E+00  0.00000000000E+00  0.21523340799E+04  0.21523340799E+04  0.25500000920E-02 0. -1.
       -2   -1    0    0    0  501  0.00000000000E+00  0.00000000000E+00 -0.16849585022E+04  0.16849585022E+04  0.25500000920E-02 0.  1.
    10030    2    1    2    0    0  0.00000000000E+00  0.00000000000E+00  0.46737557771E+03  0.38372925822E+04  0.38087234647E+04 0.  0.
        2    1    3    3  502    0 -0.13864331373E+04  0.12517608685E+03 -0.10755703657E+04  0.17591809198E+04  0.25500000920E-02 0. -1.
       -2    1    3    3    0  502  0.13864331373E+04 -0.12517608685E+03  0.15429459434E+04  0.20781116624E+04  0.25500000920E-02 0.  1.
</event>
<event>
 5   0  0.3442126E-07  0.3822923E+04  0.7818609E-02  0.8041254E-01
       -2   -1    0    0    0  501  0.00000000000E+00  0.00000000000E+00  0.16180008203E+04  0.16180008203E+04  0.25500000920E-02 0. -1.
        2   -1    0    0  501    0  0.00000000000E+00  0.00000000000E+00 -0.22581477734E+04  0.22581477734E+04  0.25500000920E-02 0.  1.
    10030    2    1    2    0    0  0.00000000000E+00  0.00000000000E+00 -0.64014695318E+03  0.38761485937E+04  0.38229229392E+04 0.  0.
        2    1    3    3  502    0 -0.18409653956E+04  0.32346278253E+03  0.85372913282E+02  0.18711147196E+04  0.25500000920E-02 0. -1.
       -2    1    3    3    0  502  0.18409653956E+04 -0.32346278253E+03 -0.72551986646E+03  0.20050338741E+04  0.25500000920E-02 0.  1.
</event>
<event>
 5   0  0.1070988E-07  0.3780200E+04  0.7818609E-02  0.8050417E-01
       -1   -1    0    0    0  501  0.00000000000E+00  0.00000000000E+00  0.18526844626E+04  0.18526844626E+04  0.50400001928E-02 0. -1.
        1   -1    0    0  501    0  0.00000000000E+00  0.00000000000E+00 -0.19282706542E+04  0.19282706542E+04  0.50400001928E-02 0.  1.
    10030    2    1    2    0    0  0.00000000000E+00  0.00000000000E+00 -0.75586191537E+02  0.37809551168E+04  0.37801995083E+04 0.  0.
        5    1    3    3  502    0 -0.44286257634E+03 -0.70225448607E+03 -0.17361214179E+04  0.19244293420E+04  0.46999998093E+01 0.  1.
       -5    1    3    3    0  502  0.44286257634E+03  0.70225448607E+03  0.16605352263E+04  0.18565257748E+04  0.46999998093E+01 0. -1.
</event>
<event>
 5   0  0.1085771E-07  0.3638096E+04  0.7818609E-02  0.8081821E-01
       -1   -1    0    0    0  501  0.00000000000E+00  0.00000000000E+00  0.16103129819E+04  0.16103129819E+04  0.50400001928E-02 0.  1.
        1   -1    0    0  501    0  0.00000000000E+00  0.00000000000E+00 -0.20548403770E+04  0.20548403770E+04  0.50400001928E-02 0. -1.
    10030    2    1    2    0    0  0.00000000000E+00  0.00000000000E+00 -0.44452739504E+03  0.36651533589E+04  0.36380962795E+04 0.  0.
        1    1    3    3  502    0  0.12197537795E+04  0.12782465888E+04 -0.65817386130E+03  0.18854459568E+04  0.50400001928E-02 0. -1.
       -1    1    3    3    0  502 -0.12197537795E+04 -0.12782465888E+04  0.21364646626E+03  0.17797074021E+04  0.50400001928E-02 0.  1.
</event>
<event>
 5   0  0.3442126E-07  0.3807656E+04  0.7818609E-02  0.8044514E-01
        2   -1    0    0  501    0  0.00000000000E+00  0.00000000000E+00  0.18229968034E+04  0.18229968034E+04  0.25500000920E-02 0. -1.
       -2   -1    0    0    0  501  0.00000000000E+00  0.00000000000E+00 -0.19882436894E+04  0.19882436894E+04  0.25500000920E-02 0.  1.
    10030    2    1    2    0    0  0.00000000000E+00  0.00000000000E+00 -0.16524688591E+03  0.38112404928E+04  0.38076564394E+04 0.  0.
        2    1    3    3  502    0  0.10405398440E+04  0.14102734080E+04  0.66169444446E+03  0.18733482832E+04  0.25500000920E-02 0. -1.
       -2    1    3    3    0  502 -0.10405398440E+04 -0.14102734080E+04 -0.82694133038E+03  0.19378922096E+04  0.25500000920E-02 0.  1.
</event>
<event>
 5   0  0.3442126E-07  0.3779536E+04  0.7818609E-02  0.8050561E-01
        2   -1    0    0  501    0  0.00000000000E+00  0.00000000000E+00  0.22986133200E+04  0.22986133200E+04  0.25500000920E-02 0.  1.
       -2   -1    0    0    0  501  0.00000000000E+00  0.00000000000E+00 -0.15536421866E+04  0.15536421866E+04  0.25500000920E-02 0. -1.
    10030    2    1    2    0    0  0.00000000000E+00  0.00000000000E+00  0.74497113336E+03  0.38522555066E+04  0.37795357517E+04 0.  0.
        2    1    3    3  502    0 -0.12409215809E+04 -0.94670817055E+03 -0.71341445649E+03  0.17161302156E+04  0.25500000920E-02 0. -1.
       -2    1    3    3    0  502  0.12409215809E+04  0.94670817055E+03  0.14583855899E+04  0.21361252910E+04  0.25500000920E-02 0.  1.
</event>
<event>
 5   0  0.3327241E-07  0.3746764E+04  0.7818609E-02  0.8057677E-01
       -2   -1    0    0    0  501  0.00000000000E+00  0.00000000000E+00  0.19585002679E+04  0.19585002679E+04  0.25500000920E-02 0.  1.
        2   -1    0    0  501    0  0.00000000000E+00  0.00000000000E+00 -0.17919634282E+04  0.17919634282E+04  0.25500000920E-02 0. -1.
    10030    2    1    2    0    0  0.00000000000E+00  0.00000000000E+00  0.16653683963E+03  0.37504636961E+04  0.37467643930E+04 0.  0.
        3    1    3    3  502    0  0.12713751865E+04 -0.55899188621E+03 -0.11752294678E+04  0.18193490885E+04  0.10100000352E+00 0. -1.
       -3    1    3    3    0  502 -0.12713751865E+04  0.55899188621E+03  0.13417663075E+04  0.19311146076E+04  0.10100000352E+00 0.  1.
</event>
<event>
 5   0  0.1070988E-07  0.3781393E+04  0.7818609E-02  0.8050160E-01
        1   -1    0    0  501    0  0.00000000000E+00  0.00000000000E+00  0.17007586610E+04  0.17007586610E+04  0.50400001928E-02 0. -1.
       -1   -1    0    0    0  501  0.00000000000E+00  0.00000000000E+00 -0.21018457833E+04  0.21018457833E+04  0.50400001928E-02 0.  1.
    10030    2    1    2    0    0  0.00000000000E+00  0.00000000000E+00 -0.40108712224E+03  0.38026044443E+04  0.37813925583E+04 0.  0.
        2    1    3    3  502    0 -0.99152920515E+03 -0.12647595299E+04  0.80102819084E+03  0.17956594877E+04  0.25500000920E-02 0. -1.
       -2    1    3    3    0  502  0.99152920515E+03  0.12647595299E+04 -0.12021153131E+04  0.20069449566E+04  0.25500000920E-02 0.  1.
</event>
<event>
 5   0  0.1085771E-07  0.3573095E+04  0.7818609E-02  0.8096683E-01
       -1   -1    0    0    0  501  0.00000000000E+00  0.00000000000E+00  0.18269982891E+04  0.18269982891E+04  0.50400001928E-02 0. -1.
        1   -1    0    0  501    0  0.00000000000E+00  0.00000000000E+00 -0.17469919792E+04  0.17469919792E+04  0.50400001928E-02 0.  1.
    10030    2    1    2    0    0  0.00000000000E+00  0.00000000000E+00  0.80006309889E+02  0.35739902684E+04  0.35730946571E+04 0.  0.
        1    1    3    3  502    0 -0.11944128281E+04 -0.41365334345E+03 -0.12228584609E+04  0.17587250802E+04  0.50400001928E-02 0.  1.
       -1    1    3    3    0  502  0.11944128281E+04  0.41365334345E+03  0.13028647708E+04  0.18152651882E+04  0.50400001928E-02 0. -1.
</event>
<event>
 5   0  0.3442126E-07  0.3747953E+04  0.7818609E-02  0.8057417E-01
        2   -1    0    0  501    0  0.00000000000E+00  0.00000000000E+00  0.24974695637E+04  0.24974695637E+04  0.25500000920E-02 0. -1.
       -2   -1    0    0    0  501  0.00000000000E+00  0.00000000000E+00 -0.14061385914E+04  0.14061385914E+04  0.25500000920E-02 0.  1.
    10030    2    1    2    0    0  0.00000000000E+00  0.00000000000E+00  0.10913309722E+04  0.39036081551E+04  0.37479532198E+04 0.  0.
        2    1    3    3  502    0 -0.29022642039E+03 -0.11475291860E+04  0.20588391704E+04  0.23748417500E+04  0.25500000920E-02 0. -1.
       -2    1    3    3    0  502  0.29022642039E+03  0.11475291860E+04 -0.96750819819E+03  0.15287664051E+04  0.25500000920E-02 0.  1.
</event>
<event>
 5   0  0.3377396E-07  0.3831294E+04  0.7818609E-02  0.8039473E-01
       -2   -1    0    0    0  501  0.00000000000E+00  0.00000000000E+00  0.19014933058E+04  0.19014933058E+04  0.25500000920E-02 0.  1.
        2   -1    0    0  501    0  0.00000000000E+00  0.00000000000E+00 -0.19299055490E+04  0.19299055490E+04  0.25500000920E-02 0. -1.
    10030    2    1    2    0    0  0.00000000000E+00  0.00000000000E+00 -0.28412243188E+02  0.38313988547E+04  0.38312935059E+04 0.  0.
        5    1    3    3  502    0  0.17604953418E+04  0.36888110531E+03 -0.67321079210E+03  0.19205863634E+04  0.46999998093E+01 0. -1.
       -5    1    3    3    0  502 -0.17604953418E+04 -0.36888110531E+03  0.64479854891E+03  0.19108124914E+04  0.46999998093E+01 0.  1.
</event>
<event>
 5   0  0.1070988E-07  0.3778515E+04  0.7818609E-02  0.8050781E-01
       -1   -1    0    0    0  501  0.00000000000E+00  0.00000000000E+00  0.14467065628E+04  0.14467065628E+04  0.50400001928E-02 0.  1.
        1   -1    0    0  501    0  0.00000000000E+00  0.00000000000E+00 -0.24671855781E+04  0.24671855781E+04  0.50400001928E-02 0. -1.
    10030    2    1    2    0    0  0.00000000000E+00  0.00000000000E+00 -0.10204790153E+04  0.39138921408E+04  0.37785148232E+04 0.  0.
        2    1    3    3  502    0 -0.14642247515E+04  0.11294873714E+04 -0.10960328422E+03  0.18524871727E+04  0.25500000920E-02 0.  1.
       -2    1    3    3    0  502  0.14642247515E+04 -0.11294873714E+04 -0.91087573109E+03  0.20614049681E+04  0.25500000920E-02 0. -1.
</event>
<event>
 5   0  0.1070988E-07  0.3769258E+04  0.7818609E-02  0.8052784E-01
       -1   -1    0    0    0  501  0.00000000000E+00  0.00000000000E+00  0.12475296190E+04  0.12475296190E+04  0.50400001928E-02 0. -1.
        1   -1    0    0  501    0  0.00000000000E+00  0.00000000000E+00 -0.28470884821E+04  0.28470884821E+04  0.50400001928E-02 0.  1.
    10030    2    1    2    0    0  0.00000000000E+00  0.00000000000E+00 -0.15995588631E+04  0.40946181011E+04  0.37692583936E+04 0.  0.
        5    1    3    3  502    0 -0.14110528510E+04  0.41637542291E+03  0.47975827852E+03  0.15474587998E+04  0.46999998093E+01 0. -1.
       -5    1    3    3    0  502  0.14110528510E+04 -0.41637542291E+03 -0.20793171416E+04  0.25471593014E+04  0.46999998093E+01 0.  1.
</event>
<event>
 5   0  0.3509843E-07  0.3800160E+04  0.7818609E-02  0.8046121E-01
        2   -1    0    0  501    0  0.00000000000E+00  0.00000000000E+00  0.20127369369E+04  0.20127369369E+04  0.25500000920E-02 0.  1.
       -2   -1    0    0    0  501  0.00000000000E+00  0.00000000000E+00 -0.17937282352E+04  0.17937282352E+04  0.25500000920E-02 0. -1.
    10030    2    1    2    0    0  0.00000000000E+00  0.00000000000E+00  0.21900870174E+03  0.38064651721E+04  0.38001595091E+04 0.  0.
        4    1    3    3  502    0 -0.35141174067E+03  0.15987269025E+04  0.10759283583E+04  0.19588367378E+04  0.12699999809E+01 0. -1.
       -4    1    3    3    0  502  0.35141174067E+03 -0.15987269025E+04 -0.85691965660E+03  0.18476284343E+04  0.12699999809E+01 0.  1.
</event>
<event>
 5   0  0.1070988E-07  0.3745813E+04  0.7818609E-02  0.8057884E-01
        1   -1    0    0  501    0  0.00000000000E+00  0.00000000000E+00  0.14801201458E+04  0.14801201458E+04  0.50400001928E-02 0. -1.
       -1   -1    0    0    0  501  0.00000000000E+00  0.00000000000E+00 -0.23699284957E+04  0.23699284957E+04  0.50400001928E-02 0.  1.
    10030    2    1    2    0    0  0.00000000000E+00  0.00000000000E+00 -0.88980834982E+03  0.38500486415E+04  0.37458130816E+04 0.  0.
        3    1    3    3  502    0  0.70182830976E+03  0.10111253134E+04  0.10060593544E+04  0.15896832423E+04  0.10100000352E+00 0. -1.
       -3    1    3    3    0  502 -0.70182830976E+03 -0.10111253134E+04 -0.18958677043E+04  0.22603653992E+04  0.10100000352E+00 0.  1.
</event>
<event>
 5   0  0.1070988E-07  0.3921088E+04  0.7818609E-02  0.8020657E-01
        1   -1    0    0  501    0  0.00000000000E+00  0.00000000000E+00  0.20967436964E+04  0.20967436964E+04  0.50400001928E-02 0. -1.
       -1   -1    0    0    0  501  0.00000000000E+00  0.00000000000E+00 -0.18331919537E+04  0.18331919537E+04  0.50400001928E-02 0.  1.
    10030    2    1    2    0    0  0.00000000000E+00  0.00000000000E+00  0.26355174269E+03  0.39299356500E+04  0.39210884576E+04 0.  0.
        2    1    3    3  502    0  0.64492666891E+03  0.30496698342E+03  0.19620392571E+04  0.20877100651E+04  0.25500000920E-02 0. -1.
       -2    1    3    3    0  502 -0.64492666891E+03 -0.30496698342E+03 -0.16984875144E+04  0.18422255850E+04  0.25500000920E-02 0.  1.
</event>
<event>
 5   0  0.3442126E-07  0.3797151E+04  0.7818609E-02  0.8046767E-01
        2   -1    0    0  501    0  0.00000000000E+00  0.00000000000E+00  0.21626033762E+04  0.21626033762E+04  0.25500000920E-02 0.  1.
       -2   -1    0    0    0  501  0.00000000000E+00  0.00000000000E+00 -0.16667819756E+04  0.16667819756E+04  0.25500000920E-02 0. -1.
    10030    2    1    2    0    0  0.00000000000E+00  0.00000000000E+00  0.49582140064E+03  0.38293853519E+04  0.37971506833E+04 0.  0.
        2    1    3    3  502    0 -0.84269459803E+03  0.16473424914E+04  0.67662757109E+03  0.19702021062E+04  0.25500000920E-02 0. -1.
       -2    1    3    3    0  502  0.84269459803E+03 -0.16473424914E+04 -0.18080617045E+03  0.18591832456E+04  0.25500000920E-02 0.  1.
</event>
<event>
 5   0  0.3377396E-07  0.3777361E+04  0.7818609E-02  0.8051031E-01
       -2   -1    0    0    0  501  0.00000000000E+00  0.00000000000E+00  0.19510479299E+04  0.19510479299E+04  0.25500000920E-02 0.  1.
        2   -1    0    0  501    0  0.00000000000E+00  0.00000000000E+00 -0.18283063178E+04  0.18283063178E+04  0.25500000920E-02 0. -1.
    10030    2    1    2    0    0  0.00000000000E+00  0.00000000000E+00  0.12274161215E+03  0.37793542477E+04  0.37773605899E+04 0.  0.
        5    1    3    3  502    0  0.96850802764E+03  0.16206044019E+04  0.91442183592E+01  0.18879809675E+04  0.46999998093E+01 0. -1.
       -5    1    3    3    0  502 -0.96850802764E+03 -0.16206044019E+04  0.11359739379E+03  0.18913732802E+04  0.46999998093E+01 0.  1.
</event>
<event>
 5   0  0.1084315E-07  0.3814082E+04  0.7818609E-02  0.8043140E-01
        1   -1    0    0  501    0  0.00000000000E+00  0.00000000000E+00  0.24386800537E+04  0.24386800537E+04  0.50400001928E-02 0. -1.
       -1   -1    0    0    0  501  0.00000000000E+00  0.00000000000E+00 -0.14913007679E+04  0.14913007679E+04  0.50400001928E-02 0.  1.
    10030    2    1    2    0    0  0.00000000000E+00  0.00000000000E+00  0.94737928578E+03  0.39299808216E+04  0.38140820320E+04 0.  0.
        4    1    3    3  502    0 -0.56349902503E+03  0.77346057112E+03  0.21733697037E+04  0.23747231182E+04  0.12699999809E+01 0. -1.
       -4    1    3    3    0  502  0.56349902503E+03 -0.77346057112E+03 -0.12259904179E+04  0.15552577034E+04  0.12699999809E+01 0.  1.
</event>
<event>
 5   0  0.3377396E-07  0.3960854E+04  0.7818609E-02  0.8012490E-01
        2   -1    0    0  501    0  0.00000000000E+00  0.00000000000E+00  0.30578329817E+04  0.30578329817E+04  0.25500000920E-02 0.  1.
       -2   -1    0    0    0  501  0.00000000000E+00  0.00000000000E+00 -0.12826375831E+04  0.12826375831E+04  0.25500000920E-02 0. -1.
    10030    2    1    2    0    0  0.00000000000E+00  0.00000000000E+00  0.17751953986E+04  0.43404705648E+04  0.39608542034E+04 0.  0.
        5    1    3    3  502    0  0.75981689673E+03  0.15829801714E+04  0.18913085400E+04  0.25807398209E+04  0.46999998093E+01 0.  1.
       -5    1    3    3    0  502 -0.75981689673E+03 -0.15829801714E+04 -0.11611314141E+03  0.17597307439E+04  0.46999998093E+01 0. -1.
</event>
<event>
 5   0  0.1070988E-07  0.3797775E+04  0.7818609E-02  0.8046633E-01
        1   -1    0    0  501    0  0.00000000000E+00  0.00000000000E+00  0.26945331410E+04  0.26945331410E+04  0.50400001928E-02 0.  1.
       -1   -1    0    0    0  501  0.00000000000E+00  0.00000000000E+00 -0.13381810555E+04  0.13381810555E+04  0.50400001928E-02 0. -1.
    10030    2    1    2    0    0  0.00000000000E+00  0.00000000000E+00  0.13563520855E+04  0.40327141964E+04  0.37977747182E+04 0.  0.
        3    1    3    3  502    0 -0.85900385743E+03 -0.16781837317E+04  0.43700250233E+03  0.19352414479E+04  0.10100000352E+00 0. -1.
       -3    1    3    3    0  502  0.85900385743E+03  0.16781837317E+04  0.91934958318E+03  0.20974727485E+04  0.10100000352E+00 0.  1.
</event>
<event>
 5   0  0.3442126E-07  0.3820066E+04  0.7818609E-02  0.8041862E-01
       -2   -1    0    0    0  501  0.00000000000E+00  0.00000000000E+00  0.25137351846E+04  0.25137351846E+04  0.25500000920E-02 0. -1.
        2   -1    0    0  501    0  0.00000000000E+00  0.00000000000E+00 -0.14513169499E+04  0.14513169499E+04  0.25500000920E-02 0.  1.
    10030    2    1    2    0    0  0.00000000000E+00  0.00000000000E+00  0.10624182347E+04  0.39650521345E+04  0.38200662198E+04 0.  0.
        2    1    3    3  502    0 -0.16840034500E+04 -0.88941169046E+03  0.68271377209E+03  0.20231210714E+04  0.25500000920E-02 0.  1.
       -2    1    3    3    0  502  0.16840034500E+04  0.88941169046E+03  0.37970446259E+03  0.19419310631E+04  0.25500000920E-02 0. -1.
</event>
<event>
 5   0  0.3327241E-07  0.3788376E+04  0.7818609E-02  0.8048654E-01
        2   -1    0    0  501    0  0.00000000000E+00  0.00000000000E+00  0.22085412268E+04  0.22085412268E+04  0.25500000920E-02 0.  1.
       -2   -1    0    0    0  501  0.00000000000E+00  0.00000000000E+00 -0.16245778945E+04  0.16245778945E+04  0.25500000920E-02 0. -1.
    10030    2    1    2    0    0  0.00000000000E+00  0.00000000000E+00  0.58396333227E+03  0.38331191212E+04  0.37883755126E+04 0.  0.
        3    1    3    3  502    0 -0.70978070986E+03  0.12368843830E+04  0.15534121199E+04  0.21087344208E+04  0.10100000352E+00 0.  1.
       -3    1    3    3    0  502  0.70978070986E+03 -0.12368843830E+04 -0.96944878761E+03  0.17243847004E+04  0.10100000352E+00 0. -1.
</event>
<event>
 5   0  0.3539010E-07  0.3824296E+04  0.7818609E-02  0.8040961E-01
        2   -1    0    0  501    0  0.00000000000E+00  0.00000000000E+00  0.20509175056E+04  0.20509175056E+04  0.25500000920E-02 0.  1.
       -2   -1    0    0    0  501  0.00000000000E+00  0.00000000000E+00 -0.17827681905E+04  0.17827681905E+04  0.25500000920E-02 0. -1.
    10030    2    1    2    0    0  0.00000000000E+00  0.00000000000E+00  0.26814931509E+03  0.38336856960E+04  0.38242962700E+04 0.  0.
        1    1    3    3  502    0 -0.15226449653E+04  0.47046454556E+03  0.11933268647E+04  0.19909328430E+04  0.50400001928E-02 0.  1.
       -1    1    3    3    0  502  0.15226449653E+04 -0.47046454556E+03 -0.92517754963E+03  0.18427528531E+04  0.50400001928E-02 0. -1.
</event>
<event>
 5   0  0.1085771E-07  0.3798644E+04  0.7818609E-02  0.8046446E-01
       -1   -1    0    0    0  501  0.00000000000E+00  0.00000000000E+00  0.11256493669E+04  0.11256493670E+04  0.50400001928E-02 0. -1.
        1   -1    0    0  501    0  0.00000000000E+00  0.00000000000E+00 -0.32047490992E+04  0.32047490992E+04  0.50400001928E-02 0.  1.
    10030    2    1    2    0    0  0.00000000000E+00  0.00000000000E+00 -0.20790997322E+04  0.43303984661E+04  0.37986438605E+04 0.  0.
        1    1    3    3  502    0 -0.46855591771E+03 -0.26678461296E+03  0.10365713769E+04  0.11684172616E+04  0.50400001928E-02 0. -1.
       -1    1    3    3    0  502  0.46855591771E+03  0.26678461296E+03 -0.31156711091E+04  0.31619812046E+04  0.50400001928E-02 0.  1.
</event>
<event>
 5   0  0.3327241E-07  0.3824727E+04  0.7818609E-02  0.8040869E-01
       -2   -1    0    0    0  501  0.00000000000E+00  0.00000000000E+00  0.28437921564E+04  0.28437921564E+04  0.25500000920E-02 0.  1.
        2   -1    0    0  501    0  0.00000000000E+00  0.00000000000E+00 -0.12860061828E+04  0.12860061828E+04  0.25500000920E-02 0. -1.
    10030    2    1    2    0    0  0.00000000000E+00  0.00000000000E+00  0.15577859736E+04  0.41297983393E+04  0.38247270731E+04 0.  0.
        3    1    3    3  502    0 -0.13708930006E+04 -0.69889378952E+03 -0.44716535391E+03  0.16024222327E+04  0.10100000352E+00 0.  1.
       -3    1    3    3    0  502  0.13708930006E+04  0.69889378952E+03  0.20049513275E+04  0.25273761065E+04  0.10100000352E+00 0. -1.
</event>
<event>
 5   0  0.1084315E-07  0.3685541E+04  0.7818609E-02  0.8071174E-01
        1   -1    0    0  501    0  0.00000000000E+00  0.00000000000E+00  0.15313405741E+04  0.15313405741E+04  0.50400001928E-02 0.  1.
       -1   -1    0    0    0  501  0.00000000000E+00  0.00000000000E+00 -0.22175355999E+04  0.22175355999E+04  0.50400001928E-02 0. -1.
    10030    2    1    2    0    0  0.00000000000E+00  0.00000000000E+00 -0.68619502579E+03  0.37488761740E+04  0.36855405240E+04 0.  0.
        4    1    3    3  502    0  0.11922064490E+04 -0.87158267845E+02  0.10834468671E+04  0.16133231255E+04  0.12699999809E+01 0.  1.
       -4    1    3    3    0  502 -0.11922064490E+04  0.87158267845E+02 -0.17696418929E+04  0.21355530484E+04  0.12699999809E+01 0. -1.
</event>
<event>
 5   0  0.3377396E-07  0.3772471E+04  0.7818609E-02  0.8052089E-01
       -2   -1    0    0    0  501  0.00000000000E+00  0.00000000000E+00  0.16624955468E+04  0.16624955468E+04  0.25500000920E-02 0. -1.
        2   -1    0    0  501    0  0.00000000000E+00  0.00000000000E+00 -0.21400861315E+04  0.21400861315E+04  0.25500000920E-02 0.  1.
    10030    2    1    2    0    0  0.00000000000E+00  0.00000000000E+00 -0.47759058472E+03  0.38025816783E+04  0.37724706299E+04 0.  0.
        5    1    3    3  502    0  0.10179925019E+04  0.14152493357E+04 -0.96469766790E+03  0.19924615672E+04  0.46999998093E+01 0.  1.
       -5    1    3    3    0  502 -0.10179925019E+04 -0.14152493357E+04  0.48710708318E+03  0.18101201111E+04  0.46999998093E+01 0. -1.
</event>
<event>
 5   0  0.1084315E-07  0.3781494E+04  0.7818609E-02  0.8050138E-01
        1   -1    0    0  501    0  0.00000000000E+00  0.00000000000E+00  0.15630896701E+04  0.15630896701E+04  0.50400001928E-02 0.  1.
       -1   -1    0    0    0  501  0.00000000000E+00  0.00000000000E+00 -0.22870879588E+04  0.22870879588E+04  0.50400001928E-02 0. -1.
    10030    2    1    2    0    0  0.00000000000E+00  0.00000000000E+00 -0.72399828872E+03  0.38501776289E+04  0.37814936535E+04 0.  0.
        4    1    3    3  502    0 -0.16930061961E+04  0.71017797004E+03  0.98205233498E+02  0.18385506819E+04  0.12699999809E+01 0.  1.
       -4    1    3    3    0  502  0.16930061961E+04 -0.71017797004E+03 -0.82220352222E+03  0.20116269470E+04  0.12699999809E+01 0. -1.
</event>
<event>
 5   0  0.1070988E-07  0.3772362E+04  0.7818609E-02  0.8052112E-01
        1   -1    0    0  501    0  0.00000000000E+00  0.00000000000E+00  0.14706555583E+04  0.14706555583E+04  0.50400001928E-02 0.  1.
       -1   -1    0    0    0  501  0.00000000000E+00  0.00000000000E+00 -0.24191108213E+04  0.24191108213E+04  0.50400001928E-02 0. -1.
    10030    2    1    2    0    0  0.00000000000E+00  0.00000000000E+00 -0.94845526294E+03  0.38897663796E+04  0.37723620057E+04 0.  0.
        5    1    3    3  502    0  0.38759872683E+03 -0.25979807945E+03  0.14101969687E+04  0.14853973865E+04  0.46999998093E+01 0.  1.
       -5    1    3    3    0  502 -0.38759872683E+03  0.25979807945E+03 -0.23586522317E+04  0.24043689931E+04  0.46999998093E+01 0. -1.
</event>
<event>
 5   0  0.3539010E-07  0.3754475E+04  0.7818609E-02  0.8055996E-01
       -2   -1    0    0    0  501  0.00000000000E+00  0.00000000000E+00  0.18651443507E+04  0.18651443507E+04  0.25500000920E-02 0.  1.
        2   -1    0    0  501    0  0.00000000000E+00  0.00000000000E+00 -0.18894086370E+04  0.18894086370E+04  0.25500000920E-02 0. -1.
    10030    2    1    2    0    0  0.00000000000E+00  0.00000000000E+00 -0.24264286288E+02  0.37545529876E+04  0.37544745813E+04 0.  0.
        1    1    3    3  502    0 -0.88352584601E+03  0.10549065379E+04  0.12648338806E+04  0.18690239350E+04  0.50400001928E-02 0.  1.
       -1    1    3    3    0  502  0.88352584601E+03 -0.10549065379E+04 -0.12890981669E+04  0.18855290526E+04  0.50400001928E-02 0. -1.
</event>
<event>
 5   0  0.3509843E-07  0.3806548E+04  0.7818609E-02  0.8044751E-01
       -2   -1    0    0    0  501  0.00000000000E+00  0.00000000000E+00  0.19271338493E+04  0.19271338493E+04  0.25500000920E-02 0.  1.
        2   -1    0    0  501    0  0.00000000000E+00  0.00000000000E+00 -0.18797092152E+04  0.18797092152E+04  0.25500000920E-02 0. -1.
    10030    2    1    2    0    0  0.00000000000E+00  0.00000000000E+00  0.47424634118E+02  0.38068430646E+04  0.38065476514E+04 0.  0.
        4    1    3    3  502    0 -0.91091755041E+03  0.12099617027E+04  0.11764819264E+04  0.19177824282E+04  0.12699999809E+01 0.  1.
       -4    1    3    3    0  502  0.91091755041E+03 -0.12099617027E+04 -0.11290572923E+04  0.18890606364E+04  0.12699999809E+01 0. -1.
</event>
<event>
 5   0  0.3327241E-07  0.3702496E+04  0.7818609E-02  0.8067409E-01
       -2   -1    0    0    0  501  0.00000000000E+00  0.00000000000E+00  0.22060367807E+04  0.22060367807E+04  0.25500000920E-02 0.  1.
        2   -1    0    0  501    0  0.00000000000E+00  0.00000000000E+00 -0.15535182838E+04  0.15535182838E+04  0.25500000920E-02 0. -1.
    10030    2    1    2    0    0  0.00000000000E+00  0.00000000000E+00  0.65251849690E+03  0.37595550644E+04  0.37024956305E+04 0.  0.
        3    1    3    3  502    0 -0.27540956310E+03 -0.13328982620E+04  0.16004485372E+04  0.21009292550E+04  0.10100000352E+00 0.  1.
       -3    1    3    3    0  502  0.27540956310E+03  0.13328982620E+04 -0.94793004030E+03  0.16586258094E+04  0.10100000352E+00 0. -1.
</event>
<event>
 5   0  0.1084315E-07  0.3792394E+04  0.7818609E-02  0.8047789E-01
       -1   -1    0    0    0  501  0.00000000000E+00  0.00000000000E+00  0.15460574716E+04  0.15460574717E+04  0.50400001928E-02 0. -1.
        1   -1    0    0  501    0  0.00000000000E+00  0.00000000000E+00 -0.23256331429E+04  0.23256331429E+04  0.50400001928E-02 0.  1.
    10030    2    1    2    0    0  0.00000000000E+00  0.00000000000E+00 -0.77957567123E+03  0.38716906145E+04  0.37923937016E+04 0.  0.
        4    1    3    3  502    0  0.11539911905E+04 -0.15042705814E+04 -0.35694001761E+03  0.19292313078E+04  0.12699999809E+01 0. -1.
       -4    1    3    3    0  502 -0.11539911905E+04  0.15042705814E+04 -0.42263565362E+03  0.19424593068E+04  0.12699999809E+01 0.  1.
</event>
<event>
 5   0  0.1070988E-07  0.3739389E+04  0.7818609E-02  0.8059288E-01
        1   -1    0    0  501    0  0.00000000000E+00  0.00000000000E+00  0.15257142623E+04  0.15257142623E+04  0.50400001928E-02 0. -1.
       -1   -1    0    0    0  501  0.00000000000E+00  0.00000000000E+00 -0.22912273202E+04  0.22912273202E+04  0.50400001928E-02 0.  1.
    10030    2    1    2    0    0  0.00000000000E+00  0.00000000000E+00 -0.76551305790E+03  0.38169415824E+04  0.37393893622E+04 0.  0.
        2    1    3    3  502    0 -0.12227081477E+04 -0.13032980398E+04 -0.94384494517E+03  0.20210008103E+04  0.25500000920E-02 0.  1.
       -2    1    3    3    0  502  0.12227081477E+04  0.13032980398E+04  0.17833188727E+03  0.17959407721E+04  0.25500000920E-02 0. -1.
</event>
<event>
 5   0  0.3377396E-07  0.3803414E+04  0.7818609E-02  0.8045423E-01
       -2   -1    0    0    0  501  0.00000000000E+00  0.00000000000E+00  0.12446926892E+04  0.12446926892E+04  0.25500000920E-02 0.  1.
        2   -1    0    0  501    0  0.00000000000E+00  0.00000000000E+00 -0.29055281385E+04  0.29055281385E+04  0.25500000920E-02 0. -1.
    10030    2    1    2    0    0  0.00000000000E+00  0.00000000000E+00 -0.16608354493E+04  0.41502208277E+04  0.38034140623E+04 0.  0.
        5    1    3    3  502    0 -0.13810002866E+04 -0.12231665708E+04 -0.32661568904E+03  0.18734989057E+04  0.46999998093E+01 0. -1.
       -5    1    3    3    0  502  0.13810002866E+04  0.12231665708E+04 -0.13342197602E+04  0.22767219220E+04  0.46999998093E+01 0.  1.
</event>
<event>
 5   0  0.1085771E-07  0.3807024E+04  0.7818609E-02  0.8044649E-01
        1   -1    0    0  501    0  0.00000000000E+00  0.00000000000E+00  0.10885057042E+04  0.10885057042E+04  0.50400001928E-02 0. -1.
       -1   -1    0    0    0  501  0.00000000000E+00  0.00000000000E+00 -0.33287448311E+04  0.33287448311E+04  0.50400001928E-02 0.  1.
    10030    2    1    2    0    0  0.00000000000E+00  0.00000000000E+00 -0.22402391269E+04  0.44172505353E+04  0.38070238962E+04 0.  0.
        1    1    3    3  502    0 -0.41718289875E+03 -0.18533118006E+04 -0.98015411554E+03  0.21376408238E+04  0.50400001928E-02 0.  1.
       -1    1    3    3    0  502  0.41718289875E+03  0.18533118006E+04 -0.12600850113E+04  0.22796097116E+04  0.50400001928E-02 0. -1.
</event>
<event>
 5   0  0.3327241E-07  0.3757941E+04  0.7818609E-02  0.8055241E-01
       -2   -1    0    0    0  501  0.00000000000E+00  0.00000000000E+00  0.20899883140E+04  0.20899883140E+04  0.25500000920E-02 0. -1.
        2   -1    0    0  501    0  0.00000000000E+00  0.00000000000E+00 -0.16892585593E+04  0.16892585593E+04  0.25500000920E-02 0.  1.
    10030    2    1    2    0    0  0.00000000000E+00  0.00000000000E+00  0.40072975473E+03  0.37792468732E+04  0.37579412705E+04 0.  0.
        3    1    3    3  502    0 -0.94942575174E+02 -0.29927110731E+03 -0.16626913482E+04  0.16920755946E+04  0.10100000352E+00 0.  1.
       -3    1    3    3    0  502  0.94942575174E+02  0.29927110731E+03  0.20634211029E+04  0.20871712786E+04  0.10100000352E+00 0. -1.
</event>
<event>
 5   0  0.1070988E-07  0.3675449E+04  0.7818609E-02  0.8073425E-01
        1   -1    0    0  501    0  0.00000000000E+00  0.00000000000E+00  0.12574666326E+04  0.12574666326E+04  0.50400001928E-02 0. -1.
       -1   -1    0    0    0  501  0.00000000000E+00  0.00000000000E+00 -0.26857417686E+04  0.26857417686E+04  0.50400001928E-02 0.  1.
    10030    2    1    2    0    0  0.00000000000E+00  0.00000000000E+00 -0.14282751360E+04  0.39432084012E+04  0.36754486299E+04 0.  0.
        2    1    3    3  502    0  0.56849357816E+03  0.16439051364E+04 -0.13503133809E+04  0.22020343487E+04  0.25500000920E-02 0. -1.
       -2    1    3    3    0  502 -0.56849357816E+03 -0.16439051364E+04 -0.77961755067E+02  0.17411740525E+04  0.25500000920E-02 0.  1.
</event>
<event>
 5   0  0.1084315E-07  0.3792591E+04  0.7818609E-02  0.8047747E-01
        1   -1    0    0  501    0  0.00000000000E+00  0.00000000000E+00  0.22171621267E+04  0.22171621267E+04  0.50400001928E-02 0.  1.
       -1   -1    0    0    0  501  0.00000000000E+00  0.00000000000E+00 -0.16218642333E+04  0.16218642333E+04  0.50400001928E-02 0. -1.
    10030    2    1    2    0    0  0.00000000000E+00  0.00000000000E+00  0.59529789333E+03  0.38390263600E+04  0.37925906464E+04 0.  0.
        4    1    3    3  502    0  0.17283802289E+04 -0.59476636608E+03  0.80869583851E+03  0.19987585692E+04  0.12699999809E+01 0. -1.
       -4    1    3    3    0  502 -0.17283802289E+04  0.59476636608E+03 -0.21339794517E+03  0.18402677908E+04  0.12699999809E+01 0.  1.
</event>
<event>
 5   0  0.3509843E-07  0.3812579E+04  0.7818609E-02  0.8043461E-01
       -2   -1    0    0    0  501  0.00000000000E+00  0.00000000000E+00  0.16668511169E+04  0.16668511169E+04  0.25500000920E-02 0. -1.
        2   -1    0    0  501    0  0.00000000000E+00  0.00000000000E+00 -0.21801225578E+04  0.21801225578E+04  0.25500000920E-02 0.  1.
    10030    2    1    2    0    0  0.00000000000E+00  0.00000000000E+00 -0.51327144086E+03  0.38469736747E+04  0.38125790329E+04 0.  0.
        4    1    3    3  502    0 -0.11066777825E+04 -0.14734492405E+04 -0.74904406631E+03  0.19891850102E+04  0.12699999809E+01 0.  1.
       -4    1    3    3    0  502  0.11066777825E+04  0.14734492405E+04  0.23577262545E+03  0.18577886646E+04  0.12699999809E+01 0. -1.
</event>
<event>
 5   0  0.1070988E-07  0.3812381E+04  0.7818609E-02  0.8043503E-01
        1   -1    0    0  501    0  0.00000000000E+00  0.00000000000E+00  0.20573275964E+04  0.20573275964E+04  0.50400001928E-02 0.  1.
       -1   -1    0    0    0  501  0.00000000000E+00  0.00000000000E+00 -0.17661565961E+04  0.17661565961E+04  0.50400001928E-02 0. -1.
    10030    2    1    2    0    0  0.00000000000E+00  0.00000000000E+00  0.29117100033E+03  0.38234841925E+04  0.38123812531E+04 0.  0.
        5    1    3    3  502    0  0.32193007637E+03 -0.29488867480E+02  0.20296283451E+04  0.20552182066E+04  0.46999998093E+01 0.  1.
       -5    1    3    3    0  502 -0.32193007637E+03  0.29488867480E+02 -0.17384573448E+04  0.17682659859E+04  0.46999998093E+01 0. -1.
</event>
<event>
 5   0  0.3442126E-07  0.3772912E+04  0.7818609E-02  0.8051993E-01
        2   -1    0    0  501    0  0.00000000000E+00  0.00000000000E+00  0.22182272014E+04  0.22182272014E+04  0.25500000920E-02 0.  1.
       -2   -1    0    0    0  501  0.00000000000E+00  0.00000000000E+00 -0.16043064383E+04  0.16043064383E+04  0.25500000920E-02 0. -1.
    10030    2    1    2    0    0  0.00000000000E+00  0.00000000000E+00  0.61392076310E+03  0.38225336397E+04  0.37729119687E+04 0.  0.
        2    1    3    3  502    0  0.18160921277E+02 -0.11693554000E+04  0.18066288795E+04  0.21521221570E+04  0.25500000920E-02 0.  1.
       -2    1    3    3    0  502 -0.18160921277E+02  0.11693554000E+04 -0.11927081164E+04  0.16704114827E+04  0.25500000920E-02 0. -1.
</event>
<event>
 5   0  0.1084315E-07  0.3814295E+04  0.7818609E-02  0.8043094E-01
       -1   -1    0    0    0  501  0.00000000000E+00  0.00000000000E+00  0.14966811774E+04  0.14966811774E+04  0.50400001928E-02 0.  1.
        1   -1    0    0  501    0  0.00000000000E+00  0.00000000000E+00 -0.24301840891E+04  0.24301840891E+04  0.50400001928E-02 0. -1.
    10030    2    1    2    0    0  0.00000000000E+00  0.00000000000E+00 -0.93350291168E+03  0.39268652666E+04  0.38142945790E+04 0.  0.
        4    1    3    3  502    0 -0.48053629407E+03 -0.18223144970E+04 -0.76772142355E+03  0.20349798655E+04  0.12699999809E+01 0.  1.
       -4    1    3    3    0  502  0.48053629407E+03  0.18223144970E+04 -0.16578148813E+03  0.18918854010E+04  0.12699999809E+01 0. -1.
</event>
<event>
 5   0  0.1085771E-07  0.3671925E+04  0.7818609E-02  0.8074212E-01
       -1   -1    0    0    0  501  0.00000000000E+00  0.00000000000E+00  0.13039364324E+04  0.13039364324E+04  0.50400001928E-02 0. -1.
        1   -1    0    0  501    0  0.00000000000E+00  0.00000000000E+00 -0.25850637223E+04  0.25850637223E+04  0.50400001928E-02 0.  1.
    10030    2    1    2    0    0  0.00000000000E+00  0.00000000000E+00 -0.12811272899E+04  0.38890001546E+04  0.36719252539E+04 0.  0.
        1    1    3    3  502    0 -0.60002211468E+03  0.15219548671E+04 -0.15231241427E+04  0.22352360747E+04  0.50400001928E-02 0.  1.
       -1    1    3    3    0  502  0.60002211468E+03 -0.15219548671E+04  0.24199685275E+03  0.16537640800E+04  0.50400001928E-02 0. -1.
</event>
<event>
 5   0  0.3442126E-07  0.3774458E+04  0.7818609E-02  0.8051658E-01
        2   -1    0    0  501    0  0.00000000000E+00  0.00000000000E+00  0.13678100688E+04  0.13678100688E+04  0.25500000920E-02 0. -1.
       -2   -1    0    0    0  501  0.00000000000E+00  0.00000000000E+00 -0.26038943321E+04  0.26038943321E+04  0.25500000920E-02 0.  1.
    10030    2    1    2    0    0  0.00000000000E+00  0.00000000000E+00 -0.12360842633E+04  0.39717044008E+04  0.37744577811E+04 0.  0.
        2    1    3    3  502    0 -0.10494307000E+04 -0.47198132178E+03  0.95597646163E+03  0.14959820044E+04  0.25500000920E-02 0. -1.
       -2    1    3    3    0  502  0.10494307000E+04  0.47198132178E+03 -0.21920607250E+04  0.24757223964E+04  0.25500000920E-02 0.  1.
</event>
<event>
 5   0  0.3539010E-07  0.3751434E+04  0.7818609E-02  0.8056658E-01
        2   -1    0    0  501    0  0.00000000000E+00  0.00000000000E+00  0.18035208874E+04  0.18035208874E+04  0.25500000920E-02 0. -1.
       -2   -1    0    0    0  501  0.00000000000E+00  0.00000000000E+00 -0.19508032436E+04  0.19508032436E+04  0.25500000920E-02 0.  1.
    10030    2    1    2    0    0  0.00000000000E+00  0.00000000000E+00 -0.14728235618E+03  0.37543241309E+04  0.37514340708E+04 0.  0.
        1    1    3    3  502    0 -0.99318095102E+03 -0.13088073789E+04 -0.97928543106E+03  0.19126905427E+04  0.50400001928E-02 0.  1.
       -1    1    3    3    0  502  0.99318095102E+03  0.13088073789E+04  0.83200307488E+03  0.18416335882E+04  0.50400001928E-02 0. -1.
</event>
<event>
 5   0  0.1070988E-07  0.3811957E+04  0.7818609E-02  0.8043594E-01
       -1   -1    0    0    0  501  0.00000000000E+00  0.00000000000E+00  0.14063102914E+04  0.14063102914E+04  0.50400001928E-02 0. -1.
        1   -1    0    0  501    0  0.00000000000E+00  0.00000000000E+00 -0.25831812888E+04  0.25831812888E+04  0.50400001928E-02 0.  1.
    10030    2    1    2    0    0  0.00000000000E+00  0.00000000000E+00 -0.11768709974E+04  0.39894915801E+04  0.38119572038E+04 0.  0.
        2    1    3    3  502    0 -0.37315734654E+03  0.18350942480E+04 -0.95983937011E+03  0.21043072306E+04  0.25500000920E-02 0. -1.
       -2    1    3    3    0  502  0.37315734654E+03 -0.18350942480E+04 -0.21703162728E+03  0.18851843495E+04  0.25500000920E-02 0.  1.
</event>
<event>
 5   0  0.1070988E-07  0.3806643E+04  0.7818609E-02  0.8044731E-01
       -1   -1    0    0    0  501  0.00000000000E+00  0.00000000000E+00  0.17944773729E+04  0.17944773729E+04  0.50400001928E-02 0. -1.
        1   -1    0    0  501    0  0.00000000000E+00  0.00000000000E+00 -0.20187671398E+04  0.20187671399E+04  0.50400001928E-02 0.  1.
    10030    2    1    2    0    0  0.00000000000E+00  0.00000000000E+00 -0.22428976696E+03  0.38132445128E+04  0.38066425908E+04 0.  0.
        3    1    3    3  502    0  0.11381880694E+04 -0.12860360360E+04 -0.93409897666E+03  0.19549684590E+04  0.10100000352E+00 0.  1.
       -3    1    3    3    0  502 -0.11381880694E+04  0.12860360360E+04  0.70980920970E+03  0.18582760537E+04  0.10100000352E+00 0. -1.
</event>
<event>
 5   0  0.1085771E-07  0.3807511E+04  0.7818609E-02  0.8044545E-01
       -1   -1    0    0    0  501  0.00000000000E+00  0.00000000000E+00  0.18722350064E+04  0.18722350064E+04  0.50400001928E-02 0.  1.
        1   -1    0    0  501    0  0.00000000000E+00  0.00000000000E+00 -0.19358071534E+04  0.19358071534E+04  0.50400001928E-02 0. -1.
    10030    2    1    2    0    0  0.00000000000E+00  0.00000000000E+00 -0.63572147063E+02  0.38080421598E+04  0.38075114804E+04 0.  0.
        1    1    3    3  502    0  0.22446534545E+03  0.87082264365E+03  0.16464135737E+04  0.18760049104E+04  0.50400001928E-02 0.  1.
       -1    1    3    3    0  502 -0.22446534545E+03 -0.87082264365E+03 -0.17099857208E+04  0.19320372494E+04  0.50400001928E-02 0. -1.
</event>
<event>
 5   0  0.3509843E-07  0.3811534E+04  0.7818609E-02  0.8043684E-01
       -2   -1    0    0    0  501  0.00000000000E+00  0.00000000000E+00  0.16047757158E+04  0.16047757158E+04  0.25500000920E-02 0. -1.
        2   -1    0    0  501    0  0.00000000000E+00  0.00000000000E+00 -0.22632122761E+04  0.22632122761E+04  0.25500000920E-02 0.  1.
    10030    2    1    2    0    0  0.00000000000E+00  0.00000000000E+00 -0.65843656028E+03  0.38679879920E+04  0.38115341271E+04 0.  0.
        4    1    3    3  502    0  0.78366135556E+03 -0.97661444660E+03  0.11287394986E+04  0.16858100029E+04  0.12699999809E+01 0. -1.
       -4    1    3    3    0  502 -0.78366135556E+03  0.97661444660E+03 -0.17871760589E+04  0.21821779890E+04  0.12699999809E+01 0.  1.
</event>
<event>
 5   0  0.1070988E-07  0.3769498E+04  0.7818609E-02  0.8052732E-01
        1   -1    0    0  501    0  0.00000000000E+00  0.00000000000E+00  0.11598690382E+04  0.11598690382E+04  0.50400001928E-02 0.  1.
       -1   -1    0    0    0  501  0.00000000000E+00  0.00000000000E+00 -0.30626553512E+04  0.30626553512E+04  0.50400001928E-02 0. -1.
    10030    2    1    2    0    0  0.00000000000E+00  0.00000000000E+00 -0.19027863130E+04  0.42225243894E+04  0.37694981717E+04 0.  0.
        3    1    3    3  502    0 -0.26509433324E+03  0.16440458482E+04  0.37364973707E+02  0.16657004256E+04  0.10100000352E+00 0.  1.
       -3    1    3    3    0  502  0.26509433324E+03 -0.16440458482E+04 -0.19401512867E+04  0.25568239638E+04  0.10100000352E+00 0. -1.
</event>
<event>
 5   0  0.1085771E-07  0.3609754E+04  0.7818609E-02  0.8088261E-01
       -1   -1    0    0    0  501  0.00000000000E+00  0.00000000000E+00  0.16700839896E+04  0.16700839896E+04  0.50400001928E-02 0.  1.
        1   -1    0    0  501    0  0.00000000000E+00  0.00000000000E+00 -0.19505486646E+04  0.19505486646E+04  0.50400001928E-02 0. -1.
    10030    2    1    2    0    0  0.00000000000E+00  0.00000000000E+00 -0.28046467499E+03  0.36206326542E+04  0.36097535072E+04 0.  0.
        1    1    3    3  502    0 -0.53043872957E+03 -0.96816202275E+03  0.12919636281E+04  0.16993742862E+04  0.50400001928E-02 0.  1.
       -1    1    3    3    0  502  0.53043872957E+03  0.96816202275E+03 -0.15724283031E+04  0.19212583680E+04  0.50400001928E-02 0. -1.
</event>
<event>
 5   0  0.1085771E-07  0.3792576E+04  0.7818609E-02  0.8047750E-01
        1   -1    0    0  501    0  0.00000000000E+00  0.00000000000E+00  0.18291507784E+04  0.18291507784E+04  0.50400001928E-02 0. -1.
       -1   -1    0    0    0  501  0.00000000000E+00  0.00000000000E+00 -0.19658895553E+04  0.19658895553E+04  0.50400001928E-02 0.  1.
    10030    2    1    2    0    0  0.00000000000E+00  0.00000000000E+00 -0.13673877687E+03  0.37950403337E+04  0.37925761220E+04 0.  0.
        1    1    3    3  502    0  0.18428033831E+04 -0.38188766926E+03  0.16447453899E+03  0.18891305870E+04  0.50400001928E-02 0.  1.
       -1    1    3    3    0  502 -0.18428033831E+04  0.38188766926E+03 -0.30121331587E+03  0.19059097467E+04  0.50400001928E-02 0. -1.
</event>
<event>
 5   0  0.3509843E-07  0.3798471E+04  0.7818609E-02  0.8046483E-01
        2   -1    0    0  501    0  0.00000000000E+00  0.00000000000E+00  0.12576902663E+04  0.12576902663E+04  0.25500000920E-02 0. -1.
       -2   -1    0    0    0  501  0.00000000000E+00  0.00000000000E+00 -0.28680319651E+04  0.28680319651E+04  0.25500000920E-02 0.  1.
    10030    2    1    2    0    0  0.00000000000E+00  0.00000000000E+00 -0.16103416988E+04  0.41257222314E+04  0.37984712114E+04 0.  0.
        4    1    3    3  502    0 -0.23700904822E+03  0.18097834007E+04 -0.13753806966E+04  0.22854240132E+04  0.12699999809E+01 0.  1.
       -4    1    3    3    0  502  0.23700904822E+03 -0.18097834007E+04 -0.23496100220E+03  0.18402982182E+04  0.12699999809E+01 0. -1.
</event>
<event>
 5   0  0.3327241E-07  0.3769223E+04  0.7818609E-02  0.8052792E-01
       -2   -1    0    0    0  501  0.00000000000E+00  0.00000000000E+00  0.13921880170E+04  0.13921880170E+04  0.25500000920E-02 0.  1.
        2   -1    0    0  501    0  0.00000000000E+00  0.00000000000E+00 -0.25512074742E+04  0.25512074742E+04  0.25500000920E-02 0. -1.
    10030    2    1    2    0    0  0.00000000000E+00  0.00000000000E+00 -0.11590194571E+04  0.39433954912E+04  0.37692229834E+04 0.  0.
        3    1    3    3  502    0 -0.16746154958E+04 -0.65919511351E+03 -0.11647187613E+04  0.21436989200E+04  0.10100000352E+00 0. -1.
       -3    1    3    3    0  502  0.16746154958E+04  0.65919511351E+03  0.56993041982E+01  0.17996965713E+04  0.10100000352E+00 0.  1.
</event>
<event>
 5   0  0.3377396E-07  0.3724964E+04  0.7818609E-02  0.8062452E-01
       -2   -1    0    0    0  501  0.00000000000E+00  0.00000000000E+00  0.12773840331E+04  0.12773840331E+04  0.25500000920E-02 0. -1.
        2   -1    0    0  501    0  0.00000000000E+00  0.00000000000E+00 -0.27155805946E+04  0.27155805946E+04  0.25500000920E-02 0.  1.
    10030    2    1    2    0    0  0.00000000000E+00  0.00000000000E+00 -0.14381965615E+04  0.39929646277E+04  0.37249640492E+04 0.  0.
        5    1    3    3  502    0  0.12163059036E+04 -0.12244019700E+04 -0.14696580193E+04  0.22668209058E+04  0.46999998093E+01 0.  1.
       -5    1    3    3    0  502 -0.12163059036E+04  0.12244019700E+04  0.31461457801E+02  0.17261437219E+04  0.46999998093E+01 0. -1.
</event>
<event>
 5   0  0.3327241E-07  0.3804873E+04  0.7818609E-02  0.8045110E-01
       -2   -1    0    0    0  501  0.00000000000E+00  0.00000000000E+00  0.22136581312E+04  0.22136581312E+04  0.25500000920E-02 0. -1.
        2   -1    0    0  501    0  0.00000000000E+00  0.00000000000E+00 -0.16349699700E+04  0.16349699700E+04  0.25500000920E-02 0.  1.
    10030    2    1    2    0    0  0.00000000000E+00  0.00000000000E+00  0.57868816127E+03  0.38486281012E+04  0.38048729641E+04 0.  0.
        3    1    3    3  502    0 -0.29323983458E+03  0.13354631610E+03 -0.16071681650E+04  0.16391503103E+04  0.10100000352E+00 0.  1.
       -3    1    3    3    0  502  0.29323983458E+03 -0.13354631610E+03  0.21858563262E+04  0.22094777909E+04  0.10100000352E+00 0. -1.
</event>
<event>
 5   0  0.1070988E-07  0.3788057E+04  0.7818609E-02  0.8048723E-01
       -1   -1    0    0    0  501  0.00000000000E+00  0.00000000000E+00  0.11656590635E+04  0.11656590635E+04  0.50400001928E-02 0.  1.
        1   -1    0    0  501    0  0.00000000000E+00  0.00000000000E+00 -0.30775237195E+04  0.30775237195E+04  0.50400001928E-02 0. -1.
    10030    2    1    2    0    0  0.00000000000E+00  0.00000000000E+00 -0.19118646560E+04  0.42431827830E+04  0.37880567138E+04 0.  0.
        5    1    3    3  502    0 -0.30386519637E+03  0.76694917375E+01  0.11381531839E+04  0.11780524770E+04  0.46999998093E+01 0.  1.
       -5    1    3    3    0  502  0.30386519637E+03 -0.76694917375E+01 -0.30500178399E+04  0.30651303059E+04  0.46999998093E+01 0. -1.
</event>
<event>
 5   0  0.3377396E-07  0.3799833E+04  0.7818609E-02  0.8046191E-01
       -2   -1    0    0    0  501  0.00000000000E+00  0.00000000000E+00  0.13703867107E+04  0.13703867107E+04  0.25500000920E-02 0. -1.
        2   -1    0    0  501    0  0.00000000000E+00  0.00000000000E+00 -0.26340615613E+04  0.26340615613E+04  0.25500000920E-02 0.  1.
    10030    2    1    2    0    0  0.00000000000E+00  0.00000000000E+00 -0.12636748506E+04  0.40044482720E+04  0.37998331325E+04 0.  0.
        5    1    3    3  502    0  0.20967253101E+03 -0.80069543100E+03  0.11703929126E+04  0.14334983095E+04  0.46999998093E+01 0. -1.
       -5    1    3    3    0  502 -0.20967253101E+03  0.80069543100E+03 -0.24340677632E+04  0.25709499624E+04  0.46999998093E+01 0.  1.
</event>
<event>
 5   0  0.3442126E-07  0.3758645E+04  0.7818609E-02  0.8055088E-01
       -2   -1    0    0    0  501  0.00000000000E+00  0.00000000000E+00  0.18152443319E+04  0.18152443319E+04  0.25500000920E-02 0.  1.
        2   -1    0    0  501    0  0.00000000000E+00  0.00000000000E+00 -0.19456624045E+04  0.19456624045E+04  0.25500000920E-02 0. -1.
    10030    2    1    2    0    0  0.00000000000E+00  0.00000000000E+00 -0.13041807257E+03  0.37609067364E+04  0.37586447832E+04 0.  0.
        2    1    3    3  502    0 -0.70465363382E+03  0.94585314869E+03  0.13987769694E+04  0.18296862935E+04  0.25500000920E-02 0.  1.
       -2    1    3    3    0  502  0.70465363382E+03 -0.94585314869E+03 -0.15291950420E+04  0.19312204429E+04  0.25500000920E-02 0. -1.
</event>
<event>
 5   0  0.3377396E-07  0.3771464E+04  0.7818609E-02  0.8052306E-01
        2   -1    0    0  501    0  0.00000000000E+00  0.00000000000E+00  0.24570969756E+04  0.24570969756E+04  0.25500000920E-02 0.  1.
       -2   -1    0    0    0  501  0.00000000000E+00  0.00000000000E+00 -0.14472303638E+04  0.14472303638E+04  0.25500000920E-02 0. -1.
    10030    2    1    2    0    0  0.00000000000E+00  0.00000000000E+00  0.10098666119E+04  0.39043273394E+04  0.37714640923E+04 0.  0.
        5    1    3    3  502    0  0.12613704133E+03  0.16426676887E+04 -0.44482645502E+03  0.17065053044E+04  0.46999998093E+01 0. -1.
       -5    1    3    3    0  502 -0.12613704133E+03 -0.16426676887E+04  0.14546930669E+04  0.21978220350E+04  0.46999998093E+01 0.  1.
</event>
<event>
 5   0  0.1085771E-07  0.3796962E+04  0.7818609E-02  0.8046807E-01
        1   -1    0    0  501    0  0.00000000000E+00  0.00000000000E+00  0.29006003229E+04  0.29006003229E+04  0.50400001928E-02 0.  1.
       -1   -1    0    0    0  501  0.00000000000E+00  0.00000000000E+00 -0.12425805257E+04  0.12425805257E+04  0.50400001928E-02 0. -1.
    10030    2    1    2    0    0  0.00000000000E+00  0.00000000000E+00  0.16580197972E+04  0.41431808485E+04  0.37969616664E+04 0.  0.
        1    1    3    3  502    0 -0.27850599734E+02 -0.17999576953E+04  0.14869907668E+04  0.23349014757E+04  0.50400001928E-02 0. -1.
       -1    1    3    3    0  502  0.27850599734E+02  0.17999576953E+04  0.17102903037E+03  0.18082793728E+04  0.50400001928E-02 0.  1.
</event>
<event>
 5   0  0.3442126E-07  0.3797600E+04  0.7818609E-02  0.8046670E-01
       -2   -1    0    0    0  501  0.00000000000E+00  0.00000000000E+00  0.17268953441E+04  0.17268953441E+04  0.25500000920E-02 0.  1.
        2   -1    0    0  501    0  0.00000000000E+00  0.00000000000E+00 -0.20878171521E+04  0.20878171521E+04  0.25500000920E-02 0. -1.
    10030    2    1    2    0    0  0.00000000000E+00  0.00000000000E+00 -0.36092180800E+03  0.38147124961E+04  0.37976001470E+04 0.  0.
        2    1    3    3  502    0  0.12481919314E+04 -0.13142870384E+04  0.38786961450E+03  0.18535847309E+04  0.25500000920E-02 0. -1.
       -2    1    3    3    0  502 -0.12481919314E+04  0.13142870384E+04 -0.74879142250E+03  0.19611277652E+04  0.25500000920E-02 0.  1.
</event>
<event>
 5   0  0.1070988E-07  0.3504304E+04  0.7818609E-02  0.8112771E-01
        1   -1    0    0  501    0  0.00000000000E+00  0.00000000000E+00  0.20741751793E+04  0.20741751793E+04  0.50400001928E-02 0. -1.
       -1   -1    0    0    0  501  0.00000000000E+00  0.00000000000E+00 -0.14801243324E+04  0.14801243324E+04  0.50400001928E-02 0.  1.
    10030    2    1    2    0    0  0.00000000000E+00  0.00000000000E+00  0.59405084686E+03  0.35542995117E+04  0.35043042976E+04 0.  0.
        5    1    3    3  502    0  0.15792490655E+04 -0.24612780513E+03 -0.43113659523E+03  0.16554477827E+04  0.46999998093E+01 0.  1.
       -5    1    3    3    0  502 -0.15792490655E+04  0.24612780513E+03  0.10251874421E+04  0.18988517290E+04  0.46999998093E+01 0. -1.
</event>
<event>
 5   0  0.1070988E-07  0.3540958E+04  0.7818609E-02  0.8104151E-01
        1   -1    0    0  501    0  0.00000000000E+00  0.00000000000E+00  0.20525717137E+04  0.20525717137E+04  0.50400001928E-02 0.  1.
       -1   -1    0    0    0  501  0.00000000000E+00  0.00000000000E+00 -0.15271552301E+04  0.15271552301E+04  0.50400001928E-02 0. -1.
    10030    2    1    2    0    0  0.00000000000E+00  0.00000000000E+00  0.52541648353E+03  0.35797269438E+04  0.35409578522E+04 0.  0.
        5    1    3    3  502    0  0.48962106422E+03 -0.16106216013E+04  0.81711276993E+03  0.18712365158E+04  0.46999998093E+01 0.  1.
       -5    1    3    3    0  502 -0.48962106422E+03  0.16106216013E+04 -0.29169628640E+03  0.17084904280E+04  0.46999998093E+01 0. -1.
</event>
<event>
 5   0  0.3509843E-07  0.3826484E+04  0.7818609E-02  0.8040495E-01
        2   -1    0    0  501    0  0.00000000000E+00  0.00000000000E+00  0.31269420055E+04  0.31269420055E+04  0.25500000920E-02 0. -1.
       -2   -1    0    0    0  501  0.00000000000E+00  0.00000000000E+00 -0.11706308675E+04  0.11706308675E+04  0.25500000920E-02 0.  1.
    10030    2    1    2    0    0  0.00000000000E+00  0.00000000000E+00  0.19563111380E+04  0.42975728730E+04  0.38264839383E+04 0.  0.
        4    1    3    3  502    0  0.12404093688E+04 -0.17985789292E+03 -0.64532670759E+03  0.14097561620E+04  0.12699999809E+01 0.  1.
       -4    1    3    3    0  502 -0.12404093688E+04  0.17985789292E+03  0.26016378456E+04  0.28878167110E+04  0.12699999809E+01 0. -1.
</event>
<event>
 5   0  0.1070988E-07  0.3773472E+04  0.7818609E-02  0.8051872E-01
        1   -1    0    0  501    0  0.00000000000E+00  0.00000000000E+00  0.17089918676E+04  0.17089918676E+04  0.50400001928E-02 0.  1.
       -1   -1    0    0    0  501  0.00000000000E+00  0.00000000000E+00 -0.20829666397E+04  0.20829666397E+04  0.50400001928E-02 0. -1.
    10030    2    1    2    0    0  0.00000000000E+00  0.00000000000E+00 -0.37397477207E+03  0.37919585072E+04  0.37734721664E+04 0.  0.
        5    1    3    3  502    0 -0.39751952675E+03 -0.11710545125E+04 -0.16188752387E+04  0.20371964986E+04  0.46999998093E+01 0. -1.
       -5    1    3    3    0  502  0.39751952675E+03  0.11710545125E+04  0.12449004666E+04  0.17547620087E+04  0.46999998093E+01 0.  1.
</event>
<event>
 5   0  0.1085771E-07  0.3777921E+04  0.7818609E-02  0.8050910E-01
       -1   -1    0    0    0  501  0.00000000000E+00  0.00000000000E+00  0.20139348101E+04  0.20139348101E+04  0.50400001928E-02 0. -1.
        1   -1    0    0  501    0  0.00000000000E+00  0.00000000000E+00 -0.17717418379E+04  0.17717418379E+04  0.50400001928E-02 0.  1.
    10030    2    1    2    0    0  0.00000000000E+00  0.00000000000E+00  0.24219297223E+03  0.37856766479E+04  0.37779214188E+04 0.  0.
        1    1    3    3  502    0 -0.12067732737E+03 -0.15633640858E+04  0.11765878768E+04  0.19603645870E+04  0.50400001928E-02 0. -1.
       -1    1    3    3    0  502  0.12067732737E+03  0.15633640858E+04 -0.93439490455E+03  0.18253120609E+04  0.50400001928E-02 0.  1.
</event>
<event>
 5   0  0.1070988E-07  0.3795955E+04  0.7818609E-02  0.8047024E-01
        1   -1    0    0  501    0  0.00000000000E+00  0.00000000000E+00  0.21788210626E+04  0.21788210626E+04  0.50400001928E-02 0. -1.
       -1   -1    0    0    0  501  0.00000000000E+00  0.00000000000E+00 -0.16533337108E+04  0.16533337108E+04  0.50400001928E-02 0.  1.
    10030    2    1    2    0    0  0.00000000000E+00  0.00000000000E+00  0.52548735173E+03  0.38321547734E+04  0.37959548536E+04 0.  0.
        5    1    3    3  502    0  0.13709253781E+04 -0.11775080706E+04  0.84821787217E+03  0.19963610138E+04  0.46999998093E+01 0. -1.
       -5    1    3    3    0  502 -0.13709253781E+04  0.11775080706E+04 -0.32273052044E+03  0.18357937596E+04  0.46999998093E+01 0.  1.
</event>
<event>
 5   0  0.3377396E-07  0.3098598E+04  0.7818609E-02  0.8216123E-01
       -2   -1    0    0    0  501  0.00000000000E+00  0.00000000000E+00  0.12687354945E+04  0.12687354945E+04  0.25500000920E-02 0.  1.
        2   -1    0    0  501    0  0.00000000000E+00  0.00000000000E+00 -0.18919056922E+04  0.18919056922E+04  0.25500000920E-02 0. -1.
    10030    2    1    2    0    0  0.00000000000E+00  0.00000000000E+00 -0.62317019774E+03  0.31606411867E+04  0.30985983308E+04 0.  0.
        5    1    3    3  502    0  0.44950555856E+03 -0.87633563969E+03  0.90830700204E+03  0.13397996494E+04  0.46999998093E+01 0.  1.
       -5    1    3    3    0  502 -0.44950555856E+03  0.87633563969E+03 -0.15314771998E+04  0.18208415373E+04  0.46999998093E+01 0. -1.
</event>
<event>
 5   0  0.1085771E-07  0.3823034E+04  0.7818609E-02  0.8041230E-01
       -1   -1    0    0    0  501  0.00000000000E+00  0.00000000000E+00  0.17232491431E+04  0.17232491432E+04  0.50400001928E-02 0.  1.
        1   -1    0    0  501    0  0.00000000000E+00  0.00000000000E+00 -0.21203532255E+04  0.21203532255E+04  0.50400001928E-02 0. -1.
    10030    2    1    2    0    0  0.00000000000E+00  0.00000000000E+00 -0.39710408233E+03  0.38436023686E+04  0.38230338105E+04 0.  0.
        1    1    3    3  502    0 -0.18336477215E+04  0.51350870217E+03 -0.30494919119E+02  0.19044382620E+04  0.50400001928E-02 0.  1.
       -1    1    3    3    0  502  0.18336477215E+04 -0.51350870217E+03 -0.36660916321E+03  0.19391641066E+04  0.50400001928E-02 0. -1.
</event>
<event>
 5   0  0.3377396E-07  0.3764771E+04  0.7818609E-02  0.8053758E-01
       -2   -1    0    0    0  501  0.00000000000E+00  0.00000000000E+00  0.17155323764E+04  0.17155323764E+04  0.25500000920E-02 0.  1.
        2   -1    0    0  501    0  0.00000000000E+00  0.00000000000E+00 -0.20654664532E+04  0.20654664532E+04  0.25500000920E-02 0. -1.
    10030    2    1    2    0    0  0.00000000000E+00  0.00000000000E+00 -0.34993407683E+03  0.37809988296E+04  0.37647706825E+04 0.  0.
        5    1    3    3  502    0  0.11001941569E+04  0.99341112877E+03  0.99023212637E+03  0.17826594200E+04  0.46999998093E+01 0.  1.
       -5    1    3    3    0  502 -0.11001941569E+04 -0.99341112877E+03 -0.13401662032E+04  0.19983394096E+04  0.46999998093E+01 0. -1.
</event>
<event>
 5   0  0.1070988E-07  0.3800441E+04  0.7818609E-02  0.8046060E-01
       -1   -1    0    0    0  501  0.00000000000E+00  0.00000000000E+00  0.17844948518E+04  0.17844948518E+04  0.50400001928E-02 0. -1.
        1   -1    0    0  501    0  0.00000000000E+00  0.00000000000E+00 -0.20234506863E+04  0.20234506863E+04  0.50400001928E-02 0.  1.
    10030    2    1    2    0    0  0.00000000000E+00  0.00000000000E+00 -0.23895583451E+03  0.38079455382E+04  0.38004406759E+04 0.  0.
        5    1    3    3  502    0 -0.17009947418E+04 -0.13404290851E+03 -0.95746948731E+03  0.19565583360E+04  0.46999998093E+01 0.  1.
       -5    1    3    3    0  502  0.17009947418E+04  0.13404290851E+03  0.71851365279E+03  0.18513872022E+04  0.46999998093E+01 0. -1.
</event>
<event>
 5   0  0.3509843E-07  0.3820310E+04  0.7818609E-02  0.8041810E-01
        2   -1    0    0  501    0  0.00000000000E+00  0.00000000000E+00  0.26460798668E+04  0.26460798668E+04  0.25500000920E-02 0. -1.
       -2   -1    0    0    0  501  0.00000000000E+00  0.00000000000E+00 -0.13789048186E+04  0.13789048186E+04  0.25500000920E-02 0.  1.
    10030    2    1    2    0    0  0.00000000000E+00  0.00000000000E+00  0.12671750482E+04  0.40249846853E+04  0.38203100809E+04 0.  0.
        4    1    3    3  502    0 -0.10404138686E+04 -0.15993621860E+04  0.72940060879E+03  0.20426569171E+04  0.12699999809E+01 0. -1.
       -4    1    3    3    0  502  0.10404138686E+04  0.15993621860E+04  0.53777443942E+03  0.19823277682E+04  0.12699999809E+01 0.  1.
</event>
<event>
 5   0  0.1084315E-07  0.3802422E+04  0.7818609E-02  0.8045635E-01
       -1   -1    0    0    0  501  0.00000000000E+00  0.00000000000E+00  0.11791920811E+04  0.11791920811E+04  0.50400001928E-02 0. -1.
        1   -1    0    0  501    0  0.00000000000E+00  0.00000000000E+00 -0.30653219009E+04  0.30653219009E+04  0.50400001928E-02 0.  1.
    10030    2    1    2    0    0  0.00000000000E+00  0.00000000000E+00 -0.18861298197E+04  0.42445139820E+04  0.38024220237E+04 0.  0.
        4    1    3    3  502    0  0.79507999185E+03  0.10663955406E+04 -0.24594002799E+04  0.27960692037E+04  0.12699999809E+01 0.  1.
       -4    1    3    3    0  502 -0.79507999185E+03 -0.10663955406E+04  0.57327046014E+03  0.14484447783E+04  0.12699999809E+01 0. -1.
</event>
<event>
 5   0  0.1070988E-07  0.3776906E+04  0.7818609E-02  0.8051129E-01
        1   -1    0    0  501    0  0.00000000000E+00  0.00000000000E+00  0.13600468591E+04  0.13600468591E+04  0.50400001928E-02 0.  1.
       -1   -1    0    0    0  501  0.00000000000E+00  0.00000000000E+00 -0.26221555784E+04  0.26221555784E+04  0.50400001928E-02 0. -1.
    10030    2    1    2    0    0  0.00000000000E+00  0.00000000000E+00 -0.12621087193E+04  0.39822024375E+04  0.37769058545E+04 0.  0.
        2    1    3    3  502    0 -0.21500173348E+03  0.44072594149E+03 -0.25538562659E+04  0.26005089748E+04  0.25500000920E-02 0. -1.
       -2    1    3    3    0  502  0.21500173348E+03 -0.44072594149E+03  0.12917475466E+04  0.13816934627E+04  0.25500000920E-02 0.  1.
</event>
<event>
 5   0  0.1070988E-07  0.3315182E+04  0.7818609E-02  0.8159043E-01
        1   -1    0    0  501    0  0.00000000000E+00  0.00000000000E+00  0.14360634431E+04  0.14360634432E+04  0.50400001928E-02 0.  1.
       -1   -1    0    0    0  501  0.00000000000E+00  0.00000000000E+00 -0.19132913149E+04  0.19132913150E+04  0.50400001928E-02 0. -1.
    10030    2    1    2    0    0  0.00000000000E+00  0.00000000000E+00 -0.47722787180E+03  0.33493547581E+04  0.33151818734E+04 0.  0.
        3    1    3    3  502    0  0.69708280210E+01  0.12379354419E+04  0.87505299722E+03  0.15159981889E+04  0.10100000352E+00 0.  1.
       -3    1    3    3    0  502 -0.69708280210E+01 -0.12379354419E+04 -0.13522808690E+04  0.18333565692E+04  0.10100000352E+00 0. -1.
</event>
<event>
 5   0  0.3327241E-07  0.3770139E+04  0.7818609E-02  0.8052594E-01
        2   -1    0    0  501    0  0.00000000000E+00  0.00000000000E+00  0.16490391272E+04  0.16490391272E+04  0.25500000920E-02 0. -1.
       -2   -1    0    0    0  501  0.00000000000E+00  0.00000000000E+00 -0.21548829515E+04  0.21548829515E+04  0.25500000920E-02 0.  1.
    10030    2    1    2    0    0  0.00000000000E+00  0.00000000000E+00 -0.50584382430E+03  0.38039220788E+04  0.37701386190E+04 0.  0.
        3    1    3    3  502    0 -0.80800802037E+03 -0.92834290132E+03  0.11877344846E+04  0.17103832084E+04  0.10100000352E+00 0. -1.
       -3    1    3    3    0  502  0.80800802037E+03  0.92834290132E+03 -0.16935783089E+04  0.20935388704E+04  0.10100000352E+00 0.  1.
</event>
<event>
 5   0  0.1070988E-07  0.3704933E+04  0.7818609E-02  0.8066869E-01
        1   -1    0    0  501    0  0.00000000000E+00  0.00000000000E+00  0.27843459929E+04  0.27843459929E+04  0.50400001928E-02 0. -1.
       -1   -1    0    0    0  501  0.00000000000E+00  0.00000000000E+00 -0.12324736195E+04  0.12324736195E+04  0.50400001928E-02 0.  1.
    10030    2    1    2    0    0  0.00000000000E+00  0.00000000000E+00  0.15518723734E+04  0.40168196125E+04  0.37049334590E+04 0.  0.
        2    1    3    3  502    0  0.81101260190E+03  0.20706396030E+03  0.25676310288E+04  0.27006195630E+04  0.25500000920E-02 0. -1.
       -2    1    3    3    0  502 -0.81101260190E+03 -0.20706396030E+03 -0.10157586554E+04  0.13162000494E+04  0.25500000920E-02 0.  1.
</event>
<event>
 5   0  0.1084315E-07  0.3740199E+04  0.7818609E-02  0.8059111E-01
       -1   -1    0    0    0  501  0.00000000000E+00  0.00000000000E+00  0.15982969911E+04  0.15982969911E+04  0.50400001928E-02 0. -1.
        1   -1    0    0  501    0  0.00000000000E+00  0.00000000000E+00 -0.21881240815E+04  0.21881240815E+04  0.50400001928E-02 0.  1.
    10030    2    1    2    0    0  0.00000000000E+00  0.00000000000E+00 -0.58982709044E+03  0.37864210726E+04  0.37401989977E+04 0.  0.
        4    1    3    3  502    0  0.92610748666E+02  0.18554818974E+04 -0.51175844816E+03  0.19269893992E+04  0.12699999809E+01 0. -1.
       -4    1    3    3    0  502 -0.92610748666E+02 -0.18554818974E+04 -0.78068642273E+02  0.18594316734E+04  0.12699999809E+01 0.  1.
</event>
<event>
 5   0  0.3377396E-07  0.3767906E+04  0.7818609E-02  0.8053078E-01
       -2   -1    0    0    0  501  0.00000000000E+00  0.00000000000E+00  0.14290927457E+04  0.14290927457E+04  0.25500000920E-02 0. -1.
        2   -1    0    0  501    0  0.00000000000E+00  0.00000000000E+00 -0.24835883275E+04  0.24835883275E+04  0.25500000920E-02 0.  1.
    10030    2    1    2    0    0  0.00000000000E+00  0.00000000000E+00 -0.10544955819E+04  0.39126810732E+04  0.37679055519E+04 0.  0.
        5    1    3    3  502    0  0.85317084369E+03  0.68779002850E+03 -0.21185448636E+04  0.23852064986E+04  0.46999998093E+01 0.  1.
       -5    1    3    3    0  502 -0.85317084369E+03 -0.68779002850E+03  0.10640492818E+04  0.15274745745E+04  0.46999998093E+01 0. -1.
</event>
<event>
 5   0  0.3509843E-07  0.3787947E+04  0.7818609E-02  0.8048746E-01
        2   -1    0    0  501    0  0.00000000000E+00  0.00000000000E+00  0.24851497347E+04  0.24851497348E+04  0.25500000920E-02 0. -1.
       -2   -1    0    0    0  501  0.00000000000E+00  0.00000000000E+00 -0.14434280281E+04  0.14434280281E+04  0.25500000920E-02 0.  1.
    10030    2    1    2    0    0  0.00000000000E+00  0.00000000000E+00  0.10417217067E+04  0.39285777628E+04  0.37879465577E+04 0.  0.
        4    1    3    3  502    0  0.91077689265E+03  0.16535102913E+04  0.36179691197E+03  0.19221106758E+04  0.12699999809E+01 0.  1.
       -4    1    3    3    0  502 -0.91077689265E+03 -0.16535102913E+04  0.67992479472E+03  0.20064670870E+04  0.12699999809E+01 0. -1.
</event>
<event>
 5   0  0.1070988E-07  0.3792051E+04  0.7818609E-02  0.8047863E-01
        1   -1    0    0  501    0  0.00000000000E+00  0.00000000000E+00  0.28571144200E+04  0.28571144200E+04  0.50400001928E-02 0.  1.
       -1   -1    0    0    0  501  0.00000000000E+00  0.00000000000E+00 -0.12582317734E+04  0.12582317734E+04  0.50400001928E-02 0. -1.
    10030    2    1    2    0    0  0.00000000000E+00  0.00000000000E+00  0.15988826466E+04  0.41153461933E+04  0.37920507082E+04 0.  0.
        2    1    3    3  502    0 -0.17780077032E+04  0.59111569912E+03  0.11143208246E+04  0.21800091886E+04  0.25500000920E-02 0.  1.
       -2    1    3    3    0  502  0.17780077032E+04 -0.59111569912E+03  0.48456182203E+03  0.19353370047E+04  0.25500000920E-02 0. -1.
</event>
<event>
 5   0  0.1070988E-07  0.3619088E+04  0.7818609E-02  0.8086133E-01
        1   -1    0    0  501    0  0.00000000000E+00  0.00000000000E+00  0.20660141774E+04  0.20660141774E+04  0.50400001928E-02 0. -1.
       -1   -1    0    0    0  501  0.00000000000E+00  0.00000000000E+00 -0.15849117241E+04  0.15849117242E+04  0.50400001928E-02 0.  1.
    10030    2    1    2    0    0  0.00000000000E+00  0.00000000000E+00  0.48110245325E+03  0.36509259016E+04  0.36190883338E+04 0.  0.
        3    1    3    3  502    0  0.12113931208E+04  0.12586296008E+04 -0.23564837203E+03  0.17627115279E+04  0.10100000352E+00 0.  1.
       -3    1    3    3    0  502 -0.12113931208E+04 -0.12586296008E+04  0.71675082528E+03  0.18882143737E+04  0.10100000352E+00 0. -1.
</event>
<event>
 5   0  0.1070988E-07  0.3646113E+04  0.7818609E-02  0.8080010E-01
       -1   -1    0    0    0  501  0.00000000000E+00  0.00000000000E+00  0.12823441976E+04  0.12823441976E+04  0.50400001928E-02 0.  1.
        1   -1    0    0  501    0  0.00000000000E+00  0.00000000000E+00 -0.25917654848E+04  0.25917654848E+04  0.50400001928E-02 0. -1.
    10030    2    1    2    0    0  0.00000000000E+00  0.00000000000E+00 -0.13094212872E+04  0.38741096825E+04  0.36461132352E+04 0.  0.
        5    1    3    3  502    0  0.11341015720E+04  0.10289882362E+04  0.39634191331E+03  0.15818066152E+04  0.46999998093E+01 0.  1.
       -5    1    3    3    0  502 -0.11341015720E+04 -0.10289882362E+04 -0.17057632005E+04  0.22923030672E+04  0.46999998093E+01 0. -1.
</event>
<event>
 5   0  0.3442126E-07  0.3690497E+04  0.7818609E-02  0.8070071E-01
        2   -1    0    0  501    0  0.00000000000E+00  0.00000000000E+00  0.13194787049E+04  0.13194787049E+04  0.25500000920E-02 0. -1.
       -2   -1    0    0    0  501  0.00000000000E+00  0.00000000000E+00 -0.25805201929E+04  0.25805201929E+04  0.25500000920E-02 0.  1.
    10030    2    1    2    0    0  0.00000000000E+00  0.00000000000E+00 -0.12610414881E+04  0.38999988978E+04  0.36904966831E+04 0.  0.
        2    1    3    3  502    0 -0.36294393403E+03 -0.14383376282E+04  0.52923005292E+03  0.15750009145E+04  0.25500000920E-02 0. -1.
       -2    1    3    3    0  502  0.36294393403E+03  0.14383376282E+04 -0.17902715410E+04  0.23249979833E+04  0.25500000920E-02 0.  1.
</event>
<event>
 5   0  0.1085771E-07  0.3792204E+04  0.7818609E-02  0.8047830E-01
       -1   -1    0    0    0  501  0.00000000000E+00  0.00000000000E+00  0.11885968208E+04  0.11885968208E+04  0.50400001928E-02 0.  1.
        1   -1    0    0  501    0  0.00000000000E+00  0.00000000000E+00 -0.30247457896E+04  0.30247457896E+04  0.50400001928E-02 0. -1.
    10030    2    1    2    0    0  0.00000000000E+00  0.00000000000E+00 -0.18361489688E+04  0.42133426105E+04  0.37922042294E+04 0.  0.
        1    1    3    3  502    0 -0.15300837038E+04  0.11059824662E+04 -0.72292754285E+03  0.20216274603E+04  0.50400001928E-02 0.  1.
       -1    1    3    3    0  502  0.15300837038E+04 -0.11059824662E+04 -0.11132214259E+04  0.21917151501E+04  0.50400001928E-02 0. -1.
</event>
<event>
 5   0  0.3377396E-07  0.3757146E+04  0.7818609E-02  0.8055414E-01
        2   -1    0    0  501    0  0.00000000000E+00  0.00000000000E+00  0.13340534810E+04  0.13340534810E+04  0.25500000920E-02 0.  1.
       -2   -1    0    0    0  501  0.00000000000E+00  0.00000000000E+00 -0.26453483797E+04  0.26453483797E+04  0.25500000920E-02 0. -1.
    10030    2    1    2    0    0  0.00000000000E+00  0.00000000000E+00 -0.13112948987E+04  0.39794018608E+04  0.37571458393E+04 0.  0.
        5    1    3    3  502    0  0.14210203168E+04  0.79715367868E+03 -0.16459785013E+04  0.23160354153E+04  0.46999998093E+01 0. -1.
       -5    1    3    3    0  502 -0.14210203168E+04 -0.79715367868E+03  0.33468360259E+03  0.16633664455E+04  0.46999998093E+01 0.  1.
</event>
<event>
 5   0  0.1070988E-07  0.3186944E+04  0.7818609E-02  0.8192274E-01
       -1   -1    0    0    0  501  0.00000000000E+00  0.00000000000E+00  0.12833801686E+04  0.12833801686E+04  0.50400001928E-02 0.  1.
        1   -1    0    0  501    0  0.00000000000E+00  0.00000000000E+00 -0.19784885596E+04  0.19784885597E+04  0.50400001928E-02 0. -1.
    10030    2    1    2    0    0  0.00000000000E+00  0.00000000000E+00 -0.69510839103E+03  0.32618687283E+04  0.31869439790E+04 0.  0.
        3    1    3    3  502    0 -0.61230632305E+03  0.69616496449E+01  0.11581487104E+04  0.13100671523E+04  0.10100000352E+00 0.  1.
       -3    1    3    3    0  502  0.61230632305E+03 -0.69616496449E+01 -0.18532571015E+04  0.19518015760E+04  0.10100000352E+00 0. -1.
</event>
<event>
 5   0  0.3442126E-07  0.3797852E+04  0.7818609E-02  0.8046616E-01
       -2   -1    0    0    0  501  0.00000000000E+00  0.00000000000E+00  0.15557432928E+04  0.15557432928E+04  0.25500000920E-02 0.  1.
        2   -1    0    0  501    0  0.00000000000E+00  0.00000000000E+00 -0.23178115484E+04  0.23178115484E+04  0.25500000920E-02 0. -1.
    10030    2    1    2    0    0  0.00000000000E+00  0.00000000000E+00 -0.76206825558E+03  0.38735548413E+04  0.37978519037E+04 0.  0.
        2    1    3    3  502    0  0.81994973600E+03  0.17065617247E+04 -0.52971113230E+03  0.19660275617E+04  0.25500000920E-02 0. -1.
       -2    1    3    3    0  502 -0.81994973600E+03 -0.17065617247E+04 -0.23235712328E+03  0.19075272796E+04  0.25500000920E-02 0.  1.
</event>
<event>
 5   0  0.3377396E-07  0.3729573E+04  0.7818609E-02  0.8061440E-01
        2   -1    0    0  501    0  0.00000000000E+00  0.00000000000E+00  0.34634081325E+04  0.34634081325E+04  0.25500000920E-02 0.  1.
       -2   -1    0    0    0  501  0.00000000000E+00  0.00000000000E+00 -0.10040481385E+04  0.10040481385E+04  0.25500000920E-02 0. -1.
    10030    2    1    2    0    0  0.00000000000E+00  0.00000000000E+00  0.24593599940E+04  0.44674562711E+04  0.37295728916E+04 0.  0.
        5    1    3    3  502    0 -0.13090623766E+04 -0.51316200594E+03  0.26969452199E+04  0.30414659556E+04  0.46999998093E+01 0.  1.
       -5    1    3    3    0  502  0.13090623766E+04  0.51316200594E+03 -0.23758522591E+03  0.14259903154E+04  0.46999998093E+01 0. -1.
</event>
<event>
 5   0  0.1070988E-07  0.3758020E+04  0.7818609E-02  0.8055224E-01
        1   -1    0    0  501    0  0.00000000000E+00  0.00000000000E+00  0.27682977202E+04  0.27682977202E+04  0.50400001928E-02 0. -1.
       -1   -1    0    0    0  501  0.00000000000E+00  0.00000000000E+00 -0.12753968859E+04  0.12753968859E+04  0.50400001928E-02 0.  1.
    10030    2    1    2    0    0  0.00000000000E+00  0.00000000000E+00  0.14929008343E+04  0.40436946061E+04  0.37580198465E+04 0.  0.
        3    1    3    3  502    0 -0.80697827345E+03  0.28752141834E+03 -0.10530404936E+04  0.13574891495E+04  0.10100000352E+00 0.  1.
       -3    1    3    3    0  502  0.80697827345E+03 -0.28752141834E+03  0.25459413279E+04  0.26862054566E+04  0.10100000352E+00 0. -1.
</event>
<event>
 5   0  0.1084315E-07  0.3805866E+04  0.7818609E-02  0.8044897E-01
       -1   -1    0    0    0  501  0.00000000000E+00  0.00000000000E+00  0.15933733055E+04  0.15933733055E+04  0.50400001928E-02 0.  1.
        1   -1    0    0  501    0  0.00000000000E+00  0.00000000000E+00 -0.22726342726E+04  0.22726342727E+04  0.50400001928E-02 0. -1.
    10030    2    1    2    0    0  0.00000000000E+00  0.00000000000E+00 -0.67926096718E+03  0.38660075781E+04  0.38058664102E+04 0.  0.
        4    1    3    3  502    0 -0.14257147421E+04  0.12438096560E+04 -0.13287496558E+03  0.18966766608E+04  0.12699999809E+01 0. -1.
       -4    1    3    3    0  502  0.14257147421E+04 -0.12438096560E+04 -0.54638600160E+03  0.19693309173E+04  0.12699999809E+01 0.  1.
</event>
<event>
 5   0  0.3327241E-07  0.3850063E+04  0.7818609E-02  0.8035496E-01
       -2   -1    0    0    0  501  0.00000000000E+00  0.00000000000E+00  0.25867429782E+04  0.25867429782E+04  0.25500000920E-02 0.  1.
        2   -1    0    0  501    0  0.00000000000E+00  0.00000000000E+00 -0.14325919305E+04  0.14325919305E+04  0.25500000920E-02 0. -1.
    10030    2    1    2    0    0  0.00000000000E+00  0.00000000000E+00  0.11541510477E+04  0.40193349087E+04  0.38500634368E+04 0.  0.
        3    1    3    3  502    0  0.16419405381E+04 -0.86980283347E+03  0.11024107440E+04  0.21605173358E+04  0.10100000352E+00 0.  1.
       -3    1    3    3    0  502 -0.16419405381E+04  0.86980283347E+03  0.51740303686E+02  0.18588175728E+04  0.10100000352E+00 0. -1.
</event>
<event>
 5   0  0.1070988E-07  0.3623026E+04  0.7818609E-02  0.8085238E-01
        1   -1    0    0  501    0  0.00000000000E+00  0.00000000000E+00  0.25856706249E+04  0.25856706250E+04  0.50400001928E-02 0.  1.
       -1   -1    0    0    0  501  0.00000000000E+00  0.00000000000E+00 -0.12691403002E+04  0.12691403002E+04  0.50400001928E-02 0. -1.
    10030    2    1    2    0    0  0.00000000000E+00  0.00000000000E+00  0.13165303248E+04  0.38548109251E+04  0.36230256930E+04 0.  0.
        5    1    3    3  502    0 -0.18904775474E+03  0.61561867700E+02 -0.12574901283E+04  0.12731191735E+04  0.46999998093E+01 0. -1.
       -5    1    3    3    0  502  0.18904775474E+03 -0.61561867700E+02  0.25740204531E+04  0.25816917516E+04  0.46999998093E+01 0.  1.
</event>
<event>
 5   0  0.3539010E-07  0.3825356E+04  0.7818609E-02  0.8040735E-01
       -2   -1    0    0    0  501  0.00000000000E+00  0.00000000000E+00  0.18680334828E+04  0.18680334828E+04  0.25500000920E-02 0.  1.
        2   -1    0    0  501    0  0.00000000000E+00  0.00000000000E+00 -0.19583896408E+04  0.19583896408E+04  0.25500000920E-02 0. -1.
    10030    2    1    2    0    0  0.00000000000E+00  0.00000000000E+00 -0.90356158008E+02  0.38264231235E+04  0.38253561514E+04 0.  0.
        1    1    3    3  502    0 -0.18488552508E+04 -0.14018403628E+03 -0.51479823981E+03  0.19243010498E+04  0.50400001928E-02 0. -1.
       -1    1    3    3    0  502  0.18488552508E+04  0.14018403628E+03  0.42444208180E+03  0.19021220737E+04  0.50400001928E-02 0.  1.
</event>
<event>
 5   0  0.1085771E-07  0.3819590E+04  0.7818609E-02  0.8041964E-01
       -1   -1    0    0    0  501  0.00000000000E+00  0.00000000000E+00  0.15362619806E+04  0.15362619806E+04  0.50400001928E-02 0.  1.
        1   -1    0    0  501    0  0.00000000000E+00  0.00000000000E+00 -0.23741509158E+04  0.23741509158E+04  0.50400001928E-02 0. -1.
    10030    2    1    2    0    0  0.00000000000E+00  0.00000000000E+00 -0.83788893516E+03  0.39104128964E+04  0.38195904430E+04 0.  0.
        1    1    3    3  502    0 -0.73114677358E+03 -0.61400376613E+03 -0.21122812900E+04  0.23180397920E+04  0.50400001928E-02 0. -1.
       -1    1    3    3    0  502  0.73114677358E+03  0.61400376613E+03  0.12743923548E+04  0.15923731043E+04  0.50400001928E-02 0.  1.
</event>
<event>
 5   0  0.3442126E-07  0.3791076E+04  0.7818609E-02  0.8048073E-01
       -2   -1    0    0    0  501  0.00000000000E+00  0.00000000000E+00  0.23065987559E+04  0.23065987559E+04  0.25500000920E-02 0.  1.
        2   -1    0    0  501    0  0.00000000000E+00  0.00000000000E+00 -0.15577331109E+04  0.15577331109E+04  0.25500000920E-02 0. -1.
    10030    2    1    2    0    0  0.00000000000E+00  0.00000000000E+00  0.74886564500E+03  0.38643318667E+04  0.37910764991E+04 0.  0.
        2    1    3    3  502    0  0.83025286888E+03  0.80779968911E+03 -0.11549612387E+04  0.16357859356E+04  0.25500000920E-02 0. -1.
       -2    1    3    3    0  502 -0.83025286888E+03 -0.80779968911E+03  0.19038268837E+04  0.22285459311E+04  0.25500000920E-02 0.  1.
</event>
<event>
 5   0  0.1070988E-07  0.3790740E+04  0.7818609E-02  0.8048145E-01
       -1   -1    0    0    0  501  0.00000000000E+00  0.00000000000E+00  0.15625029083E+04  0.15625029083E+04  0.50400001928E-02 0. -1.
        1   -1    0    0  501    0  0.00000000000E+00  0.00000000000E+00 -0.22991488507E+04  0.22991488507E+04  0.50400001928E-02 0.  1.
    10030    2    1    2    0    0  0.00000000000E+00  0.00000000000E+00 -0.73664594239E+03  0.38616517589E+04  0.37907396459E+04 0.  0.
        3    1    3    3  502    0 -0.17263012830E+03  0.12233129550E+04  0.10959703356E+04  0.16514983299E+04  0.10100000352E+00 0. -1.
       -3    1    3    3    0  502  0.17263012830E+03 -0.12233129550E+04 -0.18326162780E+04  0.22101534290E+04  0.10100000352E+00 0.  1.
</event>
<event>
 5   0  0.3509843E-07  0.3806430E+04  0.7818609E-02  0.8044776E-01
       -2   -1    0    0    0  501  0.00000000000E+00  0.00000000000E+00  0.13364621475E+04  0.13364621475E+04  0.25500000920E-02 0.  1.
        2   -1    0    0  501    0  0.00000000000E+00  0.00000000000E+00 -0.27103104765E+04  0.27103104765E+04  0.25500000920E-02 0. -1.
    10030    2    1    2    0    0  0.00000000000E+00  0.00000000000E+00 -0.13738483290E+04  0.40467726240E+04  0.38064300124E+04 0.  0.
        4    1    3    3  502    0  0.11191495065E+04  0.27472922029E+03 -0.22972423656E+04  0.25700770148E+04  0.12699999809E+01 0. -1.
       -4    1    3    3    0  502 -0.11191495065E+04 -0.27472922029E+03  0.92339403664E+03  0.14766956092E+04  0.12699999809E+01 0.  1.
</event>
<event>
 5   0  0.3539010E-07  0.3830159E+04  0.7818609E-02  0.8039714E-01
       -2   -1    0    0    0  501  0.00000000000E+00  0.00000000000E+00  0.14431530172E+04  0.14431530172E+04  0.25500000920E-02 0. -1.
        2   -1    0    0  501    0  0.00000000000E+00  0.00000000000E+00 -0.25413313723E+04  0.25413313723E+04  0.25500000920E-02 0.  1.
    10030    2    1    2    0    0  0.00000000000E+00  0.00000000000E+00 -0.10981783551E+04  0.39844843895E+04  0.38301592853E+04 0.  0.
        1    1    3    3  502    0 -0.99736382155E+02 -0.95361212810E+03 -0.22736558280E+04  0.24675563339E+04  0.50400001928E-02 0.  1.
       -1    1    3    3    0  502  0.99736382155E+02  0.95361212810E+03  0.11754774729E+04  0.15169280557E+04  0.50400001928E-02 0. -1.
</event>
<event>
 5   0  0.1070988E-07  0.3801507E+04  0.7818609E-02  0.8045832E-01
       -1   -1    0    0    0  501  0.00000000000E+00  0.00000000000E+00  0.22903401566E+04  0.22903401566E+04  0.50400001928E-02 0.  1.
        1   -1    0    0  501    0  0.00000000000E+00  0.00000000000E+00 -0.15774354755E+04  0.15774354755E+04  0.50400001928E-02 0. -1.
    10030    2    1    2    0    0  0.00000000000E+00  0.00000000000E+00  0.71290468109E+03  0.38677756321E+04  0.38015069717E+04 0.  0.
        3    1    3    3  502    0 -0.11484301732E+04 -0.25294072010E+03 -0.11628955423E+04  0.16538430769E+04  0.10100000352E+00 0.  1.
       -3    1    3    3    0  502  0.11484301732E+04  0.25294072010E+03  0.18758002234E+04  0.22139325552E+04  0.10100000352E+00 0. -1.
</event>
<event>
 5   0  0.1070988E-07  0.3835827E+04  0.7818609E-02  0.8038510E-01
        1   -1    0    0  501    0  0.00000000000E+00  0.00000000000E+00  0.21156704444E+04  0.21156704444E+04  0.50400001928E-02 0. -1.
       -1   -1    0    0    0  501  0.00000000000E+00  0.00000000000E+00 -0.17386412209E+04  0.17386412209E+04  0.50400001928E-02 0.  1.
    10030    2    1    2    0    0  0.00000000000E+00  0.00000000000E+00  0.37702922351E+03  0.38543116653E+04  0.38358268180E+04 0.  0.
        5    1    3    3  502    0 -0.16141021756E+04 -0.21880418164E+03 -0.82887077875E+03  0.18276350733E+04  0.46999998093E+01 0. -1.
       -5    1    3    3    0  502  0.16141021756E+04  0.21880418164E+03  0.12059000023E+04  0.20266765920E+04  0.46999998093E+01 0.  1.
</event>
<event>
 5   0  0.1070988E-07  0.3803642E+04  0.7818609E-02  0.8045374E-01
       -1   -1    0    0    0  501  0.00000000000E+00  0.00000000000E+00  0.15053070926E+04  0.15053070926E+04  0.50400001928E-02 0. -1.
        1   -1    0    0  501    0  0.00000000000E+00  0.00000000000E+00 -0.24027803021E+04  0.24027803021E+04  0.50400001928E-02 0.  1.
    10030    2    1    2    0    0  0.00000000000E+00  0.00000000000E+00 -0.89747320952E+03  0.39080873947E+04  0.38036415345E+04 0.  0.
        3    1    3    3  502    0  0.43850501546E+03  0.76724816932E+03 -0.21790118005E+04  0.23513929571E+04  0.10100000352E+00 0.  1.
       -3    1    3    3    0  502 -0.43850501546E+03 -0.76724816932E+03  0.12815385909E+04  0.15566944376E+04  0.10100000352E+00 0. -1.
</event>
<event>
 5   0  0.3442126E-07  0.3791138E+04  0.7818609E-02  0.8048059E-01
       -2   -1    0    0    0  501  0.00000000000E+00  0.00000000000E+00  0.16782433687E+04  0.16782433687E+04  0.25500000920E-02 0.  1.
        2   -1    0    0  501    0  0.00000000000E+00  0.00000000000E+00 -0.21410375041E+04  0.21410375041E+04  0.25500000920E-02 0. -1.
    10030    2    1    2    0    0  0.00000000000E+00  0.00000000000E+00 -0.46279413533E+03  0.38192808728E+04  0.37911380842E+04 0.  0.
        2    1    3    3  502    0 -0.44684015508E+03  0.54805993363E+03  0.15403928143E+04  0.16949471489E+04  0.25500000920E-02 0.  1.
       -2    1    3    3    0  502  0.44684015508E+03 -0.54805993363E+03 -0.20031869497E+04  0.21243337239E+04  0.25500000920E-02 0. -1.
</event>
<event>
 5   0  0.1070988E-07  0.3277511E+04  0.7818609E-02  0.8168641E-01
       -1   -1    0    0    0  501  0.00000000000E+00  0.00000000000E+00  0.86752478209E+03  0.86752478211E+03  0.50400001928E-02 0. -1.
        1   -1    0    0  501    0  0.00000000000E+00  0.00000000000E+00 -0.30956112303E+04  0.30956112303E+04  0.50400001928E-02 0.  1.
    10030    2    1    2    0    0  0.00000000000E+00  0.00000000000E+00 -0.22280864482E+04  0.39631360124E+04  0.32775109202E+04 0.  0.
        3    1    3    3  502    0  0.15080216928E+04 -0.63647283568E+03 -0.10181249600E+04  0.19276424827E+04  0.10100000352E+00 0. -1.
       -3    1    3    3    0  502 -0.15080216928E+04  0.63647283568E+03 -0.12099614882E+04  0.20354935298E+04  0.10100000352E+00 0.  1.
</event>
<event>
 5   0  0.3539010E-07  0.3823640E+04  0.7818609E-02  0.8041101E-01
        2   -1    0    0  501    0  0.00000000000E+00  0.00000000000E+00  0.10682158008E+04  0.10682158008E+04  0.25500000920E-02 0.  1.
       -2   -1    0    0    0  501  0.00000000000E+00  0.00000000000E+00 -0.34216455412E+04  0.34216455412E+04  0.25500000920E-02 0. -1.
    10030    2    1    2    0    0  0.00000000000E+00  0.00000000000E+00 -0.23534297404E+04  0.44898613420E+04  0.38236400625E+04 0.  0.
        1    1    3    3  502    0  0.23354177123E+03  0.51691404670E+03  0.96713335083E+03  0.11211997186E+04  0.50400001928E-02 0.  1.
       -1    1    3    3    0  502 -0.23354177123E+03 -0.51691404670E+03 -0.33205630912E+04  0.33686616234E+04  0.50400001928E-02 0. -1.
</event>
<event>
 5   0  0.3509843E-07  0.3863350E+04  0.7818609E-02  0.8032695E-01
        2   -1    0    0  501    0  0.00000000000E+00  0.00000000000E+00  0.13715518935E+04  0.13715518935E+04  0.25500000920E-02 0. -1.
       -2   -1    0    0    0  501  0.00000000000E+00  0.00000000000E+00 -0.27205451526E+04  0.27205451526E+04  0.25500000920E-02 0.  1.
    10030    2    1    2    0    0  0.00000000000E+00  0.00000000000E+00 -0.13489932591E+04  0.40920970461E+04  0.38633502846E+04 0.  0.
        4    1    3    3  502    0 -0.15015404333E+04  0.62780155464E+03  0.42759476131E+03  0.16827350824E+04  0.12699999809E+01 0. -1.
       -4    1    3    3    0  502  0.15015404333E+04 -0.62780155464E+03 -0.17765880204E+04  0.24093619637E+04  0.12699999809E+01 0.  1.
</event>
<event>
 5   0  0.1070988E-07  0.3807435E+04  0.7818609E-02  0.8044561E-01
        1   -1    0    0  501    0  0.00000000000E+00  0.00000000000E+00  0.13076926767E+04  0.13076926767E+04  0.50400001928E-02 0. -1.
       -1   -1    0    0    0  501  0.00000000000E+00  0.00000000000E+00 -0.27714013323E+04  0.27714013323E+04  0.50400001928E-02 0.  1.
    10030    2    1    2    0    0  0.00000000000E+00  0.00000000000E+00 -0.14637086556E+04  0.40790940091E+04  0.38074354763E+04 0.  0.
        5    1    3    3  502    0  0.41808945358E+03 -0.17021171069E+04  0.64207862607E+02  0.17538945739E+04  0.46999998093E+01 0. -1.
       -5    1    3    3    0  502 -0.41808945358E+03  0.17021171069E+04 -0.15279165182E+04  0.23251994352E+04  0.46999998093E+01 0.  1.
</event>
<event>
 5   0  0.3327241E-07  0.3693966E+04  0.7818609E-02  0.8069300E-01
        2   -1    0    0  501    0  0.00000000000E+00  0.00000000000E+00  0.32415822429E+04  0.32415822429E+04  0.25500000920E-02 0. -1.
       -2   -1    0    0    0  501  0.00000000000E+00  0.00000000000E+00 -0.10523708803E+04  0.10523708803E+04  0.25500000920E-02 0.  1.
    10030    2    1    2    0    0  0.00000000000E+00  0.00000000000E+00  0.21892113626E+04  0.42939531232E+04  0.36939663012E+04 0.  0.
        3    1    3    3  502    0 -0.81810601933E+03  0.11682310671E+04 -0.26958899890E+03  0.14514611685E+04  0.10100000352E+00 0.  1.
       -3    1    3    3    0  502  0.81810601933E+03 -0.11682310671E+04  0.24588003615E+04  0.28424919548E+04  0.10100000352E+00 0. -1.
</event>
<event>
 5   0  0.3327241E-07  0.3799796E+04  0.7818609E-02  0.8046199E-01
        2   -1    0    0  501    0  0.00000000000E+00  0.00000000000E+00  0.17091247129E+04  0.17091247129E+04  0.25500000920E-02 0.  1.
       -2   -1    0    0    0  501  0.00000000000E+00  0.00000000000E+00 -0.21119651083E+04  0.21119651083E+04  0.25500000920E-02 0. -1.
    10030    2    1    2    0    0  0.00000000000E+00  0.00000000000E+00 -0.40284039540E+03  0.38210898212E+04  0.37997956573E+04 0.  0.
        3    1    3    3  502    0  0.85262677817E+03  0.13355990267E+04  0.85269775171E+03  0.17994139738E+04  0.10100000352E+00 0.  1.
       -3    1    3    3    0  502 -0.85262677817E+03 -0.13355990267E+04 -0.12555381471E+04  0.20216758474E+04  0.10100000352E+00 0. -1.
</event>
<event>
 5   0  0.1070988E-07  0.3864836E+04  0.7818609E-02  0.8032383E-01
        1   -1    0    0  501    0  0.00000000000E+00  0.00000000000E+00  0.28456672932E+04  0.28456672932E+04  0.50400001928E-02 0.  1.
       -1   -1    0    0    0  501  0.00000000000E+00  0.00000000000E+00 -0.13122543726E+04  0.13122543726E+04  0.50400001928E-02 0. -1.
    10030    2    1    2    0    0  0.00000000000E+00  0.00000000000E+00  0.15334129206E+04  0.41579216658E+04  0.38648360113E+04 0.  0.
        2    1    3    3  502    0  0.58630794323E+03 -0.18412691178E+04  0.75110204841E+03  0.20732060331E+04  0.25500000920E-02 0. -1.
       -2    1    3    3    0  502 -0.58630794323E+03  0.18412691178E+04  0.78231087219E+03  0.20847156327E+04  0.25500000920E-02 0.  1.
</event>
<event>
 5   0  0.1070988E-07  0.3775838E+04  0.7818609E-02  0.8051360E-01
       -1   -1    0    0    0  501  0.00000000000E+00  0.00000000000E+00  0.16701011917E+04  0.16701011917E+04  0.50400001928E-02 0. -1.
        1   -1    0    0  501    0  0.00000000000E+00  0.00000000000E+00 -0.21341452998E+04  0.21341452999E+04  0.50400001928E-02 0.  1.
    10030    2    1    2    0    0  0.00000000000E+00  0.00000000000E+00 -0.46404410814E+03  0.38042464916E+04  0.37758382426E+04 0.  0.
        5    1    3    3  502    0 -0.80586975668E+02  0.96618624334E+03  0.14001061257E+04  0.17030353404E+04  0.46999998093E+01 0. -1.
       -5    1    3    3    0  502  0.80586975668E+02 -0.96618624334E+03 -0.18641502338E+04  0.21012111512E+04  0.46999998093E+01 0.  1.
</event>
<event>
 5   0  0.1085771E-07  0.3809357E+04  0.7818609E-02  0.8044150E-01
        1   -1    0    0  501    0  0.00000000000E+00  0.00000000000E+00  0.21457124534E+04  0.21457124534E+04  0.50400001928E-02 0. -1.
       -1   -1    0    0    0  501  0.00000000000E+00  0.00000000000E+00 -0.16907207191E+04  0.16907207191E+04  0.50400001928E-02 0.  1.
    10030    2    1    2    0    0  0.00000000000E+00  0.00000000000E+00  0.45499173433E+03  0.38364331724E+04  0.38093571647E+04 0.  0.
        1    1    3    3  502    0 -0.42369782954E+03 -0.98217326857E+03 -0.13596549470E+04  0.17299843223E+04  0.50400001928E-02 0.  1.
       -1    1    3    3    0  502  0.42369782954E+03  0.98217326857E+03  0.18146466814E+04  0.21064488502E+04  0.50400001928E-02 0. -1.
</event>
<event>
 5   0  0.3377396E-07  0.3773997E+04  0.7818609E-02  0.8051758E-01
       -2   -1    0    0    0  501  0.00000000000E+00  0.00000000000E+00  0.14534430279E+04  0.14534430279E+04  0.25500000920E-02 0.  1.
        2   -1    0    0  501    0  0.00000000000E+00  0.00000000000E+00 -0.24498811563E+04  0.24498811563E+04  0.25500000920E-02 0. -1.
    10030    2    1    2    0    0  0.00000000000E+00  0.00000000000E+00 -0.99643812836E+03  0.39033241842E+04  0.37739966538E+04 0.  0.
        5    1    3    3  502    0  0.89157178195E+03  0.16537557135E+04 -0.31631605852E+03  0.19052260079E+04  0.46999998093E+01 0.  1.
       -5    1    3    3    0  502 -0.89157178195E+03 -0.16537557135E+04 -0.68012206984E+03  0.19980981763E+04  0.46999998093E+01 0. -1.
</event>
<event>
 5   0  0.3327241E-07  0.3828400E+04  0.7818609E-02  0.8040088E-01
        2   -1    0    0  501    0  0.00000000000E+00  0.00000000000E+00  0.22571681665E+04  0.22571681665E+04  0.25500000920E-02 0. -1.
       -2   -1    0    0    0  501  0.00000000000E+00  0.00000000000E+00 -0.16233447132E+04  0.16233447132E+04  0.25500000920E-02 0.  1.
    10030    2    1    2    0    0  0.00000000000E+00  0.00000000000E+00  0.63382345331E+03  0.38805128796E+04  0.38284001931E+04 0.  0.
        3    1    3    3  502    0  0.96454050491E+03 -0.16529072462E+04  0.27485904359E+03  0.19333877661E+04  0.10100000352E+00 0.  1.
       -3    1    3    3    0  502 -0.96454050491E+03  0.16529072462E+04  0.35896440972E+03  0.19471251135E+04  0.10100000352E+00 0. -1.
</event>
<event>
 5   0  0.3509843E-07  0.3840271E+04  0.7818609E-02  0.8037568E-01
        2   -1    0    0  501    0  0.00000000000E+00  0.00000000000E+00  0.23441707461E+04  0.23441707461E+04  0.25500000920E-02 0. -1.
       -2   -1    0    0    0  501  0.00000000000E+00  0.00000000000E+00 -0.15728040420E+04  0.15728040420E+04  0.25500000920E-02 0.  1.
    10030    2    1    2    0    0  0.00000000000E+00  0.00000000000E+00  0.77136670410E+03  0.39169747882E+04  0.38402714616E+04 0.  0.
        4    1    3    3  502    0  0.52920569397E+03 -0.66288825353E+03 -0.13713493006E+04  0.16124763627E+04  0.12699999809E+01 0.  1.
       -4    1    3    3    0  502 -0.52920569397E+03  0.66288825353E+03  0.21427160047E+04  0.23044984255E+04  0.12699999809E+01 0. -1.
</event>
<event>
 5   0  0.3327241E-07  0.3768255E+04  0.7818609E-02  0.8053002E-01
        2   -1    0    0  501    0  0.00000000000E+00  0.00000000000E+00  0.17016537197E+04  0.17016537197E+04  0.25500000920E-02 0. -1.
       -2   -1    0    0    0  501  0.00000000000E+00  0.00000000000E+00 -0.20861681773E+04  0.20861681773E+04  0.25500000920E-02 0.  1.
    10030    2    1    2    0    0  0.00000000000E+00  0.00000000000E+00 -0.38451445764E+03  0.37878218970E+04  0.37682546829E+04 0.  0.
        3    1    3    3  502    0 -0.15925551879E+04 -0.76627382886E+03 -0.84873978191E+03  0.19605526861E+04  0.10100000352E+00 0.  1.
       -3    1    3    3    0  502  0.15925551879E+04  0.76627382886E+03  0.46422532427E+03  0.18272692109E+04  0.10100000352E+00 0. -1.
</event>
<event>
 5   0  0.1070988E-07  0.3798965E+04  0.7818609E-02  0.8046377E-01
        1   -1    0    0  501    0  0.00000000000E+00  0.00000000000E+00  0.17024687577E+04  0.17024687577E+04  0.50400001928E-02 0. -1.
       -1   -1    0    0    0  501  0.00000000000E+00  0.00000000000E+00 -0.21192948534E+04  0.21192948534E+04  0.50400001928E-02 0.  1.
    10030    2    1    2    0    0  0.00000000000E+00  0.00000000000E+00 -0.41682609568E+03  0.38217636111E+04  0.37989647412E+04 0.  0.
        5    1    3    3  502    0  0.85722459109E+03  0.47692105941E+02  0.14961292838E+04  0.17249734665E+04  0.46999998093E+01 0. -1.
       -5    1    3    3    0  502 -0.85722459109E+03 -0.47692105941E+02 -0.19129553794E+04  0.20967901445E+04  0.46999998093E+01 0.  1.
</event>
<event>
 5   0  0.1084315E-07  0.3886791E+04  0.7818609E-02  0.8027782E-01
       -1   -1    0    0    0  501  0.00000000000E+00  0.00000000000E+00  0.17060924909E+04  0.17060924909E+04  0.50400001928E-02 0.  1.
        1   -1    0    0  501    0  0.00000000000E+00  0.00000000000E+00 -0.22137049242E+04  0.22137049242E+04  0.50400001928E-02 0. -1.
    10030    2    1    2    0    0  0.00000000000E+00  0.00000000000E+00 -0.50761243324E+03  0.39197974151E+04  0.38867906289E+04 0.  0.
        4    1    3    3  502    0  0.87998632712E+03  0.11991411991E+04 -0.15152149774E+04  0.21232507134E+04  0.12699999809E+01 0. -1.
       -4    1    3    3    0  502 -0.87998632712E+03 -0.11991411991E+04  0.10076025442E+04  0.17965467017E+04  0.12699999809E+01 0.  1.
</event>
<event>
 5   0  0.1070988E-07  0.3842360E+04  0.7818609E-02  0.8037125E-01
       -1   -1    0    0    0  501  0.00000000000E+00  0.00000000000E+00  0.18462495097E+04  0.18462495097E+04  0.50400001928E-02 0.  1.
        1   -1    0    0  501    0  0.00000000000E+00  0.00000000000E+00 -0.19991514793E+04  0.19991514793E+04  0.50400001928E-02 0. -1.
    10030    2    1    2    0    0  0.00000000000E+00  0.00000000000E+00 -0.15290196960E+03  0.38454009891E+04  0.38423599199E+04 0.  0.
        5    1    3    3  502    0 -0.14510787385E+04 -0.82703892740E+03 -0.10265639696E+04  0.19604791676E+04  0.46999998093E+01 0. -1.
       -5    1    3    3    0  502  0.14510787385E+04  0.82703892740E+03  0.87366200003E+03  0.18849218215E+04  0.46999998093E+01 0.  1.
</event>
<event>
 5   0  0.1084315E-07  0.3809252E+04  0.7818609E-02  0.8044172E-01
        1   -1    0    0  501    0  0.00000000000E+00  0.00000000000E+00  0.19859245014E+04  0.19859245014E+04  0.50400001928E-02 0.  1.
       -1   -1    0    0    0  501  0.00000000000E+00  0.00000000000E+00 -0.18266557839E+04  0.18266557839E+04  0.50400001928E-02 0. -1.
    10030    2    1    2    0    0  0.00000000000E+00  0.00000000000E+00  0.15926871748E+03  0.38125802853E+04  0.38092521454E+04 0.  0.
        4    1    3    3  502    0  0.25912439621E+02  0.11755476058E+04  0.15792809454E+04  0.19689371614E+04  0.12699999809E+01 0.  1.
       -4    1    3    3    0  502 -0.25912439621E+02 -0.11755476058E+04 -0.14200122279E+04  0.18436431239E+04  0.12699999809E+01 0. -1.
</event>
<event>
 5   0  0.3327241E-07  0.3637270E+04  0.7818609E-02  0.8082008E-01
        2   -1    0    0  501    0  0.00000000000E+00  0.00000000000E+00  0.20771376209E+04  0.20771376209E+04  0.25500000920E-02 0. -1.
       -2   -1    0    0    0  501  0.00000000000E+00  0.00000000000E+00 -0.15923033444E+04  0.15923033444E+04  0.25500000920E-02 0.  1.
    10030    2    1    2    0    0  0.00000000000E+00  0.00000000000E+00  0.48483427651E+03  0.36694409653E+04  0.36372699545E+04 0.  0.
        3    1    3    3  502    0 -0.13519863516E+04  0.89918472600E+03 -0.58399422099E+03  0.17255287673E+04  0.10100000352E+00 0.  1.
       -3    1    3    3    0  502  0.13519863516E+04 -0.89918472600E+03  0.10688284975E+04  0.19439121980E+04  0.10100000352E+00 0. -1.
</event>
<event>
 5   0  0.1070988E-07  0.3717704E+04  0.7818609E-02  0.8064050E-01
        1   -1    0    0  501    0  0.00000000000E+00  0.00000000000E+00  0.12249331867E+04  0.12249331867E+04  0.50400001928E-02 0.  1.
       -1   -1    0    0    0  501  0.00000000000E+00  0.00000000000E+00 -0.28208319780E+04  0.28208319780E+04  0.50400001928E-02 0. -1.
    10030    2    1    2    0    0  0.00000000000E+00  0.00000000000E+00 -0.15958987913E+04  0.40457651648E+04  0.37177039710E+04 0.  0.
        3    1    3    3  502    0 -0.91224873624E+03 -0.12176619617E+04  0.36419640414E+03  0.15644607507E+04  0.10100000352E+00 0.  1.
       -3    1    3    3    0  502  0.91224873624E+03  0.12176619617E+04 -0.19600951954E+04  0.24813044140E+04  0.10100000352E+00 0. -1.
</event>
<event>
 5   0  0.1070988E-07  0.3745114E+04  0.7818609E-02  0.8058037E-01
       -1   -1    0    0    0  501  0.00000000000E+00  0.00000000000E+00  0.23199074686E+04  0.23199074686E+04  0.50400001928E-02 0.  1.
        1   -1    0    0  501    0  0.00000000000E+00  0.00000000000E+00 -0.15114692508E+04  0.15114692508E+04  0.50400001928E-02 0. -1.
    10030    2    1    2    0    0  0.00000000000E+00  0.00000000000E+00  0.80843821786E+03  0.38313767194E+04  0.37451135115E+04 0.  0.
        2    1    3    3  502    0 -0.18651070088E+04  0.76540866755E+02  0.55591171566E+03  0.19476962017E+04  0.25500000920E-02 0.  1.
       -2    1    3    3    0  502  0.18651070088E+04 -0.76540866755E+02  0.25252650220E+03  0.18836805177E+04  0.25500000920E-02 0. -1.
</event>
<event>
 5   0  0.3327241E-07  0.3838350E+04  0.7818609E-02  0.8037975E-01
       -2   -1    0    0    0  501  0.00000000000E+00  0.00000000000E+00  0.32872821450E+04  0.32872821450E+04  0.25500000920E-02 0. -1.
        2   -1    0    0  501    0  0.00000000000E+00  0.00000000000E+00 -0.11204489242E+04  0.11204489242E+04  0.25500000920E-02 0.  1.
    10030    2    1    2    0    0  0.00000000000E+00  0.00000000000E+00  0.21668332208E+04  0.44077310693E+04  0.38383495115E+04 0.  0.
        3    1    3    3  502    0 -0.72107284331E+03  0.17759629014E+04  0.11938094430E+04  0.22581344665E+04  0.10100000352E+00 0. -1.
       -3    1    3    3    0  502  0.72107284331E+03 -0.17759629014E+04  0.97302377783E+03  0.21495966028E+04  0.10100000352E+00 0.  1.
</event>
<event>
 5   0  0.1070988E-07  0.3833413E+04  0.7818609E-02  0.8039022E-01
        1   -1    0    0  501    0  0.00000000000E+00  0.00000000000E+00  0.31017058542E+04  0.31017058542E+04  0.50400001928E-02 0. -1.
       -1   -1    0    0    0  501  0.00000000000E+00  0.00000000000E+00 -0.11844330926E+04  0.11844330926E+04  0.50400001928E-02 0.  1.
    10030    2    1    2    0    0  0.00000000000E+00  0.00000000000E+00  0.19172727616E+04  0.42861389468E+04  0.38334126088E+04 0.  0.
        3    1    3    3  502    0 -0.94705668011E+03  0.49226193619E+03 -0.82140032540E+03  0.13468246634E+04  0.10100000352E+00 0.  1.
       -3    1    3    3    0  502  0.94705668011E+03 -0.49226193619E+03  0.27386730870E+04  0.29393142834E+04  0.10100000352E+00 0. -1.
</event>
<event>
 5   0  0.3509843E-07  0.3821998E+04  0.7818609E-02  0.8041451E-01
       -2   -1    0    0    0  501  0.00000000000E+00  0.00000000000E+00  0.21782092040E+04  0.21782092040E+04  0.25500000920E-02 0. -1.
        2   -1    0    0  501    0  0.00000000000E+00  0.00000000000E+00 -0.16765689362E+04  0.16765689362E+04  0.25500000920E-02 0.  1.
    10030    2    1    2    0    0  0.00000000000E+00  0.00000000000E+00  0.50164026773E+03  0.38547781402E+04  0.38219983715E+04 0.  0.
        4    1    3    3  502    0  0.65263982831E+02 -0.12943974746E+04 -0.11655719584E+04  0.17430673575E+04  0.12699999809E+01 0.  1.
       -4    1    3    3    0  502 -0.65263982831E+02  0.12943974746E+04  0.16672122261E+04  0.21117107827E+04  0.12699999809E+01 0. -1.
</event>
<event>
 5   0  0.1070988E-07  0.3837081E+04  0.7818609E-02  0.8038244E-01
       -1   -1    0    0    0  501  0.00000000000E+00  0.00000000000E+00  0.17285731393E+04  0.17285731393E+04  0.50400001928E-02 0.  1.
        1   -1    0    0  501    0  0.00000000000E+00  0.00000000000E+00 -0.21293847679E+04  0.21293847679E+04  0.50400001928E-02 0. -1.
    10030    2    1    2    0    0  0.00000000000E+00  0.00000000000E+00 -0.40081162862E+03  0.38579579073E+04  0.38370808244E+04 0.  0.
        2    1    3    3  502    0 -0.18424608399E+04  0.28592355649E+03 -0.65495304301E+03  0.19762028528E+04  0.25500000920E-02 0. -1.
       -2    1    3    3    0  502  0.18424608399E+04 -0.28592355649E+03  0.25414141439E+03  0.18817550545E+04  0.25500000920E-02 0.  1.
</event>
<event>
 5   0  0.1070988E-07  0.3768150E+04  0.7818609E-02  0.8053024E-01
        1   -1    0    0  501    0  0.00000000000E+00  0.00000000000E+00  0.12716661754E+04  0.12716661754E+04  0.50400001928E-02 0.  1.
       -1   -1    0    0    0  501  0.00000000000E+00  0.00000000000E+00 -0.27914078998E+04  0.27914078998E+04  0.50400001928E-02 0. -1.
    10030    2    1    2    0    0  0.00000000000E+00  0.00000000000E+00 -0.15197417244E+04  0.40630740752E+04  0.37681502135E+04 0.  0.
        2    1    3    3  502    0  0.11540320907E+04  0.13487078705E+04 -0.14409195479E+04  0.22862747276E+04  0.25500000920E-02 0. -1.
       -2    1    3    3    0  502 -0.11540320907E+04 -0.13487078705E+04 -0.78822176484E+02  0.17767993476E+04  0.25500000920E-02 0.  1.
</event>
<event>
 5   0  0.1084315E-07  0.3832238E+04  0.7818609E-02  0.8039272E-01
        1   -1    0    0  501    0  0.00000000000E+00  0.00000000000E+00  0.22454944494E+04  0.22454944494E+04  0.50400001928E-02 0.  1.
       -1   -1    0    0    0  501  0.00000000000E+00  0.00000000000E+00 -0.16350573698E+04  0.16350573698E+04  0.50400001928E-02 0. -1.
    10030    2    1    2    0    0  0.00000000000E+00  0.00000000000E+00  0.61043707960E+03  0.38805518193E+04  0.38322381181E+04 0.  0.
        4    1    3    3  502    0 -0.79824986403E+03  0.58721548105E+03  0.19658590428E+04  0.22015059063E+04  0.12699999809E+01 0.  1.
       -4    1    3    3    0  502  0.79824986403E+03 -0.58721548105E+03 -0.13554219632E+04  0.16790459129E+04  0.12699999809E+01 0. -1.
</event>
<event>
 5   0  0.1070988E-07  0.3789041E+04  0.7818609E-02  0.8048511E-01
        1   -1    0    0  501    0  0.00000000000E+00  0.00000000000E+00  0.20341096657E+04  0.20341096657E+04  0.50400001928E-02 0. -1.
       -1   -1    0    0    0  501  0.00000000000E+00  0.00000000000E+00 -0.17645105301E+04  0.17645105301E+04  0.50400001928E-02 0.  1.
    10030    2    1    2    0    0  0.00000000000E+00  0.00000000000E+00  0.26959913557E+03  0.37986201957E+04  0.37890409997E+04 0.  0.
        3    1    3    3  502    0 -0.10294322433E+04 -0.18703372376E+03  0.17181897056E+04  0.20116879062E+04  0.10100000352E+00 0. -1.
       -3    1    3    3    0  502  0.10294322433E+04  0.18703372376E+03 -0.14485905700E+04  0.17869322895E+04  0.10100000352E+00 0.  1.
</event>
<event>
 5   0  0.1070988E-07  0.3915049E+04  0.7818609E-02  0.8021907E-01
       -1   -1    0    0    0  501  0.00000000000E+00  0.00000000000E+00  0.15095600765E+04  0.15095600765E+04  0.50400001928E-02 0. -1.
        1   -1    0    0  501    0  0.00000000000E+00  0.00000000000E+00 -0.25384232171E+04  0.25384232171E+04  0.50400001928E-02 0.  1.
    10030    2    1    2    0    0  0.00000000000E+00  0.00000000000E+00 -0.10288631406E+04  0.40479832937E+04  0.39150490908E+04 0.  0.
        5    1    3    3  502    0  0.41667887348E+02 -0.14534385938E+04  0.84066466287E+03  0.16795711131E+04  0.46999998093E+01 0. -1.
       -5    1    3    3    0  502 -0.41667887348E+02  0.14534385938E+04 -0.18695278035E+04  0.23684121805E+04  0.46999998093E+01 0.  1.
</event>
<event>
 5   0  0.3327241E-07  0.3750217E+04  0.7818609E-02  0.8056923E-01
       -2   -1    0    0    0  501  0.00000000000E+00  0.00000000000E+00  0.16760900115E+04  0.16760900115E+04  0.25500000920E-02 0. -1.
        2   -1    0    0  501    0  0.00000000000E+00  0.00000000000E+00 -0.20977581430E+04  0.20977581430E+04  0.25500000920E-02 0.  1.
    10030    2    1    2    0    0  0.00000000000E+00  0.00000000000E+00 -0.42166813148E+03  0.37738481546E+04  0.37502167778E+04 0.  0.
        3    1    3    3  502    0  0.20159544294E+03 -0.19613021469E+03 -0.20764102686E+04  0.20953728541E+04  0.10100000352E+00 0.  1.
       -3    1    3    3    0  502 -0.20159544294E+03  0.19613021469E+03  0.16547421371E+04  0.16784753005E+04  0.10100000352E+00 0. -1.
</event>
<event>
 5   0  0.1085771E-07  0.3781237E+04  0.7818609E-02  0.8050193E-01
       -1   -1    0    0    0  501  0.00000000000E+00  0.00000000000E+00  0.14063014526E+04  0.14063014526E+04  0.50400001928E-02 0. -1.
        1   -1    0    0  501    0  0.00000000000E+00  0.00000000000E+00 -0.25417299330E+04  0.25417299330E+04  0.50400001928E-02 0.  1.
    10030    2    1    2    0    0  0.00000000000E+00  0.00000000000E+00 -0.11354284803E+04  0.39480313856E+04  0.37812370975E+04 0.  0.
        1    1    3    3  502    0 -0.72067480551E+03  0.14727557595E+04 -0.15505421176E+04  0.22566706806E+04  0.50400001928E-02 0.  1.
       -1    1    3    3    0  502  0.72067480551E+03 -0.14727557595E+04  0.41511363723E+03  0.16913607050E+04  0.50400001928E-02 0. -1.
</event>
<event>
 5   0  0.3539010E-07  0.3456592E+04  0.7818609E-02  0.8124155E-01
       -2   -1    0    0    0  501  0.00000000000E+00  0.00000000000E+00  0.15410709844E+04  0.15410709844E+04  0.25500000920E-02 0. -1.
        2   -1    0    0  501    0  0.00000000000E+00  0.00000000000E+00 -0.19382673447E+04  0.19382673447E+04  0.25500000920E-02 0.  1.
    10030    2    1    2    0    0  0.00000000000E+00  0.00000000000E+00 -0.39719636032E+03  0.34793383291E+04  0.34565922901E+04 0.  0.
        1    1    3    3  502    0  0.96635995167E+03 -0.14101531986E+04 -0.45448346153E+03  0.17688806677E+04  0.50400001928E-02 0. -1.
       -1    1    3    3    0  502 -0.96635995167E+03  0.14101531986E+04  0.57287101211E+02  0.17104576615E+04  0.50400001928E-02 0.  1.
</event>
<event>
 5   0  0.1070988E-07  0.3791035E+04  0.7818609E-02  0.8048081E-01
       -1   -1    0    0    0  501  0.00000000000E+00  0.00000000000E+00  0.19019857395E+04  0.19019857395E+04  0.50400001928E-02 0.  1.
        1   -1    0    0  501    0  0.00000000000E+00  0.00000000000E+00 -0.18890717148E+04  0.18890717148E+04  0.50400001928E-02 0. -1.
    10030    2    1    2    0    0  0.00000000000E+00  0.00000000000E+00  0.12914024656E+02  0.37910574543E+04  0.37910354588E+04 0.  0.
        3    1    3    3  502    0  0.63399107221E+03  0.10980534397E+03  0.17894383493E+04  0.19016023531E+04  0.10100000352E+00 0.  1.
       -3    1    3    3    0  502 -0.63399107221E+03 -0.10980534397E+03 -0.17765243246E+04  0.18894551012E+04  0.10100000352E+00 0. -1.
</event>
<event>
 5   0  0.1070988E-07  0.3820970E+04  0.7818609E-02  0.8041670E-01
       -1   -1    0    0    0  501  0.00000000000E+00  0.00000000000E+00  0.22478079608E+04  0.22478079608E+04  0.50400001928E-02 0.  1.
        1   -1    0    0  501    0  0.00000000000E+00  0.00000000000E+00 -0.16237833197E+04  0.16237833197E+04  0.50400001928E-02 0. -1.
    10030    2    1    2    0    0  0.00000000000E+00  0.00000000000E+00  0.62402464111E+03  0.38715912806E+04  0.38209700720E+04 0.  0.
        2    1    3    3  502    0 -0.14729657992E+04 -0.37024479972E+03  0.14863507133E+04  0.21250759751E+04  0.25500000920E-02 0.  1.
       -2    1    3    3    0  502  0.14729657992E+04  0.37024479972E+03 -0.86232607216E+03  0.17465153054E+04  0.25500000920E-02 0. -1.
</event>
<event>
 5   0  0.1070988E-07  0.3701439E+04  0.7818609E-02  0.8067643E-01
        3   -1    0    0  501    0  0.00000000000E+00  0.00000000000E+00  0.22892938544E+04  0.22892938567E+04  0.10100000352E+00 0. -1.
       -3   -1    0    0    0  501  0.00000000000E+00  0.00000000000E+00 -0.14961657802E+04  0.14961657836E+04  0.10100000352E+00 0.  1.
    10030    2    1    2    0    0  0.00000000000E+00  0.00000000000E+00  0.79312807425E+03  0.37854596402E+04  0.37014392533E+04 0.  0.
        1    1    3    3  502    0  0.54884132202E+03 -0.31183492537E+03 -0.13826670024E+04  0.15199460046E+04  0.50400001928E-02 0.  1.
       -1    1    3    3    0  502 -0.54884132202E+03  0.31183492537E+03  0.21757950767E+04  0.22655136356E+04  0.50400001928E-02 0. -1.
</event>
<event>
 5   0  0.3377396E-07  0.3862229E+04  0.7818609E-02  0.8032931E-01
        2   -1    0    0  501    0  0.00000000000E+00  0.00000000000E+00  0.11878796938E+04  0.11878796938E+04  0.25500000920E-02 0.  1.
       -2   -1    0    0    0  501  0.00000000000E+00  0.00000000000E+00 -0.31393783161E+04  0.31393783161E+04  0.25500000920E-02 0. -1.
    10030    2    1    2    0    0  0.00000000000E+00  0.00000000000E+00 -0.19514986223E+04  0.43272580099E+04  0.38622292800E+04 0.  0.
        5    1    3    3  502    0 -0.41477300924E+03  0.21907474951E+01  0.11373758963E+04  0.12106558008E+04  0.46999998093E+01 0.  1.
       -5    1    3    3    0  502  0.41477300924E+03 -0.21907474951E+01 -0.30888745185E+04  0.31166022091E+04  0.46999998093E+01 0. -1.
</event>
<event>
 5   0  0.3377396E-07  0.3892227E+04  0.7818609E-02  0.8026648E-01
        2   -1    0    0  501    0  0.00000000000E+00  0.00000000000E+00  0.23364016911E+04  0.23364016911E+04  0.25500000920E-02 0.  1.
       -2   -1    0    0    0  501  0.00000000000E+00  0.00000000000E+00 -0.16210220197E+04  0.16210220197E+04  0.25500000920E-02 0. -1.
    10030    2    1    2    0    0  0.00000000000E+00  0.00000000000E+00  0.71537967137E+03  0.39574237108E+04  0.38922274282E+04 0.  0.
        5    1    3    3  502    0 -0.12388051863E+04  0.34315324316E+03 -0.11279296697E+04  0.17101578488E+04  0.46999998093E+01 0. -1.
       -5    1    3    3    0  502  0.12388051863E+04 -0.34315324316E+03  0.18433093411E+04  0.22472658621E+04  0.46999998093E+01 0.  1.
</event>
<event>
 5   0  0.3377396E-07  0.3766501E+04  0.7818609E-02  0.8053382E-01
       -2   -1    0    0    0  501  0.00000000000E+00  0.00000000000E+00  0.24894425580E+04  0.24894425580E+04  0.25500000920E-02 0.  1.
        2   -1    0    0  501    0  0.00000000000E+00  0.00000000000E+00 -0.14246692706E+04  0.14246692706E+04  0.25500000920E-02 0. -1.
    10030    2    1    2    0    0  0.00000000000E+00  0.00000000000E+00  0.10647732874E+04  0.39141118286E+04  0.37665009296E+04 0.  0.
        5    1    3    3  502    0 -0.14403462394E+04 -0.25638713609E+03  0.17647274516E+04  0.22922950773E+04  0.46999998093E+01 0.  1.
       -5    1    3    3    0  502  0.14403462394E+04  0.25638713609E+03 -0.69995416419E+03  0.16218167513E+04  0.46999998093E+01 0. -1.
</event>
<event>
 5   0  0.1084315E-07  0.3811676E+04  0.7818609E-02  0.8043654E-01
        1   -1    0    0  501    0  0.00000000000E+00  0.00000000000E+00  0.10591055979E+04  0.10591055979E+04  0.50400001928E-02 0.  1.
       -1   -1    0    0    0  501  0.00000000000E+00  0.00000000000E+00 -0.34295141552E+04  0.34295141552E+04  0.50400001928E-02 0. -1.
    10030    2    1    2    0    0  0.00000000000E+00  0.00000000000E+00 -0.23704085573E+04  0.44886197531E+04  0.38116755580E+04 0.  0.
        4    1    3    3  502    0  0.83914311045E+03 -0.44508961825E+03  0.76048839386E+03  0.12168032455E+04  0.12699999809E+01 0.  1.
       -4    1    3    3    0  502 -0.83914311045E+03  0.44508961825E+03 -0.31308969512E+04  0.32718165076E+04  0.12699999809E+01 0. -1.
</event>
<event>
 5   0  0.3442126E-07  0.3798161E+04  0.7818609E-02  0.8046550E-01
       -2   -1    0    0    0  501  0.00000000000E+00  0.00000000000E+00  0.15375942541E+04  0.15375942541E+04  0.25500000920E-02 0. -1.
        2   -1    0    0  501    0  0.00000000000E+00  0.00000000000E+00 -0.23455518040E+04  0.23455518040E+04  0.25500000920E-02 0.  1.
    10030    2    1    2    0    0  0.00000000000E+00  0.00000000000E+00 -0.80795754990E+03  0.38831460581E+04  0.37981611217E+04 0.  0.
        2    1    3    3  502    0  0.43627774188E+03  0.57819853882E+03 -0.21987803998E+04  0.23150134049E+04  0.25500000920E-02 0.  1.
       -2    1    3    3    0  502 -0.43627774188E+03 -0.57819853882E+03  0.13908228499E+04  0.15681326532E+04  0.25500000920E-02 0. -1.
</event>
<event>
 5   0  0.3327241E-07  0.3800153E+04  0.7818609E-02  0.8046122E-01
        2   -1    0    0  501    0  0.00000000000E+00  0.00000000000E+00  0.29091748070E+04  0.29091748070E+04  0.25500000920E-02 0.  1.
       -2   -1    0    0    0  501  0.00000000000E+00  0.00000000000E+00 -0.12410014920E+04  0.12410014920E+04  0.25500000920E-02 0. -1.
    10030    2    1    2    0    0  0.00000000000E+00  0.00000000000E+00  0.16681733150E+04  0.41501762990E+04  0.38001527738E+04 0.  0.
        3    1    3    3  502    0  0.20129451246E+03 -0.16370042047E+04  0.18643721143E+04  0.24892138594E+04  0.10100000352E+00 0.  1.
       -3    1    3    3    0  502 -0.20129451246E+03  0.16370042047E+04 -0.19619879924E+03  0.16609624397E+04  0.10100000352E+00 0. -1.
</event>
<event>
 5   0  0.1070988E-07  0.3822238E+04  0.7818609E-02  0.8041399E-01
       -1   -1    0    0    0  501  0.00000000000E+00  0.00000000000E+00  0.25845116321E+04  0.25845116321E+04  0.50400001928E-02 0.  1.
        1   -1    0    0  501    0  0.00000000000E+00  0.00000000000E+00 -0.14131782605E+04  0.14131782605E+04  0.50400001928E-02 0. -1.
    10030    2    1    2    0    0  0.00000000000E+00  0.00000000000E+00  0.11713333717E+04  0.39976898926E+04  0.38222379060E+04 0.  0.
        3    1    3    3  502    0 -0.76863404288E+03  0.22706420773E+03 -0.12289128954E+04  0.14671684841E+04  0.10100000352E+00 0. -1.
       -3    1    3    3    0  502  0.76863404288E+03 -0.22706420773E+03  0.24002462670E+04  0.25305214085E+04  0.10100000352E+00 0.  1.
</event>
<event>
 5   0  0.3327241E-07  0.3832846E+04  0.7818609E-02  0.8039143E-01
        2   -1    0    0  501    0  0.00000000000E+00  0.00000000000E+00  0.19920966965E+04  0.19920966965E+04  0.25500000920E-02 0.  1.
       -2   -1    0    0    0  501  0.00000000000E+00  0.00000000000E+00 -0.18436236660E+04  0.18436236660E+04  0.25500000920E-02 0. -1.
    10030    2    1    2    0    0  0.00000000000E+00  0.00000000000E+00  0.14847303056E+03  0.38357203625E+04  0.38328457389E+04 0.  0.
        3    1    3    3  502    0 -0.72723387653E+02  0.91793246286E+03  0.17562075798E+04  0.19829659026E+04  0.10100000352E+00 0.  1.
       -3    1    3    3    0  502  0.72723387653E+02 -0.91793246286E+03 -0.16077345492E+04  0.18527544598E+04  0.10100000352E+00 0. -1.
</event>
<event>
 5   0  0.1085771E-07  0.3800364E+04  0.7818609E-02  0.8046077E-01
        1   -1    0    0  501    0  0.00000000000E+00  0.00000000000E+00  0.14420444289E+04  0.14420444290E+04  0.50400001928E-02 0. -1.
       -1   -1    0    0    0  501  0.00000000000E+00  0.00000000000E+00 -0.25038697972E+04  0.25038697972E+04  0.50400001928E-02 0.  1.
    10030    2    1    2    0    0  0.00000000000E+00  0.00000000000E+00 -0.10618253683E+04  0.39459142262E+04  0.38003639257E+04 0.  0.
        1    1    3    3  502    0  0.18111006013E+04  0.48380369831E+03 -0.85352154620E+03  0.20597695105E+04  0.50400001928E-02 0. -1.
       -1    1    3    3    0  502 -0.18111006013E+04 -0.48380369831E+03 -0.20830382209E+03  0.18861447157E+04  0.50400001928E-02 0.  1.
</event>
<event>
 5   0  0.3377396E-07  0.3822421E+04  0.7818609E-02  0.8041360E-01
        2   -1    0    0  501    0  0.00000000000E+00  0.00000000000E+00  0.22953306542E+04  0.22953306542E+04  0.25500000920E-02 0. -1.
       -2   -1    0    0    0  501  0.00000000000E+00  0.00000000000E+00 -0.15913723700E+04  0.15913723700E+04  0.25500000920E-02 0.  1.
    10030    2    1    2    0    0  0.00000000000E+00  0.00000000000E+00  0.70395828413E+03  0.38867030242E+04  0.38224211087E+04 0.  0.
        5    1    3    3  502    0 -0.88740174122E+03  0.72938114194E+03 -0.12011985255E+04  0.16620405195E+04  0.46999998093E+01 0.  1.
       -5    1    3    3    0  502  0.88740174122E+03 -0.72938114194E+03  0.19051568097E+04  0.22246625047E+04  0.46999998093E+01 0. -1.
</event>
<event>
 5   0  0.1070988E-07  0.3810211E+04  0.7818609E-02  0.8043967E-01
        1   -1    0    0  501    0  0.00000000000E+00  0.00000000000E+00  0.19358671462E+04  0.19358671462E+04  0.50400001928E-02 0.  1.
       -1   -1    0    0    0  501  0.00000000000E+00  0.00000000000E+00 -0.18748327063E+04  0.18748327063E+04  0.50400001928E-02 0. -1.
    10030    2    1    2    0    0  0.00000000000E+00  0.00000000000E+00  0.61034439915E+02  0.38106998524E+04  0.38102110391E+04 0.  0.
        3    1    3    3  502    0  0.51171936982E+03 -0.68765888228E+03  0.17321159827E+04  0.19326037461E+04  0.10100000352E+00 0.  1.
       -3    1    3    3    0  502 -0.51171936982E+03  0.68765888228E+03 -0.16710815428E+04  0.18780961063E+04  0.10100000352E+00 0. -1.
</event>
<event>
 5   0  0.3442126E-07  0.3809734E+04  0.7818609E-02  0.8044069E-01
        2   -1    0    0  501    0  0.00000000000E+00  0.00000000000E+00  0.27591249657E+04  0.27591249657E+04  0.25500000920E-02 0.  1.
       -2   -1    0    0    0  501  0.00000000000E+00  0.00000000000E+00 -0.13150974065E+04  0.13150974065E+04  0.25500000920E-02 0. -1.
    10030    2    1    2    0    0  0.00000000000E+00  0.00000000000E+00  0.14440275592E+04  0.40742223722E+04  0.38097338944E+04 0.  0.
        2    1    3    3  502    0  0.94447814995E+02  0.39654916544E+03 -0.12679049922E+04  0.13318238246E+04  0.25500000920E-02 0. -1.
       -2    1    3    3    0  502 -0.94447814995E+02 -0.39654916544E+03  0.27119325514E+04  0.27423985476E+04  0.25500000920E-02 0.  1.
</event>
<event>
 5   0  0.1070988E-07  0.3062808E+04  0.7818609E-02  0.8226020E-01
        1   -1    0    0  501    0  0.00000000000E+00  0.00000000000E+00  0.20289263413E+04  0.20289263413E+04  0.50400001928E-02 0.  1.
       -1   -1    0    0    0  501  0.00000000000E+00  0.00000000000E+00 -0.11558814926E+04  0.11558814926E+04  0.50400001928E-02 0. -1.
    10030    2    1    2    0    0  0.00000000000E+00  0.00000000000E+00  0.87304484873E+03  0.31848078339E+04  0.30628081283E+04 0.  0.
        5    1    3    3  502    0 -0.67874570536E+03 -0.54774114561E+03  0.17454153254E+04  0.19512080472E+04  0.46999998093E+01 0.  1.
       -5    1    3    3    0  502  0.67874570536E+03  0.54774114561E+03 -0.87237047669E+03  0.12335997867E+04  0.46999998093E+01 0. -1.
</event>
<event>
 5   0  0.1070988E-07  0.3801380E+04  0.7818609E-02  0.8045859E-01
        1   -1    0    0  501    0  0.00000000000E+00  0.00000000000E+00  0.13876563656E+04  0.13876563656E+04  0.50400001928E-02 0. -1.
       -1   -1    0    0    0  501  0.00000000000E+00  0.00000000000E+00 -0.26033979803E+04  0.26033979803E+04  0.50400001928E-02 0.  1.
    10030    2    1    2    0    0  0.00000000000E+00  0.00000000000E+00 -0.12157416147E+04  0.39910543459E+04  0.38013796335E+04 0.  0.
        2    1    3    3  502    0  0.16002497742E+04 -0.15076641374E+03  0.45718774455E+03  0.16710926022E+04  0.25500000920E-02 0. -1.
       -2    1    3    3    0  502 -0.16002497742E+04  0.15076641374E+03 -0.16729293592E+04  0.23199617437E+04  0.25500000920E-02 0.  1.
</event>
<event>
 5   0  0.1070988E-07  0.3737506E+04  0.7818609E-02  0.8059701E-01
       -3   -1    0    0    0  501  0.00000000000E+00  0.00000000000E+00  0.16434614754E+04  0.16434614785E+04  0.10100000352E+00 0. -1.
        3   -1    0    0  501    0  0.00000000000E+00  0.00000000000E+00 -0.21249278981E+04  0.21249279005E+04  0.10100000352E+00 0.  1.
    10030    2    1    2    0    0  0.00000000000E+00  0.00000000000E+00 -0.48146642270E+03  0.37683893790E+04  0.37375056650E+04 0.  0.
        3    1    3    3  502    0 -0.12325236275E+02  0.15805318868E+04  0.76450275143E+03  0.17557612093E+04  0.10100000352E+00 0.  1.
       -3    1    3    3    0  502  0.12325236275E+02 -0.15805318868E+04 -0.12459691741E+04  0.20126281698E+04  0.10100000352E+00 0. -1.
</event>
<event>
 5   0  0.3377396E-07  0.3726130E+04  0.7818609E-02  0.8062196E-01
        2   -1    0    0  501    0  0.00000000000E+00  0.00000000000E+00  0.20587523351E+04  0.20587523351E+04  0.25500000920E-02 0. -1.
       -2   -1    0    0    0  501  0.00000000000E+00  0.00000000000E+00 -0.16859777081E+04  0.16859777081E+04  0.25500000920E-02 0.  1.
    10030    2    1    2    0    0  0.00000000000E+00  0.00000000000E+00  0.37277462699E+03  0.37447300433E+04  0.37261296508E+04 0.  0.
        5    1    3    3  502    0  0.16584976473E+04  0.84620755889E+03  0.12043369390E+03  0.18657995721E+04  0.46999998093E+01 0.  1.
       -5    1    3    3    0  502 -0.16584976473E+04 -0.84620755889E+03  0.25234093309E+03  0.18789304711E+04  0.46999998093E+01 0. -1.
</event>
<event>
 5   0  0.1070988E-07  0.3491832E+04  0.7818609E-02  0.8115728E-01
       -3   -1    0    0    0  501  0.00000000000E+00  0.00000000000E+00  0.19461538904E+04  0.19461538930E+04  0.10100000352E+00 0.  1.
        3   -1    0    0  501    0  0.00000000000E+00  0.00000000000E+00 -0.15662802593E+04  0.15662802625E+04  0.10100000352E+00 0. -1.
    10030    2    1    2    0    0  0.00000000000E+00  0.00000000000E+00  0.37987363115E+03  0.35124341555E+04  0.34918318575E+04 0.  0.
        4    1    3    3  502    0 -0.11069325256E+03 -0.94769343732E+03 -0.12808271229E+04  0.15971523343E+04  0.12699999809E+01 0. -1.
       -4    1    3    3    0  502  0.11069325256E+03  0.94769343732E+03  0.16607007541E+04  0.19152818212E+04  0.12699999809E+01 0.  1.
</event>
<event>
 5   0  0.3539010E-07  0.3777703E+04  0.7818609E-02  0.8050957E-01
        2   -1    0    0  501    0  0.00000000000E+00  0.00000000000E+00  0.31973396757E+04  0.31973396757E+04  0.25500000920E-02 0. -1.
       -2   -1    0    0    0  501  0.00000000000E+00  0.00000000000E+00 -0.11158524751E+04  0.11158524751E+04  0.25500000920E-02 0.  1.
    10030    2    1    2    0    0  0.00000000000E+00  0.00000000000E+00  0.20814872006E+04  0.43131921509E+04  0.37777026834E+04 0.  0.
        1    1    3    3  502    0 -0.45670939305E+03 -0.14473303083E+03 -0.10453272138E+04  0.11498869961E+04  0.50400001928E-02 0.  1.
       -1    1    3    3    0  502  0.45670939305E+03  0.14473303083E+03  0.31268144144E+04  0.31633051548E+04  0.50400001928E-02 0. -1.
</event>
<event>
 5   0  0.3377396E-07  0.3710455E+04  0.7818609E-02  0.8065649E-01
        2   -1    0    0  501    0  0.00000000000E+00  0.00000000000E+00  0.28114436960E+04  0.28114436960E+04  0.25500000920E-02 0. -1.
       -2   -1    0    0    0  501  0.00000000000E+00  0.00000000000E+00 -0.12242354436E+04  0.12242354436E+04  0.25500000920E-02 0.  1.
    10030    2    1    2    0    0  0.00000000000E+00  0.00000000000E+00  0.15872082524E+04  0.40356791396E+04  0.37104549696E+04 0.  0.
        5    1    3    3  502    0  0.26465615346E+03  0.16483472235E+04  0.16736980773E+04  0.23639752099E+04  0.46999998093E+01 0. -1.
       -5    1    3    3    0  502 -0.26465615346E+03 -0.16483472235E+04 -0.86489824905E+02  0.16717039297E+04  0.46999998093E+01 0.  1.
</event>
<event>
 5   0  0.3377396E-07  0.3804202E+04  0.7818609E-02  0.8045254E-01
       -2   -1    0    0    0  501  0.00000000000E+00  0.00000000000E+00  0.25575485837E+04  0.25575485837E+04  0.25500000920E-02 0. -1.
        2   -1    0    0  501    0  0.00000000000E+00  0.00000000000E+00 -0.14146313452E+04  0.14146313452E+04  0.25500000920E-02 0.  1.
    10030    2    1    2    0    0  0.00000000000E+00  0.00000000000E+00  0.11429172385E+04  0.39721799289E+04  0.38042020942E+04 0.  0.
        5    1    3    3  502    0 -0.15687824092E+04 -0.40134274137E+03  0.16134257594E+04  0.22858956701E+04  0.46999998093E+01 0. -1.
       -5    1    3    3    0  502  0.15687824092E+04  0.40134274137E+03 -0.47050852094E+03  0.16862842588E+04  0.46999998093E+01 0.  1.
</event>
<event>
 5   0  0.1070988E-07  0.3776328E+04  0.7818609E-02  0.8051254E-01
       -1   -1    0    0    0  501  0.00000000000E+00  0.00000000000E+00  0.19553814502E+04  0.19553814502E+04  0.50400001928E-02 0.  1.
        1   -1    0    0  501    0  0.00000000000E+00  0.00000000000E+00 -0.18232568609E+04  0.18232568609E+04  0.50400001928E-02 0. -1.
    10030    2    1    2    0    0  0.00000000000E+00  0.00000000000E+00  0.13212458924E+03  0.37786383111E+04  0.37763276578E+04 0.  0.
        5    1    3    3  502    0  0.13095182378E+04 -0.69140939023E+03 -0.11060876171E+04  0.18483335377E+04  0.46999998093E+01 0. -1.
       -5    1    3    3    0  502 -0.13095182378E+04  0.69140939023E+03  0.12382122063E+04  0.19303047733E+04  0.46999998093E+01 0.  1.
</event>
<event>
 5   0  0.1070988E-07  0.3791552E+04  0.7818609E-02  0.8047970E-01
        3   -1    0    0  501    0  0.00000000000E+00  0.00000000000E+00  0.23358557921E+04  0.23358557943E+04  0.10100000352E+00 0.  1.
       -3   -1    0    0    0  501  0.00000000000E+00  0.00000000000E+00 -0.15386079193E+04  0.15386079226E+04  0.10100000352E+00 0. -1.
    10030    2    1    2    0    0  0.00000000000E+00  0.00000000000E+00  0.79724787285E+03  0.38744637169E+04  0.37915517830E+04 0.  0.
        1    1    3    3  502    0 -0.18753278914E+04 -0.26863879861E+03  0.47048038215E+03  0.19520177495E+04  0.50400001928E-02 0. -1.
       -1    1    3    3    0  502  0.18753278914E+04  0.26863879861E+03  0.32676749070E+03  0.19224459674E+04  0.50400001928E-02 0.  1.
</event>
<event>
 5   0  0.3377396E-07  0.3802974E+04  0.7818609E-02  0.8045517E-01
       -2   -1    0    0    0  501  0.00000000000E+00  0.00000000000E+00  0.14703934286E+04  0.14703934286E+04  0.25500000920E-02 0. -1.
        2   -1    0    0  501    0  0.00000000000E+00  0.00000000000E+00 -0.24589694848E+04  0.24589694848E+04  0.25500000920E-02 0.  1.
    10030    2    1    2    0    0  0.00000000000E+00  0.00000000000E+00 -0.98857605625E+03  0.39293629134E+04  0.38029738740E+04 0.  0.
        5    1    3    3  502    0  0.25707892082E+03 -0.35339869488E+03 -0.24063717921E+04  0.24457365967E+04  0.46999998093E+01 0.  1.
       -5    1    3    3    0  502 -0.25707892082E+03  0.35339869488E+03  0.14177957358E+04  0.14836263167E+04  0.46999998093E+01 0. -1.
</event>
<event>
 5   0  0.1084315E-07  0.3815280E+04  0.7818609E-02  0.8042884E-01
        1   -1    0    0  501    0  0.00000000000E+00  0.00000000000E+00  0.19539520708E+04  0.19539520708E+04  0.50400001928E-02 0. -1.
       -1   -1    0    0    0  501  0.00000000000E+00  0.00000000000E+00 -0.18624258054E+04  0.18624258054E+04  0.50400001928E-02 0.  1.
    10030    2    1    2    0    0  0.00000000000E+00  0.00000000000E+00  0.91526265405E+02  0.38163778762E+04  0.38152802042E+04 0.  0.
        4    1    3    3  502    0  0.54070043870E+03 -0.89889944725E+03  0.16395551429E+04  0.19464120479E+04  0.12699999809E+01 0. -1.
       -4    1    3    3    0  502 -0.54070043870E+03  0.89889944725E+03 -0.15480288775E+04  0.18699658283E+04  0.12699999809E+01 0.  1.
</event>
<event>
 5   0  0.3539010E-07  0.3743862E+04  0.7818609E-02  0.8058310E-01
        2   -1    0    0  501    0  0.00000000000E+00  0.00000000000E+00  0.15235086054E+04  0.15235086054E+04  0.25500000920E-02 0. -1.
       -2   -1    0    0    0  501  0.00000000000E+00  0.00000000000E+00 -0.23000367487E+04  0.23000367487E+04  0.25500000920E-02 0.  1.
    10030    2    1    2    0    0  0.00000000000E+00  0.00000000000E+00 -0.77652814327E+03  0.38235453541E+04  0.37438620591E+04 0.  0.
        1    1    3    3  502    0 -0.38590084686E+03 -0.25134149077E+03 -0.22412774205E+04  0.22881032504E+04  0.50400001928E-02 0.  1.
       -1    1    3    3    0  502  0.38590084686E+03  0.25134149077E+03  0.14647492772E+04  0.15354421037E+04  0.50400001928E-02 0. -1.
</event>
<event>
 5   0  0.1070988E-07  0.3400114E+04  0.7818609E-02  0.8137878E-01
       -1   -1    0    0    0  501  0.00000000000E+00  0.00000000000E+00  0.16030519888E+04  0.16030519888E+04  0.50400001928E-02 0. -1.
        1   -1    0    0  501    0  0.00000000000E+00  0.00000000000E+00 -0.18029324280E+04  0.18029324280E+04  0.50400001928E-02 0.  1.
    10030    2    1    2    0    0  0.00000000000E+00  0.00000000000E+00 -0.19988043918E+03  0.34059844168E+04  0.34001143595E+04 0.  0.
        5    1    3    3  502    0  0.13353033850E+03 -0.57298256081E+03  0.14978159343E+04  0.16092277742E+04  0.46999998093E+01 0. -1.
       -5    1    3    3    0  502 -0.13353033850E+03  0.57298256081E+03 -0.16976963734E+04  0.17967566426E+04  0.46999998093E+01 0.  1.
</event>
<event>
 5   0  0.1085771E-07  0.3775142E+04  0.7818609E-02  0.8051510E-01
        1   -1    0    0  501    0  0.00000000000E+00  0.00000000000E+00  0.25652352403E+04  0.25652352403E+04  0.50400001928E-02 0.  1.
       -1   -1    0    0    0  501  0.00000000000E+00  0.00000000000E+00 -0.13889268083E+04  0.13889268083E+04  0.50400001928E-02 0. -1.
    10030    2    1    2    0    0  0.00000000000E+00  0.00000000000E+00  0.11763084320E+04  0.39541620486E+04  0.37751418489E+04 0.  0.
        1    1    3    3  502    0 -0.30047967006E+03  0.17840506851E+04  0.11520121775E+04  0.21448209566E+04  0.50400001928E-02 0.  1.
       -1    1    3    3    0  502  0.30047967006E+03 -0.17840506851E+04  0.24296254530E+02  0.18093410919E+04  0.50400001928E-02 0. -1.
</event>
<event>
 5   0  0.1070988E-07  0.3775943E+04  0.7818609E-02  0.8051337E-01
        1   -1    0    0  501    0  0.00000000000E+00  0.00000000000E+00  0.21590819636E+04  0.21590819636E+04  0.50400001928E-02 0. -1.
       -1   -1    0    0    0  501  0.00000000000E+00  0.00000000000E+00 -0.16509036090E+04  0.16509036090E+04  0.50400001928E-02 0.  1.
    10030    2    1    2    0    0  0.00000000000E+00  0.00000000000E+00  0.50817835461E+03  0.38099855726E+04  0.37759429052E+04 0.  0.
        3    1    3    3  502    0  0.17219068598E+04  0.31625761710E+03 -0.45900303831E+03  0.18098800826E+04  0.10100000352E+00 0.  1.
       -3    1    3    3    0  502 -0.17219068598E+04 -0.31625761710E+03  0.96718139293E+03  0.20001054900E+04  0.10100000352E+00 0. -1.
</event>
<event>
 5   0  0.1084315E-07  0.3808329E+04  0.7818609E-02  0.8044370E-01
        1   -1    0    0  501    0  0.00000000000E+00  0.00000000000E+00  0.18789833413E+04  0.18789833413E+04  0.50400001928E-02 0. -1.
       -1   -1    0    0    0  501  0.00000000000E+00  0.00000000000E+00 -0.19296827402E+04  0.19296827402E+04  0.50400001928E-02 0.  1.
    10030    2    1    2    0    0  0.00000000000E+00  0.00000000000E+00 -0.50699398854E+02  0.38086660815E+04  0.38083286218E+04 0.  0.
        4    1    3    3  502    0  0.14612793216E+04  0.47658641532E+03 -0.11494458473E+04  0.19192965471E+04  0.12699999809E+01 0.  1.
       -4    1    3    3    0  502 -0.14612793216E+04 -0.47658641532E+03  0.10987464484E+04  0.18893695345E+04  0.12699999809E+01 0. -1.
</event>
<event>
 5   0  0.3509843E-07  0.3767135E+04  0.7818609E-02  0.8053245E-01
        2   -1    0    0  501    0  0.00000000000E+00  0.00000000000E+00  0.16362490744E+04  0.16362490744E+04  0.25500000920E-02 0.  1.
       -2   -1    0    0    0  501  0.00000000000E+00  0.00000000000E+00 -0.21682678614E+04  0.21682678614E+04  0.25500000920E-02 0. -1.
    10030    2    1    2    0    0  0.00000000000E+00  0.00000000000E+00 -0.53201878698E+03  0.38045169358E+04  0.37671348695E+04 0.  0.
        4    1    3    3  502    0 -0.18538173747E+03 -0.95982561884E+03  0.13599961604E+04  0.16748799289E+04  0.12699999809E+01 0.  1.
       -4    1    3    3    0  502  0.18538173747E+03  0.95982561884E+03 -0.18920149473E+04  0.21296370069E+04  0.12699999809E+01 0. -1.
</event>
<event>
 5   0  0.3327241E-07  0.3551232E+04  0.7818609E-02  0.8101755E-01
        2   -1    0    0  501    0  0.00000000000E+00  0.00000000000E+00  0.13776906851E+04  0.13776906851E+04  0.25500000920E-02 0. -1.
       -2   -1    0    0    0  501  0.00000000000E+00  0.00000000000E+00 -0.22884766253E+04  0.22884766253E+04  0.25500000920E-02 0.  1.
    10030    2    1    2    0    0  0.00000000000E+00  0.00000000000E+00 -0.91078594017E+03  0.36661673104E+04  0.35512324225E+04 0.  0.
        3    1    3    3  502    0 -0.46636747500E+03 -0.12228728115E+04 -0.16941861457E+04  0.21408370422E+04  0.10100000352E+00 0.  1.
       -3    1    3    3    0  502  0.46636747500E+03  0.12228728115E+04  0.78340020555E+03  0.15253302682E+04  0.10100000352E+00 0. -1.
</event>
<event>
 5   0  0.1085771E-07  0.3785661E+04  0.7818609E-02  0.8049239E-01
        1   -1    0    0  501    0  0.00000000000E+00  0.00000000000E+00  0.18889326389E+04  0.18889326389E+04  0.50400001928E-02 0. -1.
       -1   -1    0    0    0  501  0.00000000000E+00  0.00000000000E+00 -0.18967365350E+04  0.18967365350E+04  0.50400001928E-02 0.  1.
    10030    2    1    2    0    0  0.00000000000E+00  0.00000000000E+00 -0.78038961160E+01  0.37856691739E+04  0.37856611303E+04 0.  0.
        1    1    3    3  502    0  0.58020187540E+03  0.22005017235E+03 -0.17921314755E+04  0.18965208989E+04  0.50400001928E-02 0.  1.
       -1    1    3    3    0  502 -0.58020187540E+03 -0.22005017235E+03  0.17843275793E+04  0.18891482750E+04  0.50400001928E-02 0. -1.
</event>
<event>
 5   0  0.3377396E-07  0.3797128E+04  0.7818609E-02  0.8046771E-01
       -2   -1    0    0    0  501  0.00000000000E+00  0.00000000000E+00  0.12467125682E+04  0.12467125682E+04  0.25500000920E-02 0.  1.
        2   -1    0    0  501    0  0.00000000000E+00  0.00000000000E+00 -0.28912399772E+04  0.28912399772E+04  0.25500000920E-02 0. -1.
    10030    2    1    2    0    0  0.00000000000E+00  0.00000000000E+00 -0.16445274090E+04  0.41379525455E+04  0.37971279765E+04 0.  0.
        5    1    3    3  502    0  0.10008516508E+04  0.11791492701E+04 -0.20221992251E+04  0.25458611164E+04  0.46999998093E+01 0. -1.
       -5    1    3    3    0  502 -0.10008516508E+04 -0.11791492701E+04  0.37767181610E+03  0.15920914291E+04  0.46999998093E+01 0.  1.
</event>
<event>
 5   0  0.3327241E-07  0.3764797E+04  0.7818609E-02  0.8053752E-01
        2   -1    0    0  501    0  0.00000000000E+00  0.00000000000E+00  0.14411995258E+04  0.14411995258E+04  0.25500000920E-02 0. -1.
       -2   -1    0    0    0  501  0.00000000000E+00  0.00000000000E+00 -0.24586633519E+04  0.24586633519E+04  0.25500000920E-02 0.  1.
    10030    2    1    2    0    0  0.00000000000E+00  0.00000000000E+00 -0.10174638261E+04  0.38998628778E+04  0.37647971829E+04 0.  0.
        3    1    3    3  502    0  0.12497974744E+03  0.16819564485E+04  0.35721764516E+03  0.17240075082E+04  0.10100000352E+00 0. -1.
       -3    1    3    3    0  502 -0.12497974744E+03 -0.16819564485E+04 -0.13746814712E+04  0.21758553696E+04  0.10100000352E+00 0.  1.
</event>
<event>
 5   0  0.3509843E-07  0.3798292E+04  0.7818609E-02  0.8046521E-01
       -2   -1    0    0    0  501  0.00000000000E+00  0.00000000000E+00  0.11469026400E+04  0.11469026401E+04  0.25500000920E-02 0.  1.
        2   -1    0    0  501    0  0.00000000000E+00  0.00000000000E+00 -0.31447797631E+04  0.31447797631E+04  0.25500000920E-02 0. -1.
    10030    2    1    2    0    0  0.00000000000E+00  0.00000000000E+00 -0.19978771230E+04  0.42916824031E+04  0.37982923598E+04 0.  0.
        4    1    3    3  502    0 -0.15458411035E+03 -0.81040935678E+03  0.93384578007E+03  0.12460855214E+04  0.12699999809E+01 0.  1.
       -4    1    3    3    0  502  0.15458411035E+03  0.81040935678E+03 -0.29317229031E+04  0.30455968818E+04  0.12699999809E+01 0. -1.
</event>
<event>
 5   0  0.3442126E-07  0.3816568E+04  0.7818609E-02  0.8042609E-01
       -2   -1    0    0    0  501  0.00000000000E+00  0.00000000000E+00  0.18413318687E+04  0.18413318687E+04  0.25500000920E-02 0. -1.
        2   -1    0    0  501    0  0.00000000000E+00  0.00000000000E+00 -0.19776705162E+04  0.19776705162E+04  0.25500000920E-02 0.  1.
    10030    2    1    2    0    0  0.00000000000E+00  0.00000000000E+00 -0.13633864748E+03  0.38190023849E+04  0.38165679594E+04 0.  0.
        2    1    3    3  502    0  0.37877747339E+03  0.62736751283E+03 -0.18312481866E+04  0.19724432290E+04  0.25500000920E-02 0.  1.
       -2    1    3    3    0  502 -0.37877747339E+03 -0.62736751283E+03  0.16949095391E+04  0.18465591559E+04  0.25500000920E-02 0. -1.
</event>
<event>
 5   0  0.3442126E-07  0.3730183E+04  0.7818609E-02  0.8061306E-01
        2   -1    0    0  501    0  0.00000000000E+00  0.00000000000E+00  0.15395408642E+04  0.15395408642E+04  0.25500000920E-02 0. -1.
       -2   -1    0    0    0  501  0.00000000000E+00  0.00000000000E+00 -0.22594826064E+04  0.22594826064E+04  0.25500000920E-02 0.  1.
    10030    2    1    2    0    0  0.00000000000E+00  0.00000000000E+00 -0.71994174223E+03  0.37990234706E+04  0.37301827325E+04 0.  0.
        2    1    3    3  502    0  0.17392209602E+02 -0.98138755244E+03 -0.19751589691E+04  0.22056012718E+04  0.25500000920E-02 0.  1.
       -2    1    3    3    0  502 -0.17392209602E+02  0.98138755244E+03  0.12552172268E+04  0.15934221988E+04  0.25500000920E-02 0. -1.
</event>
<event>
 5   0  0.3442126E-07  0.3770758E+04  0.7818609E-02  0.8052459E-01
       -2   -1    0    0    0  501  0.00000000000E+00  0.00000000000E+00  0.16349027400E+04  0.16349027400E+04  0.25500000920E-02 0. -1.
        2   -1    0    0  501    0  0.00000000000E+00  0.00000000000E+00 -0.21742295433E+04  0.21742295433E+04  0.25500000920E-02 0.  1.
    10030    2    1    2    0    0  0.00000000000E+00  0.00000000000E+00 -0.53932680329E+03  0.38091322833E+04  0.37707579279E+04 0.  0.
        2    1    3    3  502    0 -0.13819051337E+04  0.11449836358E+04 -0.85347614384E+03  0.19872269254E+04  0.25500000920E-02 0.  1.
       -2    1    3    3    0  502  0.13819051337E+04 -0.11449836358E+04  0.31414934055E+03  0.18219053579E+04  0.25500000920E-02 0. -1.
</event>
<event>
 5   0  0.3327241E-07  0.3715220E+04  0.7818609E-02  0.8064597E-01
       -2   -1    0    0    0  501  0.00000000000E+00  0.00000000000E+00  0.19207941710E+04  0.19207941710E+04  0.25500000920E-02 0. -1.
        2   -1    0    0  501    0  0.00000000000E+00  0.00000000000E+00 -0.17965038783E+04  0.17965038783E+04  0.25500000920E-02 0.  1.
    10030    2    1    2    0    0  0.00000000000E+00  0.00000000000E+00  0.12429029270E+03  0.37172980492E+04  0.37152196045E+04 0.  0.
        3    1    3    3  502    0 -0.42821644678E+03 -0.11596176991E+03  0.18670106409E+04  0.19189958834E+04  0.10100000352E+00 0. -1.
       -3    1    3    3    0  502  0.42821644678E+03  0.11596176991E+03 -0.17427203482E+04  0.17983021658E+04  0.10100000352E+00 0.  1.
</event>
<event>
 5   0  0.3509843E-07  0.3790060E+04  0.7818609E-02  0.8048291E-01
       -2   -1    0    0    0  501  0.00000000000E+00  0.00000000000E+00  0.31714482005E+04  0.31714482005E+04  0.25500000920E-02 0.  1.
        2   -1    0    0  501    0  0.00000000000E+00  0.00000000000E+00 -0.11323339687E+04  0.11323339687E+04  0.25500000920E-02 0. -1.
    10030    2    1    2    0    0  0.00000000000E+00  0.00000000000E+00  0.20391142318E+04  0.43037821693E+04  0.37900599085E+04 0.  0.
        4    1    3    3  502    0  0.11283733218E+04 -0.10994197472E+04 -0.17637505766E+03  0.15852633560E+04  0.12699999809E+01 0. -1.
       -4    1    3    3    0  502 -0.11283733218E+04  0.10994197472E+04  0.22154892895E+04  0.27185188133E+04  0.12699999809E+01 0.  1.
</event>
<event>
 5   0  0.3539010E-07  0.3820953E+04  0.7818609E-02  0.8041673E-01
       -2   -1    0    0    0  501  0.00000000000E+00  0.00000000000E+00  0.13625179389E+04  0.13625179389E+04  0.25500000920E-02 0.  1.
        2   -1    0    0  501    0  0.00000000000E+00  0.00000000000E+00 -0.26788058732E+04  0.26788058732E+04  0.25500000920E-02 0. -1.
    10030    2    1    2    0    0  0.00000000000E+00  0.00000000000E+00 -0.13162879342E+04  0.40413238121E+04  0.38209533141E+04 0.  0.
        1    1    3    3  502    0 -0.56879036632E+03 -0.15754670839E+04 -0.16299975469E+04  0.23372015352E+04  0.50400001928E-02 0. -1.
       -1    1    3    3    0  502  0.56879036632E+03  0.15754670839E+04  0.31370961261E+03  0.17041222769E+04  0.50400001928E-02 0.  1.
</event>
<event>
 5   0  0.1085771E-07  0.3820771E+04  0.7818609E-02  0.8041712E-01
       -1   -1    0    0    0  501  0.00000000000E+00  0.00000000000E+00  0.15710132159E+04  0.15710132159E+04  0.50400001928E-02 0.  1.
        1   -1    0    0  501    0  0.00000000000E+00  0.00000000000E+00 -0.23230689228E+04  0.23230689228E+04  0.50400001928E-02 0. -1.
    10030    2    1    2    0    0  0.00000000000E+00  0.00000000000E+00 -0.75205570699E+03  0.38940821387E+04  0.38207705920E+04 0.  0.
        1    1    3    3  502    0 -0.18538553167E+04  0.14003658736E+03  0.71930559382E+02  0.18605278247E+04  0.50400001928E-02 0.  1.
       -1    1    3    3    0  502  0.18538553167E+04 -0.14003658736E+03 -0.82398626637E+03  0.20335543140E+04  0.50400001928E-02 0. -1.
</event>
<event>
 5   0  0.1070988E-07  0.3809753E+04  0.7818609E-02  0.8044065E-01
        1   -1    0    0  501    0  0.00000000000E+00  0.00000000000E+00  0.19696634574E+04  0.19696634574E+04  0.50400001928E-02 0. -1.
       -1   -1    0    0    0  501  0.00000000000E+00  0.00000000000E+00 -0.18422203102E+04  0.18422203102E+04  0.50400001928E-02 0.  1.
    10030    2    1    2    0    0  0.00000000000E+00  0.00000000000E+00  0.12744314724E+03  0.38118837677E+04  0.38097527613E+04 0.  0.
        3    1    3    3  502    0 -0.18095902108E+03 -0.18761303401E+04 -0.21200977550E+03  0.18967233260E+04  0.10100000352E+00 0.  1.
       -3    1    3    3    0  502  0.18095902108E+03  0.18761303401E+04  0.33945292274E+03  0.19151604416E+04  0.10100000352E+00 0. -1.
</event>
<event>
 5   0  0.1085771E-07  0.3823925E+04  0.7818609E-02  0.8041040E-01
       -1   -1    0    0    0  501  0.00000000000E+00  0.00000000000E+00  0.13916042968E+04  0.13916042968E+04  0.50400001928E-02 0.  1.
        1   -1    0    0  501    0  0.00000000000E+00  0.00000000000E+00 -0.26268966103E+04  0.26268966103E+04  0.50400001928E-02 0. -1.
    10030    2    1    2    0    0  0.00000000000E+00  0.00000000000E+00 -0.12352923134E+04  0.40185009071E+04  0.38239250046E+04 0.  0.
        1    1    3    3  502    0  0.10749368736E+04 -0.14166611445E+04 -0.13556498691E+04  0.22361137377E+04  0.50400001928E-02 0. -1.
       -1    1    3    3    0  502 -0.10749368736E+04  0.14166611445E+04  0.12035755565E+03  0.17823871694E+04  0.50400001928E-02 0.  1.
</event>
<event>
 5   0  0.3509843E-07  0.3282008E+04  0.7818609E-02  0.8167489E-01
        2   -1    0    0  501    0  0.00000000000E+00  0.00000000000E+00  0.19303236817E+04  0.19303236817E+04  0.25500000920E-02 0.  1.
       -2   -1    0    0    0  501  0.00000000000E+00  0.00000000000E+00 -0.13950477228E+04  0.13950477228E+04  0.25500000920E-02 0. -1.
    10030    2    1    2    0    0  0.00000000000E+00  0.00000000000E+00  0.53527595888E+03  0.33253714046E+04  0.32820077127E+04 0.  0.
        4    1    3    3  502    0  0.70908155548E+03  0.12610065088E+04  0.10524415609E+04  0.17890133928E+04  0.12699999809E+01 0.  1.
       -4    1    3    3    0  502 -0.70908155548E+03 -0.12610065088E+04 -0.51716560205E+03  0.15363580118E+04  0.12699999809E+01 0. -1.
</event>
<event>
 5   0  0.3442126E-07  0.4117570E+04  0.7818609E-02  0.7981240E-01
       -2   -1    0    0    0  501  0.00000000000E+00  0.00000000000E+00  0.22480310113E+04  0.22480310113E+04  0.25500000920E-02 0. -1.
        2   -1    0    0  501    0  0.00000000000E+00  0.00000000000E+00 -0.18854705081E+04  0.18854705081E+04  0.25500000920E-02 0.  1.
    10030    2    1    2    0    0  0.00000000000E+00  0.00000000000E+00  0.36256050327E+03  0.41335015194E+04  0.41175702413E+04 0.  0.
        2    1    3    3  502    0  0.12688958832E+04 -0.31132040085E+02 -0.14459572474E+04  0.19240213948E+04  0.25500000920E-02 0.  1.
       -2    1    3    3    0  502 -0.12688958832E+04  0.31132040085E+02  0.18085177507E+04  0.22094801246E+04  0.25500000920E-02 0. -1.
</event>
<event>
 5   0  0.3442126E-07  0.3769100E+04  0.7818609E-02  0.8052819E-01
        2   -1    0    0  501    0  0.00000000000E+00  0.00000000000E+00  0.23933747608E+04  0.23933747608E+04  0.25500000920E-02 0.  1.
       -2   -1    0    0    0  501  0.00000000000E+00  0.00000000000E+00 -0.14839001103E+04  0.14839001103E+04  0.25500000920E-02 0. -1.
    10030    2    1    2    0    0  0.00000000000E+00  0.00000000000E+00  0.90947465058E+03  0.38772748711E+04  0.37691001958E+04 0.  0.
        2    1    3    3  502    0  0.83035467504E+03  0.74007127263E+03  0.20196928189E+04  0.23057218951E+04  0.25500000920E-02 0.  1.
       -2    1    3    3    0  502 -0.83035467504E+03 -0.74007127263E+03 -0.11102181683E+04  0.15715529760E+04  0.25500000920E-02 0. -1.
</event>
<event>
 5   0  0.3539010E-07  0.3817038E+04  0.7818609E-02  0.8042508E-01
        2   -1    0    0  501    0  0.00000000000E+00  0.00000000000E+00  0.16119562302E+04  0.16119562302E+04  0.25500000920E-02 0. -1.
       -2   -1    0    0    0  501  0.00000000000E+00  0.00000000000E+00 -0.22596422322E+04  0.22596422322E+04  0.25500000920E-02 0.  1.
    10030    2    1    2    0    0  0.00000000000E+00  0.00000000000E+00 -0.64768600200E+03  0.38715984624E+04  0.38170377908E+04 0.  0.
        1    1    3    3  502    0 -0.15277786256E+04  0.57840448710E+03  0.67706787949E+03  0.17683552225E+04  0.50400001928E-02 0. -1.
       -1    1    3    3    0  502  0.15277786256E+04 -0.57840448710E+03 -0.13247538815E+04  0.21032432399E+04  0.50400001928E-02 0.  1.
</event>
<event>
 5   0  0.3377396E-07  0.3806730E+04  0.7818609E-02  0.8044712E-01
       -2   -1    0    0    0  501  0.00000000000E+00  0.00000000000E+00  0.29863866660E+04  0.29863866660E+04  0.25500000920E-02 0.  1.
        2   -1    0    0  501    0  0.00000000000E+00  0.00000000000E+00 -0.12131042060E+04  0.12131042060E+04  0.25500000920E-02 0. -1.
    10030    2    1    2    0    0  0.00000000000E+00  0.00000000000E+00  0.17732824600E+04  0.41994908719E+04  0.38067299485E+04 0.  0.
        5    1    3    3  502    0 -0.67627063799E+03 -0.15024434439E+04  0.19379030653E+04  0.25436526215E+04  0.46999998093E+01 0.  1.
       -5    1    3    3    0  502  0.67627063799E+03  0.15024434439E+04 -0.16462060534E+03  0.16558382505E+04  0.46999998093E+01 0. -1.
</event>
<event>
 5   0  0.1070988E-07  0.4110443E+04  0.7818609E-02  0.7982630E-01
        1   -1    0    0  501    0  0.00000000000E+00  0.00000000000E+00  0.28289998583E+04  0.28289998583E+04  0.50400001928E-02 0.  1.
       -1   -1    0    0    0  501  0.00000000000E+00  0.00000000000E+00 -0.14930845458E+04  0.14930845458E+04  0.50400001928E-02 0. -1.
    10030    2    1    2    0    0  0.00000000000E+00  0.00000000000E+00  0.13359153125E+04  0.43220844042E+04  0.41104432698E+04 0.  0.
        2    1    3    3  502    0 -0.86653154619E+03  0.68669986569E+03  0.24896453665E+04  0.27241086022E+04  0.25500000920E-02 0.  1.
       -2    1    3    3    0  502  0.86653154619E+03 -0.68669986569E+03 -0.11537300540E+04  0.15979758019E+04  0.25500000920E-02 0. -1.
</event>
<event>
 5   0  0.1070988E-07  0.3799963E+04  0.7818609E-02  0.8046163E-01
        1   -1    0    0  501    0  0.00000000000E+00  0.00000000000E+00  0.19119344451E+04  0.19119344451E+04  0.50400001928E-02 0. -1.
       -1   -1    0    0    0  501  0.00000000000E+00  0.00000000000E+00 -0.18881030690E+04  0.18881030690E+04  0.50400001928E-02 0.  1.
    10030    2    1    2    0    0  0.00000000000E+00  0.00000000000E+00  0.23831376029E+02  0.38000375141E+04  0.37999627859E+04 0.  0.
        3    1    3    3  502    0 -0.96419149939E+03 -0.13135765488E+04  0.98906370098E+03  0.19061467970E+04  0.10100000352E+00 0. -1.
       -3    1    3    3    0  502  0.96419149939E+03  0.13135765488E+04 -0.96523232495E+03  0.18938907171E+04  0.10100000352E+00 0.  1.
</event>
<event>
 5   0  0.1085771E-07  0.3494199E+04  0.7818609E-02  0.8115166E-01
       -1   -1    0    0    0  501  0.00000000000E+00  0.00000000000E+00  0.16439281363E+04  0.16439281363E+04  0.50400001928E-02 0. -1.
        1   -1    0    0  501    0  0.00000000000E+00  0.00000000000E+00 -0.18567456544E+04  0.18567456544E+04  0.50400001928E-02 0.  1.
    10030    2    1    2    0    0  0.00000000000E+00  0.00000000000E+00 -0.21281751806E+03  0.35006737907E+04  0.34941988628E+04 0.  0.
        1    1    3    3  502    0 -0.78068360353E+03  0.89550424570E+03  0.11769652651E+04  0.16723163511E+04  0.50400001928E-02 0. -1.
       -1    1    3    3    0  502  0.78068360353E+03 -0.89550424570E+03 -0.13897827831E+04  0.18283574397E+04  0.50400001928E-02 0.  1.
</event>
<event>
 5   0  0.1070988E-07  0.3820072E+04  0.7818609E-02  0.8041861E-01
       -1   -1    0    0    0  501  0.00000000000E+00  0.00000000000E+00  0.31827688452E+04  0.31827688452E+04  0.50400001928E-02 0.  1.
        1   -1    0    0  501    0  0.00000000000E+00  0.00000000000E+00 -0.11462464237E+04  0.11462464237E+04  0.50400001928E-02 0. -1.
    10030    2    1    2    0    0  0.00000000000E+00  0.00000000000E+00  0.20365224215E+04  0.43290152689E+04  0.38200719397E+04 0.  0.
        2    1    3    3  502    0  0.11226799976E+04  0.42125596072E+03  0.27030680175E+04  0.29571005510E+04  0.25500000920E-02 0.  1.
       -2    1    3    3    0  502 -0.11226799976E+04 -0.42125596072E+03 -0.66654559605E+03  0.13719147178E+04  0.25500000920E-02 0. -1.
</event>
<event>
 5   0  0.3327241E-07  0.3799760E+04  0.7818609E-02  0.8046206E-01
        2   -1    0    0  501    0  0.00000000000E+00  0.00000000000E+00  0.19312211824E+04  0.19312211824E+04  0.25500000920E-02 0.  1.
       -2   -1    0    0    0  501  0.00000000000E+00  0.00000000000E+00 -0.18690471336E+04  0.18690471336E+04  0.25500000920E-02 0. -1.
    10030    2    1    2    0    0  0.00000000000E+00  0.00000000000E+00  0.62174048780E+02  0.38002683160E+04  0.37997596846E+04 0.  0.
        3    1    3    3  502    0  0.97890279593E+03  0.10375136965E+04  0.12861884929E+04  0.19206681660E+04  0.10100000352E+00 0.  1.
       -3    1    3    3    0  502 -0.97890279593E+03 -0.10375136965E+04 -0.12240144441E+04  0.18796001500E+04  0.10100000352E+00 0. -1.
</event>
<event>
 5   0  0.1070988E-07  0.3145374E+04  0.7818609E-02  0.8203395E-01
        1   -1    0    0  501    0  0.00000000000E+00  0.00000000000E+00  0.12586774558E+04  0.12586774559E+04  0.50400001928E-02 0.  1.
       -1   -1    0    0    0  501  0.00000000000E+00  0.00000000000E+00 -0.19650339647E+04  0.19650339648E+04  0.50400001928E-02 0. -1.
    10030    2    1    2    0    0  0.00000000000E+00  0.00000000000E+00 -0.70635650891E+03  0.32237114206E+04  0.31453737148E+04 0.  0.
        2    1    3    3  502    0  0.30438316753E+02 -0.70491099225E+03  0.10873586710E+04  0.12962155984E+04  0.25500000920E-02 0.  1.
       -2    1    3    3    0  502 -0.30438316753E+02  0.70491099225E+03 -0.17937151799E+04  0.19274958222E+04  0.25500000920E-02 0. -1.
</event>
<event>
 5   0  0.3377396E-07  0.3760072E+04  0.7818609E-02  0.8054778E-01
        2   -1    0    0  501    0  0.00000000000E+00  0.00000000000E+00  0.20345778376E+04  0.20345778376E+04  0.25500000920E-02 0. -1.
       -2   -1    0    0    0  501  0.00000000000E+00  0.00000000000E+00 -0.17372330272E+04  0.17372330272E+04  0.25500000920E-02 0.  1.
    10030    2    1    2    0    0  0.00000000000E+00  0.00000000000E+00  0.29734481045E+03  0.37718108648E+04  0.37600722418E+04 0.  0.
        5    1    3    3  502    0  0.10604079833E+04  0.15247684690E+04  0.44135331715E+03  0.19089784744E+04  0.46999998093E+01 0. -1.
       -5    1    3    3    0  502 -0.10604079833E+04 -0.15247684690E+04 -0.14400850670E+03  0.18628323905E+04  0.46999998093E+01 0.  1.
</event>
<event>
 5   0  0.3539010E-07  0.3795213E+04  0.7818609E-02  0.8047183E-01
       -2   -1    0    0    0  501  0.00000000000E+00  0.00000000000E+00  0.16836215452E+04  0.16836215452E+04  0.25500000920E-02 0.  1.
        2   -1    0    0  501    0  0.00000000000E+00  0.00000000000E+00 -0.21387886236E+04  0.21387886236E+04  0.25500000920E-02 0. -1.
    10030    2    1    2    0    0  0.00000000000E+00  0.00000000000E+00 -0.45516707843E+03  0.38224101688E+04  0.37952130941E+04 0.  0.
        1    1    3    3  502    0 -0.17238675418E+04 -0.28477457727E+03  0.51805602071E+03  0.18224154033E+04  0.50400001928E-02 0.  1.
       -1    1    3    3    0  502  0.17238675418E+04  0.28477457727E+03 -0.97322309914E+03  0.19999947656E+04  0.50400001928E-02 0. -1.
</event>
<event>
 5   0  0.1070988E-07  0.3790052E+04  0.7818609E-02  0.8048293E-01
       -1   -1    0    0    0  501  0.00000000000E+00  0.00000000000E+00  0.15629434538E+04  0.15629434538E+04  0.50400001928E-02 0.  1.
        1   -1    0    0  501    0  0.00000000000E+00  0.00000000000E+00 -0.22976672345E+04  0.22976672345E+04  0.50400001928E-02 0. -1.
    10030    2    1    2    0    0  0.00000000000E+00  0.00000000000E+00 -0.73472378068E+03  0.38606106883E+04  0.37900522230E+04 0.  0.
        5    1    3    3  502    0 -0.69449691601E+03  0.14579449328E+04  0.64264810417E+03  0.17380874746E+04  0.46999998093E+01 0.  1.
       -5    1    3    3    0  502  0.69449691601E+03 -0.14579449328E+04 -0.13773718848E+04  0.21225232137E+04  0.46999998093E+01 0. -1.
</event>
<event>
 5   0  0.1070988E-07  0.3831061E+04  0.7818609E-02  0.8039522E-01
        1   -1    0    0  501    0  0.00000000000E+00  0.00000000000E+00  0.20058527242E+04  0.20058527242E+04  0.50400001928E-02 0.  1.
       -1   -1    0    0    0  501  0.00000000000E+00  0.00000000000E+00 -0.18292754394E+04  0.18292754394E+04  0.50400001928E-02 0. -1.
    10030    2    1    2    0    0  0.00000000000E+00  0.00000000000E+00  0.17657728480E+03  0.38351281636E+04  0.38310610141E+04 0.  0.
        3    1    3    3  502    0  0.12154803751E+04  0.14767740527E+04  0.19329503646E+03  0.19223987948E+04  0.10100000352E+00 0.  1.
       -3    1    3    3    0  502 -0.12154803751E+04 -0.14767740527E+04 -0.16717751661E+02  0.19127293688E+04  0.10100000352E+00 0. -1.
</event>
<event>
 5   0  0.1085771E-07  0.3986215E+04  0.7818609E-02  0.8007333E-01
       -1   -1    0    0    0  501  0.00000000000E+00  0.00000000000E+00  0.31535183364E+04  0.31535183364E+04  0.50400001928E-02 0. -1.
        1   -1    0    0  501    0  0.00000000000E+00  0.00000000000E+00 -0.12596967959E+04  0.12596967959E+04  0.50400001928E-02 0.  1.
    10030    2    1    2    0    0  0.00000000000E+00  0.00000000000E+00  0.18938215405E+04  0.44132151324E+04  0.39862147179E+04 0.  0.
        1    1    3    3  502    0 -0.13165486977E+04  0.80118287235E+03 -0.45230687662E+03  0.16061681042E+04  0.50400001928E-02 0.  1.
       -1    1    3    3    0  502  0.13165486977E+04 -0.80118287235E+03  0.23461284171E+04  0.28070470281E+04  0.50400001928E-02 0. -1.
</event>
<event>
 5   0  0.1070988E-07  0.3776830E+04  0.7818609E-02  0.8051146E-01
        1   -1    0    0  501    0  0.00000000000E+00  0.00000000000E+00  0.24765575219E+04  0.24765575219E+04  0.50400001928E-02 0. -1.
       -1   -1    0    0    0  501  0.00000000000E+00  0.00000000000E+00 -0.14399464967E+04  0.14399464967E+04  0.50400001928E-02 0.  1.
    10030    2    1    2    0    0  0.00000000000E+00  0.00000000000E+00  0.10366110251E+04  0.39165040186E+04  0.37768295315E+04 0.  0.
        5    1    3    3  502    0  0.10800805055E+04  0.43824818208E+03  0.20590013643E+04  0.23660397452E+04  0.46999998093E+01 0. -1.
       -5    1    3    3    0  502 -0.10800805055E+04 -0.43824818208E+03 -0.10223903392E+04  0.15504642734E+04  0.46999998093E+01 0.  1.
</event>
<event>
 5   0  0.3442126E-07  0.3818467E+04  0.7818609E-02  0.8042203E-01
       -2   -1    0    0    0  501  0.00000000000E+00  0.00000000000E+00  0.12837553747E+04  0.12837553747E+04  0.25500000920E-02 0. -1.
        2   -1    0    0  501    0  0.00000000000E+00  0.00000000000E+00 -0.28394604988E+04  0.28394604988E+04  0.25500000920E-02 0.  1.
    10030    2    1    2    0    0  0.00000000000E+00  0.00000000000E+00 -0.15557051241E+04  0.41232158735E+04  0.38184670624E+04 0.  0.
        2    1    3    3  502    0 -0.16076968163E+04  0.92755498326E+03 -0.29479586724E+03  0.18793487977E+04  0.25500000920E-02 0. -1.
       -2    1    3    3    0  502  0.16076968163E+04 -0.92755498326E+03 -0.12609092568E+04  0.22438670758E+04  0.25500000920E-02 0.  1.
</event>
<event>
 5   0  0.1070988E-07  0.3793202E+04  0.7818609E-02  0.8047615E-01
       -1   -1    0    0    0  501  0.00000000000E+00  0.00000000000E+00  0.12840295215E+04  0.12840295215E+04  0.50400001928E-02 0.  1.
        1   -1    0    0  501    0  0.00000000000E+00  0.00000000000E+00 -0.28014110219E+04  0.28014110219E+04  0.50400001928E-02 0. -1.
    10030    2    1    2    0    0  0.00000000000E+00  0.00000000000E+00 -0.15173815004E+04  0.40854405434E+04  0.37932015259E+04 0.  0.
        2    1    3    3  502    0  0.56797427800E+03 -0.15509350024E+04 -0.17627698467E+04  0.24156472620E+04  0.25500000920E-02 0. -1.
       -2    1    3    3    0  502 -0.56797427800E+03  0.15509350024E+04  0.24538834633E+03  0.16697932814E+04  0.25500000920E-02 0.  1.
</event>
<event>
 5   0  0.3377396E-07  0.3794581E+04  0.7818609E-02  0.8047319E-01
       -2   -1    0    0    0  501  0.00000000000E+00  0.00000000000E+00  0.17325456243E+04  0.17325456243E+04  0.25500000920E-02 0. -1.
        2   -1    0    0  501    0  0.00000000000E+00  0.00000000000E+00 -0.20777007119E+04  0.20777007119E+04  0.25500000920E-02 0.  1.
    10030    2    1    2    0    0  0.00000000000E+00  0.00000000000E+00 -0.34515508765E+03  0.38102463362E+04  0.37945810188E+04 0.  0.
        5    1    3    3  502    0  0.96103734725E+03  0.15438213292E+04  0.37068475581E+03  0.18559111933E+04  0.46999998093E+01 0. -1.
       -5    1    3    3    0  502 -0.96103734725E+03 -0.15438213292E+04 -0.71583984346E+03  0.19543351429E+04  0.46999998093E+01 0.  1.
</event>
<event>
 5   0  0.1070988E-07  0.3735340E+04  0.7818609E-02  0.8060175E-01
        1   -1    0    0  501    0  0.00000000000E+00  0.00000000000E+00  0.22372592350E+04  0.22372592350E+04  0.50400001928E-02 0. -1.
       -1   -1    0    0    0  501  0.00000000000E+00  0.00000000000E+00 -0.15591356546E+04  0.15591356546E+04  0.50400001928E-02 0.  1.
    10030    2    1    2    0    0  0.00000000000E+00  0.00000000000E+00  0.67812358034E+03  0.37963948896E+04  0.37353396857E+04 0.  0.
        3    1    3    3  502    0  0.11185850652E+04  0.48147619816E+03  0.17782364167E+04  0.21552671857E+04  0.10100000352E+00 0. -1.
       -3    1    3    3    0  502 -0.11185850652E+04 -0.48147619816E+03 -0.11001128364E+04  0.16411277039E+04  0.10100000352E+00 0.  1.
</event>
<event>
 5   0  0.3327241E-07  0.3122187E+04  0.7818609E-02  0.8209675E-01
       -2   -1    0    0    0  501  0.00000000000E+00  0.00000000000E+00  0.13721737134E+04  0.13721737134E+04  0.25500000920E-02 0. -1.
        2   -1    0    0  501    0  0.00000000000E+00  0.00000000000E+00 -0.17760231268E+04  0.17760231268E+04  0.25500000920E-02 0.  1.
    10030    2    1    2    0    0  0.00000000000E+00  0.00000000000E+00 -0.40384941336E+03  0.31481968402E+04  0.31221865729E+04 0.  0.
        3    1    3    3  502    0 -0.11797647920E+04  0.63595318717E+03  0.60520035695E+03  0.14705607444E+04  0.10100000352E+00 0. -1.
       -3    1    3    3    0  502  0.11797647920E+04 -0.63595318717E+03 -0.10090497703E+04  0.16776360958E+04  0.10100000352E+00 0.  1.
</event>
<event>
 5   0  0.3377396E-07  0.3765822E+04  0.7818609E-02  0.8053529E-01
        2   -1    0    0  501    0  0.00000000000E+00  0.00000000000E+00  0.16373843582E+04  0.16373843582E+04  0.25500000920E-02 0. -1.
       -2   -1    0    0    0  501  0.00000000000E+00  0.00000000000E+00 -0.21652547641E+04  0.21652547641E+04  0.25500000920E-02 0.  1.
    10030    2    1    2    0    0  0.00000000000E+00  0.00000000000E+00 -0.52787040595E+03  0.38026391223E+04  0.37658222381E+04 0.  0.
        5    1    3    3  502    0 -0.84730042452E+03 -0.85013119820E+03  0.12010035962E+04  0.16979613634E+04  0.46999998093E+01 0. -1.
       -5    1    3    3    0  502  0.84730042452E+03  0.85013119820E+03 -0.17288740021E+04  0.21046777589E+04  0.46999998093E+01 0.  1.
</event>
<event>
 5   0  0.3377396E-07  0.3796479E+04  0.7818609E-02  0.8046911E-01
        2   -1    0    0  501    0  0.00000000000E+00  0.00000000000E+00  0.28087343694E+04  0.28087343694E+04  0.25500000920E-02 0.  1.
       -2   -1    0    0    0  501  0.00000000000E+00  0.00000000000E+00 -0.12828959719E+04  0.12828959719E+04  0.25500000920E-02 0. -1.
    10030    2    1    2    0    0  0.00000000000E+00  0.00000000000E+00  0.15258383975E+04  0.40916303413E+04  0.37964794263E+04 0.  0.
        5    1    3    3  502    0  0.13409169063E+04  0.26032436674E+03 -0.65768590712E+03  0.15160474161E+04  0.46999998093E+01 0. -1.
       -5    1    3    3    0  502 -0.13409169063E+04 -0.26032436674E+03  0.21835243046E+04  0.25755829252E+04  0.46999998093E+01 0.  1.
</event>
<event>
 5   0  0.3327241E-07  0.3785477E+04  0.7818609E-02  0.8049279E-01
        2   -1    0    0  501    0  0.00000000000E+00  0.00000000000E+00  0.26785111900E+04  0.26785111900E+04  0.25500000920E-02 0. -1.
       -2   -1    0    0    0  501  0.00000000000E+00  0.00000000000E+00 -0.13374813914E+04  0.13374813914E+04  0.25500000920E-02 0.  1.
    10030    2    1    2    0    0  0.00000000000E+00  0.00000000000E+00  0.13410297986E+04  0.40159925814E+04  0.37854769176E+04 0.  0.
        3    1    3    3  502    0  0.13368872911E+04 -0.20513278150E+03 -0.73416414366E+03  0.15389425224E+04  0.10100000352E+00 0.  1.
       -3    1    3    3    0  502 -0.13368872911E+04  0.20513278150E+03  0.20751939422E+04  0.24770500591E+04  0.10100000352E+00 0. -1.
</event>
<event>
 5   0  0.1085771E-07  0.3846569E+04  0.7818609E-02  0.8036235E-01
        1   -1    0    0  501    0  0.00000000000E+00  0.00000000000E+00  0.19941564956E+04  0.19941564956E+04  0.50400001928E-02 0.  1.
       -1   -1    0    0    0  501  0.00000000000E+00  0.00000000000E+00 -0.18549309142E+04  0.18549309142E+04  0.50400001928E-02 0. -1.
    10030    2    1    2    0    0  0.00000000000E+00  0.00000000000E+00  0.13922558143E+03  0.38490874098E+04  0.38465686171E+04 0.  0.
        1    1    3    3  502    0  0.87823554243E+03  0.58541782735E+03  0.16784624884E+04  0.19827375080E+04  0.50400001928E-02 0.  1.
       -1    1    3    3    0  502 -0.87823554243E+03 -0.58541782735E+03 -0.15392369069E+04  0.18663499019E+04  0.50400001928E-02 0. -1.
</event>
<event>
 5   0  0.1084315E-07  0.3782419E+04  0.7818609E-02  0.8049938E-01
        1   -1    0    0  501    0  0.00000000000E+00  0.00000000000E+00  0.30973019345E+04  0.30973019345E+04  0.50400001928E-02 0. -1.
       -1   -1    0    0    0  501  0.00000000000E+00  0.00000000000E+00 -0.11547704065E+04  0.11547704065E+04  0.50400001928E-02 0.  1.
    10030    2    1    2    0    0  0.00000000000E+00  0.00000000000E+00  0.19425315280E+04  0.42520723409E+04  0.37824185986E+04 0.  0.
        4    1    3    3  502    0  0.16355769851E+04  0.90614306491E+03  0.65238304852E+03  0.19803566808E+04  0.12699999809E+01 0. -1.
       -4    1    3    3    0  502 -0.16355769851E+04 -0.90614306491E+03  0.12901484795E+04  0.22717156601E+04  0.12699999809E+01 0.  1.
</event>
<event>
 5   0  0.1070988E-07  0.3757992E+04  0.7818609E-02  0.8055230E-01
       -3   -1    0    0    0  501  0.00000000000E+00  0.00000000000E+00  0.12731507413E+04  0.12731507453E+04  0.10100000352E+00 0. -1.
        3   -1    0    0  501    0  0.00000000000E+00  0.00000000000E+00 -0.27731410322E+04  0.27731410341E+04  0.10100000352E+00 0.  1.
    10030    2    1    2    0    0  0.00000000000E+00  0.00000000000E+00 -0.14999902909E+04  0.40462917794E+04  0.37579923219E+04 0.  0.
        2    1    3    3  502    0  0.24259145228E+03  0.58512824590E+02  0.12552289055E+04  0.12797945024E+04  0.25500000920E-02 0. -1.
       -2    1    3    3    0  502 -0.24259145228E+03 -0.58512824590E+02 -0.27552191964E+04  0.27664972770E+04  0.25500000920E-02 0.  1.
</event>
<event>
 5   0  0.3442126E-07  0.3782896E+04  0.7818609E-02  0.8049835E-01
       -2   -1    0    0    0  501  0.00000000000E+00  0.00000000000E+00  0.21487520316E+04  0.21487520316E+04  0.25500000920E-02 0. -1.
        2   -1    0    0  501    0  0.00000000000E+00  0.00000000000E+00 -0.16649553957E+04  0.16649553957E+04  0.25500000920E-02 0.  1.
    10030    2    1    2    0    0  0.00000000000E+00  0.00000000000E+00  0.48379663594E+03  0.38137074273E+04  0.37828963978E+04 0.  0.
        2    1    3    3  502    0 -0.13644879109E+02  0.10488155401E+04 -0.13448896337E+04  0.17055580748E+04  0.25500000920E-02 0.  1.
       -2    1    3    3    0  502  0.13644879109E+02 -0.10488155401E+04  0.18286862696E+04  0.21081493525E+04  0.25500000920E-02 0. -1.
</event>
<event>
 5   0  0.1070988E-07  0.3903080E+04  0.7818609E-02  0.8024389E-01
        1   -1    0    0  501    0  0.00000000000E+00  0.00000000000E+00  0.12375389299E+04  0.12375389299E+04  0.50400001928E-02 0. -1.
       -1   -1    0    0    0  501  0.00000000000E+00  0.00000000000E+00 -0.30774855981E+04  0.30774855981E+04  0.50400001928E-02 0.  1.
    10030    2    1    2    0    0  0.00000000000E+00  0.00000000000E+00 -0.18399466682E+04  0.43150245281E+04  0.39030799295E+04 0.  0.
        3    1    3    3  502    0  0.42351438591E+03 -0.34136949640E+03 -0.29919784857E+04  0.30410249649E+04  0.10100000352E+00 0.  1.
       -3    1    3    3    0  502 -0.42351438591E+03  0.34136949640E+03  0.11520318175E+04  0.12739995631E+04  0.10100000352E+00 0. -1.
</event>
<event>
 5   0  0.1085771E-07  0.3835147E+04  0.7818609E-02  0.8038654E-01
        1   -1    0    0  501    0  0.00000000000E+00  0.00000000000E+00  0.15498378403E+04  0.15498378403E+04  0.50400001928E-02 0. -1.
       -1   -1    0    0    0  501  0.00000000000E+00  0.00000000000E+00 -0.23725635554E+04  0.23725635554E+04  0.50400001928E-02 0.  1.
    10030    2    1    2    0    0  0.00000000000E+00  0.00000000000E+00 -0.82272571515E+03  0.39224013957E+04  0.38351473383E+04 0.  0.
        1    1    3    3  502    0 -0.26766006691E+03 -0.15752111126E+04  0.67302196513E+03  0.17337504222E+04  0.50400001928E-02 0. -1.
       -1    1    3    3    0  502  0.26766006691E+03  0.15752111126E+04 -0.14957476803E+04  0.21886509735E+04  0.50400001928E-02 0.  1.
</event>
<event>
 5   0  0.3509843E-07  0.3836278E+04  0.7818609E-02  0.8038414E-01
        2   -1    0    0  501    0  0.00000000000E+00  0.00000000000E+00  0.36628295434E+04  0.36628295434E+04  0.25500000920E-02 0. -1.
       -2   -1    0    0    0  501  0.00000000000E+00  0.00000000000E+00 -0.10044851445E+04  0.10044851445E+04  0.25500000920E-02 0.  1.
    10030    2    1    2    0    0  0.00000000000E+00  0.00000000000E+00  0.26583443989E+04  0.46673146880E+04  0.38362783337E+04 0.  0.
        4    1    3    3  502    0  0.53769909332E+03 -0.88333782798E+02 -0.90833870787E+03  0.10592468991E+04  0.12699999809E+01 0.  1.
       -4    1    3    3    0  502 -0.53769909332E+03  0.88333782798E+02  0.35666831068E+04  0.36080677889E+04  0.12699999809E+01 0. -1.
</event>
<event>
 5   0  0.1084315E-07  0.3833123E+04  0.7818609E-02  0.8039084E-01
       -1   -1    0    0    0  501  0.00000000000E+00  0.00000000000E+00  0.27024798804E+04  0.27024798804E+04  0.50400001928E-02 0. -1.
        1   -1    0    0  501    0  0.00000000000E+00  0.00000000000E+00 -0.13591991502E+04  0.13591991502E+04  0.50400001928E-02 0.  1.
    10030    2    1    2    0    0  0.00000000000E+00  0.00000000000E+00  0.13432807302E+04  0.40616790306E+04  0.38331231949E+04 0.  0.
        4    1    3    3  502    0 -0.20396931990E+03 -0.77907284069E+03  0.25144916871E+04  0.26403083214E+04  0.12699999809E+01 0. -1.
       -4    1    3    3    0  502  0.20396931990E+03  0.77907284069E+03 -0.11712109569E+04  0.14213707092E+04  0.12699999809E+01 0.  1.
</event>
<event>
 5   0  0.1084315E-07  0.3587254E+04  0.7818609E-02  0.8093418E-01
       -1   -1    0    0    0  501  0.00000000000E+00  0.00000000000E+00  0.15162242662E+04  0.15162242663E+04  0.50400001928E-02 0. -1.
        1   -1    0    0  501    0  0.00000000000E+00  0.00000000000E+00 -0.21217820643E+04  0.21217820643E+04  0.50400001928E-02 0.  1.
    10030    2    1    2    0    0  0.00000000000E+00  0.00000000000E+00 -0.60555779807E+03  0.36380063306E+04  0.35872537985E+04 0.  0.
        4    1    3    3  502    0  0.25299453420E+03  0.90156690599E+03  0.12486576726E+04  0.15607615822E+04  0.12699999809E+01 0. -1.
       -4    1    3    3    0  502 -0.25299453420E+03 -0.90156690599E+03 -0.18542154706E+04  0.20772447484E+04  0.12699999809E+01 0.  1.
</event>
<event>
 5   0  0.1085771E-07  0.3890085E+04  0.7818609E-02  0.8027095E-01
        1   -1    0    0  501    0  0.00000000000E+00  0.00000000000E+00  0.25053300625E+04  0.25053300625E+04  0.50400001928E-02 0.  1.
       -1   -1    0    0    0  501  0.00000000000E+00  0.00000000000E+00 -0.15100564679E+04  0.15100564679E+04  0.50400001928E-02 0. -1.
    10030    2    1    2    0    0  0.00000000000E+00  0.00000000000E+00  0.99527359460E+03  0.40153865303E+04  0.38900847625E+04 0.  0.
        1    1    3    3  502    0 -0.12016279711E+04 -0.98774078085E+02 -0.10778031961E+04  0.16171969049E+04  0.50400001928E-02 0. -1.
       -1    1    3    3    0  502  0.12016279711E+04  0.98774078085E+02  0.20730767907E+04  0.23981896255E+04  0.50400001928E-02 0.  1.
</event>
<event>
 5   0  0.3539010E-07  0.3807107E+04  0.7818609E-02  0.8044632E-01
       -2   -1    0    0    0  501  0.00000000000E+00  0.00000000000E+00  0.15466695193E+04  0.15466695193E+04  0.25500000920E-02 0. -1.
        2   -1    0    0  501    0  0.00000000000E+00  0.00000000000E+00 -0.23427856702E+04  0.23427856702E+04  0.25500000920E-02 0.  1.
    10030    2    1    2    0    0  0.00000000000E+00  0.00000000000E+00 -0.79611615095E+03  0.38894551895E+04  0.38071066107E+04 0.  0.
        1    1    3    3  502    0 -0.47402166910E+03  0.14593486662E+03 -0.22756136688E+04  0.23290365170E+04  0.50400001928E-02 0.  1.
       -1    1    3    3    0  502  0.47402166910E+03 -0.14593486662E+03  0.14794975178E+04  0.15604186725E+04  0.50400001928E-02 0. -1.
</event>
<event>
 5   0  0.1070988E-07  0.4099926E+04  0.7818609E-02  0.7984686E-01
        1   -1    0    0  501    0  0.00000000000E+00  0.00000000000E+00  0.21028238862E+04  0.21028238862E+04  0.50400001928E-02 0. -1.
       -1   -1    0    0    0  501  0.00000000000E+00  0.00000000000E+00 -0.19984307373E+04  0.19984307374E+04  0.50400001928E-02 0.  1.
    10030    2    1    2    0    0  0.00000000000E+00  0.00000000000E+00  0.10439314881E+03  0.41012546235E+04  0.40999257990E+04 0.  0.
        3    1    3    3  502    0  0.74719617281E+03  0.14169135408E+04  0.13318303871E+04  0.20831990527E+04  0.10100000352E+00 0. -1.
       -3    1    3    3    0  502 -0.74719617281E+03 -0.14169135408E+04 -0.12274372383E+04  0.20180555708E+04  0.10100000352E+00 0.  1.
</event>
<event>
 5   0  0.3442126E-07  0.3812705E+04  0.7818609E-02  0.8043434E-01
        2   -1    0    0  501    0  0.00000000000E+00  0.00000000000E+00  0.19883332520E+04  0.19883332520E+04  0.25500000920E-02 0.  1.
       -2   -1    0    0    0  501  0.00000000000E+00  0.00000000000E+00 -0.18277515293E+04  0.18277515293E+04  0.25500000920E-02 0. -1.
    10030    2    1    2    0    0  0.00000000000E+00  0.00000000000E+00  0.16058172275E+03  0.38160847813E+04  0.38127046264E+04 0.  0.
        2    1    3    3  502    0 -0.81362653796E+03 -0.43925237417E+03  0.17488766166E+04  0.19782568619E+04  0.25500000920E-02 0.  1.
       -2    1    3    3    0  502  0.81362653796E+03  0.43925237417E+03 -0.15882948939E+04  0.18378279194E+04  0.25500000920E-02 0. -1.
</event>
<event>
 5   0  0.3327241E-07  0.3773602E+04  0.7818609E-02  0.8051844E-01
        2   -1    0    0  501    0  0.00000000000E+00  0.00000000000E+00  0.17976746297E+04  0.17976746297E+04  0.25500000920E-02 0.  1.
       -2   -1    0    0    0  501  0.00000000000E+00  0.00000000000E+00 -0.19803459317E+04  0.19803459317E+04  0.25500000920E-02 0. -1.
    10030    2    1    2    0    0  0.00000000000E+00  0.00000000000E+00 -0.18267130198E+03  0.37780205615E+04  0.37736018018E+04 0.  0.
        3    1    3    3  502    0 -0.29209533225E+03  0.52602534493E+03 -0.18817236413E+04  0.19755774394E+04  0.10100000352E+00 0. -1.
       -3    1    3    3    0  502  0.29209533225E+03 -0.52602534493E+03  0.16990523393E+04  0.18024431221E+04  0.10100000352E+00 0.  1.
</event>
<event>
 5   0  0.1070988E-07  0.3814613E+04  0.7818609E-02  0.8043026E-01
       -1   -1    0    0    0  501  0.00000000000E+00  0.00000000000E+00  0.31733614481E+04  0.31733614481E+04  0.50400001928E-02 0.  1.
        1   -1    0    0  501    0  0.00000000000E+00  0.00000000000E+00 -0.11463613418E+04  0.11463613418E+04  0.50400001928E-02 0. -1.
    10030    2    1    2    0    0  0.00000000000E+00  0.00000000000E+00  0.20270001063E+04  0.43197227899E+04  0.38146134208E+04 0.  0.
        5    1    3    3  502    0  0.15170760711E+04 -0.42615296581E+03  0.22303426582E+04  0.27308563892E+04  0.46999998093E+01 0.  1.
       -5    1    3    3    0  502 -0.15170760711E+04  0.42615296581E+03 -0.20334255190E+03  0.15888664006E+04  0.46999998093E+01 0. -1.
</event>
<event>
 5   0  0.3509843E-07  0.3793971E+04  0.7818609E-02  0.8047450E-01
        2   -1    0    0  501    0  0.00000000000E+00  0.00000000000E+00  0.18374380302E+04  0.18374380302E+04  0.25500000920E-02 0.  1.
       -2   -1    0    0    0  501  0.00000000000E+00  0.00000000000E+00 -0.19584624497E+04  0.19584624497E+04  0.25500000920E-02 0. -1.
    10030    2    1    2    0    0  0.00000000000E+00  0.00000000000E+00 -0.12102441950E+03  0.37959004799E+04  0.37939706829E+04 0.  0.
        4    1    3    3  502    0 -0.16267145917E+04 -0.96364200694E+03 -0.21468631509E+03  0.19028657618E+04  0.12699999809E+01 0. -1.
       -4    1    3    3    0  502  0.16267145917E+04  0.96364200694E+03  0.93661895581E+02  0.18930347181E+04  0.12699999809E+01 0.  1.
</event>
<event>
 5   0  0.3509843E-07  0.3747856E+04  0.7818609E-02  0.8057438E-01
        2   -1    0    0  501    0  0.00000000000E+00  0.00000000000E+00  0.13342615670E+04  0.13342615670E+04  0.25500000920E-02 0.  1.
       -2   -1    0    0    0  501  0.00000000000E+00  0.00000000000E+00 -0.26318718224E+04  0.26318718224E+04  0.25500000920E-02 0. -1.
    10030    2    1    2    0    0  0.00000000000E+00  0.00000000000E+00 -0.12976102554E+04  0.39661333894E+04  0.37478556119E+04 0.  0.
        4    1    3    3  502    0 -0.11973602061E+04 -0.14187747934E+04 -0.37898397736E+03  0.18947886018E+04  0.12699999809E+01 0. -1.
       -4    1    3    3    0  502  0.11973602061E+04  0.14187747934E+04 -0.91862627806E+03  0.20713447876E+04  0.12699999809E+01 0.  1.
</event>
<event>
 5   0  0.3442126E-07  0.3843485E+04  0.7818609E-02  0.8036887E-01
        2   -1    0    0  501    0  0.00000000000E+00  0.00000000000E+00  0.17522522158E+04  0.17522522158E+04  0.25500000920E-02 0. -1.
       -2   -1    0    0    0  501  0.00000000000E+00  0.00000000000E+00 -0.21076271140E+04  0.21076271140E+04  0.25500000920E-02 0.  1.
    10030    2    1    2    0    0  0.00000000000E+00  0.00000000000E+00 -0.35537489817E+03  0.38598793297E+04  0.38434850230E+04 0.  0.
        2    1    3    3  502    0  0.11982649804E+04 -0.24331804581E+03  0.13112192392E+04  0.17928576430E+04  0.25500000920E-02 0. -1.
       -2    1    3    3    0  502 -0.11982649804E+04  0.24331804581E+03 -0.16665941374E+04  0.20670216867E+04  0.25500000920E-02 0.  1.
</event>
<event>
 5   0  0.1070988E-07  0.3352790E+04  0.7818609E-02  0.8149591E-01
       -1   -1    0    0    0  501  0.00000000000E+00  0.00000000000E+00  0.10438142241E+04  0.10438142241E+04  0.50400001928E-02 0.  1.
        1   -1    0    0  501    0  0.00000000000E+00  0.00000000000E+00 -0.26923372429E+04  0.26923372429E+04  0.50400001928E-02 0. -1.
    10030    2    1    2    0    0  0.00000000000E+00  0.00000000000E+00 -0.16485230188E+04  0.37361514670E+04  0.33527898295E+04 0.  0.
        5    1    3    3  502    0  0.22229509601E+03 -0.12561866558E+04  0.38768767996E+03  0.13333206108E+04  0.46999998093E+01 0.  1.
       -5    1    3    3    0  502 -0.22229509601E+03  0.12561866558E+04 -0.20362106988E+04  0.24028308562E+04  0.46999998093E+01 0. -1.
</event>
<event>
 5   0  0.3327241E-07  0.3778717E+04  0.7818609E-02  0.8050738E-01
        2   -1    0    0  501    0  0.00000000000E+00  0.00000000000E+00  0.20756100515E+04  0.20756100515E+04  0.25500000920E-02 0.  1.
       -2   -1    0    0    0  501  0.00000000000E+00  0.00000000000E+00 -0.17198201998E+04  0.17198201998E+04  0.25500000920E-02 0. -1.
    10030    2    1    2    0    0  0.00000000000E+00  0.00000000000E+00  0.35578985176E+03  0.37954302513E+04  0.37787172921E+04 0.  0.
        3    1    3    3  502    0 -0.11955216568E+04 -0.85610683792E+03 -0.10137270995E+04  0.17860105241E+04  0.10100000352E+00 0. -1.
       -3    1    3    3    0  502  0.11955216568E+04  0.85610683792E+03  0.13695169512E+04  0.20094197271E+04  0.10100000352E+00 0.  1.
</event>
<event>
 5   0  0.1070988E-07  0.3751168E+04  0.7818609E-02  0.8056716E-01
        1   -1    0    0  501    0  0.00000000000E+00  0.00000000000E+00  0.14511572639E+04  0.14511572640E+04  0.50400001928E-02 0.  1.
       -1   -1    0    0    0  501  0.00000000000E+00  0.00000000000E+00 -0.24241450992E+04  0.24241450992E+04  0.50400001928E-02 0. -1.
    10030    2    1    2    0    0  0.00000000000E+00  0.00000000000E+00 -0.97298783529E+03  0.38753023632E+04  0.37511682285E+04 0.  0.
        5    1    3    3  502    0 -0.10682926817E+04  0.64810077028E+03  0.95854674321E+03  0.15748389794E+04  0.46999998093E+01 0.  1.
       -5    1    3    3    0  502  0.10682926817E+04 -0.64810077028E+03 -0.19315345785E+04  0.23004633838E+04  0.46999998093E+01 0. -1.
</event>
<event>
 5   0  0.3509843E-07  0.3800886E+04  0.7818609E-02  0.8045965E-01
        2   -1    0    0  501    0  0.00000000000E+00  0.00000000000E+00  0.10898474897E+04  0.10898474897E+04  0.25500000920E-02 0. -1.
       -2   -1    0    0    0  501  0.00000000000E+00  0.00000000000E+00 -0.33139346896E+04  0.33139346896E+04  0.25500000920E-02 0.  1.
    10030    2    1    2    0    0  0.00000000000E+00  0.00000000000E+00 -0.22240871999E+04  0.44037821793E+04  0.38008858981E+04 0.  0.
        4    1    3    3  502    0 -0.10759741450E+04  0.15488021292E+04 -0.13841920378E+04  0.23393370015E+04  0.12699999809E+01 0.  1.
       -4    1    3    3    0  502  0.10759741450E+04 -0.15488021292E+04 -0.83989516204E+03  0.20644451778E+04  0.12699999809E+01 0. -1.
</event>
<event>
 5   0  0.1084315E-07  0.3885065E+04  0.7818609E-02  0.8028143E-01
       -1   -1    0    0    0  501  0.00000000000E+00  0.00000000000E+00  0.22500775699E+04  0.22500775699E+04  0.50400001928E-02 0.  1.
        1   -1    0    0  501    0  0.00000000000E+00  0.00000000000E+00 -0.16770229949E+04  0.16770229949E+04  0.50400001928E-02 0. -1.
    10030    2    1    2    0    0  0.00000000000E+00  0.00000000000E+00  0.57305457506E+03  0.39271005648E+04  0.38850646456E+04 0.  0.
        4    1    3    3  502    0  0.73439608126E+02  0.18078991919E+04 -0.42789954119E+03  0.18592989255E+04  0.12699999809E+01 0.  1.
       -4    1    3    3    0  502 -0.73439608126E+02 -0.18078991919E+04  0.10009541163E+04  0.20678016394E+04  0.12699999809E+01 0. -1.
</event>
<event>
 5   0  0.1070988E-07  0.3828842E+04  0.7818609E-02  0.8039994E-01
       -1   -1    0    0    0  501  0.00000000000E+00  0.00000000000E+00  0.15960478923E+04  0.15960478923E+04  0.50400001928E-02 0. -1.
        1   -1    0    0  501    0  0.00000000000E+00  0.00000000000E+00 -0.22963022970E+04  0.22963022970E+04  0.50400001928E-02 0.  1.
    10030    2    1    2    0    0  0.00000000000E+00  0.00000000000E+00 -0.70025440471E+03  0.38923501893E+04  0.38288423531E+04 0.  0.
        3    1    3    3  502    0  0.18749556915E+04 -0.22441129867E+03 -0.29960239647E+02  0.18885753631E+04  0.10100000352E+00 0.  1.
       -3    1    3    3    0  502 -0.18749556915E+04  0.22441129867E+03 -0.67029416506E+03  0.20037748262E+04  0.10100000352E+00 0. -1.
</event>
<event>
 5   0  0.3442126E-07  0.3801844E+04  0.7818609E-02  0.8045759E-01
       -2   -1    0    0    0  501  0.00000000000E+00  0.00000000000E+00  0.17445257552E+04  0.17445257552E+04  0.25500000920E-02 0.  1.
        2   -1    0    0  501    0  0.00000000000E+00  0.00000000000E+00 -0.20713394984E+04  0.20713394984E+04  0.25500000920E-02 0. -1.
    10030    2    1    2    0    0  0.00000000000E+00  0.00000000000E+00 -0.32681374315E+03  0.38158652536E+04  0.38018443433E+04 0.  0.
        2    1    3    3  502    0 -0.61694530580E+03 -0.17885444701E+04  0.21642999519E+02  0.18920838384E+04  0.25500000920E-02 0. -1.
       -2    1    3    3    0  502  0.61694530580E+03  0.17885444701E+04 -0.34845674267E+03  0.19237814152E+04  0.25500000920E-02 0.  1.
</event>
<event>
 5   0  0.1070988E-07  0.3099336E+04  0.7818609E-02  0.8215920E-01
       -1   -1    0    0    0  501  0.00000000000E+00  0.00000000000E+00  0.11639544373E+04  0.11639544373E+04  0.50400001928E-02 0.  1.
        1   -1    0    0  501    0  0.00000000000E+00  0.00000000000E+00 -0.20631995100E+04  0.20631995100E+04  0.50400001928E-02 0. -1.
    10030    2    1    2    0    0  0.00000000000E+00  0.00000000000E+00 -0.89924507265E+03  0.32271539473E+04  0.30993355576E+04 0.  0.
        3    1    3    3  502    0 -0.70559751164E+03  0.54860197485E+03 -0.17677846801E+04  0.19808822935E+04  0.10100000352E+00 0. -1.
       -3    1    3    3    0  502  0.70559751164E+03 -0.54860197485E+03  0.86853960742E+03  0.12462716538E+04  0.10100000352E+00 0.  1.
</event>
<event>
 5   0  0.3539010E-07  0.3438393E+04  0.7818609E-02  0.8128547E-01
        2   -1    0    0  501    0  0.00000000000E+00  0.00000000000E+00  0.14382414136E+04  0.14382414136E+04  0.25500000920E-02 0.  1.
       -2   -1    0    0    0  501  0.00000000000E+00  0.00000000000E+00 -0.20550356973E+04  0.20550356973E+04  0.25500000920E-02 0. -1.
    10030    2    1    2    0    0  0.00000000000E+00  0.00000000000E+00 -0.61679428374E+03  0.34932771110E+04  0.34383934890E+04 0.  0.
        1    1    3    3  502    0 -0.13274165177E+04  0.96629634845E+03 -0.82631280651E+03  0.18380848998E+04  0.50400001928E-02 0. -1.
       -1    1    3    3    0  502  0.13274165177E+04 -0.96629634845E+03  0.20951852277E+03  0.16551922112E+04  0.50400001928E-02 0.  1.
</event>
<event>
 5   0  0.3539010E-07  0.3823381E+04  0.7818609E-02  0.8041156E-01
       -2   -1    0    0    0  501  0.00000000000E+00  0.00000000000E+00  0.28296749261E+04  0.28296749261E+04  0.25500000920E-02 0.  1.
        2   -1    0    0  501    0  0.00000000000E+00  0.00000000000E+00 -0.12915123444E+04  0.12915123444E+04  0.25500000920E-02 0. -1.
    10030    2    1    2    0    0  0.00000000000E+00  0.00000000000E+00  0.15381625818E+04  0.41211872705E+04  0.38233807541E+04 0.  0.
        1    1    3    3  502    0  0.29925041477E+03  0.84662428303E+03 -0.10500449233E+04  0.13816359247E+04  0.50400001928E-02 0. -1.
       -1    1    3    3    0  502 -0.29925041477E+03 -0.84662428303E+03  0.25882075051E+04  0.27395513459E+04  0.50400001928E-02 0.  1.
</event>
<event>
 5   0  0.3327241E-07  0.3722822E+04  0.7818609E-02  0.8062923E-01
       -2   -1    0    0    0  501  0.00000000000E+00  0.00000000000E+00  0.10823457311E+04  0.10823457311E+04  0.25500000920E-02 0.  1.
        2   -1    0    0  501    0  0.00000000000E+00  0.00000000000E+00 -0.32012419652E+04  0.32012419652E+04  0.25500000920E-02 0. -1.
    10030    2    1    2    0    0  0.00000000000E+00  0.00000000000E+00 -0.21188962341E+04  0.42835876963E+04  0.37228218197E+04 0.  0.
        3    1    3    3  502    0  0.44284235625E+03 -0.12973721326E+04 -0.25083123065E+04  0.28584811422E+04  0.10100000352E+00 0. -1.
       -3    1    3    3    0  502 -0.44284235625E+03  0.12973721326E+04  0.38941607242E+03  0.14251065541E+04  0.10100000352E+00 0.  1.
</event>
<event>
 5   0  0.3327241E-07  0.3847050E+04  0.7818609E-02  0.8036133E-01
        2   -1    0    0  501    0  0.00000000000E+00  0.00000000000E+00  0.26071749792E+04  0.26071749792E+04  0.25500000920E-02 0. -1.
       -2   -1    0    0    0  501  0.00000000000E+00  0.00000000000E+00 -0.14191406582E+04  0.14191406582E+04  0.25500000920E-02 0.  1.
    10030    2    1    2    0    0  0.00000000000E+00  0.00000000000E+00  0.11880343210E+04  0.40263156374E+04  0.38470497871E+04 0.  0.
        3    1    3    3  502    0  0.16573589344E+03 -0.50014202675E+03  0.25301780076E+04  0.25844556862E+04  0.10100000352E+00 0. -1.
       -3    1    3    3    0  502 -0.16573589344E+03  0.50014202675E+03 -0.13421436866E+04  0.14418599513E+04  0.10100000352E+00 0.  1.
</event>
<event>
 5   0  0.3377396E-07  0.3791984E+04  0.7818609E-02  0.8047877E-01
       -2   -1    0    0    0  501  0.00000000000E+00  0.00000000000E+00  0.16799485488E+04  0.16799485488E+04  0.25500000920E-02 0. -1.
        2   -1    0    0  501    0  0.00000000000E+00  0.00000000000E+00 -0.21398185890E+04  0.21398185890E+04  0.25500000920E-02 0.  1.
    10030    2    1    2    0    0  0.00000000000E+00  0.00000000000E+00 -0.45987004016E+03  0.38197671378E+04  0.37919837201E+04 0.  0.
        5    1    3    3  502    0  0.11537692928E+04  0.13648576492E+04 -0.86761594904E+03  0.19866553573E+04  0.46999998093E+01 0.  1.
       -5    1    3    3    0  502 -0.11537692928E+04 -0.13648576492E+04  0.40774590888E+03  0.18331117805E+04  0.46999998093E+01 0. -1.
</event>
<event>
 5   0  0.1070988E-07  0.3825334E+04  0.7818609E-02  0.8040740E-01
       -1   -1    0    0    0  501  0.00000000000E+00  0.00000000000E+00  0.11671135604E+04  0.11671135604E+04  0.50400001928E-02 0. -1.
        1   -1    0    0  501    0  0.00000000000E+00  0.00000000000E+00 -0.31344803948E+04  0.31344803948E+04  0.50400001928E-02 0.  1.
    10030    2    1    2    0    0  0.00000000000E+00  0.00000000000E+00 -0.19673668344E+04  0.43015939552E+04  0.38253337495E+04 0.  0.
        3    1    3    3  502    0  0.18982975519E+04 -0.22339633516E+03 -0.10620366161E+04  0.21866324113E+04  0.10100000352E+00 0. -1.
       -3    1    3    3    0  502 -0.18982975519E+04  0.22339633516E+03 -0.90533021821E+03  0.21149615439E+04  0.10100000352E+00 0.  1.
</event>
<event>
 5   0  0.1084315E-07  0.3832652E+04  0.7818609E-02  0.8039184E-01
       -1   -1    0    0    0  501  0.00000000000E+00  0.00000000000E+00  0.15470805486E+04  0.15470805486E+04  0.50400001928E-02 0.  1.
        1   -1    0    0  501    0  0.00000000000E+00  0.00000000000E+00 -0.23736997680E+04  0.23736997680E+04  0.50400001928E-02 0. -1.
    10030    2    1    2    0    0  0.00000000000E+00  0.00000000000E+00 -0.82661921934E+03  0.39207803166E+04  0.38326516874E+04 0.  0.
        4    1    3    3  502    0  0.15399880598E+04  0.10247951534E+04  0.98734273742E+02  0.18524358020E+04  0.12699999809E+01 0. -1.
       -4    1    3    3    0  502 -0.15399880598E+04 -0.10247951534E+04 -0.92535349309E+03  0.20683445146E+04  0.12699999809E+01 0.  1.
</event>
<event>
 5   0  0.3509843E-07  0.3786681E+04  0.7818609E-02  0.8049019E-01
        2   -1    0    0  501    0  0.00000000000E+00  0.00000000000E+00  0.20016809077E+04  0.20016809077E+04  0.25500000920E-02 0. -1.
       -2   -1    0    0    0  501  0.00000000000E+00  0.00000000000E+00 -0.17908637128E+04  0.17908637128E+04  0.25500000920E-02 0.  1.
    10030    2    1    2    0    0  0.00000000000E+00  0.00000000000E+00  0.21081719493E+03  0.37925446205E+04  0.37866807113E+04 0.  0.
        4    1    3    3  502    0 -0.29881250961E+03  0.14441976366E+04 -0.10837549240E+04  0.18301699587E+04  0.12699999809E+01 0.  1.
       -4    1    3    3    0  502  0.29881250961E+03 -0.14441976366E+04  0.12945721189E+04  0.19623746619E+04  0.12699999809E+01 0. -1.
</event>
<event>
 5   0  0.1070988E-07  0.3699813E+04  0.7818609E-02  0.8068003E-01
       -1   -1    0    0    0  501  0.00000000000E+00  0.00000000000E+00  0.12777524318E+04  0.12777524319E+04  0.50400001928E-02 0.  1.
        1   -1    0    0  501    0  0.00000000000E+00  0.00000000000E+00 -0.26782607371E+04  0.26782607371E+04  0.50400001928E-02 0. -1.
    10030    2    1    2    0    0  0.00000000000E+00  0.00000000000E+00 -0.14005083053E+04  0.39560131690E+04  0.36998130602E+04 0.  0.
        3    1    3    3  502    0 -0.87295344738E+03 -0.78040211439E+03 -0.22315853815E+04  0.25201286687E+04  0.10100000352E+00 0. -1.
       -3    1    3    3    0  502  0.87295344738E+03  0.78040211439E+03  0.83107707623E+03  0.14358845003E+04  0.10100000352E+00 0.  1.
</event>
<event>
 5   0  0.1084315E-07  0.3796542E+04  0.7818609E-02  0.8046897E-01
        1   -1    0    0  501    0  0.00000000000E+00  0.00000000000E+00  0.21360713522E+04  0.21360713522E+04  0.50400001928E-02 0. -1.
       -1   -1    0    0    0  501  0.00000000000E+00  0.00000000000E+00 -0.16869441472E+04  0.16869441472E+04  0.50400001928E-02 0.  1.
    10030    2    1    2    0    0  0.00000000000E+00  0.00000000000E+00  0.44912720496E+03  0.38230154994E+04  0.37965421455E+04 0.  0.
        4    1    3    3  502    0  0.17349081071E+04 -0.62764415246E+03 -0.22530448715E+03  0.18586573237E+04  0.12699999809E+01 0.  1.
       -4    1    3    3    0  502 -0.17349081071E+04  0.62764415246E+03  0.67443169211E+03  0.19643581757E+04  0.12699999809E+01 0. -1.
</event>
<event>
 5   0  0.1070988E-07  0.3794144E+04  0.7818609E-02  0.8047413E-01
        1   -1    0    0  501    0  0.00000000000E+00  0.00000000000E+00  0.24890508425E+04  0.24890508425E+04  0.50400001928E-02 0. -1.
       -1   -1    0    0    0  501  0.00000000000E+00  0.00000000000E+00 -0.14458852984E+04  0.14458852984E+04  0.50400001928E-02 0.  1.
    10030    2    1    2    0    0  0.00000000000E+00  0.00000000000E+00  0.10431655441E+04  0.39349361409E+04  0.37941439193E+04 0.  0.
        5    1    3    3  502    0  0.14518424385E+04 -0.54156570486E+03  0.16565976341E+04  0.22683645409E+04  0.46999998093E+01 0. -1.
       -5    1    3    3    0  502 -0.14518424385E+04  0.54156570486E+03 -0.61343208996E+03  0.16665716000E+04  0.46999998093E+01 0.  1.
</event>
<event>
 5   0  0.1070988E-07  0.3800018E+04  0.7818609E-02  0.8046151E-01
        1   -1    0    0  501    0  0.00000000000E+00  0.00000000000E+00  0.22531963808E+04  0.22531963808E+04  0.50400001928E-02 0. -1.
       -1   -1    0    0    0  501  0.00000000000E+00  0.00000000000E+00 -0.16021836155E+04  0.16021836155E+04  0.50400001928E-02 0.  1.
    10030    2    1    2    0    0  0.00000000000E+00  0.00000000000E+00  0.65101276527E+03  0.38553799962E+04  0.38000180651E+04 0.  0.
        3    1    3    3  502    0  0.17279276298E+04  0.74663925706E+03  0.58778811125E+03  0.19719784350E+04  0.10100000352E+00 0.  1.
       -3    1    3    3    0  502 -0.17279276298E+04 -0.74663925706E+03  0.63224654019E+02  0.18834015613E+04  0.10100000352E+00 0. -1.
</event>
<event>
 5   0  0.1070988E-07  0.3798877E+04  0.7818609E-02  0.8046396E-01
        1   -1    0    0  501    0  0.00000000000E+00  0.00000000000E+00  0.23871666397E+04  0.23871666398E+04  0.50400001928E-02 0. -1.
       -1   -1    0    0    0  501  0.00000000000E+00  0.00000000000E+00 -0.15113595917E+04  0.15113595917E+04  0.50400001928E-02 0.  1.
    10030    2    1    2    0    0  0.00000000000E+00  0.00000000000E+00  0.87580704809E+03  0.38985262314E+04  0.37988773067E+04 0.  0.
        5    1    3    3  502    0 -0.13827906077E+04  0.73826133838E+03  0.15387513181E+04  0.21965694565E+04  0.46999998093E+01 0. -1.
       -5    1    3    3    0  502  0.13827906077E+04 -0.73826133838E+03 -0.66294426999E+03  0.17019567749E+04  0.46999998093E+01 0.  1.
</event>
<event>
 5   0  0.1070988E-07  0.3801093E+04  0.7818609E-02  0.8045920E-01
        1   -1    0    0  501    0  0.00000000000E+00  0.00000000000E+00  0.12255637509E+04  0.12255637509E+04  0.50400001928E-02 0.  1.
       -1   -1    0    0    0  501  0.00000000000E+00  0.00000000000E+00 -0.29472773711E+04  0.29472773711E+04  0.50400001928E-02 0. -1.
    10030    2    1    2    0    0  0.00000000000E+00  0.00000000000E+00 -0.17217136202E+04  0.41728411220E+04  0.38010926376E+04 0.  0.
        2    1    3    3  502    0  0.15190021244E+04 -0.26857725231E+03  0.35793658850E+03  0.15835465878E+04  0.25500000920E-02 0.  1.
       -2    1    3    3    0  502 -0.15190021244E+04  0.26857725231E+03 -0.20796502087E+04  0.25892945342E+04  0.25500000920E-02 0. -1.
</event>
<event>
 5   0  0.1070988E-07  0.3718735E+04  0.7818609E-02  0.8063823E-01
        1   -1    0    0  501    0  0.00000000000E+00  0.00000000000E+00  0.24541653774E+04  0.24541653774E+04  0.50400001928E-02 0.  1.
       -1   -1    0    0    0  501  0.00000000000E+00  0.00000000000E+00 -0.14087262572E+04  0.14087262572E+04  0.50400001928E-02 0. -1.
    10030    2    1    2    0    0  0.00000000000E+00  0.00000000000E+00  0.10454391202E+04  0.38628916345E+04  0.37187348421E+04 0.  0.
        2    1    3    3  502    0  0.13945824773E+03  0.18081864910E+04  0.94881612686E+03  0.20467630620E+04  0.25500000920E-02 0.  1.
       -2    1    3    3    0  502 -0.13945824773E+03 -0.18081864910E+04  0.96622993314E+02  0.18161285726E+04  0.25500000920E-02 0. -1.
</event>
<event>
 5   0  0.3377396E-07  0.3507166E+04  0.7818609E-02  0.8112094E-01
        2   -1    0    0  501    0  0.00000000000E+00  0.00000000000E+00  0.16768853412E+04  0.16768853412E+04  0.25500000920E-02 0. -1.
       -2   -1    0    0    0  501  0.00000000000E+00  0.00000000000E+00 -0.18337884288E+04  0.18337884288E+04  0.25500000920E-02 0.  1.
    10030    2    1    2    0    0  0.00000000000E+00  0.00000000000E+00 -0.15690308758E+03  0.35106737700E+04  0.35071657703E+04 0.  0.
        5    1    3    3  502    0 -0.37378998434E+03 -0.46592920670E+03 -0.17288037253E+04  0.18290963311E+04  0.46999998093E+01 0.  1.
       -5    1    3    3    0  502  0.37378998434E+03  0.46592920670E+03  0.15719006377E+04  0.16815774389E+04  0.46999998093E+01 0. -1.
</event>
<event>
 5   0  0.1070988E-07  0.3801224E+04  0.7818609E-02  0.8045892E-01
       -1   -1    0    0    0  501  0.00000000000E+00  0.00000000000E+00  0.17138398497E+04  0.17138398497E+04  0.50400001928E-02 0.  1.
        1   -1    0    0  501    0  0.00000000000E+00  0.00000000000E+00 -0.21077380240E+04  0.21077380240E+04  0.50400001928E-02 0. -1.
    10030    2    1    2    0    0  0.00000000000E+00  0.00000000000E+00 -0.39389817427E+03  0.38215778737E+04  0.38012237073E+04 0.  0.
        3    1    3    3  502    0  0.13015649817E+04  0.27166435312E+03  0.11684292892E+04  0.17700564783E+04  0.10100000352E+00 0.  1.
       -3    1    3    3    0  502 -0.13015649817E+04 -0.27166435312E+03 -0.15623274634E+04  0.20515213954E+04  0.10100000352E+00 0. -1.
</event>
<event>
 5   0  0.3377396E-07  0.3759039E+04  0.7818609E-02  0.8055003E-01
        2   -1    0    0  501    0  0.00000000000E+00  0.00000000000E+00  0.28249466809E+04  0.28249466809E+04  0.25500000920E-02 0.  1.
       -2   -1    0    0    0  501  0.00000000000E+00  0.00000000000E+00 -0.12504993870E+04  0.12504993870E+04  0.25500000920E-02 0. -1.
    10030    2    1    2    0    0  0.00000000000E+00  0.00000000000E+00  0.15744472940E+04  0.40754460679E+04  0.37590392883E+04 0.  0.
        5    1    3    3  502    0 -0.12762313872E+04 -0.89849452098E+03  0.19225093974E+04  0.24763124663E+04  0.46999998093E+01 0.  1.
       -5    1    3    3    0  502  0.12762313872E+04  0.89849452098E+03 -0.34806210340E+03  0.15991336016E+04  0.46999998093E+01 0. -1.
</event>
<event>
 5   0  0.1070988E-07  0.3771929E+04  0.7818609E-02  0.8052206E-01
        1   -1    0    0  501    0  0.00000000000E+00  0.00000000000E+00  0.18052330515E+04  0.18052330515E+04  0.50400001928E-02 0.  1.
       -1   -1    0    0    0  501  0.00000000000E+00  0.00000000000E+00 -0.19703063564E+04  0.19703063564E+04  0.50400001928E-02 0. -1.
    10030    2    1    2    0    0  0.00000000000E+00  0.00000000000E+00 -0.16507330493E+03  0.37755394080E+04  0.37719290324E+04 0.  0.
        5    1    3    3  502    0  0.20756476087E+03  0.14059271835E+04 -0.13235320913E+04  0.19420282340E+04  0.46999998093E+01 0. -1.
       -5    1    3    3    0  502 -0.20756476087E+03 -0.14059271835E+04  0.11584587864E+04  0.18335111739E+04  0.46999998093E+01 0.  1.
</event>
<event>
 5   0  0.3509843E-07  0.4094100E+04  0.7818609E-02  0.7985828E-01
       -2   -1    0    0    0  501  0.00000000000E+00  0.00000000000E+00  0.14953686264E+04  0.14953686264E+04  0.25500000920E-02 0. -1.
        2   -1    0    0  501    0  0.00000000000E+00  0.00000000000E+00 -0.28022615136E+04  0.28022615136E+04  0.25500000920E-02 0.  1.
    10030    2    1    2    0    0  0.00000000000E+00  0.00000000000E+00 -0.13068928871E+04  0.42976301400E+04  0.40941001211E+04 0.  0.
        4    1    3    3  502    0 -0.16639945372E+04  0.11071887633E+04 -0.18911297057E+03  0.20076130369E+04  0.12699999809E+01 0. -1.
       -4    1    3    3    0  502  0.16639945372E+04 -0.11071887633E+04 -0.11177799165E+04  0.22900171031E+04  0.12699999809E+01 0.  1.
</event>
<event>
 5   0  0.1084315E-07  0.3797567E+04  0.7818609E-02  0.8046677E-01
       -1   -1    0    0    0  501  0.00000000000E+00  0.00000000000E+00  0.14102495263E+04  0.14102495263E+04  0.50400001928E-02 0.  1.
        1   -1    0    0  501    0  0.00000000000E+00  0.00000000000E+00 -0.25565531783E+04  0.25565531783E+04  0.50400001928E-02 0. -1.
    10030    2    1    2    0    0  0.00000000000E+00  0.00000000000E+00 -0.11463036521E+04  0.39668027046E+04  0.37975665411E+04 0.  0.
        4    1    3    3  502    0 -0.11346699467E+04 -0.15147409783E+04 -0.41315887602E+03  0.19371675170E+04  0.12699999809E+01 0.  1.
       -4    1    3    3    0  502  0.11346699467E+04  0.15147409783E+04 -0.73314477607E+03  0.20296351876E+04  0.12699999809E+01 0. -1.
</event>
<event>
 5   0  0.3509843E-07  0.3692698E+04  0.7818609E-02  0.8069582E-01
       -2   -1    0    0    0  501  0.00000000000E+00  0.00000000000E+00  0.15181818859E+04  0.15181818859E+04  0.25500000920E-02 0.  1.
        2   -1    0    0  501    0  0.00000000000E+00  0.00000000000E+00 -0.22454522509E+04  0.22454522509E+04  0.25500000920E-02 0. -1.
    10030    2    1    2    0    0  0.00000000000E+00  0.00000000000E+00 -0.72727036499E+03  0.37636341368E+04  0.36926981642E+04 0.  0.
        4    1    3    3  502    0 -0.11801647602E+04  0.11688964946E+04 -0.11852822974E+04  0.20405890360E+04  0.12699999809E+01 0. -1.
       -4    1    3    3    0  502  0.11801647602E+04 -0.11688964946E+04  0.45801193237E+03  0.17230451008E+04  0.12699999809E+01 0.  1.
</event>
<event>
 5   0  0.3442126E-07  0.3709120E+04  0.7818609E-02  0.8065944E-01
        2   -1    0    0  501    0  0.00000000000E+00  0.00000000000E+00  0.18414192920E+04  0.18414192920E+04  0.25500000920E-02 0.  1.
       -2   -1    0    0    0  501  0.00000000000E+00  0.00000000000E+00 -0.18677947359E+04  0.18677947359E+04  0.25500000920E-02 0. -1.
    10030    2    1    2    0    0  0.00000000000E+00  0.00000000000E+00 -0.26375443906E+02  0.37092140279E+04  0.37091202516E+04 0.  0.
        2    1    3    3  502    0 -0.15921077725E+04  0.49923749568E+03 -0.82274387334E+03  0.18603635982E+04  0.25500000920E-02 0. -1.
       -2    1    3    3    0  502  0.15921077725E+04 -0.49923749568E+03  0.79636842943E+03  0.18488504298E+04  0.25500000920E-02 0.  1.
</event>
<event>
 5   0  0.1085771E-07  0.3737923E+04  0.7818609E-02  0.8059609E-01
        1   -1    0    0  501    0  0.00000000000E+00  0.00000000000E+00  0.30506308878E+04  0.30506308878E+04  0.50400001928E-02 0. -1.
       -1   -1    0    0    0  501  0.00000000000E+00  0.00000000000E+00 -0.11450149384E+04  0.11450149384E+04  0.50400001928E-02 0.  1.
    10030    2    1    2    0    0  0.00000000000E+00  0.00000000000E+00  0.19056159494E+04  0.41956458262E+04  0.37379234545E+04 0.  0.
        1    1    3    3  502    0  0.13788615467E+04  0.12415724336E+04  0.12044396158E+04  0.22121112225E+04  0.50400001928E-02 0.  1.
       -1    1    3    3    0  502 -0.13788615467E+04 -0.12415724336E+04  0.70117633367E+03  0.19835346036E+04  0.50400001928E-02 0. -1.
</event>
<event>
 5   0  0.1085771E-07  0.3668282E+04  0.7818609E-02  0.8075027E-01
       -1   -1    0    0    0  501  0.00000000000E+00  0.00000000000E+00  0.14663199229E+04  0.14663199229E+04  0.50400001928E-02 0. -1.
        1   -1    0    0  501    0  0.00000000000E+00  0.00000000000E+00 -0.22942289873E+04  0.22942289873E+04  0.50400001928E-02 0.  1.
    10030    2    1    2    0    0  0.00000000000E+00  0.00000000000E+00 -0.82790906437E+03  0.37605489102E+04  0.36682822530E+04 0.  0.
        1    1    3    3  502    0  0.17101070797E+04 -0.59298248901E+03 -0.71802800850E+03  0.19472181895E+04  0.50400001928E-02 0.  1.
       -1    1    3    3    0  502 -0.17101070797E+04  0.59298248901E+03 -0.10988105588E+03  0.18133307208E+04  0.50400001928E-02 0. -1.
</event>
<event>
 5   0  0.3377396E-07  0.3846080E+04  0.7818609E-02  0.8036338E-01
       -2   -1    0    0    0  501  0.00000000000E+00  0.00000000000E+00  0.21865964926E+04  0.21865964926E+04  0.25500000920E-02 0. -1.
        2   -1    0    0  501    0  0.00000000000E+00  0.00000000000E+00 -0.16912503469E+04  0.16912503469E+04  0.25500000920E-02 0.  1.
    10030    2    1    2    0    0  0.00000000000E+00  0.00000000000E+00  0.49534614568E+03  0.38778468395E+04  0.38460796022E+04 0.  0.
        5    1    3    3  502    0  0.93126485737E+03 -0.91730820295E+02  0.19415466319E+04  0.21552944559E+04  0.46999998093E+01 0. -1.
       -5    1    3    3    0  502 -0.93126485737E+03  0.91730820295E+02 -0.14462004862E+04  0.17225523836E+04  0.46999998093E+01 0.  1.
</event>
<event>
 5   0  0.3327241E-07  0.3795319E+04  0.7818609E-02  0.8047160E-01
        2   -1    0    0  501    0  0.00000000000E+00  0.00000000000E+00  0.27068030189E+04  0.27068030189E+04  0.25500000920E-02 0. -1.
       -2   -1    0    0    0  501  0.00000000000E+00  0.00000000000E+00 -0.13303929613E+04  0.13303929613E+04  0.25500000920E-02 0.  1.
    10030    2    1    2    0    0  0.00000000000E+00  0.00000000000E+00  0.13764100575E+04  0.40371959802E+04  0.37953190559E+04 0.  0.
        3    1    3    3  502    0  0.67260993475E+03 -0.17739451385E+04  0.73366248246E+03  0.20340958992E+04  0.10100000352E+00 0. -1.
       -3    1    3    3    0  502 -0.67260993475E+03  0.17739451385E+04  0.64274757508E+03  0.20031000810E+04  0.10100000352E+00 0.  1.
</event>
<event>
 5   0  0.3377396E-07  0.3321452E+04  0.7818609E-02  0.8157458E-01
        2   -1    0    0  501    0  0.00000000000E+00  0.00000000000E+00  0.20308097364E+04  0.20308097364E+04  0.25500000920E-02 0.  1.
       -2   -1    0    0    0  501  0.00000000000E+00  0.00000000000E+00 -0.13580842225E+04  0.13580842225E+04  0.25500000920E-02 0. -1.
    10030    2    1    2    0    0  0.00000000000E+00  0.00000000000E+00  0.67272551384E+03  0.33888939589E+04  0.33214518885E+04 0.  0.
        5    1    3    3  502    0 -0.61155598301E+03  0.13204659693E+04  0.11528346815E+04  0.18565238994E+04  0.46999998093E+01 0.  1.
       -5    1    3    3    0  502  0.61155598301E+03 -0.13204659693E+04 -0.48010916762E+03  0.15323700595E+04  0.46999998093E+01 0. -1.
</event>
<event>
 5   0  0.1070988E-07  0.3810636E+04  0.7818609E-02  0.8043876E-01
        1   -1    0    0  501    0  0.00000000000E+00  0.00000000000E+00  0.21922167216E+04  0.21922167216E+04  0.50400001928E-02 0. -1.
       -1   -1    0    0    0  501  0.00000000000E+00  0.00000000000E+00 -0.16559663168E+04  0.16559663169E+04  0.50400001928E-02 0.  1.
    10030    2    1    2    0    0  0.00000000000E+00  0.00000000000E+00  0.53625040479E+03  0.38481830385E+04  0.38106361938E+04 0.  0.
        2    1    3    3  502    0 -0.21784750809E+03  0.13984809320E+04 -0.10199941141E+04  0.17445900512E+04  0.25500000920E-02 0.  1.
       -2    1    3    3    0  502  0.21784750809E+03 -0.13984809320E+04  0.15562445189E+04  0.21035929873E+04  0.25500000920E-02 0. -1.
</event>
<event>
 5   0  0.3509843E-07  0.3837759E+04  0.7818609E-02  0.8038100E-01
       -2   -1    0    0    0  501  0.00000000000E+00  0.00000000000E+00  0.13196064905E+04  0.13196064905E+04  0.25500000920E-02 0.  1.
        2   -1    0    0  501    0  0.00000000000E+00  0.00000000000E+00 -0.27903000325E+04  0.27903000325E+04  0.25500000920E-02 0. -1.
    10030    2    1    2    0    0  0.00000000000E+00  0.00000000000E+00 -0.14706935420E+04  0.41099065230E+04  0.38377587383E+04 0.  0.
        4    1    3    3  502    0 -0.17082048074E+04  0.40165403616E+03  0.96117024472E+02  0.17574213280E+04  0.12699999809E+01 0.  1.
       -4    1    3    3    0  502  0.17082048074E+04 -0.40165403616E+03 -0.15668105665E+04  0.23524851950E+04  0.12699999809E+01 0. -1.
</event>
<event>
 5   0  0.1070988E-07  0.3814187E+04  0.7818609E-02  0.8043117E-01
        1   -1    0    0  501    0  0.00000000000E+00  0.00000000000E+00  0.24685532278E+04  0.24685532278E+04  0.50400001928E-02 0. -1.
       -1   -1    0    0    0  501  0.00000000000E+00  0.00000000000E+00 -0.14733350942E+04  0.14733350942E+04  0.50400001928E-02 0.  1.
    10030    2    1    2    0    0  0.00000000000E+00  0.00000000000E+00  0.99521813365E+03  0.39418883220E+04  0.38141872542E+04 0.  0.
        3    1    3    3  502    0  0.33207986326E+03  0.79090268312E+03 -0.12627095816E+04  0.15265122297E+04  0.10100000352E+00 0.  1.
       -3    1    3    3    0  502 -0.33207986326E+03 -0.79090268312E+03  0.22579277153E+04  0.24153760923E+04  0.10100000352E+00 0. -1.
</event>
<event>
 5   0  0.3327241E-07  0.3771950E+04  0.7818609E-02  0.8052201E-01
       -2   -1    0    0    0  501  0.00000000000E+00  0.00000000000E+00  0.24459767714E+04  0.24459767714E+04  0.25500000920E-02 0. -1.
        2   -1    0    0  501    0  0.00000000000E+00  0.00000000000E+00 -0.14541848279E+04  0.14541848279E+04  0.25500000920E-02 0.  1.
    10030    2    1    2    0    0  0.00000000000E+00  0.00000000000E+00  0.99179194350E+03  0.39001615992E+04  0.37719503232E+04 0.  0.
        3    1    3    3  502    0 -0.54194279933E+03  0.13106564062E+04  0.17812841266E+04  0.22769486957E+04  0.10100000352E+00 0. -1.
       -3    1    3    3    0  502  0.54194279933E+03 -0.13106564062E+04 -0.78949218313E+03  0.16232129035E+04  0.10100000352E+00 0.  1.
</event>
<event>
 5   0  0.1085771E-07  0.3815802E+04  0.7818609E-02  0.8042772E-01
        1   -1    0    0  501    0  0.00000000000E+00  0.00000000000E+00  0.16167305667E+04  0.16167305667E+04  0.50400001928E-02 0.  1.
       -1   -1    0    0    0  501  0.00000000000E+00  0.00000000000E+00 -0.22515111528E+04  0.22515111528E+04  0.50400001928E-02 0. -1.
    10030    2    1    2    0    0  0.00000000000E+00  0.00000000000E+00 -0.63478058614E+03  0.38682417195E+04  0.38158023544E+04 0.  0.
        1    1    3    3  502    0  0.18132771603E+04  0.20832414557E+03 -0.88064628388E+03  0.20265514765E+04  0.50400001928E-02 0. -1.
       -1    1    3    3    0  502 -0.18132771603E+04 -0.20832414557E+03  0.24586569773E+03  0.18416902430E+04  0.50400001928E-02 0.  1.
</event>
<event>
 5   0  0.3377396E-07  0.3816057E+04  0.7818609E-02  0.8042718E-01
        2   -1    0    0  501    0  0.00000000000E+00  0.00000000000E+00  0.21605362875E+04  0.21605362875E+04  0.25500000920E-02 0.  1.
       -2   -1    0    0    0  501  0.00000000000E+00  0.00000000000E+00 -0.16850322231E+04  0.16850322231E+04  0.25500000920E-02 0. -1.
    10030    2    1    2    0    0  0.00000000000E+00  0.00000000000E+00  0.47550406447E+03  0.38455685106E+04  0.38160572656E+04 0.  0.
        5    1    3    3  502    0 -0.15220939385E+04  0.11148130693E+04 -0.49006191877E+02  0.18873266368E+04  0.46999998093E+01 0. -1.
       -5    1    3    3    0  502  0.15220939385E+04 -0.11148130693E+04  0.52451025634E+03  0.19582418738E+04  0.46999998093E+01 0.  1.
</event>
<event>
 5   0  0.1084315E-07  0.3576244E+04  0.7818609E-02  0.8095955E-01
       -1   -1    0    0    0  501  0.00000000000E+00  0.00000000000E+00  0.93877273895E+03  0.93877273896E+03  0.50400001928E-02 0. -1.
        1   -1    0    0  501    0  0.00000000000E+00  0.00000000000E+00 -0.34059151324E+04  0.34059151324E+04  0.50400001928E-02 0.  1.
    10030    2    1    2    0    0  0.00000000000E+00  0.00000000000E+00 -0.24671423934E+04  0.43446878713E+04  0.35762439947E+04 0.  0.
        4    1    3    3  502    0 -0.64294055481E+03 -0.84628903719E+03 -0.29805426473E+04  0.31643662520E+04  0.12699999809E+01 0.  1.
       -4    1    3    3    0  502  0.64294055481E+03  0.84628903719E+03  0.51340025388E+03  0.11803216193E+04  0.12699999809E+01 0. -1.
</event>
<event>
 5   0  0.3442126E-07  0.3810146E+04  0.7818609E-02  0.8043981E-01
        2   -1    0    0  501    0  0.00000000000E+00  0.00000000000E+00  0.23157878665E+04  0.23157878665E+04  0.25500000920E-02 0. -1.
       -2   -1    0    0    0  501  0.00000000000E+00  0.00000000000E+00 -0.15671999808E+04  0.15671999808E+04  0.25500000920E-02 0.  1.
    10030    2    1    2    0    0  0.00000000000E+00  0.00000000000E+00  0.74858788567E+03  0.38829878473E+04  0.38101457715E+04 0.  0.
        2    1    3    3  502    0  0.87040074330E+03 -0.15404361671E+04 -0.34543832048E+03  0.18027392135E+04  0.25500000920E-02 0. -1.
       -2    1    3    3    0  502 -0.87040074330E+03  0.15404361671E+04  0.10940262062E+04  0.20802486338E+04  0.25500000920E-02 0.  1.
</event>
<event>
 5   0  0.3327241E-07  0.3938758E+04  0.7818609E-02  0.8017016E-01
        2   -1    0    0  501    0  0.00000000000E+00  0.00000000000E+00  0.14762112464E+04  0.14762112464E+04  0.25500000920E-02 0. -1.
       -2   -1    0    0    0  501  0.00000000000E+00  0.00000000000E+00 -0.26273019656E+04  0.26273019656E+04  0.25500000920E-02 0.  1.
    10030    2    1    2    0    0  0.00000000000E+00  0.00000000000E+00 -0.11510907191E+04  0.41035132120E+04  0.39387575246E+04 0.  0.
        3    1    3    3  502    0  0.55609655065E+03  0.14190759237E+04 -0.18748836094E+04  0.24162384836E+04  0.10100000352E+00 0.  1.
       -3    1    3    3    0  502 -0.55609655065E+03 -0.14190759237E+04  0.72379289029E+03  0.16872747284E+04  0.10100000352E+00 0. -1.
</event>
<event>
 5   0  0.1070988E-07  0.3776539E+04  0.7818609E-02  0.8051208E-01
       -1   -1    0    0    0  501  0.00000000000E+00  0.00000000000E+00  0.15810046832E+04  0.15810046832E+04  0.50400001928E-02 0.  1.
        1   -1    0    0  501    0  0.00000000000E+00  0.00000000000E+00 -0.22552501501E+04  0.22552501501E+04  0.50400001928E-02 0. -1.
    10030    2    1    2    0    0  0.00000000000E+00  0.00000000000E+00 -0.67424546689E+03  0.38362548333E+04  0.37765386529E+04 0.  0.
        5    1    3    3  502    0  0.13496267178E+04 -0.16380159798E+03 -0.16682695015E+04  0.21520846779E+04  0.46999998093E+01 0. -1.
       -5    1    3    3    0  502 -0.13496267178E+04  0.16380159798E+03  0.99402403465E+03  0.16841701554E+04  0.46999998093E+01 0.  1.
</event>
<event>
 5   0  0.1070988E-07  0.3792224E+04  0.7818609E-02  0.8047826E-01
        1   -1    0    0  501    0  0.00000000000E+00  0.00000000000E+00  0.16726847881E+04  0.16726847881E+04  0.50400001928E-02 0.  1.
       -1   -1    0    0    0  501  0.00000000000E+00  0.00000000000E+00 -0.21493827136E+04  0.21493827136E+04  0.50400001928E-02 0. -1.
    10030    2    1    2    0    0  0.00000000000E+00  0.00000000000E+00 -0.47669792548E+03  0.38220675018E+04  0.37922235003E+04 0.  0.
        2    1    3    3  502    0 -0.13819291725E+04  0.10267328848E+04 -0.10391654844E+04  0.20109136129E+04  0.25500000920E-02 0. -1.
       -2    1    3    3    0  502  0.13819291725E+04 -0.10267328848E+04  0.56246755892E+03  0.18111538889E+04  0.25500000920E-02 0.  1.
</event>
<event>
 5   0  0.3539010E-07  0.3797709E+04  0.7818609E-02  0.8046647E-01
       -2   -1    0    0    0  501  0.00000000000E+00  0.00000000000E+00  0.21062417261E+04  0.21062417261E+04  0.25500000920E-02 0. -1.
        2   -1    0    0  501    0  0.00000000000E+00  0.00000000000E+00 -0.17118874193E+04  0.17118874193E+04  0.25500000920E-02 0.  1.
    10030    2    1    2    0    0  0.00000000000E+00  0.00000000000E+00  0.39435430681E+03  0.38181291454E+04  0.37977091583E+04 0.  0.
        1    1    3    3  502    0  0.53930245116E+03 -0.91109452372E+03  0.17819485411E+04  0.20727472032E+04  0.50400001928E-02 0. -1.
       -1    1    3    3    0  502 -0.53930245116E+03  0.91109452372E+03 -0.13875942343E+04  0.17453819422E+04  0.50400001928E-02 0.  1.
</event>
<event>
 5   0  0.3442126E-07  0.3795910E+04  0.7818609E-02  0.8047033E-01
       -2   -1    0    0    0  501  0.00000000000E+00  0.00000000000E+00  0.28264684376E+04  0.28264684376E+04  0.25500000920E-02 0.  1.
        2   -1    0    0  501    0  0.00000000000E+00  0.00000000000E+00 -0.12744641966E+04  0.12744641966E+04  0.25500000920E-02 0. -1.
    10030    2    1    2    0    0  0.00000000000E+00  0.00000000000E+00  0.15520042410E+04  0.41009326341E+04  0.37959098126E+04 0.  0.
        2    1    3    3  502    0  0.98452469503E+03  0.15969396404E+04  0.46526558438E+03  0.19328675987E+04  0.25500000920E-02 0. -1.
       -2    1    3    3    0  502 -0.98452469503E+03 -0.15969396404E+04  0.10867386566E+04  0.21680650354E+04  0.25500000920E-02 0.  1.
</event>
<event>
 5   0  0.1070988E-07  0.3722614E+04  0.7818609E-02  0.8062969E-01
       -1   -1    0    0    0  501  0.00000000000E+00  0.00000000000E+00  0.25768216501E+04  0.25768216501E+04  0.50400001928E-02 0.  1.
        1   -1    0    0  501    0  0.00000000000E+00  0.00000000000E+00 -0.13444717708E+04  0.13444717708E+04  0.50400001928E-02 0. -1.
    10030    2    1    2    0    0  0.00000000000E+00  0.00000000000E+00  0.12323498793E+04  0.39212934209E+04  0.37226141175E+04 0.  0.
        2    1    3    3  502    0 -0.67848495018E+03 -0.14744169140E+04  0.15759668969E+04  0.22622817517E+04  0.25500000920E-02 0.  1.
       -2    1    3    3    0  502  0.67848495018E+03  0.14744169140E+04 -0.34361701758E+03  0.16590116692E+04  0.25500000920E-02 0. -1.
</event>
<event>
 5   0  0.3509843E-07  0.3820983E+04  0.7818609E-02  0.8041667E-01
        2   -1    0    0  501    0  0.00000000000E+00  0.00000000000E+00  0.24992658497E+04  0.24992658497E+04  0.25500000920E-02 0.  1.
       -2   -1    0    0    0  501  0.00000000000E+00  0.00000000000E+00 -0.14604201608E+04  0.14604201608E+04  0.25500000920E-02 0. -1.
    10030    2    1    2    0    0  0.00000000000E+00  0.00000000000E+00  0.10388456889E+04  0.39596860105E+04  0.38209832421E+04 0.  0.
        4    1    3    3  502    0 -0.18804008290E+04 -0.31397671831E+03  0.39045460299E+03  0.19460074685E+04  0.12699999809E+01 0. -1.
       -4    1    3    3    0  502  0.18804008290E+04  0.31397671831E+03  0.64839108594E+03  0.20136785421E+04  0.12699999809E+01 0.  1.
</event>
<event>
 5   0  0.3377396E-07  0.3793579E+04  0.7818609E-02  0.8047534E-01
       -2   -1    0    0    0  501  0.00000000000E+00  0.00000000000E+00  0.22584630781E+04  0.22584630781E+04  0.25500000920E-02 0.  1.
        2   -1    0    0  501    0  0.00000000000E+00  0.00000000000E+00 -0.15930351099E+04  0.15930351099E+04  0.25500000920E-02 0. -1.
    10030    2    1    2    0    0  0.00000000000E+00  0.00000000000E+00  0.66542796824E+03  0.38514981880E+04  0.37935793008E+04 0.  0.
        5    1    3    3  502    0 -0.48795241959E+03 -0.49091396191E+03  0.21256589922E+04  0.22355183567E+04  0.46999998093E+01 0.  1.
       -5    1    3    3    0  502  0.48795241959E+03  0.49091396191E+03 -0.14602310240E+04  0.16159798313E+04  0.46999998093E+01 0. -1.
</event>
<event>
 5   0  0.3509843E-07  0.3809408E+04  0.7818609E-02  0.8044139E-01
        2   -1    0    0  501    0  0.00000000000E+00  0.00000000000E+00  0.19003896099E+04  0.19003896099E+04  0.25500000920E-02 0. -1.
       -2   -1    0    0    0  501  0.00000000000E+00  0.00000000000E+00 -0.19090279300E+04  0.19090279300E+04  0.25500000920E-02 0.  1.
    10030    2    1    2    0    0  0.00000000000E+00  0.00000000000E+00 -0.86383201331E+01  0.38094175398E+04  0.38094077456E+04 0.  0.
        4    1    3    3  502    0  0.44737274730E+03  0.16648749897E+04 -0.81422501679E+03  0.19065453305E+04  0.12699999809E+01 0.  1.
       -4    1    3    3    0  502 -0.44737274730E+03 -0.16648749897E+04  0.80558669666E+03  0.19028722093E+04  0.12699999809E+01 0. -1.
</event>
<event>
 5   0  0.3442126E-07  0.3796748E+04  0.7818609E-02  0.8046853E-01
        2   -1    0    0  501    0  0.00000000000E+00  0.00000000000E+00  0.26564224161E+04  0.26564224161E+04  0.25500000920E-02 0.  1.
       -2   -1    0    0    0  501  0.00000000000E+00  0.00000000000E+00 -0.13566454541E+04  0.13566454541E+04  0.25500000920E-02 0. -1.
    10030    2    1    2    0    0  0.00000000000E+00  0.00000000000E+00  0.12997769620E+04  0.40130678702E+04  0.37967477635E+04 0.  0.
        2    1    3    3  502    0 -0.98616084871E+03  0.57443259299E+03  0.22533365684E+04  0.25258685068E+04  0.25500000920E-02 0.  1.
       -2    1    3    3    0  502  0.98616084871E+03 -0.57443259299E+03 -0.95355960639E+03  0.14871993634E+04  0.25500000920E-02 0. -1.
</event>
<event>
 5   0  0.3377396E-07  0.3524976E+04  0.7818609E-02  0.8107896E-01
       -2   -1    0    0    0  501  0.00000000000E+00  0.00000000000E+00  0.17365582530E+04  0.17365582530E+04  0.25500000920E-02 0. -1.
        2   -1    0    0  501    0  0.00000000000E+00  0.00000000000E+00 -0.17888051129E+04  0.17888051129E+04  0.25500000920E-02 0.  1.
    10030    2    1    2    0    0  0.00000000000E+00  0.00000000000E+00 -0.52246859890E+02  0.35253633660E+04  0.35249761882E+04 0.  0.
        5    1    3    3  502    0  0.13087631507E+03  0.42253973794E+03 -0.17323805016E+04  0.17879688846E+04  0.46999998093E+01 0.  1.
       -5    1    3    3    0  502 -0.13087631507E+03 -0.42253973794E+03  0.16801336417E+04  0.17373944814E+04  0.46999998093E+01 0. -1.
</event>
<event>
 5   0  0.1085771E-07  0.3800785E+04  0.7818609E-02  0.8045986E-01
       -1   -1    0    0    0  501  0.00000000000E+00  0.00000000000E+00  0.16840499424E+04  0.16840499424E+04  0.50400001928E-02 0.  1.
        1   -1    0    0  501    0  0.00000000000E+00  0.00000000000E+00 -0.21445275656E+04  0.21445275656E+04  0.50400001928E-02 0. -1.
    10030    2    1    2    0    0  0.00000000000E+00  0.00000000000E+00 -0.46047762319E+03  0.38285775079E+04  0.38007849311E+04 0.  0.
        1    1    3    3  502    0  0.65279877942E+03  0.58980163422E+03  0.14665605797E+04  0.17102082178E+04  0.50400001928E-02 0.  1.
       -1    1    3    3    0  502 -0.65279877942E+03 -0.58980163422E+03 -0.19270382029E+04  0.21183692902E+04  0.50400001928E-02 0. -1.
</event>
<event>
 5   0  0.3327241E-07  0.3751727E+04  0.7818609E-02  0.8056594E-01
       -2   -1    0    0    0  501  0.00000000000E+00  0.00000000000E+00  0.14914424801E+04  0.14914424801E+04  0.25500000920E-02 0.  1.
        2   -1    0    0  501    0  0.00000000000E+00  0.00000000000E+00 -0.23593696622E+04  0.23593696622E+04  0.25500000920E-02 0. -1.
    10030    2    1    2    0    0  0.00000000000E+00  0.00000000000E+00 -0.86792718216E+03  0.38508121423E+04  0.37517271438E+04 0.  0.
        3    1    3    3  502    0  0.15972590353E+04 -0.40405967681E+03 -0.13545133314E+04  0.21328870161E+04  0.10100000352E+00 0. -1.
       -3    1    3    3    0  502 -0.15972590353E+04  0.40405967681E+03  0.48658614921E+03  0.17179251262E+04  0.10100000352E+00 0.  1.
</event>
<event>
 5   0  0.1085771E-07  0.3815845E+04  0.7818609E-02  0.8042763E-01
        1   -1    0    0  501    0  0.00000000000E+00  0.00000000000E+00  0.12504869281E+04  0.12504869281E+04  0.50400001928E-02 0. -1.
       -1   -1    0    0    0  501  0.00000000000E+00  0.00000000000E+00 -0.29110003504E+04  0.29110003505E+04  0.50400001928E-02 0.  1.
    10030    2    1    2    0    0  0.00000000000E+00  0.00000000000E+00 -0.16605134224E+04  0.41614872785E+04  0.38158448008E+04 0.  0.
        1    1    3    3  502    0  0.55116209239E+03  0.15886788747E+04 -0.18132855468E+04  0.24729910419E+04  0.50400001928E-02 0.  1.
       -1    1    3    3    0  502 -0.55116209239E+03 -0.15886788747E+04  0.15277212446E+03  0.16884962366E+04  0.50400001928E-02 0. -1.
</event>
<event>
 5   0  0.3442126E-07  0.3811217E+04  0.7818609E-02  0.8043752E-01
        2   -1    0    0  501    0  0.00000000000E+00  0.00000000000E+00  0.19208661067E+04  0.19208661067E+04  0.25500000920E-02 0. -1.
       -2   -1    0    0    0  501  0.00000000000E+00  0.00000000000E+00 -0.18904723732E+04  0.18904723733E+04  0.25500000920E-02 0.  1.
    10030    2    1    2    0    0  0.00000000000E+00  0.00000000000E+00  0.30393733492E+02  0.38113384800E+04  0.38112172898E+04 0.  0.
        2    1    3    3  502    0  0.85816557345E+03  0.15443686908E+04 -0.69884369683E+03  0.18999750833E+04  0.25500000920E-02 0.  1.
       -2    1    3    3    0  502 -0.85816557345E+03 -0.15443686908E+04  0.72923743032E+03  0.19113633967E+04  0.25500000920E-02 0. -1.
</event>
<event>
 5   0  0.3377396E-07  0.3766287E+04  0.7818609E-02  0.8053428E-01
        2   -1    0    0  501    0  0.00000000000E+00  0.00000000000E+00  0.17809269771E+04  0.17809269771E+04  0.25500000920E-02 0. -1.
       -2   -1    0    0    0  501  0.00000000000E+00  0.00000000000E+00 -0.19912272103E+04  0.19912272103E+04  0.25500000920E-02 0.  1.
    10030    2    1    2    0    0  0.00000000000E+00  0.00000000000E+00 -0.21030023323E+03  0.37721541874E+04  0.37662874327E+04 0.  0.
        5    1    3    3  502    0 -0.11447239896E+04  0.50570480312E+03 -0.15144944161E+04  0.19646490238E+04  0.46999998093E+01 0.  1.
       -5    1    3    3    0  502  0.11447239896E+04 -0.50570480312E+03  0.13041941828E+04  0.18075051637E+04  0.46999998093E+01 0. -1.
</event>
<event>
 5   0  0.1070988E-07  0.3826573E+04  0.7818609E-02  0.8040476E-01
        1   -1    0    0  501    0  0.00000000000E+00  0.00000000000E+00  0.12835966187E+04  0.12835966187E+04  0.50400001928E-02 0.  1.
       -1   -1    0    0    0  501  0.00000000000E+00  0.00000000000E+00 -0.28518812478E+04  0.28518812478E+04  0.50400001928E-02 0. -1.
    10030    2    1    2    0    0  0.00000000000E+00  0.00000000000E+00 -0.15682846291E+04  0.41354778665E+04  0.38265729454E+04 0.  0.
        3    1    3    3  502    0 -0.18901470046E+04 -0.11067971281E+03 -0.48667858360E+03  0.19549326719E+04  0.10100000352E+00 0. -1.
       -3    1    3    3    0  502  0.18901470046E+04  0.11067971281E+03 -0.10816060455E+04  0.21805451946E+04  0.10100000352E+00 0.  1.
</event>
<event>
 5   0  0.1085771E-07  0.3800972E+04  0.7818609E-02  0.8045946E-01
        1   -1    0    0  501    0  0.00000000000E+00  0.00000000000E+00  0.16164462482E+04  0.16164462482E+04  0.50400001928E-02 0. -1.
       -1   -1    0    0    0  501  0.00000000000E+00  0.00000000000E+00 -0.22344366789E+04  0.22344366789E+04  0.50400001928E-02 0.  1.
    10030    2    1    2    0    0  0.00000000000E+00  0.00000000000E+00 -0.61799043072E+03  0.38508829271E+04  0.38009718686E+04 0.  0.
        1    1    3    3  502    0 -0.18017165384E+03 -0.18646436356E+04 -0.63333815213E+03  0.19774920803E+04  0.50400001928E-02 0.  1.
       -1    1    3    3    0  502  0.18017165384E+03  0.18646436356E+04  0.15347721419E+02  0.18733908469E+04  0.50400001928E-02 0. -1.
</event>
<event>
 5   0  0.1070988E-07  0.3832819E+04  0.7818609E-02  0.8039148E-01
        1   -1    0    0  501    0  0.00000000000E+00  0.00000000000E+00  0.13074153419E+04  0.13074153419E+04  0.50400001928E-02 0.  1.
       -1   -1    0    0    0  501  0.00000000000E+00  0.00000000000E+00 -0.28090736384E+04  0.28090736384E+04  0.50400001928E-02 0. -1.
    10030    2    1    2    0    0  0.00000000000E+00  0.00000000000E+00 -0.15016582965E+04  0.41164889802E+04  0.38328193129E+04 0.  0.
        5    1    3    3  502    0  0.15242755367E+04  0.71610062976E+03 -0.17330575109E+04  0.24165525961E+04  0.46999998093E+01 0. -1.
       -5    1    3    3    0  502 -0.15242755367E+04 -0.71610062976E+03  0.23139921439E+03  0.16999363841E+04  0.46999998093E+01 0.  1.
</event>
<event>
 5   0  0.1070988E-07  0.3819016E+04  0.7818609E-02  0.8042086E-01
       -1   -1    0    0    0  501  0.00000000000E+00  0.00000000000E+00  0.13632727265E+04  0.13632727265E+04  0.50400001928E-02 0.  1.
        1   -1    0    0  501    0  0.00000000000E+00  0.00000000000E+00 -0.26746088704E+04  0.26746088704E+04  0.50400001928E-02 0. -1.
    10030    2    1    2    0    0  0.00000000000E+00  0.00000000000E+00 -0.13113361439E+04  0.40378815969E+04  0.38190162749E+04 0.  0.
        3    1    3    3  502    0  0.63913145919E+03 -0.10190416391E+04 -0.22236569156E+04  0.25281584153E+04  0.10100000352E+00 0. -1.
       -3    1    3    3    0  502 -0.63913145919E+03  0.10190416391E+04  0.91232077169E+03  0.15097231816E+04  0.10100000352E+00 0.  1.
</event>
<event>
 5   0  0.3377396E-07  0.3777450E+04  0.7818609E-02  0.8051011E-01
       -2   -1    0    0    0  501  0.00000000000E+00  0.00000000000E+00  0.16218548000E+04  0.16218548000E+04  0.25500000920E-02 0. -1.
        2   -1    0    0  501    0  0.00000000000E+00  0.00000000000E+00 -0.21995073141E+04  0.21995073141E+04  0.25500000920E-02 0.  1.
    10030    2    1    2    0    0  0.00000000000E+00  0.00000000000E+00 -0.57765251410E+03  0.38213621142E+04  0.37774496662E+04 0.  0.
        5    1    3    3  502    0  0.66365791737E+03 -0.13327751184E+04  0.88680551083E+03  0.17329678161E+04  0.46999998093E+01 0. -1.
       -5    1    3    3    0  502 -0.66365791737E+03  0.13327751184E+04 -0.14644580249E+04  0.20883942981E+04  0.46999998093E+01 0.  1.
</event>
<event>
 5   0  0.3377396E-07  0.3786252E+04  0.7818609E-02  0.8049112E-01
       -2   -1    0    0    0  501  0.00000000000E+00  0.00000000000E+00  0.22882481669E+04  0.22882481669E+04  0.25500000920E-02 0. -1.
        2   -1    0    0  501    0  0.00000000000E+00  0.00000000000E+00 -0.15662315093E+04  0.15662315093E+04  0.25500000920E-02 0.  1.
    10030    2    1    2    0    0  0.00000000000E+00  0.00000000000E+00  0.72201665764E+03  0.38544796762E+04  0.37862521734E+04 0.  0.
        5    1    3    3  502    0 -0.80707113091E+02  0.57501932912E+03  0.21953499030E+04  0.22708465720E+04  0.46999998093E+01 0. -1.
       -5    1    3    3    0  502  0.80707113091E+02 -0.57501932912E+03 -0.14733332453E+04  0.15836331042E+04  0.46999998093E+01 0.  1.
</event>
<event>
 5   0  0.1085771E-07  0.3799360E+04  0.7818609E-02  0.8046292E-01
       -1   -1    0    0    0  501  0.00000000000E+00  0.00000000000E+00  0.16369864255E+04  0.16369864256E+04  0.50400001928E-02 0. -1.
        1   -1    0    0  501    0  0.00000000000E+00  0.00000000000E+00 -0.22045286291E+04  0.22045286291E+04  0.50400001928E-02 0.  1.
    10030    2    1    2    0    0  0.00000000000E+00  0.00000000000E+00 -0.56754220357E+03  0.38415150547E+04  0.37993596516E+04 0.  0.
        1    1    3    3  502    0 -0.14902192085E+04  0.10936940645E+04  0.15911112467E+03  0.18553264797E+04  0.50400001928E-02 0. -1.
       -1    1    3    3    0  502  0.14902192085E+04 -0.10936940645E+04 -0.72665332824E+03  0.19861885750E+04  0.50400001928E-02 0.  1.
</event>
<event>
 5   0  0.1070988E-07  0.3776043E+04  0.7818609E-02  0.8051316E-01
       -3   -1    0    0    0  501  0.00000000000E+00  0.00000000000E+00  0.30214381418E+04  0.30214381435E+04  0.10100000352E+00 0. -1.
        3   -1    0    0  501    0  0.00000000000E+00  0.00000000000E+00 -0.11797774775E+04  0.11797774818E+04  0.10100000352E+00 0.  1.
    10030    2    1    2    0    0  0.00000000000E+00  0.00000000000E+00  0.18416606643E+04  0.42012156253E+04  0.37760427339E+04 0.  0.
        3    1    3    3  502    0  0.63077108521E+03 -0.53430199232E+03  0.28093884029E+04  0.29284832233E+04  0.10100000352E+00 0. -1.
       -3    1    3    3    0  502 -0.63077108521E+03  0.53430199232E+03 -0.96772773857E+03  0.12727324020E+04  0.10100000352E+00 0.  1.
</event>
<event>
 5   0  0.3327241E-07  0.3788762E+04  0.7818609E-02  0.8048571E-01
       -2   -1    0    0    0  501  0.00000000000E+00  0.00000000000E+00  0.18237049980E+04  0.18237049980E+04  0.25500000920E-02 0.  1.
        2   -1    0    0  501    0  0.00000000000E+00  0.00000000000E+00 -0.19677962443E+04  0.19677962443E+04  0.25500000920E-02 0. -1.
    10030    2    1    2    0    0  0.00000000000E+00  0.00000000000E+00 -0.14409124631E+03  0.37915012423E+04  0.37887622495E+04 0.  0.
        3    1    3    3  502    0  0.12395333575E+04  0.12443984651E+04 -0.78228354336E+03  0.19227423220E+04  0.10100000352E+00 0. -1.
       -3    1    3    3    0  502 -0.12395333575E+04 -0.12443984651E+04  0.63819229705E+03  0.18687589204E+04  0.10100000352E+00 0.  1.
</event>
<event>
 5   0  0.3377396E-07  0.3810497E+04  0.7818609E-02  0.8043906E-01
        2   -1    0    0  501    0  0.00000000000E+00  0.00000000000E+00  0.16114887783E+04  0.16114887783E+04  0.25500000920E-02 0.  1.
       -2   -1    0    0    0  501  0.00000000000E+00  0.00000000000E+00 -0.22525580776E+04  0.22525580776E+04  0.25500000920E-02 0. -1.
    10030    2    1    2    0    0  0.00000000000E+00  0.00000000000E+00 -0.64106929931E+03  0.38640468559E+04  0.38104971143E+04 0.  0.
        5    1    3    3  502    0  0.51812680574E+03 -0.16653491046E+03  0.15309834379E+04  0.16248451127E+04  0.46999998093E+01 0.  1.
       -5    1    3    3    0  502 -0.51812680574E+03  0.16653491046E+03 -0.21720527372E+04  0.22392017431E+04  0.46999998093E+01 0. -1.
</event>
<event>
 5   0  0.3509843E-07  0.3652913E+04  0.7818609E-02  0.8078478E-01
       -2   -1    0    0    0  501  0.00000000000E+00  0.00000000000E+00  0.14570443256E+04  0.14570443256E+04  0.25500000920E-02 0. -1.
        2   -1    0    0  501    0  0.00000000000E+00  0.00000000000E+00 -0.22895281043E+04  0.22895281043E+04  0.25500000920E-02 0.  1.
    10030    2    1    2    0    0  0.00000000000E+00  0.00000000000E+00 -0.83248377873E+03  0.37465724299E+04  0.36529133209E+04 0.  0.
        4    1    3    3  502    0  0.31465896718E+03  0.11883985279E+04  0.96918457634E+03  0.15654461609E+04  0.12699999809E+01 0. -1.
       -4    1    3    3    0  502 -0.31465896718E+03 -0.11883985279E+04 -0.18016683551E+04  0.21811262690E+04  0.12699999809E+01 0.  1.
</event>
<event>
 5   0  0.1070988E-07  0.3760107E+04  0.7818609E-02  0.8054770E-01
        1   -1    0    0  501    0  0.00000000000E+00  0.00000000000E+00  0.21006294744E+04  0.21006294744E+04  0.50400001928E-02 0.  1.
       -1   -1    0    0    0  501  0.00000000000E+00  0.00000000000E+00 -0.16826391160E+04  0.16826391160E+04  0.50400001928E-02 0. -1.
    10030    2    1    2    0    0  0.00000000000E+00  0.00000000000E+00  0.41799035843E+03  0.37832685904E+04  0.37601070846E+04 0.  0.
        3    1    3    3  502    0  0.17877828761E+04 -0.53027930767E+03  0.44971258845E+03  0.19182296991E+04  0.10100000352E+00 0.  1.
       -3    1    3    3    0  502 -0.17877828761E+04  0.53027930767E+03 -0.31722230021E+02  0.18650388913E+04  0.10100000352E+00 0. -1.
</event>
<event>
 5   0  0.1084315E-07  0.3599648E+04  0.7818609E-02  0.8090572E-01
       -1   -1    0    0    0  501  0.00000000000E+00  0.00000000000E+00  0.20202328646E+04  0.20202328646E+04  0.50400001928E-02 0. -1.
        1   -1    0    0  501    0  0.00000000000E+00  0.00000000000E+00 -0.16034616475E+04  0.16034616475E+04  0.50400001928E-02 0.  1.
    10030    2    1    2    0    0  0.00000000000E+00  0.00000000000E+00  0.41677121714E+03  0.36236945122E+04  0.35996477147E+04 0.  0.
        4    1    3    3  502    0  0.13733950179E+04 -0.14317795840E+02  0.13793177259E+04  0.19465194262E+04  0.12699999809E+01 0. -1.
       -4    1    3    3    0  502 -0.13733950179E+04  0.14317795840E+02 -0.96254650876E+03  0.16771750860E+04  0.12699999809E+01 0.  1.
</event>
<event>
 5   0  0.1084315E-07  0.3786848E+04  0.7818609E-02  0.8048983E-01
       -1   -1    0    0    0  501  0.00000000000E+00  0.00000000000E+00  0.12990313822E+04  0.12990313822E+04  0.50400001928E-02 0. -1.
        1   -1    0    0  501    0  0.00000000000E+00  0.00000000000E+00 -0.27597904291E+04  0.27597904291E+04  0.50400001928E-02 0.  1.
    10030    2    1    2    0    0  0.00000000000E+00  0.00000000000E+00 -0.14607590469E+04  0.40588218113E+04  0.37868479640E+04 0.  0.
        4    1    3    3  502    0  0.31573000955E+03  0.15993440140E+04  0.30183775985E+03  0.16579186833E+04  0.12699999809E+01 0.  1.
       -4    1    3    3    0  502 -0.31573000955E+03 -0.15993440140E+04 -0.17625968068E+04  0.24009031280E+04  0.12699999809E+01 0. -1.
</event>
<event>
 5   0  0.1084315E-07  0.3787151E+04  0.7818609E-02  0.8048918E-01
        1   -1    0    0  501    0  0.00000000000E+00  0.00000000000E+00  0.23609511856E+04  0.23609511856E+04  0.50400001928E-02 0. -1.
       -1   -1    0    0    0  501  0.00000000000E+00  0.00000000000E+00 -0.15187216490E+04  0.15187216490E+04  0.50400001928E-02 0.  1.
    10030    2    1    2    0    0  0.00000000000E+00  0.00000000000E+00  0.84222953665E+03  0.38796728346E+04  0.37871507378E+04 0.  0.
        4    1    3    3  502    0  0.42590391992E+03  0.18253700008E+04  0.14574243751E+03  0.18800564512E+04  0.12699999809E+01 0.  1.
       -4    1    3    3    0  502 -0.42590391992E+03 -0.18253700008E+04  0.69648709914E+03  0.19996163834E+04  0.12699999809E+01 0. -1.
</event>
<event>
 5   0  0.1085771E-07  0.3793363E+04  0.7818609E-02  0.8047581E-01
       -1   -1    0    0    0  501  0.00000000000E+00  0.00000000000E+00  0.14976815563E+04  0.14976815563E+04  0.50400001928E-02 0. -1.
        1   -1    0    0  501    0  0.00000000000E+00  0.00000000000E+00 -0.24019793270E+04  0.24019793270E+04  0.50400001928E-02 0.  1.
    10030    2    1    2    0    0  0.00000000000E+00  0.00000000000E+00 -0.90429777063E+03  0.38996608833E+04  0.37933626964E+04 0.  0.
        1    1    3    3  502    0  0.18001402824E+04  0.59660329683E+03 -0.42030331061E+03  0.19424457272E+04  0.50400001928E-02 0. -1.
       -1    1    3    3    0  502 -0.18001402824E+04 -0.59660329683E+03 -0.48399446002E+03  0.19572151561E+04  0.50400001928E-02 0.  1.
</event>
<event>
 5   0  0.1070988E-07  0.3793548E+04  0.7818609E-02  0.8047541E-01
        1   -1    0    0  501    0  0.00000000000E+00  0.00000000000E+00  0.21447846226E+04  0.21447846226E+04  0.50400001928E-02 0.  1.
       -1   -1    0    0    0  501  0.00000000000E+00  0.00000000000E+00 -0.16774418691E+04  0.16774418691E+04  0.50400001928E-02 0. -1.
    10030    2    1    2    0    0  0.00000000000E+00  0.00000000000E+00  0.46734275345E+03  0.38222264917E+04  0.37935479573E+04 0.  0.
        5    1    3    3  502    0 -0.60999420425E+03  0.11686270727E+04 -0.11404375336E+04  0.17431012656E+04  0.46999998093E+01 0. -1.
       -5    1    3    3    0  502  0.60999420425E+03 -0.11686270727E+04  0.16077802870E+04  0.20791252260E+04  0.46999998093E+01 0.  1.
</event>
<event>
 5   0  0.3509843E-07  0.3370250E+04  0.7818609E-02  0.8145247E-01
        2   -1    0    0  501    0  0.00000000000E+00  0.00000000000E+00  0.22587632640E+04  0.22587632640E+04  0.25500000920E-02 0. -1.
       -2   -1    0    0    0  501  0.00000000000E+00  0.00000000000E+00 -0.12571684276E+04  0.12571684276E+04  0.25500000920E-02 0.  1.
    10030    2    1    2    0    0  0.00000000000E+00  0.00000000000E+00  0.10015948364E+04  0.35159316917E+04  0.33702497599E+04 0.  0.
        4    1    3    3  502    0 -0.10255586985E+04  0.13360703694E+04  0.44569798438E+03  0.17422694918E+04  0.12699999809E+01 0.  1.
       -4    1    3    3    0  502  0.10255586985E+04 -0.13360703694E+04  0.55589685204E+03  0.17736621998E+04  0.12699999809E+01 0. -1.
</event>
<event>
 5   0  0.1070988E-07  0.3709421E+04  0.7818609E-02  0.8065877E-01
        3   -1    0    0  501    0  0.00000000000E+00  0.00000000000E+00  0.19466457915E+04  0.19466457941E+04  0.10100000352E+00 0.  1.
       -3   -1    0    0    0  501  0.00000000000E+00  0.00000000000E+00 -0.17671169534E+04  0.17671169563E+04  0.10100000352E+00 0. -1.
    10030    2    1    2    0    0  0.00000000000E+00  0.00000000000E+00  0.17952883805E+03  0.37137627504E+04  0.37094208662E+04 0.  0.
        1    1    3    3  502    0  0.68774692180E+03 -0.11653828644E+04  0.13596487606E+04  0.19182694809E+04  0.50400001928E-02 0. -1.
       -1    1    3    3    0  502 -0.68774692180E+03  0.11653828644E+04 -0.11801199226E+04  0.17954932695E+04  0.50400001928E-02 0.  1.
</event>
<event>
 5   0  0.3509843E-07  0.3583131E+04  0.7818609E-02  0.8094367E-01
       -2   -1    0    0    0  501  0.00000000000E+00  0.00000000000E+00  0.16709783559E+04  0.16709783559E+04  0.25500000920E-02 0. -1.
        2   -1    0    0  501    0  0.00000000000E+00  0.00000000000E+00 -0.19208548996E+04  0.19208548996E+04  0.25500000920E-02 0.  1.
    10030    2    1    2    0    0  0.00000000000E+00  0.00000000000E+00 -0.24987654370E+03  0.35918332554E+04  0.35831310118E+04 0.  0.
        4    1    3    3  502    0  0.32929575050E+03  0.42587824715E+03 -0.18378590333E+04  0.19150810457E+04  0.12699999809E+01 0.  1.
       -4    1    3    3    0  502 -0.32929575050E+03 -0.42587824715E+03  0.15879824896E+04  0.16767522097E+04  0.12699999809E+01 0. -1.
</event>
<event>
 5   0  0.1085771E-07  0.3791003E+04  0.7818609E-02  0.8048088E-01
       -1   -1    0    0    0  501  0.00000000000E+00  0.00000000000E+00  0.21426106013E+04  0.21426106014E+04  0.50400001928E-02 0.  1.
        1   -1    0    0  501    0  0.00000000000E+00  0.00000000000E+00 -0.16768913187E+04  0.16768913187E+04  0.50400001928E-02 0. -1.
    10030    2    1    2    0    0  0.00000000000E+00  0.00000000000E+00  0.46571928269E+03  0.38195019200E+04  0.37910025675E+04 0.  0.
        1    1    3    3  502    0 -0.14362719402E+04 -0.10564447471E+04  0.88110350482E+03  0.19887925925E+04  0.50400001928E-02 0.  1.
       -1    1    3    3    0  502  0.14362719402E+04  0.10564447471E+04 -0.41538422213E+03  0.18307093275E+04  0.50400001928E-02 0. -1.
</event>
<event>
 5   0  0.3539010E-07  0.3997162E+04  0.7818609E-02  0.8005119E-01
        2   -1    0    0  501    0  0.00000000000E+00  0.00000000000E+00  0.14659897820E+04  0.14659897820E+04  0.25500000920E-02 0.  1.
       -2   -1    0    0    0  501  0.00000000000E+00  0.00000000000E+00 -0.27246619799E+04  0.27246619799E+04  0.25500000920E-02 0. -1.
    10030    2    1    2    0    0  0.00000000000E+00  0.00000000000E+00 -0.12586721979E+04  0.41906517620E+04  0.39971623045E+04 0.  0.
        1    1    3    3  502    0  0.19770023577E+04  0.23874500225E+03 -0.45144918031E+03  0.20418971230E+04  0.50400001928E-02 0. -1.
       -1    1    3    3    0  502 -0.19770023577E+04 -0.23874500225E+03 -0.80722301756E+03  0.21487546390E+04  0.50400001928E-02 0.  1.
</event>
<event>
 5   0  0.1070988E-07  0.3252852E+04  0.7818609E-02  0.8174997E-01
       -1   -1    0    0    0  501  0.00000000000E+00  0.00000000000E+00  0.31023195994E+04  0.31023195994E+04  0.50400001928E-02 0. -1.
        1   -1    0    0  501    0  0.00000000000E+00  0.00000000000E+00 -0.85267237528E+03  0.85267237529E+03  0.50400001928E-02 0.  1.
    10030    2    1    2    0    0  0.00000000000E+00  0.00000000000E+00  0.22496472241E+04  0.39549919747E+04  0.32528524232E+04 0.  0.
        3    1    3    3  502    0 -0.91254482400E+03 -0.11829949198E+04  0.34340981607E+03  0.15330183782E+04  0.10100000352E+00 0.  1.
       -3    1    3    3    0  502  0.91254482400E+03  0.11829949198E+04  0.19062374080E+04  0.24219735965E+04  0.10100000352E+00 0. -1.
</event>
<event>
 5   0  0.3442126E-07  0.3778303E+04  0.7818609E-02  0.8050827E-01
       -2   -1    0    0    0  501  0.00000000000E+00  0.00000000000E+00  0.14793058318E+04  0.14793058318E+04  0.25500000920E-02 0. -1.
        2   -1    0    0  501    0  0.00000000000E+00  0.00000000000E+00 -0.24125465629E+04  0.24125465629E+04  0.25500000920E-02 0.  1.
    10030    2    1    2    0    0  0.00000000000E+00  0.00000000000E+00 -0.93324073108E+03  0.38918523947E+04  0.37783034288E+04 0.  0.
        2    1    3    3  502    0  0.80320983993E+03  0.16602257150E+04 -0.88806022182E+03  0.20469847164E+04  0.25500000920E-02 0.  1.
       -2    1    3    3    0  502 -0.80320983993E+03 -0.16602257150E+04 -0.45180509258E+02  0.18448676782E+04  0.25500000920E-02 0. -1.
</event>
<event>
 5   0  0.1085771E-07  0.3818295E+04  0.7818609E-02  0.8042240E-01
       -1   -1    0    0    0  501  0.00000000000E+00  0.00000000000E+00  0.13972658917E+04  0.13972658917E+04  0.50400001928E-02 0. -1.
        1   -1    0    0  501    0  0.00000000000E+00  0.00000000000E+00 -0.26085538187E+04  0.26085538187E+04  0.50400001928E-02 0.  1.
    10030    2    1    2    0    0  0.00000000000E+00  0.00000000000E+00 -0.12112879271E+04  0.40058197104E+04  0.38182945290E+04 0.  0.
        1    1    3    3  502    0 -0.56728638068E+03 -0.77526702245E+03 -0.23365172498E+04  0.25262948467E+04  0.50400001928E-02 0.  1.
       -1    1    3    3    0  502  0.56728638068E+03  0.77526702245E+03  0.11252293227E+04  0.14795248638E+04  0.50400001928E-02 0. -1.
</event>
<event>
 5   0  0.1070988E-07  0.3790890E+04  0.7818609E-02  0.8048113E-01
        1   -1    0    0  501    0  0.00000000000E+00  0.00000000000E+00  0.27685850846E+04  0.27685850846E+04  0.50400001928E-02 0. -1.
       -1   -1    0    0    0  501  0.00000000000E+00  0.00000000000E+00 -0.12976706534E+04  0.12976706534E+04  0.50400001928E-02 0.  1.
    10030    2    1    2    0    0  0.00000000000E+00  0.00000000000E+00  0.14709144312E+04  0.40662557380E+04  0.37908899302E+04 0.  0.
        5    1    3    3  502    0 -0.62607896351E+03 -0.84985785286E+03  0.24241247201E+04  0.26439810868E+04  0.46999998093E+01 0. -1.
       -5    1    3    3    0  502  0.62607896351E+03  0.84985785286E+03 -0.95321028891E+03  0.14222746512E+04  0.46999998093E+01 0.  1.
</event>
<event>
 5   0  0.1085771E-07  0.3789247E+04  0.7818609E-02  0.8048466E-01
       -1   -1    0    0    0  501  0.00000000000E+00  0.00000000000E+00  0.20210580543E+04  0.20210580543E+04  0.50400001928E-02 0.  1.
        1   -1    0    0  501    0  0.00000000000E+00  0.00000000000E+00 -0.17760988324E+04  0.17760988324E+04  0.50400001928E-02 0. -1.
    10030    2    1    2    0    0  0.00000000000E+00  0.00000000000E+00  0.24495922193E+03  0.37971568867E+04  0.37892473397E+04 0.  0.
        1    1    3    3  502    0 -0.65121191660E+03 -0.50853757561E+03  0.18310051939E+04  0.20087975125E+04  0.50400001928E-02 0.  1.
       -1    1    3    3    0  502  0.65121191660E+03  0.50853757561E+03 -0.15860459719E+04  0.17883593742E+04  0.50400001928E-02 0. -1.
</event>
<event>
 5   0  0.3377396E-07  0.3431712E+04  0.7818609E-02  0.8130167E-01
       -2   -1    0    0    0  501  0.00000000000E+00  0.00000000000E+00  0.14415325817E+04  0.14415325817E+04  0.25500000920E-02 0.  1.
        2   -1    0    0  501    0  0.00000000000E+00  0.00000000000E+00 -0.20423832348E+04  0.20423832348E+04  0.25500000920E-02 0. -1.
    10030    2    1    2    0    0  0.00000000000E+00  0.00000000000E+00 -0.60085065315E+03  0.34839158165E+04  0.34317120959E+04 0.  0.
        5    1    3    3  502    0  0.11937376294E+04 -0.11810319374E+04 -0.65834185427E+03  0.18036856855E+04  0.46999998093E+01 0. -1.
       -5    1    3    3    0  502 -0.11937376294E+04  0.11810319374E+04  0.57491201115E+02  0.16802301310E+04  0.46999998093E+01 0.  1.
</event>
<event>
 5   0  0.3327241E-07  0.3413101E+04  0.7818609E-02  0.8134698E-01
       -2   -1    0    0    0  501  0.00000000000E+00  0.00000000000E+00  0.12562157175E+04  0.12562157175E+04  0.25500000920E-02 0.  1.
        2   -1    0    0  501    0  0.00000000000E+00  0.00000000000E+00 -0.23183231804E+04  0.23183231804E+04  0.25500000920E-02 0. -1.
    10030    2    1    2    0    0  0.00000000000E+00  0.00000000000E+00 -0.10621074629E+04  0.35745388980E+04  0.34131006534E+04 0.  0.
        3    1    3    3  502    0 -0.13611247700E+04  0.44062954839E+03  0.44327208236E+03  0.14977667334E+04  0.10100000352E+00 0.  1.
       -3    1    3    3    0  502  0.13611247700E+04 -0.44062954839E+03 -0.15053795452E+04  0.20767721646E+04  0.10100000352E+00 0. -1.
</event>
<event>
 5   0  0.3539010E-07  0.3792236E+04  0.7818609E-02  0.8047823E-01
        2   -1    0    0  501    0  0.00000000000E+00  0.00000000000E+00  0.25347522222E+04  0.25347522222E+04  0.25500000920E-02 0.  1.
       -2   -1    0    0    0  501  0.00000000000E+00  0.00000000000E+00 -0.14183887467E+04  0.14183887467E+04  0.25500000920E-02 0. -1.
    10030    2    1    2    0    0  0.00000000000E+00  0.00000000000E+00  0.11163634755E+04  0.39531409688E+04  0.37922362941E+04 0.  0.
        1    1    3    3  502    0 -0.14064709695E+04 -0.10779626848E+04 -0.14505293642E+03  0.17779776411E+04  0.50400001928E-02 0. -1.
       -1    1    3    3    0  502  0.14064709695E+04  0.10779626848E+04  0.12614164119E+04  0.21751633277E+04  0.50400001928E-02 0.  1.
</event>
<event>
 5   0  0.1070988E-07  0.3863234E+04  0.7818609E-02  0.8032719E-01
        1   -1    0    0  501    0  0.00000000000E+00  0.00000000000E+00  0.29265373539E+04  0.29265373539E+04  0.50400001928E-02 0.  1.
       -1   -1    0    0    0  501  0.00000000000E+00  0.00000000000E+00 -0.12749350039E+04  0.12749350039E+04  0.50400001928E-02 0. -1.
    10030    2    1    2    0    0  0.00000000000E+00  0.00000000000E+00  0.16516023500E+04  0.42014723578E+04  0.38632343510E+04 0.  0.
        2    1    3    3  502    0  0.12737099292E+04  0.13554134382E+04  0.13926472915E+04  0.23235638684E+04  0.25500000920E-02 0.  1.
       -2    1    3    3    0  502 -0.12737099292E+04 -0.13554134382E+04  0.25895505852E+03  0.18779084894E+04  0.25500000920E-02 0. -1.
</event>
<event>
 5   0  0.1085771E-07  0.3703457E+04  0.7818609E-02  0.8067196E-01
       -1   -1    0    0    0  501  0.00000000000E+00  0.00000000000E+00  0.16446739816E+04  0.16446739816E+04  0.50400001928E-02 0.  1.
        1   -1    0    0  501    0  0.00000000000E+00  0.00000000000E+00 -0.20848501844E+04  0.20848501844E+04  0.50400001928E-02 0. -1.
    10030    2    1    2    0    0  0.00000000000E+00  0.00000000000E+00 -0.44017620277E+03  0.37295241660E+04  0.37034572247E+04 0.  0.
        1    1    3    3  502    0 -0.13614013306E+04  0.10227963423E+04  0.51261317884E+03  0.17782851886E+04  0.50400001928E-02 0.  1.
       -1    1    3    3    0  502  0.13614013306E+04 -0.10227963423E+04 -0.95278938161E+03  0.19512389773E+04  0.50400001928E-02 0. -1.
</event>
<event>
 5   0  0.3377396E-07  0.3618158E+04  0.7818609E-02  0.8086345E-01
        2   -1    0    0  501    0  0.00000000000E+00  0.00000000000E+00  0.14275248246E+04  0.14275248246E+04  0.25500000920E-02 0. -1.
       -2   -1    0    0    0  501  0.00000000000E+00  0.00000000000E+00 -0.22926159282E+04  0.22926159282E+04  0.25500000920E-02 0.  1.
    10030    2    1    2    0    0  0.00000000000E+00  0.00000000000E+00 -0.86509110358E+03  0.37201407528E+04  0.36181576255E+04 0.  0.
        5    1    3    3  502    0  0.13289711399E+04 -0.42410585179E+03  0.75175121671E+03  0.15846709583E+04  0.46999998093E+01 0. -1.
       -5    1    3    3    0  502 -0.13289711399E+04  0.42410585179E+03 -0.16168423203E+04  0.21354697945E+04  0.46999998093E+01 0.  1.
</event>
<event>
 5   0  0.1070988E-07  0.3816304E+04  0.7818609E-02  0.8042665E-01
        1   -1    0    0  501    0  0.00000000000E+00  0.00000000000E+00  0.19557591716E+04  0.19557591716E+04  0.50400001928E-02 0. -1.
       -1   -1    0    0    0  501  0.00000000000E+00  0.00000000000E+00 -0.18617038103E+04  0.18617038103E+04  0.50400001928E-02 0.  1.
    10030    2    1    2    0    0  0.00000000000E+00  0.00000000000E+00  0.94055361301E+02  0.38174629819E+04  0.38163041293E+04 0.  0.
        5    1    3    3  502    0  0.66846425424E+03 -0.17081501169E+04 -0.47887042639E+03  0.18957743158E+04  0.46999998093E+01 0.  1.
       -5    1    3    3    0  502 -0.66846425424E+03  0.17081501169E+04  0.57292578770E+03  0.19216886661E+04  0.46999998093E+01 0. -1.
</event>
<event>
 5   0  0.1084315E-07  0.3785168E+04  0.7818609E-02  0.8049345E-01
        1   -1    0    0  501    0  0.00000000000E+00  0.00000000000E+00  0.14581244846E+04  0.14581244846E+04  0.50400001928E-02 0.  1.
       -1   -1    0    0    0  501  0.00000000000E+00  0.00000000000E+00 -0.24564936368E+04  0.24564936368E+04  0.50400001928E-02 0. -1.
    10030    2    1    2    0    0  0.00000000000E+00  0.00000000000E+00 -0.99836915227E+03  0.39146181214E+04  0.37851676412E+04 0.  0.
        4    1    3    3  502    0  0.46175484530E+03  0.10079367988E+04  0.10871295825E+04  0.15527415978E+04  0.12699999809E+01 0.  1.
       -4    1    3    3    0  502 -0.46175484530E+03 -0.10079367988E+04 -0.20854987347E+04  0.23618765236E+04  0.12699999809E+01 0. -1.
</event>
<event>
 5   0  0.3377396E-07  0.3792885E+04  0.7818609E-02  0.8047683E-01
       -2   -1    0    0    0  501  0.00000000000E+00  0.00000000000E+00  0.22483507120E+04  0.22483507120E+04  0.25500000920E-02 0. -1.
        2   -1    0    0  501    0  0.00000000000E+00  0.00000000000E+00 -0.15996147106E+04  0.15996147106E+04  0.25500000920E-02 0.  1.
    10030    2    1    2    0    0  0.00000000000E+00  0.00000000000E+00  0.64873600140E+03  0.38479654226E+04  0.37928853785E+04 0.  0.
        5    1    3    3  502    0  0.17619746725E+03  0.81787398991E+03  0.20509965258E+04  0.22150783846E+04  0.46999998093E+01 0. -1.
       -5    1    3    3    0  502 -0.17619746725E+03 -0.81787398991E+03 -0.14022605244E+04  0.16328870381E+04  0.46999998093E+01 0.  1.
</event>
<event>
 5   0  0.3377396E-07  0.3786011E+04  0.7818609E-02  0.8049164E-01
        2   -1    0    0  501    0  0.00000000000E+00  0.00000000000E+00  0.22919304938E+04  0.22919304938E+04  0.25500000920E-02 0. -1.
       -2   -1    0    0    0  501  0.00000000000E+00  0.00000000000E+00 -0.15635161338E+04  0.15635161338E+04  0.25500000920E-02 0.  1.
    10030    2    1    2    0    0  0.00000000000E+00  0.00000000000E+00  0.72841435999E+03  0.38554466276E+04  0.37860112544E+04 0.  0.
        5    1    3    3  502    0 -0.89008115642E+03  0.16656273643E+03  0.20570609055E+04  0.22475562883E+04  0.46999998093E+01 0. -1.
       -5    1    3    3    0  502  0.89008115642E+03 -0.16656273643E+03 -0.13286465455E+04  0.16078903393E+04  0.46999998093E+01 0.  1.
</event>
<event>
 5   0  0.3509843E-07  0.3791661E+04  0.7818609E-02  0.8047947E-01
        2   -1    0    0  501    0  0.00000000000E+00  0.00000000000E+00  0.19434876256E+04  0.19434876256E+04  0.25500000920E-02 0.  1.
       -2   -1    0    0    0  501  0.00000000000E+00  0.00000000000E+00 -0.18493423724E+04  0.18493423724E+04  0.25500000920E-02 0. -1.
    10030    2    1    2    0    0  0.00000000000E+00  0.00000000000E+00  0.94145253225E+02  0.37928299980E+04  0.37916613858E+04 0.  0.
        4    1    3    3  502    0  0.94190573722E+03 -0.14776580491E+04  0.77083738425E+03  0.19143802166E+04  0.12699999809E+01 0. -1.
       -4    1    3    3    0  502 -0.94190573722E+03  0.14776580491E+04 -0.67669213102E+03  0.18784497813E+04  0.12699999809E+01 0.  1.
</event>
<event>
 5   0  0.3539010E-07  0.3816879E+04  0.7818609E-02  0.8042542E-01
       -2   -1    0    0    0  501  0.00000000000E+00  0.00000000000E+00  0.19564853141E+04  0.19564853141E+04  0.25500000920E-02 0.  1.
        2   -1    0    0  501    0  0.00000000000E+00  0.00000000000E+00 -0.18615732418E+04  0.18615732418E+04  0.25500000920E-02 0. -1.
    10030    2    1    2    0    0  0.00000000000E+00  0.00000000000E+00  0.94912072257E+02  0.38180585559E+04  0.38168786770E+04 0.  0.
        1    1    3    3  502    0  0.17077786025E+04 -0.20498242172E+02  0.89931353733E+03  0.19302053703E+04  0.50400001928E-02 0.  1.
       -1    1    3    3    0  502 -0.17077786025E+04  0.20498242172E+02 -0.80440146507E+03  0.18878531856E+04  0.50400001928E-02 0. -1.
</event>
<event>
 5   0  0.3539010E-07  0.3666346E+04  0.7818609E-02  0.8075461E-01
        2   -1    0    0  501    0  0.00000000000E+00  0.00000000000E+00  0.20821870113E+04  0.20821870113E+04  0.25500000920E-02 0.  1.
       -2   -1    0    0    0  501  0.00000000000E+00  0.00000000000E+00 -0.16139389023E+04  0.16139389023E+04  0.25500000920E-02 0. -1.
    10030    2    1    2    0    0  0.00000000000E+00  0.00000000000E+00  0.46824810897E+03  0.36961259136E+04  0.36663456571E+04 0.  0.
        1    1    3    3  502    0 -0.23828391927E+03  0.57836050058E+03  0.19712695174E+04  0.20681352966E+04  0.50400001928E-02 0.  1.
       -1    1    3    3    0  502  0.23828391927E+03 -0.57836050058E+03 -0.15030214084E+04  0.16279906170E+04  0.50400001928E-02 0. -1.
</event>
<event>
 5   0  0.1070988E-07  0.3799298E+04  0.7818609E-02  0.8046306E-01
       -1   -1    0    0    0  501  0.00000000000E+00  0.00000000000E+00  0.20245449389E+04  0.20245449389E+04  0.50400001928E-02 0.  1.
        1   -1    0    0  501    0  0.00000000000E+00  0.00000000000E+00 -0.17824580255E+04  0.17824580255E+04  0.50400001928E-02 0. -1.
    10030    2    1    2    0    0  0.00000000000E+00  0.00000000000E+00  0.24208691344E+03  0.38070029644E+04  0.37992980269E+04 0.  0.
        2    1    3    3  502    0 -0.36971994135E+02 -0.17560879458E+04  0.84601231560E+03  0.19496021748E+04  0.25500000920E-02 0.  1.
       -2    1    3    3    0  502  0.36971994135E+02  0.17560879458E+04 -0.60392540217E+03  0.18574007896E+04  0.25500000920E-02 0. -1.
</event>
<event>
 5   0  0.3539010E-07  0.3753050E+04  0.7818609E-02  0.8056306E-01
        2   -1    0    0  501    0  0.00000000000E+00  0.00000000000E+00  0.28021911310E+04  0.28021911310E+04  0.25500000920E-02 0. -1.
       -2   -1    0    0    0  501  0.00000000000E+00  0.00000000000E+00 -0.12566403075E+04  0.12566403075E+04  0.25500000920E-02 0.  1.
    10030    2    1    2    0    0  0.00000000000E+00  0.00000000000E+00  0.15455508236E+04  0.40588314385E+04  0.37530501326E+04 0.  0.
        1    1    3    3  502    0 -0.15282150442E+04  0.36334178149E+03 -0.33745686602E+03  0.16066535432E+04  0.50400001928E-02 0.  1.
       -1    1    3    3    0  502  0.15282150442E+04 -0.36334178149E+03  0.18830076896E+04  0.24521778953E+04  0.50400001928E-02 0. -1.
</event>
<event>
 5   0  0.1070988E-07  0.3847590E+04  0.7818609E-02  0.8036019E-01
       -1   -1    0    0    0  501  0.00000000000E+00  0.00000000000E+00  0.13612656029E+04  0.13612656029E+04  0.50400001928E-02 0.  1.
        1   -1    0    0  501    0  0.00000000000E+00  0.00000000000E+00 -0.27187845023E+04  0.27187845023E+04  0.50400001928E-02 0. -1.
    10030    2    1    2    0    0  0.00000000000E+00  0.00000000000E+00 -0.13575188994E+04  0.40800501053E+04  0.38475903237E+04 0.  0.
        5    1    3    3  502    0 -0.67968542055E+02 -0.82973249115E+03  0.11603503051E+04  0.14281143687E+04  0.46999998093E+01 0.  1.
       -5    1    3    3    0  502  0.67968542055E+02  0.82973249115E+03 -0.25178692045E+04  0.26519357365E+04  0.46999998093E+01 0. -1.
</event>
<event>
 5   0  0.1070988E-07  0.3806943E+04  0.7818609E-02  0.8044667E-01
        1   -1    0    0  501    0  0.00000000000E+00  0.00000000000E+00  0.19137582894E+04  0.19137582894E+04  0.50400001928E-02 0.  1.
       -1   -1    0    0    0  501  0.00000000000E+00  0.00000000000E+00 -0.18932401977E+04  0.18932401977E+04  0.50400001928E-02 0. -1.
    10030    2    1    2    0    0  0.00000000000E+00  0.00000000000E+00  0.20518091711E+02  0.38069984871E+04  0.38069431948E+04 0.  0.
        5    1    3    3  502    0  0.16507335611E+04  0.79632205643E+03 -0.50368608488E+03  0.19007292994E+04  0.46999998093E+01 0. -1.
       -5    1    3    3    0  502 -0.16507335611E+04 -0.79632205643E+03  0.52420417659E+03  0.19062691877E+04  0.46999998093E+01 0.  1.
</event>
<event>
 5   0  0.3509843E-07  0.3842215E+04  0.7818609E-02  0.8037156E-01
       -2   -1    0    0    0  501  0.00000000000E+00  0.00000000000E+00  0.20477510403E+04  0.20477510403E+04  0.25500000920E-02 0.  1.
        2   -1    0    0  501    0  0.00000000000E+00  0.00000000000E+00 -0.18022964441E+04  0.18022964441E+04  0.25500000920E-02 0. -1.
    10030    2    1    2    0    0  0.00000000000E+00  0.00000000000E+00  0.24545459622E+03  0.38500474844E+04  0.38422152039E+04 0.  0.
        4    1    3    3  502    0 -0.77428500111E+02 -0.44874708549E+03 -0.17474329548E+04  0.18057941920E+04  0.12699999809E+01 0. -1.
       -4    1    3    3    0  502  0.77428500111E+02  0.44874708549E+03  0.19928875510E+04  0.20442532924E+04  0.12699999809E+01 0.  1.
</event>
<event>
 5   0  0.1085771E-07  0.3834447E+04  0.7818609E-02  0.8038803E-01
       -1   -1    0    0    0  501  0.00000000000E+00  0.00000000000E+00  0.14878357269E+04  0.14878357269E+04  0.50400001928E-02 0. -1.
        1   -1    0    0  501    0  0.00000000000E+00  0.00000000000E+00 -0.24705320742E+04  0.24705320742E+04  0.50400001928E-02 0.  1.
    10030    2    1    2    0    0  0.00000000000E+00  0.00000000000E+00 -0.98269634727E+03  0.39583678010E+04  0.38344469663E+04 0.  0.
        1    1    3    3  502    0 -0.11831937529E+04  0.11018832410E+04  0.57231579987E+03  0.17151208437E+04  0.50400001928E-02 0. -1.
       -1    1    3    3    0  502  0.11831937529E+04 -0.11018832410E+04 -0.15550121471E+04  0.22432469573E+04  0.50400001928E-02 0.  1.
</event>
<event>
 5   0  0.3327241E-07  0.3764575E+04  0.7818609E-02  0.8053800E-01
       -2   -1    0    0    0  501  0.00000000000E+00  0.00000000000E+00  0.15950439659E+04  0.15950439659E+04  0.25500000920E-02 0. -1.
        2   -1    0    0  501    0  0.00000000000E+00  0.00000000000E+00 -0.22212596026E+04  0.22212596026E+04  0.25500000920E-02 0.  1.
    10030    2    1    2    0    0  0.00000000000E+00  0.00000000000E+00 -0.62621563669E+03  0.38163035685E+04  0.37645752620E+04 0.  0.
        3    1    3    3  502    0 -0.12964373968E+04  0.11738602251E+04  0.39237782948E+03  0.17923889430E+04  0.10100000352E+00 0. -1.
       -3    1    3    3    0  502  0.12964373968E+04 -0.11738602251E+04 -0.10185934662E+04  0.20239146255E+04  0.10100000352E+00 0.  1.
</event>
<event>
 5   0  0.3327241E-07  0.3826145E+04  0.7818609E-02  0.8040567E-01
       -2   -1    0    0    0  501  0.00000000000E+00  0.00000000000E+00  0.15723921326E+04  0.15723921326E+04  0.25500000920E-02 0. -1.
        2   -1    0    0  501    0  0.00000000000E+00  0.00000000000E+00 -0.23275665140E+04  0.23275665140E+04  0.25500000920E-02 0.  1.
    10030    2    1    2    0    0  0.00000000000E+00  0.00000000000E+00 -0.75517438143E+03  0.38999586466E+04  0.38261454623E+04 0.  0.
        3    1    3    3  502    0 -0.50662261878E+03  0.18083753771E+04 -0.59168930154E+01  0.18780103840E+04  0.10100000352E+00 0. -1.
       -3    1    3    3    0  502  0.50662261878E+03 -0.18083753771E+04 -0.74925748841E+03  0.20219482626E+04  0.10100000352E+00 0.  1.
</event>
<event>
 5   0  0.3327241E-07  0.3864173E+04  0.7818609E-02  0.8032522E-01
       -2   -1    0    0    0  501  0.00000000000E+00  0.00000000000E+00  0.32904098581E+04  0.32904098581E+04  0.25500000920E-02 0. -1.
        2   -1    0    0  501    0  0.00000000000E+00  0.00000000000E+00 -0.11344962294E+04  0.11344962294E+04  0.25500000920E-02 0.  1.
    10030    2    1    2    0    0  0.00000000000E+00  0.00000000000E+00  0.21559136288E+04  0.44249060875E+04  0.38641726551E+04 0.  0.
        3    1    3    3  502    0 -0.15241208795E+04  0.10142015312E+03  0.24327381812E+04  0.28725329539E+04  0.10100000352E+00 0.  1.
       -3    1    3    3    0  502  0.15241208795E+04 -0.10142015312E+03 -0.27682455240E+03  0.15523731336E+04  0.10100000352E+00 0. -1.
</event>
<event>
 5   0  0.1070988E-07  0.3800013E+04  0.7818609E-02  0.8046152E-01
       -1   -1    0    0    0  501  0.00000000000E+00  0.00000000000E+00  0.17761174853E+04  0.17761174853E+04  0.50400001928E-02 0.  1.
        1   -1    0    0  501    0  0.00000000000E+00  0.00000000000E+00 -0.20325371458E+04  0.20325371458E+04  0.50400001928E-02 0. -1.
    10030    2    1    2    0    0  0.00000000000E+00  0.00000000000E+00 -0.25641966052E+03  0.38086546311E+04  0.38000130337E+04 0.  0.
        2    1    3    3  502    0  0.16843522525E+04  0.21000749466E+03 -0.98389549587E+03  0.19619367995E+04  0.25500000920E-02 0. -1.
       -2    1    3    3    0  502 -0.16843522525E+04 -0.21000749466E+03  0.72747583535E+03  0.18467178316E+04  0.25500000920E-02 0.  1.
</event>
<event>
 5   0  0.3377396E-07  0.4053513E+04  0.7818609E-02  0.7993837E-01
        2   -1    0    0  501    0  0.00000000000E+00  0.00000000000E+00  0.22854853871E+04  0.22854853871E+04  0.25500000920E-02 0.  1.
       -2   -1    0    0    0  501  0.00000000000E+00  0.00000000000E+00 -0.17973172692E+04  0.17973172692E+04  0.25500000920E-02 0. -1.
    10030    2    1    2    0    0  0.00000000000E+00  0.00000000000E+00  0.48816811788E+03  0.40828026563E+04  0.40535132193E+04 0.  0.
        5    1    3    3  502    0 -0.90452843765E+03 -0.17814059720E+04 -0.99173570211E+02  0.20003590724E+04  0.46999998093E+01 0.  1.
       -5    1    3    3    0  502  0.90452843765E+03  0.17814059720E+04  0.58734168809E+03  0.20824435839E+04  0.46999998093E+01 0. -1.
</event>
<event>
 5   0  0.3377396E-07  0.3861370E+04  0.7818609E-02  0.8033112E-01
        2   -1    0    0  501    0  0.00000000000E+00  0.00000000000E+00  0.19895935783E+04  0.19895935783E+04  0.25500000920E-02 0.  1.
       -2   -1    0    0    0  501  0.00000000000E+00  0.00000000000E+00 -0.18735201332E+04  0.18735201333E+04  0.25500000920E-02 0. -1.
    10030    2    1    2    0    0  0.00000000000E+00  0.00000000000E+00  0.11607344504E+03  0.38631137115E+04  0.38613695114E+04 0.  0.
        5    1    3    3  502    0  0.61384137222E+03  0.14957586431E+04 -0.99763012600E+03  0.18998376528E+04  0.46999998093E+01 0. -1.
       -5    1    3    3    0  502 -0.61384137222E+03 -0.14957586431E+04  0.11137035710E+04  0.19632760587E+04  0.46999998093E+01 0.  1.
</event>
<event>
 5   0  0.3509843E-07  0.3793124E+04  0.7818609E-02  0.8047632E-01
       -2   -1    0    0    0  501  0.00000000000E+00  0.00000000000E+00  0.21573734822E+04  0.21573734822E+04  0.25500000920E-02 0.  1.
        2   -1    0    0  501    0  0.00000000000E+00  0.00000000000E+00 -0.16672807062E+04  0.16672807062E+04  0.25500000920E-02 0. -1.
    10030    2    1    2    0    0  0.00000000000E+00  0.00000000000E+00  0.49009277598E+03  0.38246541884E+04  0.37931238751E+04 0.  0.
        4    1    3    3  502    0  0.13928385729E+03 -0.85925023372E+03  0.19440558139E+04  0.21300388676E+04  0.12699999809E+01 0.  1.
       -4    1    3    3    0  502 -0.13928385729E+03  0.85925023372E+03 -0.14539630379E+04  0.16946153208E+04  0.12699999809E+01 0. -1.
</event>
<event>
 5   0  0.3509843E-07  0.3853738E+04  0.7818609E-02  0.8034720E-01
       -2   -1    0    0    0  501  0.00000000000E+00  0.00000000000E+00  0.14094500773E+04  0.14094500773E+04  0.25500000920E-02 0.  1.
        2   -1    0    0  501    0  0.00000000000E+00  0.00000000000E+00 -0.26342364811E+04  0.26342364812E+04  0.25500000920E-02 0. -1.
    10030    2    1    2    0    0  0.00000000000E+00  0.00000000000E+00 -0.12247864039E+04  0.40436865584E+04  0.38537383471E+04 0.  0.
        4    1    3    3  502    0 -0.19330586626E+03 -0.11940990868E+04  0.96139509100E+03  0.15451608074E+04  0.12699999809E+01 0.  1.
       -4    1    3    3    0  502  0.19330586626E+03  0.11940990868E+04 -0.21861814949E+04  0.24985257510E+04  0.12699999809E+01 0. -1.
</event>
<event>
 5   0  0.1084315E-07  0.3835790E+04  0.7818609E-02  0.8038518E-01
       -1   -1    0    0    0  501  0.00000000000E+00  0.00000000000E+00  0.17639419926E+04  0.17639419926E+04  0.50400001928E-02 0.  1.
        1   -1    0    0  501    0  0.00000000000E+00  0.00000000000E+00 -0.20852849550E+04  0.20852849550E+04  0.50400001928E-02 0. -1.
    10030    2    1    2    0    0  0.00000000000E+00  0.00000000000E+00 -0.32134296243E+03  0.38492269475E+04  0.38357902438E+04 0.  0.
        4    1    3    3  502    0 -0.18516716969E+04 -0.17907468053E+03  0.30740029575E+03  0.18855376870E+04  0.12699999809E+01 0.  1.
       -4    1    3    3    0  502  0.18516716969E+04  0.17907468053E+03 -0.62874325818E+03  0.19636892605E+04  0.12699999809E+01 0. -1.
</event>
<event>
 5   0  0.3327241E-07  0.3569744E+04  0.7818609E-02  0.8097458E-01
        2   -1    0    0  501    0  0.00000000000E+00  0.00000000000E+00  0.29347043855E+04  0.29347043855E+04  0.25500000920E-02 0.  1.
       -2   -1    0    0    0  501  0.00000000000E+00  0.00000000000E+00 -0.10855499421E+04  0.10855499421E+04  0.25500000920E-02 0. -1.
    10030    2    1    2    0    0  0.00000000000E+00  0.00000000000E+00  0.18491544434E+04  0.40202543277E+04  0.35697440669E+04 0.  0.
        3    1    3    3  502    0  0.11682299443E+03  0.87722290597E+03 -0.82107301499E+03  0.12071986352E+04  0.10100000352E+00 0. -1.
       -3    1    3    3    0  502 -0.11682299443E+03 -0.87722290597E+03  0.26702274584E+04  0.28130556924E+04  0.10100000352E+00 0.  1.
</event>
<event>
 5   0  0.1084315E-07  0.3168261E+04  0.7818609E-02  0.8197250E-01
        1   -1    0    0  501    0  0.00000000000E+00  0.00000000000E+00  0.11533155370E+04  0.11533155370E+04  0.50400001928E-02 0. -1.
       -1   -1    0    0    0  501  0.00000000000E+00  0.00000000000E+00 -0.21758745243E+04  0.21758745243E+04  0.50400001928E-02 0.  1.
    10030    2    1    2    0    0  0.00000000000E+00  0.00000000000E+00 -0.10225589873E+04  0.33291900613E+04  0.31682612868E+04 0.  0.
        4    1    3    3  502    0 -0.55784675877E+03  0.12023670287E+02  0.10466376464E+04  0.11860815953E+04  0.12699999809E+01 0. -1.
       -4    1    3    3    0  502  0.55784675877E+03 -0.12023670287E+02 -0.20691966337E+04  0.21431084660E+04  0.12699999809E+01 0.  1.
</event>
<event>
 5   0  0.3539010E-07  0.3717351E+04  0.7818609E-02  0.8064128E-01
        2   -1    0    0  501    0  0.00000000000E+00  0.00000000000E+00  0.20236840022E+04  0.20236840022E+04  0.25500000920E-02 0. -1.
       -2   -1    0    0    0  501  0.00000000000E+00  0.00000000000E+00 -0.17071211421E+04  0.17071211421E+04  0.25500000920E-02 0.  1.
    10030    2    1    2    0    0  0.00000000000E+00  0.00000000000E+00  0.31656286009E+03  0.37308051443E+04  0.37173505323E+04 0.  0.
        1    1    3    3  502    0 -0.71105587127E+03  0.16307596437E+04  0.69846392798E+03  0.19112376426E+04  0.50400001928E-02 0.  1.
       -1    1    3    3    0  502  0.71105587127E+03 -0.16307596437E+04 -0.38190106789E+03  0.18195675017E+04  0.50400001928E-02 0. -1.
</event>
<event>
 5   0  0.3442126E-07  0.3777235E+04  0.7818609E-02  0.8051058E-01
        2   -1    0    0  501    0  0.00000000000E+00  0.00000000000E+00  0.21081884130E+04  0.21081884130E+04  0.25500000920E-02 0. -1.
       -2   -1    0    0    0  501  0.00000000000E+00  0.00000000000E+00 -0.16919153389E+04  0.16919153389E+04  0.25500000920E-02 0.  1.
    10030    2    1    2    0    0  0.00000000000E+00  0.00000000000E+00  0.41627307404E+03  0.38001037519E+04  0.37772351334E+04 0.  0.
        2    1    3    3  502    0 -0.15490183868E+04 -0.19859600226E+01  0.12951475841E+04  0.20191258433E+04  0.25500000920E-02 0. -1.
       -2    1    3    3    0  502  0.15490183868E+04  0.19859600226E+01 -0.87887451001E+03  0.17809779086E+04  0.25500000920E-02 0.  1.
</event>
<event>
 5   0  0.1085771E-07  0.3760933E+04  0.7818609E-02  0.8054591E-01
       -1   -1    0    0    0  501  0.00000000000E+00  0.00000000000E+00  0.14825389279E+04  0.14825389279E+04  0.50400001928E-02 0.  1.
        1   -1    0    0  501    0  0.00000000000E+00  0.00000000000E+00 -0.23852021694E+04  0.23852021694E+04  0.50400001928E-02 0. -1.
    10030    2    1    2    0    0  0.00000000000E+00  0.00000000000E+00 -0.90266324146E+03  0.38677410973E+04  0.37609334304E+04 0.  0.
        1    1    3    3  502    0  0.50085187200E+03  0.37796752309E+01  0.14126794380E+04  0.14988429131E+04  0.50400001928E-02 0.  1.
       -1    1    3    3    0  502 -0.50085187200E+03 -0.37796752309E+01 -0.23153426794E+04  0.23688981842E+04  0.50400001928E-02 0. -1.
</event>
<event>
 5   0  0.1070988E-07  0.3785635E+04  0.7818609E-02  0.8049245E-01
       -1   -1    0    0    0  501  0.00000000000E+00  0.00000000000E+00  0.23994301066E+04  0.23994301066E+04  0.50400001928E-02 0. -1.
        1   -1    0    0  501    0  0.00000000000E+00  0.00000000000E+00 -0.14931708032E+04  0.14931708032E+04  0.50400001928E-02 0.  1.
    10030    2    1    2    0    0  0.00000000000E+00  0.00000000000E+00  0.90625930344E+03  0.38926009098E+04  0.37856354708E+04 0.  0.
        2    1    3    3  502    0  0.89700511154E+03  0.45998689009E+03 -0.11941836114E+04  0.15627797691E+04  0.25500000920E-02 0.  1.
       -2    1    3    3    0  502 -0.89700511154E+03 -0.45998689009E+03  0.21004429148E+04  0.23298211407E+04  0.25500000920E-02 0. -1.
</event>
<event>
 5   0  0.3509843E-07  0.3842393E+04  0.7818609E-02  0.8037118E-01
       -2   -1    0    0    0  501  0.00000000000E+00  0.00000000000E+00  0.15097142446E+04  0.15097142446E+04  0.25500000920E-02 0. -1.
        2   -1    0    0  501    0  0.00000000000E+00  0.00000000000E+00 -0.24448306958E+04  0.24448306958E+04  0.25500000920E-02 0.  1.
    10030    2    1    2    0    0  0.00000000000E+00  0.00000000000E+00 -0.93511645124E+03  0.39545449404E+04  0.38423928623E+04 0.  0.
        4    1    3    3  502    0  0.16553398663E+04  0.86048608289E+03 -0.93964910110E+03  0.20889060338E+04  0.12699999809E+01 0.  1.
       -4    1    3    3    0  502 -0.16553398663E+04 -0.86048608289E+03  0.45326498589E+01  0.18656389066E+04  0.12699999809E+01 0. -1.
</event>
<event>
 5   0  0.3509843E-07  0.3813067E+04  0.7818609E-02  0.8043356E-01
        2   -1    0    0  501    0  0.00000000000E+00  0.00000000000E+00  0.25031234744E+04  0.25031234744E+04  0.25500000920E-02 0.  1.
       -2   -1    0    0    0  501  0.00000000000E+00  0.00000000000E+00 -0.14521339328E+04  0.14521339328E+04  0.25500000920E-02 0. -1.
    10030    2    1    2    0    0  0.00000000000E+00  0.00000000000E+00  0.10509895416E+04  0.39552574073E+04  0.38130672878E+04 0.  0.
        4    1    3    3  502    0  0.14232644647E+04  0.70273266858E+03 -0.56999075683E+03  0.16865366927E+04  0.12699999809E+01 0. -1.
       -4    1    3    3    0  502 -0.14232644647E+04 -0.70273266858E+03  0.16209802984E+04  0.22687207146E+04  0.12699999809E+01 0.  1.
</event>
<event>
 5   0  0.1084315E-07  0.3792441E+04  0.7818609E-02  0.8047779E-01
       -1   -1    0    0    0  501  0.00000000000E+00  0.00000000000E+00  0.12665456412E+04  0.12665456412E+04  0.50400001928E-02 0.  1.
        1   -1    0    0  501    0  0.00000000000E+00  0.00000000000E+00 -0.28389436956E+04  0.28389436956E+04  0.50400001928E-02 0. -1.
    10030    2    1    2    0    0  0.00000000000E+00  0.00000000000E+00 -0.15723980543E+04  0.41054893368E+04  0.37924407778E+04 0.  0.
        4    1    3    3  502    0  0.15291250692E+04  0.48071794086E+03  0.31050919596E+03  0.16327065841E+04  0.12699999809E+01 0.  1.
       -4    1    3    3    0  502 -0.15291250692E+04 -0.48071794086E+03 -0.18829072503E+04  0.24727827527E+04  0.12699999809E+01 0. -1.
</event>
<event>
 5   0  0.1070988E-07  0.3806656E+04  0.7818609E-02  0.8044728E-01
        1   -1    0    0  501    0  0.00000000000E+00  0.00000000000E+00  0.15321506241E+04  0.15321506241E+04  0.50400001928E-02 0.  1.
       -1   -1    0    0    0  501  0.00000000000E+00  0.00000000000E+00 -0.23644261687E+04  0.23644261687E+04  0.50400001928E-02 0. -1.
    10030    2    1    2    0    0  0.00000000000E+00  0.00000000000E+00 -0.83227554456E+03  0.38965767928E+04  0.38066557659E+04 0.  0.
        2    1    3    3  502    0 -0.16736375881E+04 -0.85107903007E+03 -0.96907587069E+02  0.18801035536E+04  0.25500000920E-02 0. -1.
       -2    1    3    3    0  502  0.16736375881E+04  0.85107903007E+03 -0.73536795749E+03  0.20164732392E+04  0.25500000920E-02 0.  1.
</event>
<event>
 5   0  0.3377396E-07  0.3749608E+04  0.7818609E-02  0.8057056E-01
       -2   -1    0    0    0  501  0.00000000000E+00  0.00000000000E+00  0.16098956431E+04  0.16098956431E+04  0.25500000920E-02 0. -1.
        2   -1    0    0  501    0  0.00000000000E+00  0.00000000000E+00 -0.21833025377E+04  0.21833025377E+04  0.25500000920E-02 0.  1.
    10030    2    1    2    0    0  0.00000000000E+00  0.00000000000E+00 -0.57340689461E+03  0.37931981808E+04  0.37496075757E+04 0.  0.
        5    1    3    3  502    0 -0.13686230529E+04  0.68399150605E+03 -0.13827628795E+04  0.20622872526E+04  0.46999998093E+01 0.  1.
       -5    1    3    3    0  502  0.13686230529E+04 -0.68399150605E+03  0.80935598485E+03  0.17309109282E+04  0.46999998093E+01 0. -1.
</event>
<event>
 5   0  0.1070988E-07  0.3813030E+04  0.7818609E-02  0.8043364E-01
       -4   -1    0    0    0  501  0.00000000000E+00  0.00000000000E+00  0.24448147528E+04  0.24448150826E+04  0.12699999809E+01 0.  1.
        4   -1    0    0  501    0  0.00000000000E+00  0.00000000000E+00 -0.14867374305E+04  0.14867379730E+04  0.12699999809E+01 0. -1.
    10030    2    1    2    0    0  0.00000000000E+00  0.00000000000E+00  0.95807732223E+03  0.39315530556E+04  0.38130299334E+04 0.  0.
        2    1    3    3  502    0  0.44002091730E+03 -0.18405203011E+04  0.24017875131E+03  0.19075689290E+04  0.25500000920E-02 0. -1.
       -2    1    3    3    0  502 -0.44002091730E+03  0.18405203011E+04  0.71789857092E+03  0.20239841265E+04  0.25500000920E-02 0.  1.
</event>
<event>
 5   0  0.1070988E-07  0.3830782E+04  0.7818609E-02  0.8039581E-01
        1   -1    0    0  501    0  0.00000000000E+00  0.00000000000E+00  0.16331223586E+04  0.16331223586E+04  0.50400001928E-02 0.  1.
       -1   -1    0    0    0  501  0.00000000000E+00  0.00000000000E+00 -0.22464474975E+04  0.22464474975E+04  0.50400001928E-02 0. -1.
    10030    2    1    2    0    0  0.00000000000E+00  0.00000000000E+00 -0.61332513895E+03  0.38795698561E+04  0.38307824974E+04 0.  0.
        5    1    3    3  502    0  0.94248510637E+03 -0.92914108118E+03 -0.17088974170E+04  0.21614656593E+04  0.46999998093E+01 0. -1.
       -5    1    3    3    0  502 -0.94248510637E+03  0.92914108118E+03  0.10955722781E+04  0.17181041968E+04  0.46999998093E+01 0.  1.
</event>
<event>
 5   0  0.3442126E-07  0.3828908E+04  0.7818609E-02  0.8039980E-01
        2   -1    0    0  501    0  0.00000000000E+00  0.00000000000E+00  0.21545413783E+04  0.21545413783E+04  0.25500000920E-02 0. -1.
       -2   -1    0    0    0  501  0.00000000000E+00  0.00000000000E+00 -0.17011202618E+04  0.17011202618E+04  0.25500000920E-02 0.  1.
    10030    2    1    2    0    0  0.00000000000E+00  0.00000000000E+00  0.45342111645E+03  0.38556616401E+04  0.38289079349E+04 0.  0.
        2    1    3    3  502    0 -0.76211392594E+03  0.32220650362E+03 -0.15117646619E+04  0.17233882499E+04  0.25500000920E-02 0.  1.
       -2    1    3    3    0  502  0.76211392594E+03 -0.32220650362E+03  0.19651857783E+04  0.21322733902E+04  0.25500000920E-02 0. -1.
</event>
<event>
 5   0  0.1085771E-07  0.3825162E+04  0.7818609E-02  0.8040777E-01
       -1   -1    0    0    0  501  0.00000000000E+00  0.00000000000E+00  0.11524989312E+04  0.11524989312E+04  0.50400001928E-02 0. -1.
        1   -1    0    0  501    0  0.00000000000E+00  0.00000000000E+00 -0.31739423369E+04  0.31739423369E+04  0.50400001928E-02 0.  1.
    10030    2    1    2    0    0  0.00000000000E+00  0.00000000000E+00 -0.20214434057E+04  0.43264412682E+04  0.38251615135E+04 0.  0.
        1    1    3    3  502    0  0.18787917196E+03  0.13440553727E+04 -0.25349874325E+04  0.28754033997E+04  0.50400001928E-02 0.  1.
       -1    1    3    3    0  502 -0.18787917196E+03 -0.13440553727E+04  0.51354402680E+03  0.14510378684E+04  0.50400001928E-02 0. -1.
</event>
<event>
 5   0  0.3327241E-07  0.3668939E+04  0.7818609E-02  0.8074880E-01
       -2   -1    0    0    0  501  0.00000000000E+00  0.00000000000E+00  0.14807754189E+04  0.14807754189E+04  0.25500000920E-02 0.  1.
        2   -1    0    0  501    0  0.00000000000E+00  0.00000000000E+00 -0.22726463022E+04  0.22726463022E+04  0.25500000920E-02 0. -1.
    10030    2    1    2    0    0  0.00000000000E+00  0.00000000000E+00 -0.79187088329E+03  0.37534217212E+04  0.36689392365E+04 0.  0.
        3    1    3    3  502    0  0.49454620128E+03  0.12185634859E+04 -0.17043721596E+04  0.21527557648E+04  0.10100000352E+00 0. -1.
       -3    1    3    3    0  502 -0.49454620128E+03 -0.12185634859E+04  0.91250127634E+03  0.16006659564E+04  0.10100000352E+00 0.  1.
</event>
<event>
 5   0  0.1070988E-07  0.3937413E+04  0.7818609E-02  0.8017293E-01
        1   -1    0    0  501    0  0.00000000000E+00  0.00000000000E+00  0.22291034514E+04  0.22291034514E+04  0.50400001928E-02 0.  1.
       -1   -1    0    0    0  501  0.00000000000E+00  0.00000000000E+00 -0.17387287166E+04  0.17387287166E+04  0.50400001928E-02 0. -1.
    10030    2    1    2    0    0  0.00000000000E+00  0.00000000000E+00  0.49037473477E+03  0.39678321680E+04  0.39374134572E+04 0.  0.
        2    1    3    3  502    0  0.38488632062E+03 -0.15310834252E+04 -0.94010192055E+03  0.18374290614E+04  0.25500000920E-02 0. -1.
       -2    1    3    3    0  502 -0.38488632062E+03  0.15310834252E+04  0.14304766553E+04  0.21304031065E+04  0.25500000920E-02 0.  1.
</event>
<event>
 5   0  0.3442126E-07  0.3771706E+04  0.7818609E-02  0.8052254E-01
        2   -1    0    0  501    0  0.00000000000E+00  0.00000000000E+00  0.16973421262E+04  0.16973421262E+04  0.25500000920E-02 0. -1.
       -2   -1    0    0    0  501  0.00000000000E+00  0.00000000000E+00 -0.20953000039E+04  0.20953000039E+04  0.25500000920E-02 0.  1.
    10030    2    1    2    0    0  0.00000000000E+00  0.00000000000E+00 -0.39795787771E+03  0.37926421302E+04  0.37717056957E+04 0.  0.
        2    1    3    3  502    0 -0.11468425765E+04 -0.54226083784E+03  0.12041686489E+04  0.17490902911E+04  0.25500000920E-02 0. -1.
       -2    1    3    3    0  502  0.11468425765E+04  0.54226083784E+03 -0.16021265266E+04  0.20435518390E+04  0.25500000920E-02 0.  1.
</event>
<event>
 5   0  0.1070988E-07  0.3792812E+04  0.7818609E-02  0.8047699E-01
       -1   -1    0    0    0  501  0.00000000000E+00  0.00000000000E+00  0.16489932595E+04  0.16489932595E+04  0.50400001928E-02 0. -1.
        1   -1    0    0  501    0  0.00000000000E+00  0.00000000000E+00 -0.21809399356E+04  0.21809399356E+04  0.50400001928E-02 0.  1.
    10030    2    1    2    0    0  0.00000000000E+00  0.00000000000E+00 -0.53194667608E+03  0.38299331952E+04  0.37928117556E+04 0.  0.
        3    1    3    3  502    0  0.14950450587E+03  0.16531451834E+04  0.66012586105E+03  0.17863389256E+04  0.10100000352E+00 0. -1.
       -3    1    3    3    0  502 -0.14950450587E+03 -0.16531451834E+04 -0.11920725371E+04  0.20435942696E+04  0.10100000352E+00 0.  1.
</event>
<event>
 5   0  0.3442126E-07  0.3788022E+04  0.7818609E-02  0.8048730E-01
       -2   -1    0    0    0  501  0.00000000000E+00  0.00000000000E+00  0.25611458876E+04  0.25611458876E+04  0.25500000920E-02 0. -1.
        2   -1    0    0  501    0  0.00000000000E+00  0.00000000000E+00 -0.14006537482E+04  0.14006537482E+04  0.25500000920E-02 0.  1.
    10030    2    1    2    0    0  0.00000000000E+00  0.00000000000E+00  0.11604921394E+04  0.39617996358E+04  0.37880224852E+04 0.  0.
        2    1    3    3  502    0 -0.12379647627E+04 -0.65171170104E+03  0.19155278444E+04  0.23720311586E+04  0.25500000920E-02 0. -1.
       -2    1    3    3    0  502  0.12379647627E+04  0.65171170104E+03 -0.75503570501E+03  0.15897684771E+04  0.25500000920E-02 0.  1.
</event>
<event>
 5   0  0.1070988E-07  0.3530472E+04  0.7818609E-02  0.8106606E-01
       -1   -1    0    0    0  501  0.00000000000E+00  0.00000000000E+00  0.16785712868E+04  0.16785712868E+04  0.50400001928E-02 0.  1.
        1   -1    0    0  501    0  0.00000000000E+00  0.00000000000E+00 -0.18563748230E+04  0.18563748230E+04  0.50400001928E-02 0. -1.
    10030    2    1    2    0    0  0.00000000000E+00  0.00000000000E+00 -0.17780353620E+03  0.35349461099E+04  0.35304716260E+04 0.  0.
        5    1    3    3  502    0  0.53802794444E+03 -0.16302506591E+04  0.32252545364E+03  0.17467787607E+04  0.46999998093E+01 0. -1.
       -5    1    3    3    0  502 -0.53802794444E+03  0.16302506591E+04 -0.50032898984E+03  0.17881673492E+04  0.46999998093E+01 0.  1.
</event>
<event>
 5   0  0.1084315E-07  0.3485861E+04  0.7818609E-02  0.8117149E-01
       -1   -1    0    0    0  501  0.00000000000E+00  0.00000000000E+00  0.14777552796E+04  0.14777552796E+04  0.50400001928E-02 0. -1.
        1   -1    0    0  501    0  0.00000000000E+00  0.00000000000E+00 -0.20556903118E+04  0.20556903118E+04  0.50400001928E-02 0.  1.
    10030    2    1    2    0    0  0.00000000000E+00  0.00000000000E+00 -0.57793503224E+03  0.35334455914E+04  0.34858612775E+04 0.  0.
        4    1    3    3  502    0 -0.60784955740E+03 -0.91915231421E+02 -0.19421432135E+04  0.20371183983E+04  0.12699999809E+01 0.  1.
       -4    1    3    3    0  502  0.60784955740E+03  0.91915231421E+02  0.13642081812E+04  0.14963271931E+04  0.12699999809E+01 0. -1.
</event>
<event>
 5   0  0.3327241E-07  0.3574584E+04  0.7818609E-02  0.8096338E-01
        2   -1    0    0  501    0  0.00000000000E+00  0.00000000000E+00  0.95935046796E+03  0.95935046797E+03  0.25500000920E-02 0.  1.
       -2   -1    0    0    0  501  0.00000000000E+00  0.00000000000E+00 -0.33297668253E+04  0.33297668253E+04  0.25500000920E-02 0. -1.
    10030    2    1    2    0    0  0.00000000000E+00  0.00000000000E+00 -0.23704163574E+04  0.42891172933E+04  0.35745843742E+04 0.  0.
        3    1    3    3  502    0  0.21688495730E+03  0.82974846318E+03 -0.30667422009E+04  0.31844040783E+04  0.10100000352E+00 0. -1.
       -3    1    3    3    0  502 -0.21688495730E+03 -0.82974846318E+03  0.69632584353E+03  0.11047132150E+04  0.10100000352E+00 0.  1.
</event>
<event>
 5   0  0.1070988E-07  0.3374326E+04  0.7818609E-02  0.8144237E-01
       -1   -1    0    0    0  501  0.00000000000E+00  0.00000000000E+00  0.12189907553E+04  0.12189907553E+04  0.50400001928E-02 0. -1.
        1   -1    0    0  501    0  0.00000000000E+00  0.00000000000E+00 -0.23351436501E+04  0.23351436501E+04  0.50400001928E-02 0.  1.
    10030    2    1    2    0    0  0.00000000000E+00  0.00000000000E+00 -0.11161528948E+04  0.35541344054E+04  0.33743257233E+04 0.  0.
        3    1    3    3  502    0  0.11384277173E+03  0.59986789968E+02 -0.23299673854E+04  0.23335180777E+04  0.10100000352E+00 0.  1.
       -3    1    3    3    0  502 -0.11384277173E+03 -0.59986789968E+02  0.12138144906E+04  0.12206163277E+04  0.10100000352E+00 0. -1.
</event>
<event>
 5   0  0.1070988E-07  0.3794441E+04  0.7818609E-02  0.8047349E-01
       -1   -1    0    0    0  501  0.00000000000E+00  0.00000000000E+00  0.15556824725E+04  0.15556824725E+04  0.50400001928E-02 0. -1.
        1   -1    0    0  501    0  0.00000000000E+00  0.00000000000E+00 -0.23137407652E+04  0.23137407652E+04  0.50400001928E-02 0.  1.
    10030    2    1    2    0    0  0.00000000000E+00  0.00000000000E+00 -0.75805829275E+03  0.38694232377E+04  0.37944411733E+04 0.  0.
        2    1    3    3  502    0 -0.17013337111E+04 -0.72710974224E+03  0.49053101059E+02  0.18508460715E+04  0.25500000920E-02 0.  1.
       -2    1    3    3    0  502  0.17013337111E+04  0.72710974224E+03 -0.80711139381E+03  0.20185771662E+04  0.25500000920E-02 0. -1.
</event>
<event>
 5   0  0.1070988E-07  0.3570308E+04  0.7818609E-02  0.8097327E-01
       -1   -1    0    0    0  501  0.00000000000E+00  0.00000000000E+00  0.12292314500E+04  0.12292314500E+04  0.50400001928E-02 0.  1.
        1   -1    0    0  501    0  0.00000000000E+00  0.00000000000E+00 -0.25924934287E+04  0.25924934287E+04  0.50400001928E-02 0. -1.
    10030    2    1    2    0    0  0.00000000000E+00  0.00000000000E+00 -0.13632619787E+04  0.38217248787E+04  0.35703078054E+04 0.  0.
        2    1    3    3  502    0  0.42988769168E+02 -0.17474366460E+04 -0.10696361883E+04  0.20492692457E+04  0.25500000920E-02 0. -1.
       -2    1    3    3    0  502 -0.42988769168E+02  0.17474366460E+04 -0.29362579042E+03  0.17724556330E+04  0.25500000920E-02 0.  1.
</event>
<event>
 5   0  0.3509843E-07  0.3792151E+04  0.7818609E-02  0.8047841E-01
       -2   -1    0    0    0  501  0.00000000000E+00  0.00000000000E+00  0.20775543749E+04  0.20775543749E+04  0.25500000920E-02 0.  1.
        2   -1    0    0  501    0  0.00000000000E+00  0.00000000000E+00 -0.17304489705E+04  0.17304489705E+04  0.25500000920E-02 0. -1.
    10030    2    1    2    0    0  0.00000000000E+00  0.00000000000E+00  0.34710540439E+03  0.38080033454E+04  0.37921507508E+04 0.  0.
        4    1    3    3  502    0 -0.16908465852E+03 -0.70345011524E+03 -0.15863915108E+04  0.17435800311E+04  0.12699999809E+01 0. -1.
       -4    1    3    3    0  502  0.16908465852E+03  0.70345011524E+03  0.19334969152E+04  0.20644233143E+04  0.12699999809E+01 0.  1.
</event>
<event>
 5   0  0.1085771E-07  0.3772203E+04  0.7818609E-02  0.8052147E-01
        1   -1    0    0  501    0  0.00000000000E+00  0.00000000000E+00  0.15959397718E+04  0.15959397718E+04  0.50400001928E-02 0.  1.
       -1   -1    0    0    0  501  0.00000000000E+00  0.00000000000E+00 -0.22290180999E+04  0.22290180999E+04  0.50400001928E-02 0. -1.
    10030    2    1    2    0    0  0.00000000000E+00  0.00000000000E+00 -0.63307832806E+03  0.38249578717E+04  0.37722028778E+04 0.  0.
        1    1    3    3  502    0 -0.15040417052E+04 -0.11361289026E+04 -0.24891080873E+03  0.19012855979E+04  0.50400001928E-02 0. -1.
       -1    1    3    3    0  502  0.15040417052E+04  0.11361289026E+04 -0.38416751932E+03  0.19236722738E+04  0.50400001928E-02 0.  1.
</event>
<event>
 5   0  0.1085771E-07  0.3764140E+04  0.7818609E-02  0.8053894E-01
        1   -1    0    0  501    0  0.00000000000E+00  0.00000000000E+00  0.21785697957E+04  0.21785697957E+04  0.50400001928E-02 0.  1.
       -1   -1    0    0    0  501  0.00000000000E+00  0.00000000000E+00 -0.16259233032E+04  0.16259233032E+04  0.50400001928E-02 0. -1.
    10030    2    1    2    0    0  0.00000000000E+00  0.00000000000E+00  0.55264649250E+03  0.38044930989E+04  0.37641399541E+04 0.  0.
        1    1    3    3  502    0 -0.79283871387E+03 -0.72821828156E+03  0.18366648692E+04  0.21289041626E+04  0.50400001928E-02 0.  1.
       -1    1    3    3    0  502  0.79283871387E+03  0.72821828156E+03 -0.12840183767E+04  0.16755889363E+04  0.50400001928E-02 0. -1.
</event>
<event>
 5   0  0.3377396E-07  0.3801880E+04  0.7818609E-02  0.8045752E-01
        2   -1    0    0  501    0  0.00000000000E+00  0.00000000000E+00  0.21148191916E+04  0.21148191916E+04  0.25500000920E-02 0.  1.
       -2   -1    0    0    0  501  0.00000000000E+00  0.00000000000E+00 -0.17086910435E+04  0.17086910435E+04  0.25500000920E-02 0. -1.
    10030    2    1    2    0    0  0.00000000000E+00  0.00000000000E+00  0.40612814812E+03  0.38235102351E+04  0.38018798567E+04 0.  0.
        5    1    3    3  502    0 -0.16926036903E+04 -0.75683258916E+03 -0.21866371172E+03  0.18669597556E+04  0.46999998093E+01 0. -1.
       -5    1    3    3    0  502  0.16926036903E+04  0.75683258916E+03  0.62479185983E+03  0.19565504794E+04  0.46999998093E+01 0.  1.
</event>
<event>
 5   0  0.3539010E-07  0.3721870E+04  0.7818609E-02  0.8063132E-01
       -2   -1    0    0    0  501  0.00000000000E+00  0.00000000000E+00  0.18951850363E+04  0.18951850363E+04  0.25500000920E-02 0. -1.
        2   -1    0    0  501    0  0.00000000000E+00  0.00000000000E+00 -0.18273037010E+04  0.18273037010E+04  0.25500000920E-02 0.  1.
    10030    2    1    2    0    0  0.00000000000E+00  0.00000000000E+00  0.67881335288E+02  0.37224887372E+04  0.37218697617E+04 0.  0.
        1    1    3    3  502    0 -0.88366529159E+03 -0.33710381266E+01  0.16719562767E+04  0.18911143547E+04  0.50400001928E-02 0. -1.
       -1    1    3    3    0  502  0.88366529159E+03  0.33710381266E+01 -0.16040749414E+04  0.18313743825E+04  0.50400001928E-02 0.  1.
</event>
<event>
 5   0  0.3539010E-07  0.3568511E+04  0.7818609E-02  0.8097743E-01
        2   -1    0    0  501    0  0.00000000000E+00  0.00000000000E+00  0.27387961339E+04  0.27387961339E+04  0.25500000920E-02 0. -1.
       -2   -1    0    0    0  501  0.00000000000E+00  0.00000000000E+00 -0.11623968632E+04  0.11623968632E+04  0.25500000920E-02 0.  1.
    10030    2    1    2    0    0  0.00000000000E+00  0.00000000000E+00  0.15763992707E+04  0.39011929970E+04  0.35685111937E+04 0.  0.
        1    1    3    3  502    0  0.74077547778E+03  0.16214924124E+04  0.86987827771E+03  0.19836013133E+04  0.50400001928E-02 0.  1.
       -1    1    3    3    0  502 -0.74077547778E+03 -0.16214924124E+04  0.70652099300E+03  0.19175916838E+04  0.50400001928E-02 0. -1.
</event>
<event>
 5   0  0.1070988E-07  0.3748316E+04  0.7818609E-02  0.8057338E-01
        1   -1    0    0  501    0  0.00000000000E+00  0.00000000000E+00  0.17609810027E+04  0.17609810027E+04  0.50400001928E-02 0. -1.
       -1   -1    0    0    0  501  0.00000000000E+00  0.00000000000E+00 -0.19946084868E+04  0.19946084868E+04  0.50400001928E-02 0.  1.
    10030    2    1    2    0    0  0.00000000000E+00  0.00000000000E+00 -0.23362748413E+03  0.37555894895E+04  0.37483157034E+04 0.  0.
        3    1    3    3  502    0 -0.27396662841E+03 -0.16049194776E+04 -0.10468625392E+04  0.19356511642E+04  0.10100000352E+00 0.  1.
       -3    1    3    3    0  502  0.27396662841E+03  0.16049194776E+04  0.81323505505E+03  0.18199383254E+04  0.10100000352E+00 0. -1.
</event>
<event>
 5   0  0.3377396E-07  0.3816964E+04  0.7818609E-02  0.8042524E-01
        2   -1    0    0  501    0  0.00000000000E+00  0.00000000000E+00  0.25043198971E+04  0.25043198971E+04  0.25500000920E-02 0.  1.
       -2   -1    0    0    0  501  0.00000000000E+00  0.00000000000E+00 -0.14544083627E+04  0.14544083627E+04  0.25500000920E-02 0. -1.
    10030    2    1    2    0    0  0.00000000000E+00  0.00000000000E+00  0.10499115344E+04  0.39587282598E+04  0.38169641346E+04 0.  0.
        5    1    3    3  502    0 -0.28741918672E+03 -0.11373241362E+04  0.20862452929E+04  0.23934405135E+04  0.46999998093E+01 0.  1.
       -5    1    3    3    0  502  0.28741918672E+03  0.11373241362E+04 -0.10363337585E+04  0.15652877463E+04  0.46999998093E+01 0. -1.
</event>
<event>
 5   0  0.3442126E-07  0.3839647E+04  0.7818609E-02  0.8037700E-01
       -2   -1    0    0    0  501  0.00000000000E+00  0.00000000000E+00  0.17567352886E+04  0.17567352886E+04  0.25500000920E-02 0.  1.
        2   -1    0    0  501    0  0.00000000000E+00  0.00000000000E+00 -0.20980521291E+04  0.20980521291E+04  0.25500000920E-02 0. -1.
    10030    2    1    2    0    0  0.00000000000E+00  0.00000000000E+00 -0.34131684050E+03  0.38547874178E+04  0.38396469695E+04 0.  0.
        2    1    3    3  502    0 -0.89724410978E+03  0.16970961873E+04 -0.14733426582E+03  0.19253285038E+04  0.25500000920E-02 0. -1.
       -2    1    3    3    0  502  0.89724410978E+03 -0.16970961873E+04 -0.19398257468E+03  0.19294589140E+04  0.25500000920E-02 0.  1.
</event>
<event>
 5   0  0.1070988E-07  0.3782426E+04  0.7818609E-02  0.8049937E-01
        3   -1    0    0  501    0  0.00000000000E+00  0.00000000000E+00  0.13384838080E+04  0.13384838118E+04  0.10100000352E+00 0.  1.
       -3   -1    0    0    0  501  0.00000000000E+00  0.00000000000E+00 -0.26721920396E+04  0.26721920415E+04  0.10100000352E+00 0. -1.
    10030    2    1    2    0    0  0.00000000000E+00  0.00000000000E+00 -0.13337082316E+04  0.40106758533E+04  0.37824255648E+04 0.  0.
        2    1    3    3  502    0 -0.17538678570E+04  0.59292939182E+03 -0.25746199503E+03  0.18691988664E+04  0.25500000920E-02 0.  1.
       -2    1    3    3    0  502  0.17538678570E+04 -0.59292939182E+03 -0.10762462366E+04  0.21414769868E+04  0.25500000920E-02 0. -1.
</event>
<event>
 5   0  0.3539010E-07  0.3185247E+04  0.7818609E-02  0.8192724E-01
       -2   -1    0    0    0  501  0.00000000000E+00  0.00000000000E+00  0.11913362327E+04  0.11913362327E+04  0.25500000920E-02 0.  1.
        2   -1    0    0  501    0  0.00000000000E+00  0.00000000000E+00 -0.21290793220E+04  0.21290793220E+04  0.25500000920E-02 0. -1.
    10030    2    1    2    0    0  0.00000000000E+00  0.00000000000E+00 -0.93774308927E+03  0.33204155547E+04  0.31852468279E+04 0.  0.
        1    1    3    3  502    0 -0.31115304733E+03 -0.91564060803E+03 -0.17879691708E+04  0.20327438839E+04  0.50400001928E-02 0. -1.
       -1    1    3    3    0  502  0.31115304733E+03  0.91564060803E+03  0.85022608152E+03  0.12876716708E+04  0.50400001928E-02 0.  1.
</event>
<event>
 5   0  0.3509843E-07  0.3831031E+04  0.7818609E-02  0.8039528E-01
       -2   -1    0    0    0  501  0.00000000000E+00  0.00000000000E+00  0.15599970936E+04  0.15599970936E+04  0.25500000920E-02 0.  1.
        2   -1    0    0  501    0  0.00000000000E+00  0.00000000000E+00 -0.23520549578E+04  0.23520549578E+04  0.25500000920E-02 0. -1.
    10030    2    1    2    0    0  0.00000000000E+00  0.00000000000E+00 -0.79205786419E+03  0.39120520514E+04  0.38310306176E+04 0.  0.
        4    1    3    3  502    0 -0.33563427302E+03  0.12812281804E+04 -0.18091310096E+04  0.22421312714E+04  0.12699999809E+01 0. -1.
       -4    1    3    3    0  502  0.33563427302E+03 -0.12812281804E+04  0.10170731454E+04  0.16699207800E+04  0.12699999809E+01 0.  1.
</event>
<event>
 5   0  0.3539010E-07  0.3824186E+04  0.7818609E-02  0.8040984E-01
       -2   -1    0    0    0  501  0.00000000000E+00  0.00000000000E+00  0.28992725285E+04  0.28992725285E+04  0.25500000920E-02 0.  1.
        2   -1    0    0  501    0  0.00000000000E+00  0.00000000000E+00 -0.12610403439E+04  0.12610403439E+04  0.25500000920E-02 0. -1.
    10030    2    1    2    0    0  0.00000000000E+00  0.00000000000E+00  0.16382321846E+04  0.41603128723E+04  0.38241859925E+04 0.  0.
        1    1    3    3  502    0 -0.63323997494E+03 -0.17306568571E+04  0.13737650483E+04  0.22985639932E+04  0.50400001928E-02 0.  1.
       -1    1    3    3    0  502  0.63323997494E+03  0.17306568571E+04  0.26446713629E+03  0.18617488791E+04  0.50400001928E-02 0. -1.
</event>
<event>
 5   0  0.3442126E-07  0.3829775E+04  0.7818609E-02  0.8039795E-01
       -2   -1    0    0    0  501  0.00000000000E+00  0.00000000000E+00  0.21489266082E+04  0.21489266082E+04  0.25500000920E-02 0.  1.
        2   -1    0    0  501    0  0.00000000000E+00  0.00000000000E+00 -0.17063370938E+04  0.17063370938E+04  0.25500000920E-02 0. -1.
    10030    2    1    2    0    0  0.00000000000E+00  0.00000000000E+00  0.44258951442E+03  0.38552637020E+04  0.38297745017E+04 0.  0.
        2    1    3    3  502    0 -0.18247222694E+04 -0.42899165027E+03 -0.17265109503E+03  0.18824063316E+04  0.25500000920E-02 0. -1.
       -2    1    3    3    0  502  0.18247222694E+04  0.42899165027E+03  0.61524060944E+03  0.19728573704E+04  0.25500000920E-02 0.  1.
</event>
<event>
 5   0  0.1070988E-07  0.3813722E+04  0.7818609E-02  0.8043217E-01
       -1   -1    0    0    0  501  0.00000000000E+00  0.00000000000E+00  0.13126461324E+04  0.13126461324E+04  0.50400001928E-02 0.  1.
        1   -1    0    0  501    0  0.00000000000E+00  0.00000000000E+00 -0.27700675825E+04  0.27700675825E+04  0.50400001928E-02 0. -1.
    10030    2    1    2    0    0  0.00000000000E+00  0.00000000000E+00 -0.14574214501E+04  0.40827137150E+04  0.38137218036E+04 0.  0.
        2    1    3    3  502    0  0.18179278521E+03 -0.18432262258E+04 -0.12141084127E+04  0.22146310695E+04  0.25500000920E-02 0. -1.
       -2    1    3    3    0  502 -0.18179278521E+03  0.18432262258E+04 -0.24331303749E+03  0.18680826455E+04  0.25500000920E-02 0.  1.
</event>
<event>
 5   0  0.1070988E-07  0.3788295E+04  0.7818609E-02  0.8048671E-01
        1   -1    0    0  501    0  0.00000000000E+00  0.00000000000E+00  0.19522178243E+04  0.19522178243E+04  0.50400001928E-02 0.  1.
       -1   -1    0    0    0  501  0.00000000000E+00  0.00000000000E+00 -0.18378049322E+04  0.18378049322E+04  0.50400001928E-02 0. -1.
    10030    2    1    2    0    0  0.00000000000E+00  0.00000000000E+00  0.11441289207E+03  0.37900227565E+04  0.37882954194E+04 0.  0.
        2    1    3    3  502    0  0.12357297970E+04  0.88793004063E+03  0.11857046601E+04  0.19290783886E+04  0.25500000920E-02 0.  1.
       -2    1    3    3    0  502 -0.12357297970E+04 -0.88793004063E+03 -0.10712917680E+04  0.18609443679E+04  0.25500000920E-02 0. -1.
</event>
<event>
 5   0  0.3539010E-07  0.4050895E+04  0.7818609E-02  0.7994357E-01
        2   -1    0    0  501    0  0.00000000000E+00  0.00000000000E+00  0.15597139127E+04  0.15597139127E+04  0.25500000920E-02 0.  1.
       -2   -1    0    0    0  501  0.00000000000E+00  0.00000000000E+00 -0.26302504196E+04  0.26302504196E+04  0.25500000920E-02 0. -1.
    10030    2    1    2    0    0  0.00000000000E+00  0.00000000000E+00 -0.10705365069E+04  0.41899643324E+04  0.40508952953E+04 0.  0.
        1    1    3    3  502    0 -0.13050504647E+04  0.47581343429E+03 -0.20599439668E+04  0.24845370365E+04  0.50400001928E-02 0. -1.
       -1    1    3    3    0  502  0.13050504647E+04 -0.47581343429E+03  0.98940745987E+03  0.17054272958E+04  0.50400001928E-02 0.  1.
</event>
<event>
 5   0  0.1070988E-07  0.3771912E+04  0.7818609E-02  0.8052210E-01
       -1   -1    0    0    0  501  0.00000000000E+00  0.00000000000E+00  0.28584238763E+04  0.28584238763E+04  0.50400001928E-02 0. -1.
        1   -1    0    0  501    0  0.00000000000E+00  0.00000000000E+00 -0.12443322928E+04  0.12443322928E+04  0.50400001928E-02 0.  1.
    10030    2    1    2    0    0  0.00000000000E+00  0.00000000000E+00  0.16140915835E+04  0.41027561692E+04  0.37719115238E+04 0.  0.
        3    1    3    3  502    0  0.51625118693E+02 -0.77987820788E+03  0.26739721496E+04  0.27858575411E+04  0.10100000352E+00 0. -1.
       -3    1    3    3    0  502 -0.51625118693E+02  0.77987820788E+03 -0.10598805661E+04  0.13168986281E+04  0.10100000352E+00 0.  1.
</event>
<event>
 5   0  0.1070988E-07  0.3789124E+04  0.7818609E-02  0.8048493E-01
        1   -1    0    0  501    0  0.00000000000E+00  0.00000000000E+00  0.17329449837E+04  0.17329449837E+04  0.50400001928E-02 0.  1.
       -1   -1    0    0    0  501  0.00000000000E+00  0.00000000000E+00 -0.20712521599E+04  0.20712521599E+04  0.50400001928E-02 0. -1.
    10030    2    1    2    0    0  0.00000000000E+00  0.00000000000E+00 -0.33830717619E+03  0.38041971436E+04  0.37891244585E+04 0.  0.
        5    1    3    3  502    0  0.26749241080E+03 -0.96099447950E+03  0.14479307960E+04  0.17582912897E+04  0.46999998093E+01 0.  1.
       -5    1    3    3    0  502 -0.26749241080E+03  0.96099447950E+03 -0.17862379722E+04  0.20459058539E+04  0.46999998093E+01 0. -1.
</event>
<event>
 5   0  0.3327241E-07  0.3790590E+04  0.7818609E-02  0.8048177E-01
        2   -1    0    0  501    0  0.00000000000E+00  0.00000000000E+00  0.28879754586E+04  0.28879754586E+04  0.25500000920E-02 0.  1.
       -2   -1    0    0    0  501  0.00000000000E+00  0.00000000000E+00 -0.12438276163E+04  0.12438276163E+04  0.25500000920E-02 0. -1.
    10030    2    1    2    0    0  0.00000000000E+00  0.00000000000E+00  0.16441478423E+04  0.41318030750E+04  0.37905902605E+04 0.  0.
        3    1    3    3  502    0  0.79687179908E+03  0.13136855841E+03  0.26910238526E+04  0.28096034859E+04  0.10100000352E+00 0.  1.
       -3    1    3    3    0  502 -0.79687179908E+03 -0.13136855841E+03 -0.10468760103E+04  0.13221995891E+04  0.10100000352E+00 0. -1.
</event>
<event>
 5   0  0.1084315E-07  0.3507555E+04  0.7818609E-02  0.8112002E-01
       -1   -1    0    0    0  501  0.00000000000E+00  0.00000000000E+00  0.13190421205E+04  0.13190421205E+04  0.50400001928E-02 0. -1.
        1   -1    0    0  501    0  0.00000000000E+00  0.00000000000E+00 -0.23317943318E+04  0.23317943318E+04  0.50400001928E-02 0.  1.
    10030    2    1    2    0    0  0.00000000000E+00  0.00000000000E+00 -0.10127522113E+04  0.36508364524E+04  0.35075546696E+04 0.  0.
        4    1    3    3  502    0  0.85967092218E+03 -0.13253644968E+04 -0.12991373768E+04  0.20453324132E+04  0.12699999809E+01 0.  1.
       -4    1    3    3    0  502 -0.85967092218E+03  0.13253644968E+04  0.28638516552E+03  0.16055040392E+04  0.12699999809E+01 0. -1.
</event>
<event>
 5   0  0.3442126E-07  0.3765231E+04  0.7818609E-02  0.8053658E-01
       -2   -1    0    0    0  501  0.00000000000E+00  0.00000000000E+00  0.15756715234E+04  0.15756715234E+04  0.25500000920E-02 0.  1.
        2   -1    0    0  501    0  0.00000000000E+00  0.00000000000E+00 -0.22493528524E+04  0.22493528524E+04  0.25500000920E-02 0. -1.
    10030    2    1    2    0    0  0.00000000000E+00  0.00000000000E+00 -0.67368132900E+03  0.38250243758E+04  0.37652310609E+04 0.  0.
        2    1    3    3  502    0 -0.22963320868E+03  0.14691009215E+04 -0.15098426478E+04  0.21191068282E+04  0.25500000920E-02 0. -1.
       -2    1    3    3    0  502  0.22963320868E+03 -0.14691009215E+04  0.83616131882E+03  0.17059175476E+04  0.25500000920E-02 0.  1.
</event>
<event>
 5   0  0.1085771E-07  0.3792033E+04  0.7818609E-02  0.8047867E-01
        1   -1    0    0  501    0  0.00000000000E+00  0.00000000000E+00  0.19309557537E+04  0.19309557537E+04  0.50400001928E-02 0.  1.
       -1   -1    0    0    0  501  0.00000000000E+00  0.00000000000E+00 -0.18617092838E+04  0.18617092838E+04  0.50400001928E-02 0. -1.
    10030    2    1    2    0    0  0.00000000000E+00  0.00000000000E+00  0.69246469882E+02  0.37926650376E+04  0.37920328339E+04 0.  0.
        1    1    3    3  502    0  0.76369993938E+03 -0.14791734105E+04  0.94234640250E+03  0.19129057264E+04  0.50400001928E-02 0.  1.
       -1    1    3    3    0  502 -0.76369993938E+03  0.14791734105E+04 -0.87309993261E+03  0.18797593112E+04  0.50400001928E-02 0. -1.
</event>
<event>
 5   0  0.1085771E-07  0.3805824E+04  0.7818609E-02  0.8044906E-01
       -1   -1    0    0    0  501  0.00000000000E+00  0.00000000000E+00  0.14044809462E+04  0.14044809463E+04  0.50400001928E-02 0.  1.
        1   -1    0    0  501    0  0.00000000000E+00  0.00000000000E+00 -0.25782298851E+04  0.25782298851E+04  0.50400001928E-02 0. -1.
    10030    2    1    2    0    0  0.00000000000E+00  0.00000000000E+00 -0.11737489389E+04  0.39827108314E+04  0.38058243515E+04 0.  0.
        1    1    3    3  502    0 -0.16661338494E+04 -0.16698769055E+03  0.35912520415E+03  0.17125588472E+04  0.50400001928E-02 0. -1.
       -1    1    3    3    0  502  0.16661338494E+04  0.16698769055E+03 -0.15328741430E+04  0.22701519842E+04  0.50400001928E-02 0.  1.
</event>
<event>
 5   0  0.3377396E-07  0.3890160E+04  0.7818609E-02  0.8027079E-01
        2   -1    0    0  501    0  0.00000000000E+00  0.00000000000E+00  0.16951982815E+04  0.16951982815E+04  0.25500000920E-02 0.  1.
       -2   -1    0    0    0  501  0.00000000000E+00  0.00000000000E+00 -0.22317956868E+04  0.22317956868E+04  0.25500000920E-02 0. -1.
    10030    2    1    2    0    0  0.00000000000E+00  0.00000000000E+00 -0.53659740530E+03  0.39269939683E+04  0.38901600034E+04 0.  0.
        5    1    3    3  502    0  0.11913039546E+04  0.15255072914E+04 -0.46230718863E+03  0.19900069434E+04  0.46999998093E+01 0.  1.
       -5    1    3    3    0  502 -0.11913039546E+04 -0.15255072914E+04 -0.74290216670E+02  0.19369870249E+04  0.46999998093E+01 0. -1.
</event>
<event>
 5   0  0.1070988E-07  0.3742276E+04  0.7818609E-02  0.8058657E-01
        1   -1    0    0  501    0  0.00000000000E+00  0.00000000000E+00  0.21678952794E+04  0.21678952794E+04  0.50400001928E-02 0. -1.
       -1   -1    0    0    0  501  0.00000000000E+00  0.00000000000E+00 -0.16150032825E+04  0.16150032825E+04  0.50400001928E-02 0.  1.
    10030    2    1    2    0    0  0.00000000000E+00  0.00000000000E+00  0.55289199695E+03  0.37828985619E+04  0.37422763085E+04 0.  0.
        3    1    3    3  502    0  0.72458440970E+03 -0.13254072914E+04 -0.83981936282E+03  0.17283007919E+04  0.10100000352E+00 0.  1.
       -3    1    3    3    0  502 -0.72458440970E+03  0.13254072914E+04  0.13927113598E+04  0.20545977700E+04  0.10100000352E+00 0. -1.
</event>
<event>
 5   0  0.1070988E-07  0.3792140E+04  0.7818609E-02  0.8047844E-01
        1   -1    0    0  501    0  0.00000000000E+00  0.00000000000E+00  0.28350255725E+04  0.28350255725E+04  0.50400001928E-02 0. -1.
       -1   -1    0    0    0  501  0.00000000000E+00  0.00000000000E+00 -0.12680948611E+04  0.12680948611E+04  0.50400001928E-02 0.  1.
    10030    2    1    2    0    0  0.00000000000E+00  0.00000000000E+00  0.15669307114E+04  0.41031204336E+04  0.37921399550E+04 0.  0.
        5    1    3    3  502    0  0.19559081999E+03 -0.18182731130E+04  0.13252108186E+04  0.22584460778E+04  0.46999998093E+01 0. -1.
       -5    1    3    3    0  502 -0.19559081999E+03  0.18182731130E+04  0.24171989283E+03  0.18446743558E+04  0.46999998093E+01 0.  1.
</event>
<event>
 5   0  0.3442126E-07  0.3820488E+04  0.7818609E-02  0.8041773E-01
        2   -1    0    0  501    0  0.00000000000E+00  0.00000000000E+00  0.25698718359E+04  0.25698718359E+04  0.25500000920E-02 0. -1.
       -2   -1    0    0    0  501  0.00000000000E+00  0.00000000000E+00 -0.14199274693E+04  0.14199274693E+04  0.25500000920E-02 0.  1.
    10030    2    1    2    0    0  0.00000000000E+00  0.00000000000E+00  0.11499443666E+04  0.39897993052E+04  0.38204877241E+04 0.  0.
        2    1    3    3  502    0 -0.48216255366E+03 -0.15455892467E+04  0.16336563716E+04  0.23000347798E+04  0.25500000920E-02 0. -1.
       -2    1    3    3    0  502  0.48216255366E+03  0.15455892467E+04 -0.48371200498E+03  0.16897645255E+04  0.25500000920E-02 0.  1.
</event>
<event>
 5   0  0.3509843E-07  0.3823537E+04  0.7818609E-02  0.8041123E-01
       -2   -1    0    0    0  501  0.00000000000E+00  0.00000000000E+00  0.23068338658E+04  0.23068338658E+04  0.25500000920E-02 0. -1.
        2   -1    0    0  501    0  0.00000000000E+00  0.00000000000E+00 -0.15843613775E+04  0.15843613775E+04  0.25500000920E-02 0.  1.
    10030    2    1    2    0    0  0.00000000000E+00  0.00000000000E+00  0.72247248829E+03  0.38911952434E+04  0.38235368346E+04 0.  0.
        4    1    3    3  502    0 -0.15876574357E+04 -0.42890208458E+03  0.13532901058E+04  0.21297908007E+04  0.12699999809E+01 0. -1.
       -4    1    3    3    0  502  0.15876574357E+04  0.42890208458E+03 -0.63081761755E+03  0.17614044427E+04  0.12699999809E+01 0.  1.
</event>
<event>
 5   0  0.1070988E-07  0.3805934E+04  0.7818609E-02  0.8044883E-01
       -1   -1    0    0    0  501  0.00000000000E+00  0.00000000000E+00  0.17107299438E+04  0.17107299438E+04  0.50400001928E-02 0. -1.
        1   -1    0    0  501    0  0.00000000000E+00  0.00000000000E+00 -0.21168057771E+04  0.21168057771E+04  0.50400001928E-02 0.  1.
    10030    2    1    2    0    0  0.00000000000E+00  0.00000000000E+00 -0.40607583330E+03  0.38275357209E+04  0.38059338030E+04 0.  0.
        3    1    3    3  502    0  0.10697655295E+03  0.60549876562E+03  0.16080752012E+04  0.17216209225E+04  0.10100000352E+00 0. -1.
       -3    1    3    3    0  502 -0.10697655295E+03 -0.60549876562E+03 -0.20141510345E+04  0.21059147984E+04  0.10100000352E+00 0.  1.
</event>
<event>
 5   0  0.3442126E-07  0.3712966E+04  0.7818609E-02  0.8065094E-01
        2   -1    0    0  501    0  0.00000000000E+00  0.00000000000E+00  0.17824922899E+04  0.17824922899E+04  0.25500000920E-02 0. -1.
       -2   -1    0    0    0  501  0.00000000000E+00  0.00000000000E+00 -0.19335452452E+04  0.19335452452E+04  0.25500000920E-02 0.  1.
    10030    2    1    2    0    0  0.00000000000E+00  0.00000000000E+00 -0.15105295529E+03  0.37160375351E+04  0.37129661952E+04 0.  0.
        2    1    3    3  502    0 -0.60127057243E+02 -0.10010601020E+04 -0.16391225204E+04  0.19215772760E+04  0.25500000920E-02 0.  1.
       -2    1    3    3    0  502  0.60127057243E+02  0.10010601020E+04  0.14880695651E+04  0.17944602591E+04  0.25500000920E-02 0. -1.
</event>
<event>
 5   0  0.3509843E-07  0.3802849E+04  0.7818609E-02  0.8045544E-01
       -2   -1    0    0    0  501  0.00000000000E+00  0.00000000000E+00  0.15500005707E+04  0.15500005707E+04  0.25500000920E-02 0. -1.
        2   -1    0    0  501    0  0.00000000000E+00  0.00000000000E+00 -0.23325245582E+04  0.23325245582E+04  0.25500000920E-02 0.  1.
    10030    2    1    2    0    0  0.00000000000E+00  0.00000000000E+00 -0.78252398744E+03  0.38825251289E+04  0.38028486146E+04 0.  0.
        4    1    3    3  502    0 -0.10240024731E+04 -0.29979051683E+03 -0.19980719117E+04  0.22651155370E+04  0.12699999809E+01 0.  1.
       -4    1    3    3    0  502  0.10240024731E+04  0.29979051683E+03  0.12155479243E+04  0.16174095919E+04  0.12699999809E+01 0. -1.
</event>
<event>
 5   0  0.3327241E-07  0.3739484E+04  0.7818609E-02  0.8059268E-01
       -2   -1    0    0    0  501  0.00000000000E+00  0.00000000000E+00  0.28709504237E+04  0.28709504237E+04  0.25500000920E-02 0.  1.
        2   -1    0    0  501    0  0.00000000000E+00  0.00000000000E+00 -0.12176925403E+04  0.12176925403E+04  0.25500000920E-02 0. -1.
    10030    2    1    2    0    0  0.00000000000E+00  0.00000000000E+00  0.16532578835E+04  0.40886429640E+04  0.37394838759E+04 0.  0.
        3    1    3    3  502    0 -0.21826026528E+03  0.59414477753E+03 -0.10969860332E+04  0.12665006622E+04  0.10100000352E+00 0. -1.
       -3    1    3    3    0  502  0.21826026528E+03 -0.59414477753E+03  0.27502439167E+04  0.28221423018E+04  0.10100000352E+00 0.  1.
</event>
<event>
 5   0  0.1070988E-07  0.3779063E+04  0.7818609E-02  0.8050663E-01
        1   -1    0    0  501    0  0.00000000000E+00  0.00000000000E+00  0.18128482459E+04  0.18128482459E+04  0.50400001928E-02 0. -1.
       -1   -1    0    0    0  501  0.00000000000E+00  0.00000000000E+00 -0.19694585210E+04  0.19694585210E+04  0.50400001928E-02 0.  1.
    10030    2    1    2    0    0  0.00000000000E+00  0.00000000000E+00 -0.15661027518E+03  0.37823067669E+04  0.37790630718E+04 0.  0.
        5    1    3    3  502    0 -0.10457697307E+04  0.92711777402E+02 -0.16506652159E+04  0.19562585586E+04  0.46999998093E+01 0.  1.
       -5    1    3    3    0  502  0.10457697307E+04 -0.92711777402E+02  0.14940549407E+04  0.18260482083E+04  0.46999998093E+01 0. -1.
</event>
<event>
 5   0  0.3442126E-07  0.3819016E+04  0.7818609E-02  0.8042086E-01
       -2   -1    0    0    0  501  0.00000000000E+00  0.00000000000E+00  0.32019359475E+04  0.32019359475E+04  0.25500000920E-02 0. -1.
        2   -1    0    0  501    0  0.00000000000E+00  0.00000000000E+00 -0.11387552041E+04  0.11387552041E+04  0.25500000920E-02 0.  1.
    10030    2    1    2    0    0  0.00000000000E+00  0.00000000000E+00  0.20631807433E+04  0.43406911516E+04  0.38190162207E+04 0.  0.
        2    1    3    3  502    0 -0.18536297295E+04  0.20136093217E+03  0.14998524874E+04  0.23929159790E+04  0.25500000920E-02 0.  1.
       -2    1    3    3    0  502  0.18536297295E+04 -0.20136093217E+03  0.56332825599E+03  0.19477751726E+04  0.25500000920E-02 0. -1.
</event>
<event>
 5   0  0.1084315E-07  0.3813948E+04  0.7818609E-02  0.8043168E-01
        1   -1    0    0  501    0  0.00000000000E+00  0.00000000000E+00  0.21163999002E+04  0.21163999002E+04  0.50400001928E-02 0. -1.
       -1   -1    0    0    0  501  0.00000000000E+00  0.00000000000E+00 -0.17182712249E+04  0.17182712249E+04  0.50400001928E-02 0.  1.
    10030    2    1    2    0    0  0.00000000000E+00  0.00000000000E+00  0.39812867528E+03  0.38346711251E+04  0.38139475869E+04 0.  0.
        4    1    3    3  502    0 -0.10523877531E+04  0.12110029859E+04  0.12354412105E+04  0.20249357551E+04  0.12699999809E+01 0. -1.
       -4    1    3    3    0  502  0.10523877531E+04 -0.12110029859E+04 -0.83731253520E+03  0.18097353700E+04  0.12699999809E+01 0.  1.
</event>
<event>
 5   0  0.3442126E-07  0.3769896E+04  0.7818609E-02  0.8052646E-01
        2   -1    0    0  501    0  0.00000000000E+00  0.00000000000E+00  0.25144851056E+04  0.25144851056E+04  0.25500000920E-02 0.  1.
       -2   -1    0    0    0  501  0.00000000000E+00  0.00000000000E+00 -0.14130247508E+04  0.14130247508E+04  0.25500000920E-02 0. -1.
    10030    2    1    2    0    0  0.00000000000E+00  0.00000000000E+00  0.11014603549E+04  0.39275098564E+04  0.37698963857E+04 0.  0.
        2    1    3    3  502    0 -0.16467379082E+04  0.27557248240E+03 -0.36068475988E+03  0.17081508796E+04  0.25500000920E-02 0.  1.
       -2    1    3    3    0  502  0.16467379082E+04 -0.27557248240E+03  0.14621451147E+04  0.22193589768E+04  0.25500000920E-02 0. -1.
</event>
<event>
 5   0  0.1070988E-07  0.3793891E+04  0.7818609E-02  0.8047467E-01
       -1   -1    0    0    0  501  0.00000000000E+00  0.00000000000E+00  0.12256210187E+04  0.12256210187E+04  0.50400001928E-02 0. -1.
        1   -1    0    0  501    0  0.00000000000E+00  0.00000000000E+00 -0.29359831312E+04  0.29359831312E+04  0.50400001928E-02 0.  1.
    10030    2    1    2    0    0  0.00000000000E+00  0.00000000000E+00 -0.17103621125E+04  0.41616041498E+04  0.37938912140E+04 0.  0.
        5    1    3    3  502    0  0.47847170732E+03  0.36131143632E+03 -0.28293059492E+04  0.28921402755E+04  0.46999998093E+01 0.  1.
       -5    1    3    3    0  502 -0.47847170732E+03 -0.36131143632E+03  0.11189438367E+04  0.12694638744E+04  0.46999998093E+01 0. -1.
</event>
<event>
 5   0  0.1070988E-07  0.3792307E+04  0.7818609E-02  0.8047808E-01
        1   -1    0    0  501    0  0.00000000000E+00  0.00000000000E+00  0.25373808979E+04  0.25373808979E+04  0.50400001928E-02 0. -1.
       -1   -1    0    0    0  501  0.00000000000E+00  0.00000000000E+00 -0.14169719930E+04  0.14169719931E+04  0.50400001928E-02 0.  1.
    10030    2    1    2    0    0  0.00000000000E+00  0.00000000000E+00  0.11204089048E+04  0.39543528909E+04  0.37923067745E+04 0.  0.
        5    1    3    3  502    0 -0.11976955214E+03 -0.15915975804E+04 -0.50718056114E+03  0.16747482841E+04  0.46999998093E+01 0.  1.
       -5    1    3    3    0  502  0.11976955214E+03  0.15915975804E+04  0.16275894660E+04  0.22796046068E+04  0.46999998093E+01 0. -1.
</event>
<event>
 5   0  0.1070988E-07  0.3804887E+04  0.7818609E-02  0.8045107E-01
        1   -1    0    0  501    0  0.00000000000E+00  0.00000000000E+00  0.14862306518E+04  0.14862306518E+04  0.50400001928E-02 0.  1.
       -1   -1    0    0    0  501  0.00000000000E+00  0.00000000000E+00 -0.24352151890E+04  0.24352151890E+04  0.50400001928E-02 0. -1.
    10030    2    1    2    0    0  0.00000000000E+00  0.00000000000E+00 -0.94898453720E+03  0.39214458407E+04  0.38048870982E+04 0.  0.
        3    1    3    3  502    0  0.98992629453E+03  0.11999287905E+04  0.65427932424E+03  0.16875617367E+04  0.10100000352E+00 0.  1.
       -3    1    3    3    0  502 -0.98992629453E+03 -0.11999287905E+04 -0.16032638614E+04  0.22338841041E+04  0.10100000352E+00 0. -1.
</event>
<event>
 5   0  0.1070988E-07  0.3791017E+04  0.7818609E-02  0.8048085E-01
        1   -1    0    0  501    0  0.00000000000E+00  0.00000000000E+00  0.30157682839E+04  0.30157682840E+04  0.50400001928E-02 0. -1.
       -1   -1    0    0    0  501  0.00000000000E+00  0.00000000000E+00 -0.11913886413E+04  0.11913886414E+04  0.50400001928E-02 0.  1.
    10030    2    1    2    0    0  0.00000000000E+00  0.00000000000E+00  0.18243796426E+04  0.42071569253E+04  0.37910167916E+04 0.  0.
        2    1    3    3  502    0 -0.11354194044E+04 -0.97893375048E+03 -0.37507818176E+03  0.15453712027E+04  0.25500000920E-02 0.  1.
       -2    1    3    3    0  502  0.11354194044E+04  0.97893375048E+03  0.21994578244E+04  0.26617857226E+04  0.25500000920E-02 0. -1.
</event>
<event>
 5   0  0.3377396E-07  0.3792620E+04  0.7818609E-02  0.8047741E-01
       -2   -1    0    0    0  501  0.00000000000E+00  0.00000000000E+00  0.24539134801E+04  0.24539134801E+04  0.25500000920E-02 0. -1.
        2   -1    0    0  501    0  0.00000000000E+00  0.00000000000E+00 -0.14654105756E+04  0.14654105756E+04  0.25500000920E-02 0.  1.
    10030    2    1    2    0    0  0.00000000000E+00  0.00000000000E+00  0.98850290448E+03  0.39193240557E+04  0.37926195514E+04 0.  0.
        5    1    3    3  502    0 -0.15547749804E+04 -0.10653965609E+04  0.27853481887E+03  0.19052555752E+04  0.46999998093E+01 0.  1.
       -5    1    3    3    0  502  0.15547749804E+04  0.10653965609E+04  0.70996808561E+03  0.20140684805E+04  0.46999998093E+01 0. -1.
</event>
<event>
 5   0  0.1085771E-07  0.3766490E+04  0.7818609E-02  0.8053384E-01
        1   -1    0    0  501    0  0.00000000000E+00  0.00000000000E+00  0.20741144868E+04  0.20741144868E+04  0.50400001928E-02 0.  1.
       -1   -1    0    0    0  501  0.00000000000E+00  0.00000000000E+00 -0.17099404985E+04  0.17099404985E+04  0.50400001928E-02 0. -1.
    10030    2    1    2    0    0  0.00000000000E+00  0.00000000000E+00  0.36417398835E+03  0.37840549853E+04  0.37664903342E+04 0.  0.
        1    1    3    3  502    0  0.24518266122E+03  0.51504403190E+03  0.19852345934E+04  0.20655607672E+04  0.50400001928E-02 0.  1.
       -1    1    3    3    0  502 -0.24518266122E+03 -0.51504403190E+03 -0.16210606051E+04  0.17184942181E+04  0.50400001928E-02 0. -1.
</event>
<event>
 5   0  0.1070988E-07  0.3808418E+04  0.7818609E-02  0.8044351E-01
        1   -1    0    0  501    0  0.00000000000E+00  0.00000000000E+00  0.22388547350E+04  0.22388547350E+04  0.50400001928E-02 0. -1.
       -1   -1    0    0    0  501  0.00000000000E+00  0.00000000000E+00 -0.16195830731E+04  0.16195830731E+04  0.50400001928E-02 0.  1.
    10030    2    1    2    0    0  0.00000000000E+00  0.00000000000E+00  0.61927166188E+03  0.38584378081E+04  0.38084176409E+04 0.  0.
        5    1    3    3  502    0 -0.14802310646E+04  0.41549763784E+03  0.14478985838E+04  0.21119078320E+04  0.46999998093E+01 0. -1.
       -5    1    3    3    0  502  0.14802310646E+04 -0.41549763784E+03 -0.82862692195E+03  0.17465299761E+04  0.46999998093E+01 0.  1.
</event>
<event>
 5   0  0.3442126E-07  0.3727985E+04  0.7818609E-02  0.8061788E-01
        2   -1    0    0  501    0  0.00000000000E+00  0.00000000000E+00  0.10375363458E+04  0.10375363458E+04  0.25500000920E-02 0. -1.
       -2   -1    0    0    0  501  0.00000000000E+00  0.00000000000E+00 -0.33487668372E+04  0.33487668372E+04  0.25500000920E-02 0.  1.
    10030    2    1    2    0    0  0.00000000000E+00  0.00000000000E+00 -0.23112304914E+04  0.43863031831E+04  0.37279846069E+04 0.  0.
        2    1    3    3  502    0  0.15254065469E+04  0.79896736359E+02 -0.24125391144E+04  0.28554498070E+04  0.25500000920E-02 0.  1.
       -2    1    3    3    0  502 -0.15254065469E+04 -0.79896736359E+02  0.10130862304E+03  0.15308533760E+04  0.25500000920E-02 0. -1.
</event>
<event>
 5   0  0.1070988E-07  0.4415293E+04  0.7818609E-02  0.7925637E-01
        1   -1    0    0  501    0  0.00000000000E+00  0.00000000000E+00  0.21909797114E+04  0.21909797114E+04  0.50400001928E-02 0. -1.
       -1   -1    0    0    0  501  0.00000000000E+00  0.00000000000E+00 -0.22244395993E+04  0.22244395993E+04  0.50400001928E-02 0.  1.
    10030    2    1    2    0    0  0.00000000000E+00  0.00000000000E+00 -0.33459887866E+02  0.44154193108E+04  0.44152925300E+04 0.  0.
        2    1    3    3  502    0  0.16644974696E+04  0.90963630575E+03  0.11127767002E+04  0.21991502949E+04  0.25500000920E-02 0. -1.
       -2    1    3    3    0  502 -0.16644974696E+04 -0.90963630575E+03 -0.11462365881E+04  0.22162690159E+04  0.25500000920E-02 0.  1.
</event>
<event>
 5   0  0.3377396E-07  0.3771623E+04  0.7818609E-02  0.8052272E-01
       -2   -1    0    0    0  501  0.00000000000E+00  0.00000000000E+00  0.22485595369E+04  0.22485595369E+04  0.25500000920E-02 0.  1.
        2   -1    0    0  501    0  0.00000000000E+00  0.00000000000E+00 -0.15815838338E+04  0.15815838338E+04  0.25500000920E-02 0. -1.
    10030    2    1    2    0    0  0.00000000000E+00  0.00000000000E+00  0.66697570317E+03  0.38301433707E+04  0.37716232118E+04 0.  0.
        5    1    3    3  502    0 -0.65920061304E+03 -0.17592280905E+04  0.49984163306E+03  0.19440402956E+04  0.46999998093E+01 0. -1.
       -5    1    3    3    0  502  0.65920061304E+03  0.17592280905E+04  0.16713407010E+03  0.18861030751E+04  0.46999998093E+01 0.  1.
</event>
<event>
 5   0  0.1085771E-07  0.3771767E+04  0.7818609E-02  0.8052241E-01
       -1   -1    0    0    0  501  0.00000000000E+00  0.00000000000E+00  0.30251341914E+04  0.30251341914E+04  0.50400001928E-02 0. -1.
        1   -1    0    0  501    0  0.00000000000E+00  0.00000000000E+00 -0.11756690391E+04  0.11756690391E+04  0.50400001928E-02 0.  1.
    10030    2    1    2    0    0  0.00000000000E+00  0.00000000000E+00  0.18494651523E+04  0.42008032305E+04  0.37717670172E+04 0.  0.
        1    1    3    3  502    0  0.26575905343E+03 -0.79632659724E+03 -0.95608405374E+03  0.12723445452E+04  0.50400001928E-02 0.  1.
       -1    1    3    3    0  502 -0.26575905343E+03  0.79632659724E+03  0.28055492061E+04  0.29284586853E+04  0.50400001928E-02 0. -1.
</event>
<event>
 5   0  0.3327241E-07  0.3807503E+04  0.7818609E-02  0.8044547E-01
       -2   -1    0    0    0  501  0.00000000000E+00  0.00000000000E+00  0.15389427072E+04  0.15389427072E+04  0.25500000920E-02 0. -1.
        2   -1    0    0  501    0  0.00000000000E+00  0.00000000000E+00 -0.23550391502E+04  0.23550391502E+04  0.25500000920E-02 0.  1.
    10030    2    1    2    0    0  0.00000000000E+00  0.00000000000E+00 -0.81609644299E+03  0.38939818574E+04  0.38075032897E+04 0.  0.
        3    1    3    3  502    0  0.34793204742E+03  0.59971909132E+03 -0.22213240209E+04  0.23270152802E+04  0.10100000352E+00 0.  1.
       -3    1    3    3    0  502 -0.34793204742E+03 -0.59971909132E+03  0.14052275779E+04  0.15669665772E+04  0.10100000352E+00 0. -1.
</event>
<event>
 5   0  0.3377396E-07  0.3667524E+04  0.7818609E-02  0.8075197E-01
        2   -1    0    0  501    0  0.00000000000E+00  0.00000000000E+00  0.20880829286E+04  0.20880829286E+04  0.25500000920E-02 0. -1.
       -2   -1    0    0    0  501  0.00000000000E+00  0.00000000000E+00 -0.16104164762E+04  0.16104164762E+04  0.25500000920E-02 0.  1.
    10030    2    1    2    0    0  0.00000000000E+00  0.00000000000E+00  0.47766645242E+03  0.36984994048E+04  0.36675240432E+04 0.  0.
        5    1    3    3  502    0  0.13659107345E+03 -0.82879659615E+03  0.18826618742E+04  0.20615525076E+04  0.46999998093E+01 0. -1.
       -5    1    3    3    0  502 -0.13659107345E+03  0.82879659615E+03 -0.14049954217E+04  0.16369468972E+04  0.46999998093E+01 0.  1.
</event>
<event>
 5   0  0.1085771E-07  0.3775975E+04  0.7818609E-02  0.8051330E-01
        1   -1    0    0  501    0  0.00000000000E+00  0.00000000000E+00  0.10380078717E+04  0.10380078717E+04  0.50400001928E-02 0.  1.
       -1   -1    0    0    0  501  0.00000000000E+00  0.00000000000E+00 -0.34339781142E+04  0.34339781142E+04  0.50400001928E-02 0. -1.
    10030    2    1    2    0    0  0.00000000000E+00  0.00000000000E+00 -0.23959702424E+04  0.44719859859E+04  0.37759747424E+04 0.  0.
        1    1    3    3  502    0 -0.10514139193E+03 -0.29530960867E+03 -0.34029429209E+04  0.34173502893E+04  0.50400001928E-02 0. -1.
       -1    1    3    3    0  502  0.10514139193E+03  0.29530960867E+03  0.10069726785E+04  0.10546356966E+04  0.50400001928E-02 0.  1.
</event>
<event>
 5   0  0.3442126E-07  0.3776105E+04  0.7818609E-02  0.8051302E-01
       -2   -1    0    0    0  501  0.00000000000E+00  0.00000000000E+00  0.17446954239E+04  0.17446954239E+04  0.25500000920E-02 0. -1.
        2   -1    0    0  501    0  0.00000000000E+00  0.00000000000E+00 -0.20431890612E+04  0.20431890612E+04  0.25500000920E-02 0.  1.
    10030    2    1    2    0    0  0.00000000000E+00  0.00000000000E+00 -0.29849363733E+03  0.37878844851E+04  0.37761051920E+04 0.  0.
        2    1    3    3  502    0 -0.92742735523E+03 -0.98838827818E+03 -0.14677707912E+04  0.19978448346E+04  0.25500000920E-02 0.  1.
       -2    1    3    3    0  502  0.92742735523E+03  0.98838827818E+03  0.11692771539E+04  0.17900396505E+04  0.25500000920E-02 0. -1.
</event>
<event>
 5   0  0.3377396E-07  0.3791036E+04  0.7818609E-02  0.8048081E-01
       -2   -1    0    0    0  501  0.00000000000E+00  0.00000000000E+00  0.15622447921E+04  0.15622447921E+04  0.25500000920E-02 0.  1.
        2   -1    0    0  501    0  0.00000000000E+00  0.00000000000E+00 -0.22998881775E+04  0.22998881775E+04  0.25500000920E-02 0. -1.
    10030    2    1    2    0    0  0.00000000000E+00  0.00000000000E+00 -0.73764338539E+03  0.38621329696E+04  0.37910359152E+04 0.  0.
        5    1    3    3  502    0 -0.18746151820E+04  0.16337183986E+03 -0.13630060910E+03  0.18866564034E+04  0.46999998093E+01 0.  1.
       -5    1    3    3    0  502  0.18746151820E+04 -0.16337183986E+03 -0.60134277629E+03  0.19754765661E+04  0.46999998093E+01 0. -1.
</event>
<event>
 5   0  0.1084315E-07  0.3702952E+04  0.7818609E-02  0.8067308E-01
       -1   -1    0    0    0  501  0.00000000000E+00  0.00000000000E+00  0.26487639559E+04  0.26487639559E+04  0.50400001928E-02 0. -1.
        1   -1    0    0  501    0  0.00000000000E+00  0.00000000000E+00 -0.12941750190E+04  0.12941750191E+04  0.50400001928E-02 0.  1.
    10030    2    1    2    0    0  0.00000000000E+00  0.00000000000E+00  0.13545889369E+04  0.39429389750E+04  0.37029524130E+04 0.  0.
        4    1    3    3  502    0  0.58511495178E+03 -0.45811955752E+02 -0.11925014308E+04  0.13291047805E+04  0.12699999809E+01 0.  1.
       -4    1    3    3    0  502 -0.58511495178E+03  0.45811955752E+02  0.25470903677E+04  0.26138341945E+04  0.12699999809E+01 0. -1.
</event>
<event>
 5   0  0.3377396E-07  0.3770976E+04  0.7818609E-02  0.8052412E-01
       -2   -1    0    0    0  501  0.00000000000E+00  0.00000000000E+00  0.18032106914E+04  0.18032106914E+04  0.25500000920E-02 0.  1.
        2   -1    0    0  501    0  0.00000000000E+00  0.00000000000E+00 -0.19715194279E+04  0.19715194279E+04  0.25500000920E-02 0. -1.
    10030    2    1    2    0    0  0.00000000000E+00  0.00000000000E+00 -0.16830873655E+03  0.37747301193E+04  0.37709759536E+04 0.  0.
        5    1    3    3  502    0 -0.53831555267E+03 -0.70377609457E+03 -0.17501304669E+04  0.19616480742E+04  0.46999998093E+01 0. -1.
       -5    1    3    3    0  502  0.53831555267E+03  0.70377609457E+03  0.15818217304E+04  0.18130820451E+04  0.46999998093E+01 0.  1.
</event>
<event>
 5   0  0.1084315E-07  0.3839946E+04  0.7818609E-02  0.8037637E-01
        1   -1    0    0  501    0  0.00000000000E+00  0.00000000000E+00  0.11946286490E+04  0.11946286490E+04  0.50400001928E-02 0.  1.
       -1   -1    0    0    0  501  0.00000000000E+00  0.00000000000E+00 -0.30857253167E+04  0.30857253167E+04  0.50400001928E-02 0. -1.
    10030    2    1    2    0    0  0.00000000000E+00  0.00000000000E+00 -0.18910966677E+04  0.42803539656E+04  0.38399457632E+04 0.  0.
        4    1    3    3  502    0  0.17678623145E+04 -0.20815232946E+03 -0.17475295325E+04  0.24944990750E+04  0.12699999809E+01 0.  1.
       -4    1    3    3    0  502 -0.17678623145E+04  0.20815232946E+03 -0.14356713519E+03  0.17858548907E+04  0.12699999809E+01 0. -1.
</event>
<event>
 5   0  0.1070988E-07  0.3747545E+04  0.7818609E-02  0.8057506E-01
       -1   -1    0    0    0  501  0.00000000000E+00  0.00000000000E+00  0.21361335980E+04  0.21361335980E+04  0.50400001928E-02 0.  1.
        1   -1    0    0  501    0  0.00000000000E+00  0.00000000000E+00 -0.16436343319E+04  0.16436343319E+04  0.50400001928E-02 0. -1.
    10030    2    1    2    0    0  0.00000000000E+00  0.00000000000E+00  0.49249926606E+03  0.37797679299E+04  0.37475445397E+04 0.  0.
        5    1    3    3  502    0 -0.20476189041E+03  0.18414910746E+04 -0.35407028329E+02  0.18531844370E+04  0.46999998093E+01 0. -1.
       -5    1    3    3    0  502  0.20476189041E+03 -0.18414910746E+04  0.52790629438E+03  0.19265834930E+04  0.46999998093E+01 0.  1.
</event>
<event>
 5   0  0.1070988E-07  0.3799033E+04  0.7818609E-02  0.8046362E-01
        1   -1    0    0  501    0  0.00000000000E+00  0.00000000000E+00  0.15737627829E+04  0.15737627829E+04  0.50400001928E-02 0.  1.
       -1   -1    0    0    0  501  0.00000000000E+00  0.00000000000E+00 -0.22926984328E+04  0.22926984328E+04  0.50400001928E-02 0. -1.
    10030    2    1    2    0    0  0.00000000000E+00  0.00000000000E+00 -0.71893564994E+03  0.38664612157E+04  0.37990332802E+04 0.  0.
        5    1    3    3  502    0 -0.94471030994E+03 -0.15160303525E+04  0.29799766487E+03  0.18109804797E+04  0.46999998093E+01 0.  1.
       -5    1    3    3    0  502  0.94471030994E+03  0.15160303525E+04 -0.10169333148E+04  0.20554807361E+04  0.46999998093E+01 0. -1.
</event>
<event>
 5   0  0.3327241E-07  0.3810444E+04  0.7818609E-02  0.8043917E-01
       -2   -1    0    0    0  501  0.00000000000E+00  0.00000000000E+00  0.16978259625E+04  0.16978259625E+04  0.25500000920E-02 0. -1.
        2   -1    0    0  501    0  0.00000000000E+00  0.00000000000E+00 -0.21379524577E+04  0.21379524577E+04  0.25500000920E-02 0.  1.
    10030    2    1    2    0    0  0.00000000000E+00  0.00000000000E+00 -0.44012649512E+03  0.38357784202E+04  0.38104441680E+04 0.  0.
        3    1    3    3  502    0  0.15904562656E+04 -0.10278654029E+04 -0.93566115175E+01  0.18937122210E+04  0.10100000352E+00 0. -1.
       -3    1    3    3    0  502 -0.15904562656E+04  0.10278654029E+04 -0.43076988360E+03  0.19420661992E+04  0.10100000352E+00 0.  1.
</event>
<event>
 5   0  0.1070988E-07  0.3787827E+04  0.7818609E-02  0.8048772E-01
       -1   -1    0    0    0  501  0.00000000000E+00  0.00000000000E+00  0.16670929787E+04  0.16670929787E+04  0.50400001928E-02 0. -1.
        1   -1    0    0  501    0  0.00000000000E+00  0.00000000000E+00 -0.21515948141E+04  0.21515948141E+04  0.50400001928E-02 0.  1.
    10030    2    1    2    0    0  0.00000000000E+00  0.00000000000E+00 -0.48450183547E+03  0.38186877928E+04  0.37878271384E+04 0.  0.
        5    1    3    3  502    0 -0.99515312265E+03  0.65023510915E+02 -0.18654397183E+04  0.21152884501E+04  0.46999998093E+01 0.  1.
       -5    1    3    3    0  502  0.99515312265E+03 -0.65023510915E+02  0.13809378828E+04  0.17033993427E+04  0.46999998093E+01 0. -1.
</event>
<event>
 5   0  0.1070988E-07  0.3816170E+04  0.7818609E-02  0.8042694E-01
       -1   -1    0    0    0  501  0.00000000000E+00  0.00000000000E+00  0.14371775491E+04  0.14371775492E+04  0.50400001928E-02 0. -1.
        1   -1    0    0  501    0  0.00000000000E+00  0.00000000000E+00 -0.25332912402E+04  0.25332912402E+04  0.50400001928E-02 0.  1.
    10030    2    1    2    0    0  0.00000000000E+00  0.00000000000E+00 -0.10961136911E+04  0.39704687894E+04  0.38161704867E+04 0.  0.
        5    1    3    3  502    0 -0.17132136667E+04  0.63225624177E+03  0.27405171450E+02  0.18263685708E+04  0.46999998093E+01 0.  1.
       -5    1    3    3    0  502  0.17132136667E+04 -0.63225624177E+03 -0.11235188625E+04  0.21441002186E+04  0.46999998093E+01 0. -1.
</event>
<event>
 5   0  0.3327241E-07  0.3575845E+04  0.7818609E-02  0.8096047E-01
       -2   -1    0    0    0  501  0.00000000000E+00  0.00000000000E+00  0.15067337443E+04  0.15067337443E+04  0.25500000920E-02 0.  1.
        2   -1    0    0  501    0  0.00000000000E+00  0.00000000000E+00 -0.21215873394E+04  0.21215873394E+04  0.25500000920E-02 0. -1.
    10030    2    1    2    0    0  0.00000000000E+00  0.00000000000E+00 -0.61485359509E+03  0.36283210836E+04  0.35758452067E+04 0.  0.
        3    1    3    3  502    0 -0.14945036392E+02  0.15165545746E+04 -0.12681618247E+04  0.19769662505E+04  0.10100000352E+00 0. -1.
       -3    1    3    3    0  502  0.14945036392E+02 -0.15165545746E+04  0.65330822965E+03  0.16513548331E+04  0.10100000352E+00 0.  1.
</event>
<event>
 5   0  0.3539010E-07  0.3808655E+04  0.7818609E-02  0.8044300E-01
       -2   -1    0    0    0  501  0.00000000000E+00  0.00000000000E+00  0.13132960886E+04  0.13132960886E+04  0.25500000920E-02 0. -1.
        2   -1    0    0  501    0  0.00000000000E+00  0.00000000000E+00 -0.27613444103E+04  0.27613444103E+04  0.25500000920E-02 0.  1.
    10030    2    1    2    0    0  0.00000000000E+00  0.00000000000E+00 -0.14480483217E+04  0.40746404989E+04  0.38086547826E+04 0.  0.
        1    1    3    3  502    0 -0.83971395799E+03 -0.13694084254E+02  0.11044761752E+04  0.13875066417E+04  0.50400001928E-02 0. -1.
       -1    1    3    3    0  502  0.83971395799E+03  0.13694084254E+02 -0.25525244969E+04  0.26871338572E+04  0.50400001928E-02 0.  1.
</event>
<event>
 5   0  0.3509843E-07  0.3802089E+04  0.7818609E-02  0.8045707E-01
        2   -1    0    0  501    0  0.00000000000E+00  0.00000000000E+00  0.29933835612E+04  0.29933835612E+04  0.25500000920E-02 0. -1.
       -2   -1    0    0    0  501  0.00000000000E+00  0.00000000000E+00 -0.12073191493E+04  0.12073191493E+04  0.25500000920E-02 0.  1.
    10030    2    1    2    0    0  0.00000000000E+00  0.00000000000E+00  0.17860644119E+04  0.42007027105E+04  0.38020885285E+04 0.  0.
        4    1    3    3  502    0  0.11513941285E+04  0.15023611273E+04  0.10880930572E+04  0.21832877753E+04  0.12699999809E+01 0. -1.
       -4    1    3    3    0  502 -0.11513941285E+04 -0.15023611273E+04  0.69797135468E+03  0.20174149352E+04  0.12699999809E+01 0.  1.
</event>
<event>
 5   0  0.1070988E-07  0.3820308E+04  0.7818609E-02  0.8041811E-01
        1   -1    0    0  501    0  0.00000000000E+00  0.00000000000E+00  0.19122391972E+04  0.19122391972E+04  0.50400001928E-02 0.  1.
       -1   -1    0    0    0  501  0.00000000000E+00  0.00000000000E+00 -0.19080709679E+04  0.19080709679E+04  0.50400001928E-02 0. -1.
    10030    2    1    2    0    0  0.00000000000E+00  0.00000000000E+00  0.41682293189E+01  0.38203101651E+04  0.38203078912E+04 0.  0.
        2    1    3    3  502    0 -0.41727939914E+03 -0.73553619541E+03 -0.17106785649E+04  0.19082863370E+04  0.25500000920E-02 0. -1.
       -2    1    3    3    0  502  0.41727939914E+03  0.73553619541E+03  0.17148467942E+04  0.19120238281E+04  0.25500000920E-02 0.  1.
</event>
<event>
 5   0  0.3377396E-07  0.3823444E+04  0.7818609E-02  0.8041143E-01
        2   -1    0    0  501    0  0.00000000000E+00  0.00000000000E+00  0.15979088005E+04  0.15979088005E+04  0.25500000920E-02 0. -1.
       -2   -1    0    0    0  501  0.00000000000E+00  0.00000000000E+00 -0.22871645313E+04  0.22871645313E+04  0.25500000920E-02 0.  1.
    10030    2    1    2    0    0  0.00000000000E+00  0.00000000000E+00 -0.68925573082E+03  0.38850733318E+04  0.38234436482E+04 0.  0.
        5    1    3    3  502    0 -0.56077270171E+03  0.18088246401E+04 -0.78983909872E+02  0.18954084387E+04  0.46999998093E+01 0. -1.
       -5    1    3    3    0  502  0.56077270171E+03 -0.18088246401E+04 -0.61027182095E+03  0.19896648931E+04  0.46999998093E+01 0.  1.
</event>
<event>
 5   0  0.1084315E-07  0.3826371E+04  0.7818609E-02  0.8040519E-01
        1   -1    0    0  501    0  0.00000000000E+00  0.00000000000E+00  0.12229304907E+04  0.12229304907E+04  0.50400001928E-02 0. -1.
       -1   -1    0    0    0  501  0.00000000000E+00  0.00000000000E+00 -0.29930387045E+04  0.29930387045E+04  0.50400001928E-02 0.  1.
    10030    2    1    2    0    0  0.00000000000E+00  0.00000000000E+00 -0.17701082138E+04  0.42159691952E+04  0.38263707565E+04 0.  0.
        4    1    3    3  502    0  0.95999578753E+03 -0.91387434524E+03 -0.24052127926E+04  0.27462353180E+04  0.12699999809E+01 0.  1.
       -4    1    3    3    0  502 -0.95999578753E+03  0.91387434524E+03  0.63510457884E+03  0.14697338772E+04  0.12699999809E+01 0. -1.
</event>
<event>
 5   0  0.3539010E-07  0.3826221E+04  0.7818609E-02  0.8040551E-01
        2   -1    0    0  501    0  0.00000000000E+00  0.00000000000E+00  0.15758409611E+04  0.15758409611E+04  0.25500000920E-02 0.  1.
       -2   -1    0    0    0  501  0.00000000000E+00  0.00000000000E+00 -0.23225647786E+04  0.23225647786E+04  0.25500000920E-02 0. -1.
    10030    2    1    2    0    0  0.00000000000E+00  0.00000000000E+00 -0.74672381746E+03  0.38984057397E+04  0.38262214850E+04 0.  0.
        1    1    3    3  502    0  0.87354058203E+03 -0.11933290323E+04  0.86315884006E+03  0.17123523326E+04  0.50400001928E-02 0.  1.
       -1    1    3    3    0  502 -0.87354058203E+03  0.11933290323E+04 -0.16098826575E+04  0.21860534071E+04  0.50400001928E-02 0. -1.
</event>
<event>
 5   0  0.3377396E-07  0.3788377E+04  0.7818609E-02  0.8048654E-01
        2   -1    0    0  501    0  0.00000000000E+00  0.00000000000E+00  0.10990137501E+04  0.10990137501E+04  0.25500000920E-02 0.  1.
       -2   -1    0    0    0  501  0.00000000000E+00  0.00000000000E+00 -0.32646990618E+04  0.32646990618E+04  0.25500000920E-02 0. -1.
    10030    2    1    2    0    0  0.00000000000E+00  0.00000000000E+00 -0.21656853116E+04  0.43637128119E+04  0.37883765172E+04 0.  0.
        5    1    3    3  502    0 -0.86643871373E+03 -0.13657964413E+04 -0.22183604744E+04  0.27454073010E+04  0.46999998093E+01 0. -1.
       -5    1    3    3    0  502  0.86643871373E+03  0.13657964413E+04  0.52675162815E+02  0.16183055109E+04  0.46999998093E+01 0.  1.
</event>
<event>
 5   0  0.3442126E-07  0.3786284E+04  0.7818609E-02  0.8049105E-01
        2   -1    0    0  501    0  0.00000000000E+00  0.00000000000E+00  0.24972924928E+04  0.24972924928E+04  0.25500000920E-02 0. -1.
       -2   -1    0    0    0  501  0.00000000000E+00  0.00000000000E+00 -0.14351487121E+04  0.14351487121E+04  0.25500000920E-02 0.  1.
    10030    2    1    2    0    0  0.00000000000E+00  0.00000000000E+00  0.10621437807E+04  0.39324412050E+04  0.37862837215E+04 0.  0.
        2    1    3    3  502    0 -0.16432534530E+04  0.38801953561E+03  0.14203631675E+04  0.22064162342E+04  0.25500000920E-02 0. -1.
       -2    1    3    3    0  502  0.16432534530E+04 -0.38801953561E+03 -0.35821938683E+03  0.17260249708E+04  0.25500000920E-02 0.  1.
</event>
<event>
 5   0  0.1070988E-07  0.3905905E+04  0.7818609E-02  0.8023802E-01
        1   -1    0    0  501    0  0.00000000000E+00  0.00000000000E+00  0.23623777152E+04  0.23623777152E+04  0.50400001928E-02 0. -1.
       -1   -1    0    0    0  501  0.00000000000E+00  0.00000000000E+00 -0.16144846551E+04  0.16144846551E+04  0.50400001928E-02 0.  1.
    10030    2    1    2    0    0  0.00000000000E+00  0.00000000000E+00  0.74789306014E+03  0.39768623703E+04  0.39059045409E+04 0.  0.
        3    1    3    3  502    0 -0.16067711546E+04 -0.10208154876E+04 -0.70147858078E+02  0.19049143118E+04  0.10100000352E+00 0.  1.
       -3    1    3    3    0  502  0.16067711546E+04  0.10208154876E+04  0.81804091822E+03  0.20719480585E+04  0.10100000352E+00 0. -1.
</event>
<event>
 5   0  0.1084315E-07  0.3876003E+04  0.7818609E-02  0.8030039E-01
        1   -1    0    0  501    0  0.00000000000E+00  0.00000000000E+00  0.31513844052E+04  0.31513844052E+04  0.50400001928E-02 0.  1.
       -1   -1    0    0    0  501  0.00000000000E+00  0.00000000000E+00 -0.11918094832E+04  0.11918094832E+04  0.50400001928E-02 0. -1.
    10030    2    1    2    0    0  0.00000000000E+00  0.00000000000E+00  0.19595749220E+04  0.43431938884E+04  0.38760030027E+04 0.  0.
        4    1    3    3  502    0  0.36904629265E+03 -0.57806207312E+03 -0.10512861739E+04  0.12552112009E+04  0.12699999809E+01 0. -1.
       -4    1    3    3    0  502 -0.36904629265E+03  0.57806207312E+03  0.30108610959E+04  0.30879826875E+04  0.12699999809E+01 0.  1.
</event>
<event>
 5   0  0.3442126E-07  0.3738136E+04  0.7818609E-02  0.8059563E-01
        2   -1    0    0  501    0  0.00000000000E+00  0.00000000000E+00  0.18409491834E+04  0.18409491834E+04  0.25500000920E-02 0. -1.
       -2   -1    0    0    0  501  0.00000000000E+00  0.00000000000E+00 -0.18976158731E+04  0.18976158731E+04  0.25500000920E-02 0.  1.
    10030    2    1    2    0    0  0.00000000000E+00  0.00000000000E+00 -0.56666689712E+02  0.37385650565E+04  0.37381355738E+04 0.  0.
        2    1    3    3  502    0  0.14739707482E+04  0.97115371081E+02  0.11169590131E+04  0.18519229463E+04  0.25500000920E-02 0. -1.
       -2    1    3    3    0  502 -0.14739707482E+04 -0.97115371081E+02 -0.11736257028E+04  0.18866421103E+04  0.25500000920E-02 0.  1.
</event>
<event>
 5   0  0.3377396E-07  0.3825961E+04  0.7818609E-02  0.8040607E-01
        2   -1    0    0  501    0  0.00000000000E+00  0.00000000000E+00  0.22179170131E+04  0.22179170131E+04  0.25500000920E-02 0. -1.
       -2   -1    0    0    0  501  0.00000000000E+00  0.00000000000E+00 -0.16499686970E+04  0.16499686970E+04  0.25500000920E-02 0.  1.
    10030    2    1    2    0    0  0.00000000000E+00  0.00000000000E+00  0.56794831604E+03  0.38678857101E+04  0.38259606084E+04 0.  0.
        5    1    3    3  502    0 -0.97744906068E+03  0.11310306751E+03 -0.13745125005E+04  0.16904158288E+04  0.46999998093E+01 0.  1.
       -5    1    3    3    0  502  0.97744906068E+03 -0.11310306751E+03  0.19424608166E+04  0.21774698813E+04  0.46999998093E+01 0. -1.
</event>
<event>
 5   0  0.1085771E-07  0.3840864E+04  0.7818609E-02  0.8037442E-01
        1   -1    0    0  501    0  0.00000000000E+00  0.00000000000E+00  0.25078285992E+04  0.25078285992E+04  0.50400001928E-02 0.  1.
       -1   -1    0    0    0  501  0.00000000000E+00  0.00000000000E+00 -0.14706182670E+04  0.14706182671E+04  0.50400001928E-02 0. -1.
    10030    2    1    2    0    0  0.00000000000E+00  0.00000000000E+00  0.10372103321E+04  0.39784468662E+04  0.38408637302E+04 0.  0.
        1    1    3    3  502    0  0.12232044759E+04 -0.87681280318E+03 -0.71703349346E+03  0.16670833550E+04  0.50400001928E-02 0. -1.
       -1    1    3    3    0  502 -0.12232044759E+04  0.87681280318E+03  0.17542438256E+04  0.23113635113E+04  0.50400001928E-02 0.  1.
</event>
<event>
 5   0  0.1070988E-07  0.3767630E+04  0.7818609E-02  0.8053137E-01
        1   -1    0    0  501    0  0.00000000000E+00  0.00000000000E+00  0.25493785461E+04  0.25493785461E+04  0.50400001928E-02 0. -1.
       -1   -1    0    0    0  501  0.00000000000E+00  0.00000000000E+00 -0.13920094984E+04  0.13920094984E+04  0.50400001928E-02 0.  1.
    10030    2    1    2    0    0  0.00000000000E+00  0.00000000000E+00  0.11573690477E+04  0.39413880445E+04  0.37676301046E+04 0.  0.
        2    1    3    3  502    0 -0.42459182664E+03  0.17895464390E+04  0.10049114026E+04  0.20958534309E+04  0.25500000920E-02 0.  1.
       -2    1    3    3    0  502  0.42459182664E+03 -0.17895464390E+04  0.15245764506E+03  0.18455346136E+04  0.25500000920E-02 0. -1.
</event>
<event>
 5   0  0.3509843E-07  0.3314372E+04  0.7818609E-02  0.8159248E-01
        2   -1    0    0  501    0  0.00000000000E+00  0.00000000000E+00  0.27456325989E+04  0.27456325989E+04  0.25500000920E-02 0.  1.
       -2   -1    0    0    0  501  0.00000000000E+00  0.00000000000E+00 -0.10002305465E+04  0.10002305465E+04  0.25500000920E-02 0. -1.
    10030    2    1    2    0    0  0.00000000000E+00  0.00000000000E+00  0.17454020523E+04  0.37458631454E+04  0.33143720944E+04 0.  0.
        4    1    3    3  502    0  0.15251382606E+04  0.24921273670E+03  0.15490316257E+04  0.21880709066E+04  0.12699999809E+01 0.  1.
       -4    1    3    3    0  502 -0.15251382606E+04 -0.24921273670E+03  0.19637042661E+03  0.15577922388E+04  0.12699999809E+01 0. -1.
</event>
<event>
 5   0  0.3509843E-07  0.3791655E+04  0.7818609E-02  0.8047948E-01
        2   -1    0    0  501    0  0.00000000000E+00  0.00000000000E+00  0.13682342928E+04  0.13682342928E+04  0.25500000920E-02 0. -1.
       -2   -1    0    0    0  501  0.00000000000E+00  0.00000000000E+00 -0.26268616718E+04  0.26268616718E+04  0.25500000920E-02 0.  1.
    10030    2    1    2    0    0  0.00000000000E+00  0.00000000000E+00 -0.12586273790E+04  0.39950959646E+04  0.37916551646E+04 0.  0.
        4    1    3    3  502    0 -0.16409097257E+04  0.20919338651E+03  0.34656301203E+03  0.16901047704E+04  0.12699999809E+01 0. -1.
       -4    1    3    3    0  502  0.16409097257E+04 -0.20919338651E+03 -0.16051903911E+04  0.23049911942E+04  0.12699999809E+01 0.  1.
</event>
<event>
 5   0  0.3509843E-07  0.3823405E+04  0.7818609E-02  0.8041151E-01
       -2   -1    0    0    0  501  0.00000000000E+00  0.00000000000E+00  0.17777402509E+04  0.17777402509E+04  0.25500000920E-02 0.  1.
        2   -1    0    0  501    0  0.00000000000E+00  0.00000000000E+00 -0.20557593889E+04  0.20557593889E+04  0.25500000920E-02 0. -1.
    10030    2    1    2    0    0  0.00000000000E+00  0.00000000000E+00 -0.27801913801E+03  0.38334996399E+04  0.38234048762E+04 0.  0.
        4    1    3    3  502    0 -0.64706815684E+03  0.72128526937E+03  0.15132658115E+04  0.17969208855E+04  0.12699999809E+01 0.  1.
       -4    1    3    3    0  502  0.64706815684E+03 -0.72128526937E+03 -0.17912849496E+04  0.20365787544E+04  0.12699999809E+01 0. -1.
</event>
<event>
 5   0  0.3377396E-07  0.3788910E+04  0.7818609E-02  0.8048539E-01
       -2   -1    0    0    0  501  0.00000000000E+00  0.00000000000E+00  0.23606046917E+04  0.23606046918E+04  0.25500000920E-02 0. -1.
        2   -1    0    0  501    0  0.00000000000E+00  0.00000000000E+00 -0.15203558067E+04  0.15203558067E+04  0.25500000920E-02 0.  1.
    10030    2    1    2    0    0  0.00000000000E+00  0.00000000000E+00  0.84024888509E+03  0.38809604984E+04  0.37889096322E+04 0.  0.
        5    1    3    3  502    0  0.54971605295E+03 -0.18085160642E+04  0.54976499438E+03  0.19685481281E+04  0.46999998093E+01 0. -1.
       -5    1    3    3    0  502 -0.54971605295E+03  0.18085160642E+04  0.29048389072E+03  0.19124123703E+04  0.46999998093E+01 0.  1.
</event>
<event>
 5   0  0.1070988E-07  0.3130371E+04  0.7818609E-02  0.8207452E-01
       -1   -1    0    0    0  501  0.00000000000E+00  0.00000000000E+00  0.16715625286E+04  0.16715625286E+04  0.50400001928E-02 0. -1.
        1   -1    0    0  501    0  0.00000000000E+00  0.00000000000E+00 -0.14655784707E+04  0.14655784707E+04  0.50400001928E-02 0.  1.
    10030    2    1    2    0    0  0.00000000000E+00  0.00000000000E+00  0.20598405792E+03  0.31371409993E+04  0.31303712587E+04 0.  0.
        2    1    3    3  502    0  0.35694062154E+03  0.11493881440E+04  0.11058089986E+04  0.16344152637E+04  0.25500000920E-02 0. -1.
       -2    1    3    3    0  502 -0.35694062154E+03 -0.11493881440E+04 -0.89982494065E+03  0.15027257357E+04  0.25500000920E-02 0.  1.
</event>
<event>
 5   0  0.1085771E-07  0.3614835E+04  0.7818609E-02  0.8087102E-01
        1   -1    0    0  501    0  0.00000000000E+00  0.00000000000E+00  0.24551722876E+04  0.24551722876E+04  0.50400001928E-02 0.  1.
       -1   -1    0    0    0  501  0.00000000000E+00  0.00000000000E+00 -0.13305619604E+04  0.13305619604E+04  0.50400001928E-02 0. -1.
    10030    2    1    2    0    0  0.00000000000E+00  0.00000000000E+00  0.11246103271E+04  0.37857342480E+04  0.36148354608E+04 0.  0.
        1    1    3    3  502    0  0.61443792048E+03  0.13047123963E+04  0.17032847804E+04  0.22318125904E+04  0.50400001928E-02 0.  1.
       -1    1    3    3    0  502 -0.61443792048E+03 -0.13047123963E+04 -0.57867445331E+03  0.15539216577E+04  0.50400001928E-02 0. -1.
</event>
<event>
 5   0  0.1070988E-07  0.3782120E+04  0.7818609E-02  0.8050003E-01
       -3   -1    0    0    0  501  0.00000000000E+00  0.00000000000E+00  0.25186045951E+04  0.25186045971E+04  0.10100000352E+00 0.  1.
        3   -1    0    0  501    0  0.00000000000E+00  0.00000000000E+00 -0.14198767097E+04  0.14198767133E+04  0.10100000352E+00 0. -1.
    10030    2    1    2    0    0  0.00000000000E+00  0.00000000000E+00  0.10987278854E+04  0.39384813104E+04  0.37821200491E+04 0.  0.
        5    1    3    3  502    0  0.81407213195E+03  0.68468463752E+01 -0.12280475850E+04  0.14733917593E+04  0.46999998093E+01 0. -1.
       -5    1    3    3    0  502 -0.81407213195E+03 -0.68468463752E+01  0.23267754704E+04  0.24650895511E+04  0.46999998093E+01 0.  1.
</event>
<event>
 5   0  0.3539010E-07  0.3805087E+04  0.7818609E-02  0.8045064E-01
       -2   -1    0    0    0  501  0.00000000000E+00  0.00000000000E+00  0.21173640518E+04  0.21173640518E+04  0.25500000920E-02 0.  1.
        2   -1    0    0  501    0  0.00000000000E+00  0.00000000000E+00 -0.17095180197E+04  0.17095180198E+04  0.25500000920E-02 0. -1.
    10030    2    1    2    0    0  0.00000000000E+00  0.00000000000E+00  0.40784603202E+03  0.38268820715E+04  0.38050871217E+04 0.  0.
        1    1    3    3  502    0  0.33148788299E+03  0.59151458787E+02 -0.16793111394E+04  0.17127372870E+04  0.50400001928E-02 0. -1.
       -1    1    3    3    0  502 -0.33148788299E+03 -0.59151458787E+02  0.20871571714E+04  0.21141447845E+04  0.50400001928E-02 0.  1.
</event>
<event>
 5   0  0.3377396E-07  0.3801864E+04  0.7818609E-02  0.8045755E-01
       -2   -1    0    0    0  501  0.00000000000E+00  0.00000000000E+00  0.20927888142E+04  0.20927888142E+04  0.25500000920E-02 0.  1.
        2   -1    0    0  501    0  0.00000000000E+00  0.00000000000E+00 -0.17266632870E+04  0.17266632870E+04  0.25500000920E-02 0. -1.
    10030    2    1    2    0    0  0.00000000000E+00  0.00000000000E+00  0.36612552720E+03  0.38194521012E+04  0.38018635499E+04 0.  0.
        5    1    3    3  502    0 -0.20816686445E+03 -0.71652960828E+03  0.19395136994E+04  0.20780961487E+04  0.46999998093E+01 0.  1.
       -5    1    3    3    0  502  0.20816686445E+03  0.71652960828E+03 -0.15733881722E+04  0.17413559525E+04  0.46999998093E+01 0. -1.
</event>
<event>
 5   0  0.3509843E-07  0.4003974E+04  0.7818609E-02  0.8003745E-01
        2   -1    0    0  501    0  0.00000000000E+00  0.00000000000E+00  0.26358150859E+04  0.26358150859E+04  0.25500000920E-02 0. -1.
       -2   -1    0    0    0  501  0.00000000000E+00  0.00000000000E+00 -0.15205738540E+04  0.15205738540E+04  0.25500000920E-02 0.  1.
    10030    2    1    2    0    0  0.00000000000E+00  0.00000000000E+00  0.11152412319E+04  0.41563889399E+04  0.40039737779E+04 0.  0.
        4    1    3    3  502    0 -0.90310186004E+03  0.98953744310E+03  0.21019239011E+04  0.24925615379E+04  0.12699999809E+01 0. -1.
       -4    1    3    3    0  502  0.90310186004E+03 -0.98953744310E+03 -0.98668266928E+03  0.16638274020E+04  0.12699999809E+01 0.  1.
</event>
<event>
 5   0  0.1070988E-07  0.3218457E+04  0.7818609E-02  0.8183960E-01
        3   -1    0    0  501    0  0.00000000000E+00  0.00000000000E+00  0.13579422927E+04  0.13579422965E+04  0.10100000352E+00 0. -1.
       -3   -1    0    0    0  501  0.00000000000E+00  0.00000000000E+00 -0.19070154453E+04  0.19070154480E+04  0.10100000352E+00 0.  1.
    10030    2    1    2    0    0  0.00000000000E+00  0.00000000000E+00 -0.54907315256E+03  0.32649577444E+04  0.32184573550E+04 0.  0.
        1    1    3    3  502    0  0.14458031122E+04  0.31102340240E+03  0.36908632649E+03  0.15242397819E+04  0.50400001928E-02 0. -1.
       -1    1    3    3    0  502 -0.14458031122E+04 -0.31102340240E+03 -0.91815947905E+03  0.17407179626E+04  0.50400001928E-02 0.  1.
</event>
<event>
 5   0  0.1070988E-07  0.3776818E+04  0.7818609E-02  0.8051148E-01
       -1   -1    0    0    0  501  0.00000000000E+00  0.00000000000E+00  0.13418949037E+04  0.13418949038E+04  0.50400001928E-02 0. -1.
        1   -1    0    0  501    0  0.00000000000E+00  0.00000000000E+00 -0.26575018835E+04  0.26575018835E+04  0.50400001928E-02 0.  1.
    10030    2    1    2    0    0  0.00000000000E+00  0.00000000000E+00 -0.13156069797E+04  0.39993967872E+04  0.37768178321E+04 0.  0.
        3    1    3    3  502    0  0.14229213277E+04 -0.10611795693E+04  0.24597279322E+02  0.17752217381E+04  0.10100000352E+00 0. -1.
       -3    1    3    3    0  502 -0.14229213277E+04  0.10611795693E+04 -0.13402042590E+04  0.22241750491E+04  0.10100000352E+00 0.  1.
</event>
<event>
 5   0  0.1070988E-07  0.3771398E+04  0.7818609E-02  0.8052321E-01
        1   -1    0    0  501    0  0.00000000000E+00  0.00000000000E+00  0.16697388256E+04  0.16697388256E+04  0.50400001928E-02 0.  1.
       -1   -1    0    0    0  501  0.00000000000E+00  0.00000000000E+00 -0.21295914742E+04  0.21295914742E+04  0.50400001928E-02 0. -1.
    10030    2    1    2    0    0  0.00000000000E+00  0.00000000000E+00 -0.45985264854E+03  0.37993302998E+04  0.37713984500E+04 0.  0.
        2    1    3    3  502    0  0.57222985392E+03  0.10314929831E+04  0.12521722389E+04  0.17202790750E+04  0.25500000920E-02 0.  1.
       -2    1    3    3    0  502 -0.57222985392E+03 -0.10314929831E+04 -0.17120248875E+04  0.20790512248E+04  0.25500000920E-02 0. -1.
</event>
<event>
 5   0  0.1070988E-07  0.3767774E+04  0.7818609E-02  0.8053106E-01
       -1   -1    0    0    0  501  0.00000000000E+00  0.00000000000E+00  0.13959854601E+04  0.13959854601E+04  0.50400001928E-02 0. -1.
        1   -1    0    0  501    0  0.00000000000E+00  0.00000000000E+00 -0.25423120341E+04  0.25423120341E+04  0.50400001928E-02 0.  1.
    10030    2    1    2    0    0  0.00000000000E+00  0.00000000000E+00 -0.11463265740E+04  0.39382974942E+04  0.37677742155E+04 0.  0.
        2    1    3    3  502    0 -0.89956121899E+03 -0.74040012374E+03 -0.21205792052E+04  0.24195575826E+04  0.25500000920E-02 0.  1.
       -2    1    3    3    0  502  0.89956121899E+03  0.74040012374E+03  0.97425263115E+03  0.15187399117E+04  0.25500000920E-02 0. -1.
</event>
<event>
 5   0  0.1070988E-07  0.3744791E+04  0.7818609E-02  0.8058107E-01
       -1   -1    0    0    0  501  0.00000000000E+00  0.00000000000E+00  0.26047489776E+04  0.26047489776E+04  0.50400001928E-02 0. -1.
        1   -1    0    0  501    0  0.00000000000E+00  0.00000000000E+00 -0.13459512948E+04  0.13459512948E+04  0.50400001928E-02 0.  1.
    10030    2    1    2    0    0  0.00000000000E+00  0.00000000000E+00  0.12587976829E+04  0.39507002724E+04  0.37447911872E+04 0.  0.
        5    1    3    3  502    0  0.63242946851E+03 -0.15144733654E+04  0.15802015649E+04  0.22783010519E+04  0.46999998093E+01 0. -1.
       -5    1    3    3    0  502 -0.63242946851E+03  0.15144733654E+04 -0.32140388207E+03  0.16723992205E+04  0.46999998093E+01 0.  1.
</event>
<event>
 5   0  0.3539010E-07  0.3818057E+04  0.7818609E-02  0.8042291E-01
        2   -1    0    0  501    0  0.00000000000E+00  0.00000000000E+00  0.13444761337E+04  0.13444761337E+04  0.25500000920E-02 0.  1.
       -2   -1    0    0    0  501  0.00000000000E+00  0.00000000000E+00 -0.27106389373E+04  0.27106389373E+04  0.25500000920E-02 0. -1.
    10030    2    1    2    0    0  0.00000000000E+00  0.00000000000E+00 -0.13661628036E+04  0.40551150710E+04  0.38180567614E+04 0.  0.
        1    1    3    3  502    0  0.93357231838E+03 -0.15139240384E+04  0.53418813899E+02  0.17794316052E+04  0.50400001928E-02 0.  1.
       -1    1    3    3    0  502 -0.93357231838E+03  0.15139240384E+04 -0.14195816175E+04  0.22756834658E+04  0.50400001928E-02 0. -1.
</event>
<event>
 5   0  0.1084315E-07  0.3762030E+04  0.7818609E-02  0.8054353E-01
        1   -1    0    0  501    0  0.00000000000E+00  0.00000000000E+00  0.22344680716E+04  0.22344680717E+04  0.50400001928E-02 0. -1.
       -1   -1    0    0    0  501  0.00000000000E+00  0.00000000000E+00 -0.15834715613E+04  0.15834715613E+04  0.50400001928E-02 0.  1.
    10030    2    1    2    0    0  0.00000000000E+00  0.00000000000E+00  0.65099651036E+03  0.38179396329E+04  0.37620295831E+04 0.  0.
        4    1    3    3  502    0  0.93841913547E+03  0.38278974503E+03  0.19336798942E+04  0.21831807092E+04  0.12699999809E+01 0. -1.
       -4    1    3    3    0  502 -0.93841913547E+03 -0.38278974503E+03 -0.12826833839E+04  0.16347589238E+04  0.12699999809E+01 0.  1.
</event>
<event>
 5   0  0.1085771E-07  0.3777222E+04  0.7818609E-02  0.8051061E-01
        1   -1    0    0  501    0  0.00000000000E+00  0.00000000000E+00  0.20121228866E+04  0.20121228866E+04  0.50400001928E-02 0.  1.
       -1   -1    0    0    0  501  0.00000000000E+00  0.00000000000E+00 -0.17726803986E+04  0.17726803986E+04  0.50400001928E-02 0. -1.
    10030    2    1    2    0    0  0.00000000000E+00  0.00000000000E+00  0.23944248800E+03  0.37848032852E+04  0.37772216248E+04 0.  0.
        1    1    3    3  502    0  0.16326163891E+04  0.39595919086E+03  0.98437325510E+03  0.19471031457E+04  0.50400001928E-02 0. -1.
       -1    1    3    3    0  502 -0.16326163891E+04 -0.39595919086E+03 -0.74493076710E+03  0.18377001395E+04  0.50400001928E-02 0.  1.
</event>
<event>
 5   0  0.3509843E-07  0.3840218E+04  0.7818609E-02  0.8037579E-01
        2   -1    0    0  501    0  0.00000000000E+00  0.00000000000E+00  0.31361786326E+04  0.31361786326E+04  0.25500000920E-02 0.  1.
       -2   -1    0    0    0  501  0.00000000000E+00  0.00000000000E+00 -0.11755764771E+04  0.11755764771E+04  0.25500000920E-02 0. -1.
    10030    2    1    2    0    0  0.00000000000E+00  0.00000000000E+00  0.19606021555E+04  0.43117551097E+04  0.38402176129E+04 0.  0.
        4    1    3    3  502    0  0.56348143720E+03 -0.17537729122E+04  0.37193425515E+03  0.18792465141E+04  0.12699999809E+01 0. -1.
       -4    1    3    3    0  502 -0.56348143720E+03  0.17537729122E+04  0.15886679003E+04  0.24325085957E+04  0.12699999809E+01 0.  1.
</event>
<event>
 5   0  0.1070988E-07  0.3277043E+04  0.7818609E-02  0.8168761E-01
        1   -1    0    0  501    0  0.00000000000E+00  0.00000000000E+00  0.11348258303E+04  0.11348258303E+04  0.50400001928E-02 0.  1.
       -1   -1    0    0    0  501  0.00000000000E+00  0.00000000000E+00 -0.23657837859E+04  0.23657837859E+04  0.50400001928E-02 0. -1.
    10030    2    1    2    0    0  0.00000000000E+00  0.00000000000E+00 -0.12309579556E+04  0.35006096162E+04  0.32770429043E+04 0.  0.
        5    1    3    3  502    0  0.92702385361E+03 -0.13114559664E+04 -0.96234778419E+03  0.18722781109E+04  0.46999998093E+01 0. -1.
       -5    1    3    3    0  502 -0.92702385361E+03  0.13114559664E+04 -0.26861017143E+03  0.16283315053E+04  0.46999998093E+01 0.  1.
</event>
<event>
 5   0  0.1070988E-07  0.3795902E+04  0.7818609E-02  0.8047035E-01
       -3   -1    0    0    0  501  0.00000000000E+00  0.00000000000E+00  0.15521328913E+04  0.15521328945E+04  0.10100000352E+00 0. -1.
        3   -1    0    0  501    0  0.00000000000E+00  0.00000000000E+00 -0.23208183578E+04  0.23208183600E+04  0.10100000352E+00 0.  1.
    10030    2    1    2    0    0  0.00000000000E+00  0.00000000000E+00 -0.76868546659E+03  0.38729512546E+04  0.37959022740E+04 0.  0.
        3    1    3    3  502    0  0.20649474211E+03 -0.16387802637E+04 -0.13381863508E+04  0.21257901004E+04  0.10100000352E+00 0.  1.
       -3    1    3    3    0  502 -0.20649474211E+03  0.16387802637E+04  0.56950088424E+03  0.17471611542E+04  0.10100000352E+00 0. -1.
</event>
<event>
 5   0  0.1084315E-07  0.3903514E+04  0.7818609E-02  0.8024299E-01
        1   -1    0    0  501    0  0.00000000000E+00  0.00000000000E+00  0.13069516858E+04  0.13069516858E+04  0.50400001928E-02 0.  1.
       -1   -1    0    0    0  501  0.00000000000E+00  0.00000000000E+00 -0.29146868014E+04  0.29146868014E+04  0.50400001928E-02 0. -1.
    10030    2    1    2    0    0  0.00000000000E+00  0.00000000000E+00 -0.16077351156E+04  0.42216384872E+04  0.39035137139E+04 0.  0.
        4    1    3    3  502    0  0.87721221525E+03  0.17403455236E+04 -0.91755035537E+03  0.21541132931E+04  0.12699999809E+01 0.  1.
       -4    1    3    3    0  502 -0.87721221525E+03 -0.17403455236E+04 -0.69018476027E+03  0.20675251941E+04  0.12699999809E+01 0. -1.
</event>
<event>
 5   0  0.3539010E-07  0.3802602E+04  0.7818609E-02  0.8045597E-01
       -2   -1    0    0    0  501  0.00000000000E+00  0.00000000000E+00  0.22971748127E+04  0.22971748127E+04  0.25500000920E-02 0.  1.
        2   -1    0    0  501    0  0.00000000000E+00  0.00000000000E+00 -0.15736481824E+04  0.15736481824E+04  0.25500000920E-02 0. -1.
    10030    2    1    2    0    0  0.00000000000E+00  0.00000000000E+00  0.72352663027E+03  0.38708229951E+04  0.38026017244E+04 0.  0.
        1    1    3    3  502    0 -0.17190315921E+04 -0.52663732498E+03 -0.26782166705E+03  0.18177307094E+04  0.50400001928E-02 0. -1.
       -1    1    3    3    0  502  0.17190315921E+04  0.52663732498E+03  0.99134829732E+03  0.20530922856E+04  0.50400001928E-02 0.  1.
</event>
<event>
 5   0  0.1084315E-07  0.3830766E+04  0.7818609E-02  0.8039585E-01
        1   -1    0    0  501    0  0.00000000000E+00  0.00000000000E+00  0.13269299541E+04  0.13269299541E+04  0.50400001928E-02 0. -1.
       -1   -1    0    0    0  501  0.00000000000E+00  0.00000000000E+00 -0.27647967769E+04  0.27647967769E+04  0.50400001928E-02 0.  1.
    10030    2    1    2    0    0  0.00000000000E+00  0.00000000000E+00 -0.14378668228E+04  0.40917267310E+04  0.38307658034E+04 0.  0.
        4    1    3    3  502    0 -0.17808254949E+04 -0.13992455843E+03  0.19363820385E+02  0.17864195744E+04  0.12699999809E+01 0. -1.
       -4    1    3    3    0  502  0.17808254949E+04  0.13992455843E+03 -0.14572306432E+04  0.23053071565E+04  0.12699999809E+01 0.  1.
</event>
<event>
 5   0  0.3539010E-07  0.3746425E+04  0.7818609E-02  0.8057751E-01
        2   -1    0    0  501    0  0.00000000000E+00  0.00000000000E+00  0.18419611492E+04  0.18419611492E+04  0.25500000920E-02 0.  1.
       -2   -1    0    0    0  501  0.00000000000E+00  0.00000000000E+00 -0.19049941730E+04  0.19049941730E+04  0.25500000920E-02 0. -1.
    10030    2    1    2    0    0  0.00000000000E+00  0.00000000000E+00 -0.63033023816E+02  0.37469553222E+04  0.37464250993E+04 0.  0.
        1    1    3    3  502    0 -0.16581838299E+04 -0.41741571915E+02 -0.90204723753E+03  0.18881221335E+04  0.50400001928E-02 0. -1.
       -1    1    3    3    0  502  0.16581838299E+04  0.41741571915E+02  0.83901421371E+03  0.18588331887E+04  0.50400001928E-02 0.  1.
</event>
<event>
 5   0  0.3327241E-07  0.3812965E+04  0.7818609E-02  0.8043378E-01
        2   -1    0    0  501    0  0.00000000000E+00  0.00000000000E+00  0.18494896036E+04  0.18494896036E+04  0.25500000920E-02 0. -1.
       -2   -1    0    0    0  501  0.00000000000E+00  0.00000000000E+00 -0.19652312828E+04  0.19652312828E+04  0.25500000920E-02 0.  1.
    10030    2    1    2    0    0  0.00000000000E+00  0.00000000000E+00 -0.11574167913E+03  0.38147208864E+04  0.38129646346E+04 0.  0.
        3    1    3    3  502    0  0.81246134730E+02 -0.13651032622E+04  0.12711110485E+04  0.18670380710E+04  0.10100000352E+00 0. -1.
       -3    1    3    3    0  502 -0.81246134730E+02  0.13651032622E+04 -0.13868527276E+04  0.19476828154E+04  0.10100000352E+00 0.  1.
</event>
<event>
 5   0  0.3327241E-07  0.3815298E+04  0.7818609E-02  0.8042880E-01
        2   -1    0    0  501    0  0.00000000000E+00  0.00000000000E+00  0.27456274155E+04  0.27456274155E+04  0.25500000920E-02 0.  1.
       -2   -1    0    0    0  501  0.00000000000E+00  0.00000000000E+00 -0.13254254536E+04  0.13254254536E+04  0.25500000920E-02 0. -1.
    10030    2    1    2    0    0  0.00000000000E+00  0.00000000000E+00  0.14202019620E+04  0.40710528691E+04  0.38152978717E+04 0.  0.
        3    1    3    3  502    0 -0.18425330784E+04 -0.34444616629E+03  0.33201367937E+03  0.19036292706E+04  0.10100000352E+00 0. -1.
       -3    1    3    3    0  502  0.18425330784E+04  0.34444616629E+03  0.10881882826E+04  0.21674235984E+04  0.10100000352E+00 0.  1.
</event>
<event>
 5   0  0.1085771E-07  0.3782964E+04  0.7818609E-02  0.8049821E-01
       -1   -1    0    0    0  501  0.00000000000E+00  0.00000000000E+00  0.19825317413E+04  0.19825317413E+04  0.50400001928E-02 0. -1.
        1   -1    0    0  501    0  0.00000000000E+00  0.00000000000E+00 -0.18046134504E+04  0.18046134504E+04  0.50400001928E-02 0.  1.
    10030    2    1    2    0    0  0.00000000000E+00  0.00000000000E+00  0.17791829088E+03  0.37871451917E+04  0.37829636245E+04 0.  0.
        1    1    3    3  502    0 -0.12526168213E+04  0.48225430673E+03 -0.12452124907E+04  0.18308938430E+04  0.50400001928E-02 0.  1.
       -1    1    3    3    0  502  0.12526168213E+04 -0.48225430673E+03  0.14231307816E+04  0.19562513486E+04  0.50400001928E-02 0. -1.
</event>
<event>
 5   0  0.1070988E-07  0.3798881E+04  0.7818609E-02  0.8046395E-01
        1   -1    0    0  501    0  0.00000000000E+00  0.00000000000E+00  0.12146460602E+04  0.12146460602E+04  0.50400001928E-02 0. -1.
       -1   -1    0    0    0  501  0.00000000000E+00  0.00000000000E+00 -0.29703090943E+04  0.29703090943E+04  0.50400001928E-02 0.  1.
    10030    2    1    2    0    0  0.00000000000E+00  0.00000000000E+00 -0.17556630341E+04  0.41849551545E+04  0.37988810137E+04 0.  0.
        5    1    3    3  502    0  0.92305808436E+03 -0.11671918087E+02  0.95089804307E+03  0.13252930389E+04  0.46999998093E+01 0. -1.
       -5    1    3    3    0  502 -0.92305808436E+03  0.11671918087E+02 -0.27065610772E+04  0.28596621156E+04  0.46999998093E+01 0.  1.
</event>
<event>
 5   0  0.3327241E-07  0.3732076E+04  0.7818609E-02  0.8060890E-01
        2   -1    0    0  501    0  0.00000000000E+00  0.00000000000E+00  0.14273162566E+04  0.14273162566E+04  0.25500000920E-02 0.  1.
       -2   -1    0    0    0  501  0.00000000000E+00  0.00000000000E+00 -0.24396114091E+04  0.24396114091E+04  0.25500000920E-02 0. -1.
    10030    2    1    2    0    0  0.00000000000E+00  0.00000000000E+00 -0.10122951525E+04  0.38669276656E+04  0.37320755747E+04 0.  0.
        3    1    3    3  502    0 -0.10233611716E+04 -0.51022616444E+03 -0.20340483246E+04  0.23334419692E+04  0.10100000352E+00 0. -1.
       -3    1    3    3    0  502  0.10233611716E+04  0.51022616444E+03  0.10217531721E+04  0.15334856965E+04  0.10100000352E+00 0.  1.
</event>
<event>
 5   0  0.1070988E-07  0.3820265E+04  0.7818609E-02  0.8041820E-01
       -1   -1    0    0    0  501  0.00000000000E+00  0.00000000000E+00  0.15939511514E+04  0.15939511514E+04  0.50400001928E-02 0.  1.
        1   -1    0    0  501    0  0.00000000000E+00  0.00000000000E+00 -0.22890328969E+04  0.22890328970E+04  0.50400001928E-02 0. -1.
    10030    2    1    2    0    0  0.00000000000E+00  0.00000000000E+00 -0.69508174556E+03  0.38829840484E+04  0.38202652377E+04 0.  0.
        5    1    3    3  502    0 -0.17309583213E+04  0.55054250616E+03  0.25315301218E+03  0.18339635489E+04  0.46999998093E+01 0.  1.
       -5    1    3    3    0  502  0.17309583213E+04 -0.55054250616E+03 -0.94823475774E+03  0.20490204994E+04  0.46999998093E+01 0. -1.
</event>
<event>
 5   0  0.3442126E-07  0.3797186E+04  0.7818609E-02  0.8046759E-01
       -2   -1    0    0    0  501  0.00000000000E+00  0.00000000000E+00  0.29150452856E+04  0.29150452856E+04  0.25500000920E-02 0. -1.
        2   -1    0    0  501    0  0.00000000000E+00  0.00000000000E+00 -0.12365689970E+04  0.12365689970E+04  0.25500000920E-02 0.  1.
    10030    2    1    2    0    0  0.00000000000E+00  0.00000000000E+00  0.16784762886E+04  0.41516142826E+04  0.37971856026E+04 0.  0.
        2    1    3    3  502    0 -0.13503339122E+04  0.60565336609E+03 -0.46107205329E+03  0.15500984203E+04  0.25500000920E-02 0.  1.
       -2    1    3    3    0  502  0.13503339122E+04 -0.60565336609E+03  0.21395483419E+04  0.26015158623E+04  0.25500000920E-02 0. -1.
</event>
<event>
 5   0  0.1070988E-07  0.3766145E+04  0.7818609E-02  0.8053459E-01
       -1   -1    0    0    0  501  0.00000000000E+00  0.00000000000E+00  0.11891511409E+04  0.11891511409E+04  0.50400001928E-02 0.  1.
        1   -1    0    0  501    0  0.00000000000E+00  0.00000000000E+00 -0.29819273824E+04  0.29819273824E+04  0.50400001928E-02 0. -1.
    10030    2    1    2    0    0  0.00000000000E+00  0.00000000000E+00 -0.17927762414E+04  0.41710785233E+04  0.37661451639E+04 0.  0.
        3    1    3    3  502    0  0.15836162411E+04  0.85639905938E+03 -0.28503887110E+03  0.18227745106E+04  0.10100000352E+00 0.  1.
       -3    1    3    3    0  502 -0.15836162411E+04 -0.85639905938E+03 -0.15077373703E+04  0.23483040127E+04  0.10100000352E+00 0. -1.
</event>
<event>
 5   0  0.1070988E-07  0.3908448E+04  0.7818609E-02  0.8023275E-01
        1   -1    0    0  501    0  0.00000000000E+00  0.00000000000E+00  0.23182737096E+04  0.23182737096E+04  0.50400001928E-02 0.  1.
       -1   -1    0    0    0  501  0.00000000000E+00  0.00000000000E+00 -0.16473424333E+04  0.16473424333E+04  0.50400001928E-02 0. -1.
    10030    2    1    2    0    0  0.00000000000E+00  0.00000000000E+00  0.67093127629E+03  0.39656161429E+04  0.39084475966E+04 0.  0.
        3    1    3    3  502    0 -0.15632736786E+04  0.11724885603E+04  0.35666686089E+03  0.19863950458E+04  0.10100000352E+00 0.  1.
       -3    1    3    3    0  502  0.15632736786E+04 -0.11724885603E+04  0.31426441540E+03  0.19792210971E+04  0.10100000352E+00 0. -1.
</event>
<event>
 5   0  0.1084315E-07  0.3730113E+04  0.7818609E-02  0.8061321E-01
       -1   -1    0    0    0  501  0.00000000000E+00  0.00000000000E+00  0.11777943169E+04  0.11777943169E+04  0.50400001928E-02 0. -1.
        1   -1    0    0  501    0  0.00000000000E+00  0.00000000000E+00 -0.29533474546E+04  0.29533474546E+04  0.50400001928E-02 0.  1.
    10030    2    1    2    0    0  0.00000000000E+00  0.00000000000E+00 -0.17755531376E+04  0.41311417715E+04  0.37301130535E+04 0.  0.
        4    1    3    3  502    0  0.57492484942E+03  0.17358859521E+04 -0.12940922264E+04  0.22402042149E+04  0.12699999809E+01 0.  1.
       -4    1    3    3    0  502 -0.57492484942E+03 -0.17358859521E+04 -0.48146091124E+03  0.18909375566E+04  0.12699999809E+01 0. -1.
</event>
<event>
 5   0  0.3509843E-07  0.3435844E+04  0.7818609E-02  0.8129165E-01
       -2   -1    0    0    0  501  0.00000000000E+00  0.00000000000E+00  0.15780325351E+04  0.15780325351E+04  0.25500000920E-02 0.  1.
        2   -1    0    0  501    0  0.00000000000E+00  0.00000000000E+00 -0.18702125419E+04  0.18702125419E+04  0.25500000920E-02 0. -1.
    10030    2    1    2    0    0  0.00000000000E+00  0.00000000000E+00 -0.29218000683E+03  0.34482450770E+04  0.34358441401E+04 0.  0.
        4    1    3    3  502    0 -0.81349058026E+03 -0.80565101841E+03 -0.14314992567E+04  0.18330390674E+04  0.12699999809E+01 0. -1.
       -4    1    3    3    0  502  0.81349058026E+03  0.80565101841E+03  0.11393192499E+04  0.16152060097E+04  0.12699999809E+01 0.  1.
</event>
<event>
 5   0  0.1070988E-07  0.3785588E+04  0.7818609E-02  0.8049255E-01
        1   -1    0    0  501    0  0.00000000000E+00  0.00000000000E+00  0.19913451983E+04  0.19913451983E+04  0.50400001928E-02 0.  1.
       -1   -1    0    0    0  501  0.00000000000E+00  0.00000000000E+00 -0.17991205015E+04  0.17991205015E+04  0.50400001928E-02 0. -1.
    10030    2    1    2    0    0  0.00000000000E+00  0.00000000000E+00  0.19222469682E+03  0.37904656998E+04  0.37855884467E+04 0.  0.
        5    1    3    3  502    0 -0.25186150747E+03 -0.10480821364E+04  0.16539888346E+04  0.19742369510E+04  0.46999998093E+01 0.  1.
       -5    1    3    3    0  502  0.25186150747E+03  0.10480821364E+04 -0.14617641378E+04  0.18162287488E+04  0.46999998093E+01 0. -1.
</event>
<event>
 5   0  0.1070988E-07  0.3818578E+04  0.7818609E-02  0.8042180E-01
       -3   -1    0    0    0  501  0.00000000000E+00  0.00000000000E+00  0.21959283708E+04  0.21959283732E+04  0.10100000352E+00 0. -1.
        3   -1    0    0  501    0  0.00000000000E+00  0.00000000000E+00 -0.16600655849E+04  0.16600655879E+04  0.10100000352E+00 0.  1.
    10030    2    1    2    0    0  0.00000000000E+00  0.00000000000E+00  0.53586278599E+03  0.38559939611E+04  0.38185783353E+04 0.  0.
        2    1    3    3  502    0 -0.35609910526E+03 -0.67383060222E+03  0.20356642784E+04  0.21736566674E+04  0.25500000920E-02 0. -1.
       -2    1    3    3    0  502  0.35609910526E+03  0.67383060222E+03 -0.14998014924E+04  0.16823372937E+04  0.25500000920E-02 0.  1.
</event>
<event>
 5   0  0.1084315E-07  0.3988967E+04  0.7818609E-02  0.8006776E-01
       -1   -1    0    0    0  501  0.00000000000E+00  0.00000000000E+00  0.14607472241E+04  0.14607472241E+04  0.50400001928E-02 0.  1.
        1   -1    0    0  501    0  0.00000000000E+00  0.00000000000E+00 -0.27232391183E+04  0.27232391183E+04  0.50400001928E-02 0. -1.
    10030    2    1    2    0    0  0.00000000000E+00  0.00000000000E+00 -0.12624918941E+04  0.41839863424E+04  0.39889667749E+04 0.  0.
        4    1    3    3  502    0  0.96698424355E+02 -0.21809364334E+03  0.14457270982E+04  0.14652794539E+04  0.12699999809E+01 0.  1.
       -4    1    3    3    0  502 -0.96698424355E+02  0.21809364334E+03 -0.27082189923E+04  0.27187068886E+04  0.12699999809E+01 0. -1.
</event>
<event>
 5   0  0.3442126E-07  0.3813389E+04  0.7818609E-02  0.8043288E-01
       -2   -1    0    0    0  501  0.00000000000E+00  0.00000000000E+00  0.18323086198E+04  0.18323086198E+04  0.25500000920E-02 0. -1.
        2   -1    0    0  501    0  0.00000000000E+00  0.00000000000E+00 -0.19841001659E+04  0.19841001659E+04  0.25500000920E-02 0.  1.
    10030    2    1    2    0    0  0.00000000000E+00  0.00000000000E+00 -0.15179154604E+03  0.38164087857E+04  0.38133889582E+04 0.  0.
        2    1    3    3  502    0 -0.52011708492E+02 -0.58036224566E+03 -0.18928108774E+04  0.19804692807E+04  0.25500000920E-02 0.  1.
       -2    1    3    3    0  502  0.52011708492E+02  0.58036224566E+03  0.17410193314E+04  0.18359395051E+04  0.25500000920E-02 0. -1.
</event>
<event>
 5   0  0.3509843E-07  0.3832857E+04  0.7818609E-02  0.8039140E-01
       -2   -1    0    0    0  501  0.00000000000E+00  0.00000000000E+00  0.14508198188E+04  0.14508198188E+04  0.25500000920E-02 0.  1.
        2   -1    0    0  501    0  0.00000000000E+00  0.00000000000E+00 -0.25314645797E+04  0.25314645797E+04  0.25500000920E-02 0. -1.
    10030    2    1    2    0    0  0.00000000000E+00  0.00000000000E+00 -0.10806447609E+04  0.39822843986E+04  0.38328574109E+04 0.  0.
        4    1    3    3  502    0  0.10113393057E+04 -0.13692715252E+04  0.37433079221E+03  0.17429391429E+04  0.12699999809E+01 0.  1.
       -4    1    3    3    0  502 -0.10113393057E+04  0.13692715252E+04 -0.14549755531E+04  0.22393452557E+04  0.12699999809E+01 0. -1.
</event>
<event>
 5   0  0.3509843E-07  0.3696391E+04  0.7818609E-02  0.8068762E-01
       -2   -1    0    0    0  501  0.00000000000E+00  0.00000000000E+00  0.24920545141E+04  0.24920545141E+04  0.25500000920E-02 0. -1.
        2   -1    0    0  501    0  0.00000000000E+00  0.00000000000E+00 -0.13706866807E+04  0.13706866807E+04  0.25500000920E-02 0.  1.
    10030    2    1    2    0    0  0.00000000000E+00  0.00000000000E+00  0.11213678334E+04  0.38627411948E+04  0.36963906342E+04 0.  0.
        4    1    3    3  502    0  0.17538421873E+04  0.26247283709E+03  0.11046580925E+04  0.20892882813E+04  0.12699999809E+01 0. -1.
       -4    1    3    3    0  502 -0.17538421873E+04 -0.26247283709E+03  0.16709740918E+02  0.17734529135E+04  0.12699999809E+01 0.  1.
</event>
<event>
 5   0  0.1084315E-07  0.3830183E+04  0.7818609E-02  0.8039709E-01
       -1   -1    0    0    0  501  0.00000000000E+00  0.00000000000E+00  0.16458379377E+04  0.16458379377E+04  0.50400001928E-02 0. -1.
        1   -1    0    0  501    0  0.00000000000E+00  0.00000000000E+00 -0.22283937279E+04  0.22283937279E+04  0.50400001928E-02 0.  1.
    10030    2    1    2    0    0  0.00000000000E+00  0.00000000000E+00 -0.58255579019E+03  0.38742316656E+04  0.38301827306E+04 0.  0.
        4    1    3    3  502    0 -0.15207557263E+04  0.35855997941E+03  0.82884646667E+03  0.17686863250E+04  0.12699999809E+01 0. -1.
       -4    1    3    3    0  502  0.15207557263E+04 -0.35855997941E+03 -0.14114022569E+04  0.21055453406E+04  0.12699999809E+01 0.  1.
</event>
<event>
 5   0  0.3442126E-07  0.3752285E+04  0.7818609E-02  0.8056473E-01
        2   -1    0    0  501    0  0.00000000000E+00  0.00000000000E+00  0.17242133251E+04  0.17242133251E+04  0.25500000920E-02 0.  1.
       -2   -1    0    0    0  501  0.00000000000E+00  0.00000000000E+00 -0.20414585675E+04  0.20414585675E+04  0.25500000920E-02 0. -1.
    10030    2    1    2    0    0  0.00000000000E+00  0.00000000000E+00 -0.31724524245E+03  0.37656718926E+04  0.37522846719E+04 0.  0.
        2    1    3    3  502    0 -0.10796834498E+04  0.13877571353E+04  0.49817689531E+03  0.18275027872E+04  0.25500000920E-02 0.  1.
       -2    1    3    3    0  502  0.10796834498E+04 -0.13877571353E+04 -0.81542213776E+03  0.19381691054E+04  0.25500000920E-02 0. -1.
</event>
<event>
 5   0  0.3509843E-07  0.3787045E+04  0.7818609E-02  0.8048941E-01
        2   -1    0    0  501    0  0.00000000000E+00  0.00000000000E+00  0.20003043881E+04  0.20003043881E+04  0.25500000920E-02 0. -1.
       -2   -1    0    0    0  501  0.00000000000E+00  0.00000000000E+00 -0.17924413386E+04  0.17924413386E+04  0.25500000920E-02 0.  1.
    10030    2    1    2    0    0  0.00000000000E+00  0.00000000000E+00  0.20786304950E+03  0.37927457267E+04  0.37870454315E+04 0.  0.
        4    1    3    3  502    0  0.17481466412E+04 -0.68101832221E+03 -0.15262593925E+03  0.18823121220E+04  0.12699999809E+01 0.  1.
       -4    1    3    3    0  502 -0.17481466412E+04  0.68101832221E+03  0.36048898875E+03  0.19104336048E+04  0.12699999809E+01 0. -1.
</event>
<event>
 5   0  0.3377396E-07  0.3835149E+04  0.7818609E-02  0.8038654E-01
        2   -1    0    0  501    0  0.00000000000E+00  0.00000000000E+00  0.15790542784E+04  0.15790542785E+04  0.25500000920E-02 0. -1.
       -2   -1    0    0    0  501  0.00000000000E+00  0.00000000000E+00 -0.23286676066E+04  0.23286676066E+04  0.25500000920E-02 0.  1.
    10030    2    1    2    0    0  0.00000000000E+00  0.00000000000E+00 -0.74961332817E+03  0.39077218851E+04  0.38351493047E+04 0.  0.
        5    1    3    3  502    0 -0.15892041156E+04  0.10512000733E+04 -0.59447649916E+03  0.19959999281E+04  0.46999998093E+01 0. -1.
       -5    1    3    3    0  502  0.15892041156E+04 -0.10512000733E+04 -0.15513682902E+03  0.19117219570E+04  0.46999998093E+01 0.  1.
</event>
<event>
 5   0  0.1070988E-07  0.3779898E+04  0.7818609E-02  0.8050482E-01
       -1   -1    0    0    0  501  0.00000000000E+00  0.00000000000E+00  0.15247548334E+04  0.15247548335E+04  0.50400001928E-02 0. -1.
        1   -1    0    0  501    0  0.00000000000E+00  0.00000000000E+00 -0.23426112014E+04  0.23426112014E+04  0.50400001928E-02 0.  1.
    10030    2    1    2    0    0  0.00000000000E+00  0.00000000000E+00 -0.81785636798E+03  0.38673660349E+04  0.37798982803E+04 0.  0.
        2    1    3    3  502    0  0.24242705010E+03 -0.27066572601E+03  0.14886803252E+04  0.15323837380E+04  0.25500000920E-02 0. -1.
       -2    1    3    3    0  502 -0.24242705010E+03  0.27066572601E+03 -0.23065366932E+04  0.23349822969E+04  0.25500000920E-02 0.  1.
</event>
<event>
 5   0  0.3377396E-07  0.3770731E+04  0.7818609E-02  0.8052465E-01
       -2   -1    0    0    0  501  0.00000000000E+00  0.00000000000E+00  0.15344751991E+04  0.15344751991E+04  0.25500000920E-02 0.  1.
        2   -1    0    0  501    0  0.00000000000E+00  0.00000000000E+00 -0.23164946331E+04  0.23164946331E+04  0.25500000920E-02 0. -1.
    10030    2    1    2    0    0  0.00000000000E+00  0.00000000000E+00 -0.78201943398E+03  0.38509698322E+04  0.37707312624E+04 0.  0.
        5    1    3    3  502    0 -0.97681823807E+03  0.12936633173E+04  0.59220321226E+03  0.17258231031E+04  0.46999998093E+01 0.  1.
       -5    1    3    3    0  502  0.97681823807E+03 -0.12936633173E+04 -0.13742226462E+04  0.21251467291E+04  0.46999998093E+01 0. -1.
</event>
<event>
 5   0  0.1070988E-07  0.3817876E+04  0.7818609E-02  0.8042330E-01
       -3   -1    0    0    0  501  0.00000000000E+00  0.00000000000E+00  0.18203093150E+04  0.18203093178E+04  0.10100000352E+00 0. -1.
        3   -1    0    0  501    0  0.00000000000E+00  0.00000000000E+00 -0.20018821139E+04  0.20018821165E+04  0.10100000352E+00 0.  1.
    10030    2    1    2    0    0  0.00000000000E+00  0.00000000000E+00 -0.18157279894E+03  0.38221914343E+04  0.38178762001E+04 0.  0.
        5    1    3    3  502    0  0.33308948354E+03 -0.13591656555E+04 -0.13906154429E+04  0.19728439581E+04  0.46999998093E+01 0.  1.
       -5    1    3    3    0  502 -0.33308948354E+03  0.13591656555E+04  0.12090426439E+04  0.18493474762E+04  0.46999998093E+01 0. -1.
</event>
<event>
 5   0  0.1070988E-07  0.3793869E+04  0.7818609E-02  0.8047472E-01
        1   -1    0    0  501    0  0.00000000000E+00  0.00000000000E+00  0.25255390050E+04  0.25255390050E+04  0.50400001928E-02 0.  1.
       -1   -1    0    0    0  501  0.00000000000E+00  0.00000000000E+00 -0.14247889633E+04  0.14247889633E+04  0.50400001928E-02 0. -1.
    10030    2    1    2    0    0  0.00000000000E+00  0.00000000000E+00  0.11007500417E+04  0.39503279684E+04  0.37938687910E+04 0.  0.
        2    1    3    3  502    0 -0.44006589892E+02  0.18750059991E+04  0.84630712627E+03  0.20576248026E+04  0.25500000920E-02 0. -1.
       -2    1    3    3    0  502  0.44006589892E+02 -0.18750059991E+04  0.25444291543E+03  0.18927031658E+04  0.25500000920E-02 0.  1.
</event>
<event>
 5   0  0.3539010E-07  0.3858699E+04  0.7818609E-02  0.8033674E-01
       -2   -1    0    0    0  501  0.00000000000E+00  0.00000000000E+00  0.13631427571E+04  0.13631427571E+04  0.25500000920E-02 0. -1.
        2   -1    0    0  501    0  0.00000000000E+00  0.00000000000E+00 -0.27307400599E+04  0.27307400599E+04  0.25500000920E-02 0.  1.
    10030    2    1    2    0    0  0.00000000000E+00  0.00000000000E+00 -0.13675973027E+04  0.40938828170E+04  0.38586985030E+04 0.  0.
        1    1    3    3  502    0 -0.14202877571E+04 -0.47686575133E+03  0.60592903903E+03  0.16160966116E+04  0.50400001928E-02 0. -1.
       -1    1    3    3    0  502  0.14202877571E+04  0.47686575133E+03 -0.19735263418E+04  0.24777862054E+04  0.50400001928E-02 0.  1.
</event>
<event>
 5   0  0.1085771E-07  0.3794212E+04  0.7818609E-02  0.8047398E-01
        1   -1    0    0  501    0  0.00000000000E+00  0.00000000000E+00  0.13800438354E+04  0.13800438354E+04  0.50400001928E-02 0.  1.
       -1   -1    0    0    0  501  0.00000000000E+00  0.00000000000E+00 -0.26078967743E+04  0.26078967743E+04  0.50400001928E-02 0. -1.
    10030    2    1    2    0    0  0.00000000000E+00  0.00000000000E+00 -0.12278529390E+04  0.39879406097E+04  0.37942123645E+04 0.  0.
        1    1    3    3  502    0  0.13945185083E+04  0.23884741142E+03 -0.19422927218E+04  0.24029629571E+04  0.50400001928E-02 0. -1.
       -1    1    3    3    0  502 -0.13945185083E+04 -0.23884741142E+03  0.71443978283E+03  0.15849776526E+04  0.50400001928E-02 0.  1.
</event>
<event>
 5   0  0.3327241E-07  0.3802135E+04  0.7818609E-02  0.8045697E-01
       -2   -1    0    0    0  501  0.00000000000E+00  0.00000000000E+00  0.14613217442E+04  0.14613217442E+04  0.25500000920E-02 0.  1.
        2   -1    0    0  501    0  0.00000000000E+00  0.00000000000E+00 -0.24731431426E+04  0.24731431426E+04  0.25500000920E-02 0. -1.
    10030    2    1    2    0    0  0.00000000000E+00  0.00000000000E+00 -0.10118213984E+04  0.39344648868E+04  0.38021351112E+04 0.  0.
        3    1    3    3  502    0 -0.37671560650E+03 -0.18263875256E+04 -0.12366046432E+03  0.18689296301E+04  0.10100000352E+00 0.  1.
       -3    1    3    3    0  502  0.37671560650E+03  0.18263875256E+04 -0.88816093405E+03  0.20655352567E+04  0.10100000352E+00 0. -1.
</event>
<event>
 5   0  0.1070988E-07  0.3750942E+04  0.7818609E-02  0.8056765E-01
       -1   -1    0    0    0  501  0.00000000000E+00  0.00000000000E+00  0.11029418797E+04  0.11029418797E+04  0.50400001928E-02 0.  1.
        1   -1    0    0  501    0  0.00000000000E+00  0.00000000000E+00 -0.31890992886E+04  0.31890992886E+04  0.50400001928E-02 0. -1.
    10030    2    1    2    0    0  0.00000000000E+00  0.00000000000E+00 -0.20861574090E+04  0.42920411683E+04  0.37509418358E+04 0.  0.
        5    1    3    3  502    0 -0.35446743437E+03  0.27330346519E+03 -0.31270803659E+04  0.31589548352E+04  0.46999998093E+01 0. -1.
       -5    1    3    3    0  502  0.35446743437E+03 -0.27330346519E+03  0.10409229569E+04  0.11330863331E+04  0.46999998093E+01 0.  1.
</event>
<event>
 5   0  0.1070988E-07  0.3818203E+04  0.7818609E-02  0.8042260E-01
        1   -1    0    0  501    0  0.00000000000E+00  0.00000000000E+00  0.12416068451E+04  0.12416068451E+04  0.50400001928E-02 0.  1.
       -1   -1    0    0    0  501  0.00000000000E+00  0.00000000000E+00 -0.29354442399E+04  0.29354442399E+04  0.50400001928E-02 0. -1.
    10030    2    1    2    0    0  0.00000000000E+00  0.00000000000E+00 -0.16938373948E+04  0.41770510851E+04  0.38182025414E+04 0.  0.
        3    1    3    3  502    0  0.11659103663E+03 -0.12092333162E+04  0.76418493576E+03  0.14352063646E+04  0.10100000352E+00 0.  1.
       -3    1    3    3    0  502 -0.11659103663E+03  0.12092333162E+04 -0.24580223306E+04  0.27418447204E+04  0.10100000352E+00 0. -1.
</event>
<event>
 5   0  0.3442126E-07  0.3803416E+04  0.7818609E-02  0.8045422E-01
        2   -1    0    0  501    0  0.00000000000E+00  0.00000000000E+00  0.27055888113E+04  0.27055888113E+04  0.25500000920E-02 0. -1.
       -2   -1    0    0    0  501  0.00000000000E+00  0.00000000000E+00 -0.13366751145E+04  0.13366751145E+04  0.25500000920E-02 0.  1.
    10030    2    1    2    0    0  0.00000000000E+00  0.00000000000E+00  0.13689136968E+04  0.40422639259E+04  0.38034159564E+04 0.  0.
        2    1    3    3  502    0  0.13469972935E+04 -0.12963807228E+04  0.10548973905E+04  0.21465817458E+04  0.25500000920E-02 0. -1.
       -2    1    3    3    0  502 -0.13469972935E+04  0.12963807228E+04  0.31401630631E+03  0.18956821800E+04  0.25500000920E-02 0.  1.
</event>
<event>
 5   0  0.3377396E-07  0.3814044E+04  0.7818609E-02  0.8043148E-01
        2   -1    0    0  501    0  0.00000000000E+00  0.00000000000E+00  0.21119369657E+04  0.21119369657E+04  0.25500000920E-02 0. -1.
       -2   -1    0    0    0  501  0.00000000000E+00  0.00000000000E+00 -0.17219896166E+04  0.17219896166E+04  0.25500000920E-02 0.  1.
    10030    2    1    2    0    0  0.00000000000E+00  0.00000000000E+00  0.38994734909E+03  0.38339265823E+04  0.38140443237E+04 0.  0.
        5    1    3    3  502    0  0.14408607503E+04 -0.11454782425E+04 -0.30613411418E+03  0.18659957909E+04  0.46999998093E+01 0. -1.
       -5    1    3    3    0  502 -0.14408607503E+04  0.11454782425E+04  0.69608146327E+03  0.19679307913E+04  0.46999998093E+01 0.  1.
</event>
<event>
 5   0  0.1085771E-07  0.3850772E+04  0.7818609E-02  0.8035346E-01
        1   -1    0    0  501    0  0.00000000000E+00  0.00000000000E+00  0.25703119764E+04  0.25703119765E+04  0.50400001928E-02 0. -1.
       -1   -1    0    0    0  501  0.00000000000E+00  0.00000000000E+00 -0.14422805572E+04  0.14422805572E+04  0.50400001928E-02 0.  1.
    10030    2    1    2    0    0  0.00000000000E+00  0.00000000000E+00  0.11280314192E+04  0.40125925337E+04  0.38507718653E+04 0.  0.
        1    1    3    3  502    0  0.78138490558E+03 -0.14766059535E+04 -0.43338230241E+03  0.17259049025E+04  0.50400001928E-02 0.  1.
       -1    1    3    3    0  502 -0.78138490558E+03  0.14766059535E+04  0.15614137216E+04  0.22866876312E+04  0.50400001928E-02 0. -1.
</event>
<event>
 5   0  0.3509843E-07  0.3828483E+04  0.7818609E-02  0.8040070E-01
        2   -1    0    0  501    0  0.00000000000E+00  0.00000000000E+00  0.19621361032E+04  0.19621361032E+04  0.25500000920E-02 0.  1.
       -2   -1    0    0    0  501  0.00000000000E+00  0.00000000000E+00 -0.18675164406E+04  0.18675164406E+04  0.25500000920E-02 0. -1.
    10030    2    1    2    0    0  0.00000000000E+00  0.00000000000E+00  0.94619662611E+02  0.38296525438E+04  0.38284834760E+04 0.  0.
        4    1    3    3  502    0 -0.20272127579E+03 -0.75780151774E+03 -0.16993507286E+04  0.18716713301E+04  0.12699999809E+01 0. -1.
       -4    1    3    3    0  502  0.20272127579E+03  0.75780151774E+03  0.17939703912E+04  0.19579812138E+04  0.12699999809E+01 0.  1.
</event>
<event>
 5   0  0.1070988E-07  0.3793424E+04  0.7818609E-02  0.8047567E-01
       -1   -1    0    0    0  501  0.00000000000E+00  0.00000000000E+00  0.12453828012E+04  0.12453828013E+04  0.50400001928E-02 0.  1.
        1   -1    0    0  501    0  0.00000000000E+00  0.00000000000E+00 -0.28886837046E+04  0.28886837046E+04  0.50400001928E-02 0. -1.
    10030    2    1    2    0    0  0.00000000000E+00  0.00000000000E+00 -0.16433009034E+04  0.41340665059E+04  0.37934243127E+04 0.  0.
        5    1    3    3  502    0 -0.19832576678E+03  0.17329584766E+04 -0.16335439619E+04  0.23897627825E+04  0.46999998093E+01 0. -1.
       -5    1    3    3    0  502  0.19832576678E+03 -0.17329584766E+04 -0.97569414657E+01  0.17443037233E+04  0.46999998093E+01 0.  1.
</event>
<event>
 5   0  0.3442126E-07  0.3870812E+04  0.7818609E-02  0.8031127E-01
        2   -1    0    0  501    0  0.00000000000E+00  0.00000000000E+00  0.13638691323E+04  0.13638691323E+04  0.25500000920E-02 0.  1.
       -2   -1    0    0    0  501  0.00000000000E+00  0.00000000000E+00 -0.27464487144E+04  0.27464487144E+04  0.25500000920E-02 0. -1.
    10030    2    1    2    0    0  0.00000000000E+00  0.00000000000E+00 -0.13825795820E+04  0.41103178467E+04  0.38708121241E+04 0.  0.
        2    1    3    3  502    0 -0.36002245875E+03 -0.48368184550E+03 -0.26441674276E+04  0.27120445578E+04  0.25500000920E-02 0. -1.
       -2    1    3    3    0  502  0.36002245875E+03  0.48368184550E+03  0.12615878455E+04  0.13982732889E+04  0.25500000920E-02 0.  1.
</event>
<event>
 5   0  0.3327241E-07  0.3178317E+04  0.7818609E-02  0.8194567E-01
       -2   -1    0    0    0  501  0.00000000000E+00  0.00000000000E+00  0.18138015461E+04  0.18138015461E+04  0.25500000920E-02 0.  1.
        2   -1    0    0  501    0  0.00000000000E+00  0.00000000000E+00 -0.13923381782E+04  0.13923381782E+04  0.25500000920E-02 0. -1.
    10030    2    1    2    0    0  0.00000000000E+00  0.00000000000E+00  0.42146336785E+03  0.32061397243E+04  0.31783172531E+04 0.  0.
        3    1    3    3  502    0  0.14193769629E+04  0.27332662581E+03  0.87688106983E+03  0.16906385858E+04  0.10100000352E+00 0.  1.
       -3    1    3    3    0  502 -0.14193769629E+04 -0.27332662581E+03 -0.45541770198E+03  0.15155011384E+04  0.10100000352E+00 0. -1.
</event>
<event>
 5   0  0.1084315E-07  0.3760652E+04  0.7818609E-02  0.8054652E-01
        1   -1    0    0  501    0  0.00000000000E+00  0.00000000000E+00  0.16724539120E+04  0.16724539120E+04  0.50400001928E-02 0.  1.
       -1   -1    0    0    0  501  0.00000000000E+00  0.00000000000E+00 -0.21140347709E+04  0.21140347709E+04  0.50400001928E-02 0. -1.
    10030    2    1    2    0    0  0.00000000000E+00  0.00000000000E+00 -0.44158085891E+03  0.37864886829E+04  0.37606519236E+04 0.  0.
        4    1    3    3  502    0 -0.98620235379E+03  0.37083874521E+03 -0.17888943824E+04  0.20761168517E+04  0.12699999809E+01 0. -1.
       -4    1    3    3    0  502  0.98620235379E+03 -0.37083874521E+03  0.13473135235E+04  0.17103718312E+04  0.12699999809E+01 0.  1.
</event>
<event>
 5   0  0.1070988E-07  0.3823049E+04  0.7818609E-02  0.8041227E-01
       -1   -1    0    0    0  501  0.00000000000E+00  0.00000000000E+00  0.21612174362E+04  0.21612174362E+04  0.50400001928E-02 0.  1.
        1   -1    0    0  501    0  0.00000000000E+00  0.00000000000E+00 -0.16906790739E+04  0.16906790739E+04  0.50400001928E-02 0. -1.
    10030    2    1    2    0    0  0.00000000000E+00  0.00000000000E+00  0.47053836225E+03  0.38518965101E+04  0.38230485707E+04 0.  0.
        5    1    3    3  502    0 -0.28876067270E+03  0.12694619491E+04 -0.11749302380E+04  0.17536817044E+04  0.46999998093E+01 0. -1.
       -5    1    3    3    0  502  0.28876067270E+03 -0.12694619491E+04  0.16454686002E+04  0.20982148057E+04  0.46999998093E+01 0.  1.
</event>
<event>
 5   0  0.3327241E-07  0.3807904E+04  0.7818609E-02  0.8044461E-01
        2   -1    0    0  501    0  0.00000000000E+00  0.00000000000E+00  0.25107690272E+04  0.25107690272E+04  0.25500000920E-02 0. -1.
       -2   -1    0    0    0  501  0.00000000000E+00  0.00000000000E+00 -0.14437938725E+04  0.14437938725E+04  0.25500000920E-02 0.  1.
    10030    2    1    2    0    0  0.00000000000E+00  0.00000000000E+00  0.10669751546E+04  0.39545628997E+04  0.38079038521E+04 0.  0.
        3    1    3    3  502    0  0.73616695201E+03  0.15381014439E+04  0.14130639455E+04  0.22145987350E+04  0.10100000352E+00 0. -1.
       -3    1    3    3    0  502 -0.73616695201E+03 -0.15381014439E+04 -0.34608879082E+03  0.17399641647E+04  0.10100000352E+00 0.  1.
</event>
<event>
 5   0  0.3327241E-07  0.3803676E+04  0.7818609E-02  0.8045367E-01
        2   -1    0    0  501    0  0.00000000000E+00  0.00000000000E+00  0.17648117340E+04  0.17648117340E+04  0.25500000920E-02 0.  1.
       -2   -1    0    0    0  501  0.00000000000E+00  0.00000000000E+00 -0.20495031220E+04  0.20495031220E+04  0.25500000920E-02 0. -1.
    10030    2    1    2    0    0  0.00000000000E+00  0.00000000000E+00 -0.28469138801E+03  0.38143148561E+04  0.38036756742E+04 0.  0.
        3    1    3    3  502    0 -0.93663959496E+03  0.90655314562E+03 -0.15310856264E+04  0.20108096733E+04  0.10100000352E+00 0. -1.
       -3    1    3    3    0  502  0.93663959496E+03 -0.90655314562E+03  0.12463942384E+04  0.18035051828E+04  0.10100000352E+00 0.  1.
</event>
<event>
 5   0  0.3442126E-07  0.3808604E+04  0.7818609E-02  0.8044311E-01
       -2   -1    0    0    0  501  0.00000000000E+00  0.00000000000E+00  0.14798953609E+04  0.14798953609E+04  0.25500000920E-02 0.  1.
        2   -1    0    0  501    0  0.00000000000E+00  0.00000000000E+00 -0.24504205888E+04  0.24504205888E+04  0.25500000920E-02 0. -1.
    10030    2    1    2    0    0  0.00000000000E+00  0.00000000000E+00 -0.97052522789E+03  0.39303159497E+04  0.38086039761E+04 0.  0.
        2    1    3    3  502    0  0.16562660247E+04 -0.92526463844E+03 -0.31558719248E+03  0.19232594916E+04  0.25500000920E-02 0.  1.
       -2    1    3    3    0  502 -0.16562660247E+04  0.92526463844E+03 -0.65493803541E+03  0.20070564581E+04  0.25500000920E-02 0. -1.
</event>
<event>
 5   0  0.1085771E-07  0.3790559E+04  0.7818609E-02  0.8048184E-01
        1   -1    0    0  501    0  0.00000000000E+00  0.00000000000E+00  0.12623534959E+04  0.12623534959E+04  0.50400001928E-02 0.  1.
       -1   -1    0    0    0  501  0.00000000000E+00  0.00000000000E+00 -0.28455461092E+04  0.28455461092E+04  0.50400001928E-02 0. -1.
    10030    2    1    2    0    0  0.00000000000E+00  0.00000000000E+00 -0.15831926133E+04  0.41078996051E+04  0.37905593671E+04 0.  0.
        1    1    3    3  502    0  0.10942363423E+04 -0.13214699257E+04 -0.16642752117E+04  0.23902819745E+04  0.50400001928E-02 0. -1.
       -1    1    3    3    0  502 -0.10942363423E+04  0.13214699257E+04  0.81082598442E+02  0.17176176306E+04  0.50400001928E-02 0.  1.
</event>
<event>
 5   0  0.3509843E-07  0.3823969E+04  0.7818609E-02  0.8041031E-01
       -2   -1    0    0    0  501  0.00000000000E+00  0.00000000000E+00  0.16587884102E+04  0.16587884102E+04  0.25500000920E-02 0. -1.
        2   -1    0    0  501    0  0.00000000000E+00  0.00000000000E+00 -0.22038284158E+04  0.22038284158E+04  0.25500000920E-02 0.  1.
    10030    2    1    2    0    0  0.00000000000E+00  0.00000000000E+00 -0.54504000560E+03  0.38626168260E+04  0.38239691600E+04 0.  0.
        4    1    3    3  502    0  0.30519756065E+03  0.18382268350E+04  0.16013119454E+03  0.18702585544E+04  0.12699999809E+01 0. -1.
       -4    1    3    3    0  502 -0.30519756065E+03 -0.18382268350E+04 -0.70517120014E+03  0.19923582716E+04  0.12699999809E+01 0.  1.
</event>
<event>
 5   0  0.3327241E-07  0.3749076E+04  0.7818609E-02  0.8057172E-01
       -2   -1    0    0    0  501  0.00000000000E+00  0.00000000000E+00  0.20148582244E+04  0.20148582244E+04  0.25500000920E-02 0. -1.
        2   -1    0    0  501    0  0.00000000000E+00  0.00000000000E+00 -0.17439904688E+04  0.17439904688E+04  0.25500000920E-02 0.  1.
    10030    2    1    2    0    0  0.00000000000E+00  0.00000000000E+00  0.27086775553E+03  0.37588486932E+04  0.37490764406E+04 0.  0.
        3    1    3    3  502    0  0.11461082646E+04  0.22717836249E+03  0.16051058024E+04  0.19853309069E+04  0.10100000352E+00 0. -1.
       -3    1    3    3    0  502 -0.11461082646E+04 -0.22717836249E+03 -0.13342380469E+04  0.17735177864E+04  0.10100000352E+00 0.  1.
</event>
<event>
 5   0  0.1070988E-07  0.3832526E+04  0.7818609E-02  0.8039211E-01
       -1   -1    0    0    0  501  0.00000000000E+00  0.00000000000E+00  0.29358890372E+04  0.29358890373E+04  0.50400001928E-02 0.  1.
        1   -1    0    0  501    0  0.00000000000E+00  0.00000000000E+00 -0.12507503806E+04  0.12507503806E+04  0.50400001928E-02 0. -1.
    10030    2    1    2    0    0  0.00000000000E+00  0.00000000000E+00  0.16851386566E+04  0.41866394179E+04  0.38325262326E+04 0.  0.
        2    1    3    3  502    0 -0.31346156046E+03 -0.13679898623E+04 -0.58275104281E+03  0.15196227134E+04  0.25500000920E-02 0. -1.
       -2    1    3    3    0  502  0.31346156046E+03  0.13679898623E+04  0.22678896994E+04  0.26670167045E+04  0.25500000920E-02 0.  1.
</event>
<event>
 5   0  0.1085771E-07  0.3853785E+04  0.7818609E-02  0.8034710E-01
        1   -1    0    0  501    0  0.00000000000E+00  0.00000000000E+00  0.28293212837E+04  0.28293212838E+04  0.50400001928E-02 0.  1.
       -1   -1    0    0    0  501  0.00000000000E+00  0.00000000000E+00 -0.13122986154E+04  0.13122986154E+04  0.50400001928E-02 0. -1.
    10030    2    1    2    0    0  0.00000000000E+00  0.00000000000E+00  0.15170226683E+04  0.41416198992E+04  0.38537848426E+04 0.  0.
        1    1    3    3  502    0  0.88779553865E+01 -0.30235334799E+03  0.28036469152E+04  0.28199170892E+04  0.50400001928E-02 0.  1.
       -1    1    3    3    0  502 -0.88779553865E+01  0.30235334799E+03 -0.12866242469E+04  0.13217028100E+04  0.50400001928E-02 0. -1.
</event>
<event>
 5   0  0.3539010E-07  0.3767611E+04  0.7818609E-02  0.8053142E-01
        2   -1    0    0  501    0  0.00000000000E+00  0.00000000000E+00  0.23164511436E+04  0.23164511436E+04  0.25500000920E-02 0. -1.
       -2   -1    0    0    0  501  0.00000000000E+00  0.00000000000E+00 -0.15319650653E+04  0.15319650653E+04  0.25500000920E-02 0.  1.
    10030    2    1    2    0    0  0.00000000000E+00  0.00000000000E+00  0.78448607823E+03  0.38484162089E+04  0.37676105040E+04 0.  0.
        1    1    3    3  502    0  0.26451699957E+03 -0.27658077785E+03 -0.14918378055E+04  0.15401448658E+04  0.50400001928E-02 0.  1.
       -1    1    3    3    0  502 -0.26451699957E+03  0.27658077785E+03  0.22763238837E+04  0.23082713431E+04  0.50400001928E-02 0. -1.
</event>
<event>
 5   0  0.1070988E-07  0.3780513E+04  0.7818609E-02  0.8050350E-01
        1   -1    0    0  501    0  0.00000000000E+00  0.00000000000E+00  0.17528167591E+04  0.17528167591E+04  0.50400001928E-02 0. -1.
       -1   -1    0    0    0  501  0.00000000000E+00  0.00000000000E+00 -0.20384726908E+04  0.20384726908E+04  0.50400001928E-02 0.  1.
    10030    2    1    2    0    0  0.00000000000E+00  0.00000000000E+00 -0.28565593166E+03  0.37912894499E+04  0.37805127141E+04 0.  0.
        5    1    3    3  502    0 -0.13266372017E+04  0.25697956653E+03 -0.14683530249E+04  0.19955168399E+04  0.46999998093E+01 0.  1.
       -5    1    3    3    0  502  0.13266372017E+04 -0.25697956653E+03  0.11826970932E+04  0.17957726100E+04  0.46999998093E+01 0. -1.
</event>
<event>
 5   0  0.1085771E-07  0.3798257E+04  0.7818609E-02  0.8046529E-01
        1   -1    0    0  501    0  0.00000000000E+00  0.00000000000E+00  0.23497605668E+04  0.23497605669E+04  0.50400001928E-02 0. -1.
       -1   -1    0    0    0  501  0.00000000000E+00  0.00000000000E+00 -0.15349175165E+04  0.15349175165E+04  0.50400001928E-02 0.  1.
    10030    2    1    2    0    0  0.00000000000E+00  0.00000000000E+00  0.81484305033E+03  0.38846780834E+04  0.37982567863E+04 0.  0.
        1    1    3    3  502    0  0.44610592954E+03  0.12219677554E+03 -0.14764287936E+04  0.15471860053E+04  0.50400001928E-02 0.  1.
       -1    1    3    3    0  502 -0.44610592954E+03 -0.12219677554E+03  0.22912718439E+04  0.23374920781E+04  0.50400001928E-02 0. -1.
</event>
<event>
 5   0  0.3327241E-07  0.3821662E+04  0.7818609E-02  0.8041522E-01
       -2   -1    0    0    0  501  0.00000000000E+00  0.00000000000E+00  0.16320145831E+04  0.16320145831E+04  0.25500000920E-02 0.  1.
        2   -1    0    0  501    0  0.00000000000E+00  0.00000000000E+00 -0.22372805387E+04  0.22372805387E+04  0.25500000920E-02 0. -1.
    10030    2    1    2    0    0  0.00000000000E+00  0.00000000000E+00 -0.60526595558E+03  0.38692951217E+04  0.38216616624E+04 0.  0.
        3    1    3    3  502    0  0.13201366003E+03  0.18568255664E+04  0.13407326244E+03  0.18663344931E+04  0.10100000352E+00 0.  1.
       -3    1    3    3    0  502 -0.13201366003E+03 -0.18568255664E+04 -0.73933921802E+03  0.20029606286E+04  0.10100000352E+00 0. -1.
</event>
<event>
 5   0  0.1085771E-07  0.3779613E+04  0.7818609E-02  0.8050544E-01
        1   -1    0    0  501    0  0.00000000000E+00  0.00000000000E+00  0.15128483829E+04  0.15128483829E+04  0.50400001928E-02 0. -1.
       -1   -1    0    0    0  501  0.00000000000E+00  0.00000000000E+00 -0.23606915901E+04  0.23606915901E+04  0.50400001928E-02 0.  1.
    10030    2    1    2    0    0  0.00000000000E+00  0.00000000000E+00 -0.84784320723E+03  0.38735399730E+04  0.37796129191E+04 0.  0.
        1    1    3    3  502    0 -0.46888636172E+03  0.13567468348E+04  0.83574992911E+03  0.16610521780E+04  0.50400001928E-02 0. -1.
       -1    1    3    3    0  502  0.46888636172E+03 -0.13567468348E+04 -0.16835931363E+04  0.22124877950E+04  0.50400001928E-02 0.  1.
</event>
<event>
 5   0  0.1085771E-07  0.3803422E+04  0.7818609E-02  0.8045421E-01
        1   -1    0    0  501    0  0.00000000000E+00  0.00000000000E+00  0.23297991962E+04  0.23297991963E+04  0.50400001928E-02 0.  1.
       -1   -1    0    0    0  501  0.00000000000E+00  0.00000000000E+00 -0.15522815973E+04  0.15522815973E+04  0.50400001928E-02 0. -1.
    10030    2    1    2    0    0  0.00000000000E+00  0.00000000000E+00  0.77751759893E+03  0.38820807936E+04  0.38034218371E+04 0.  0.
        1    1    3    3  502    0  0.70766714369E+02 -0.18898842215E+04  0.59247130159E+03  0.19818406954E+04  0.50400001928E-02 0.  1.
       -1    1    3    3    0  502 -0.70766714369E+02  0.18898842215E+04  0.18504629734E+03  0.19002400982E+04  0.50400001928E-02 0. -1.
</event>
<event>
 5   0  0.1070988E-07  0.3769780E+04  0.7818609E-02  0.8052671E-01
       -1   -1    0    0    0  501  0.00000000000E+00  0.00000000000E+00  0.17986725843E+04  0.17986725843E+04  0.50400001928E-02 0.  1.
        1   -1    0    0  501    0  0.00000000000E+00  0.00000000000E+00 -0.19752398145E+04  0.19752398145E+04  0.50400001928E-02 0. -1.
    10030    2    1    2    0    0  0.00000000000E+00  0.00000000000E+00 -0.17656723016E+03  0.37739123988E+04  0.37697796762E+04 0.  0.
        2    1    3    3  502    0 -0.44327258320E+03  0.14468440128E+03  0.17400223123E+04  0.18014166109E+04  0.25500000920E-02 0.  1.
       -2    1    3    3    0  502  0.44327258320E+03 -0.14468440128E+03 -0.19165895424E+04  0.19724957879E+04  0.25500000920E-02 0. -1.
</event>
<event>
 5   0  0.3539010E-07  0.3780212E+04  0.7818609E-02  0.8050415E-01
        2   -1    0    0  501    0  0.00000000000E+00  0.00000000000E+00  0.26912292065E+04  0.26912292065E+04  0.25500000920E-02 0.  1.
       -2   -1    0    0    0  501  0.00000000000E+00  0.00000000000E+00 -0.13274606115E+04  0.13274606115E+04  0.25500000920E-02 0. -1.
    10030    2    1    2    0    0  0.00000000000E+00  0.00000000000E+00  0.13637685951E+04  0.40186898180E+04  0.37802120406E+04 0.  0.
        1    1    3    3  502    0  0.12666947266E+04  0.11881790843E+04 -0.11096372542E+03  0.17402867623E+04  0.50400001928E-02 0.  1.
       -1    1    3    3    0  502 -0.12666947266E+04 -0.11881790843E+04  0.14747323205E+04  0.22784030556E+04  0.50400001928E-02 0. -1.
</event>
<event>
 5   0  0.3327241E-07  0.3848081E+04  0.7818609E-02  0.8035915E-01
        2   -1    0    0  501    0  0.00000000000E+00  0.00000000000E+00  0.12857675965E+04  0.12857675965E+04  0.25500000920E-02 0. -1.
       -2   -1    0    0    0  501  0.00000000000E+00  0.00000000000E+00 -0.28791603319E+04  0.28791603319E+04  0.25500000920E-02 0.  1.
    10030    2    1    2    0    0  0.00000000000E+00  0.00000000000E+00 -0.15933927354E+04  0.41649279284E+04  0.38480805916E+04 0.  0.
        3    1    3    3  502    0  0.15700145144E+04  0.13894250252E+03 -0.19910419272E+04  0.25393894070E+04  0.10100000352E+00 0.  1.
       -3    1    3    3    0  502 -0.15700145144E+04 -0.13894250252E+03  0.39764919176E+03  0.16255385214E+04  0.10100000352E+00 0. -1.
</event>
<event>
 5   0  0.3442126E-07  0.3358224E+04  0.7818609E-02  0.8148236E-01
       -2   -1    0    0    0  501  0.00000000000E+00  0.00000000000E+00  0.94727006874E+03  0.94727006874E+03  0.25500000920E-02 0. -1.
        2   -1    0    0  501    0  0.00000000000E+00  0.00000000000E+00 -0.29763612481E+04  0.29763612481E+04  0.25500000920E-02 0.  1.
    10030    2    1    2    0    0  0.00000000000E+00  0.00000000000E+00 -0.20290911794E+04  0.39236313169E+04  0.33582244857E+04 0.  0.
        2    1    3    3  502    0 -0.27421790852E+03  0.65356243519E+03 -0.27930250425E+04  0.28815496189E+04  0.25500000920E-02 0.  1.
       -2    1    3    3    0  502  0.27421790852E+03 -0.65356243519E+03  0.76393386312E+03  0.10420816980E+04  0.25500000920E-02 0. -1.
</event>
<event>
 5   0  0.3539010E-07  0.3774237E+04  0.7818609E-02  0.8051706E-01
        2   -1    0    0  501    0  0.00000000000E+00  0.00000000000E+00  0.15871596312E+04  0.15871596312E+04  0.25500000920E-02 0. -1.
       -2   -1    0    0    0  501  0.00000000000E+00  0.00000000000E+00 -0.22437664747E+04  0.22437664747E+04  0.25500000920E-02 0.  1.
    10030    2    1    2    0    0  0.00000000000E+00  0.00000000000E+00 -0.65660684348E+03  0.38309261059E+04  0.37742366490E+04 0.  0.
        1    1    3    3  502    0  0.11817969919E+04  0.21234630259E+03  0.11494070775E+04  0.16621888316E+04  0.50400001928E-02 0. -1.
       -1    1    3    3    0  502 -0.11817969919E+04 -0.21234630259E+03 -0.18060139210E+04  0.21687372743E+04  0.50400001928E-02 0.  1.
</event>
<event>
 5   0  0.3327241E-07  0.3831052E+04  0.7818609E-02  0.8039524E-01
       -2   -1    0    0    0  501  0.00000000000E+00  0.00000000000E+00  0.20721004944E+04  0.20721004944E+04  0.25500000920E-02 0.  1.
        2   -1    0    0  501    0  0.00000000000E+00  0.00000000000E+00 -0.17707827518E+04  0.17707827518E+04  0.25500000920E-02 0. -1.
    10030    2    1    2    0    0  0.00000000000E+00  0.00000000000E+00  0.30131774265E+03  0.38428832462E+04  0.38310519785E+04 0.  0.
        3    1    3    3  502    0  0.32922484220E+01  0.32795894881E+03  0.20437263739E+04  0.20698756998E+04  0.10100000352E+00 0.  1.
       -3    1    3    3    0  502 -0.32922484220E+01 -0.32795894881E+03 -0.17424086313E+04  0.17730075464E+04  0.10100000352E+00 0. -1.
</event>
<event>
 5   0  0.1070988E-07  0.3788840E+04  0.7818609E-02  0.8048554E-01
        1   -1    0    0  501    0  0.00000000000E+00  0.00000000000E+00  0.12036905645E+04  0.12036905645E+04  0.50400001928E-02 0.  1.
       -1   -1    0    0    0  501  0.00000000000E+00  0.00000000000E+00 -0.29815190512E+04  0.29815190512E+04  0.50400001928E-02 0. -1.
    10030    2    1    2    0    0  0.00000000000E+00  0.00000000000E+00 -0.17778284867E+04  0.41852096158E+04  0.37888395849E+04 0.  0.
        3    1    3    3  502    0 -0.19060076751E+03 -0.13018710143E+04 -0.23944481876E+04  0.27321381597E+04  0.10100000352E+00 0. -1.
       -3    1    3    3    0  502  0.19060076751E+03  0.13018710143E+04  0.61661970092E+03  0.14530714560E+04  0.10100000352E+00 0.  1.
</event>
<event>
 5   0  0.3509843E-07  0.3835046E+04  0.7818609E-02  0.8038676E-01
       -2   -1    0    0    0  501  0.00000000000E+00  0.00000000000E+00  0.11704014117E+04  0.11704014117E+04  0.25500000920E-02 0. -1.
        2   -1    0    0  501    0  0.00000000000E+00  0.00000000000E+00 -0.31415661904E+04  0.31415661904E+04  0.25500000920E-02 0.  1.
    10030    2    1    2    0    0  0.00000000000E+00  0.00000000000E+00 -0.19711647788E+04  0.43119676021E+04  0.38350455038E+04 0.  0.
        4    1    3    3  502    0  0.12699473871E+04 -0.14023494540E+04 -0.13367381186E+04  0.23165104722E+04  0.12699999809E+01 0. -1.
       -4    1    3    3    0  502 -0.12699473871E+04  0.14023494540E+04 -0.63442666014E+03  0.19954571299E+04  0.12699999809E+01 0.  1.
</event>
<event>
 5   0  0.3442126E-07  0.3792496E+04  0.7818609E-02  0.8047767E-01
       -2   -1    0    0    0  501  0.00000000000E+00  0.00000000000E+00  0.12945973998E+04  0.12945973998E+04  0.25500000920E-02 0. -1.
        2   -1    0    0  501    0  0.00000000000E+00  0.00000000000E+00 -0.27775101273E+04  0.27775101273E+04  0.25500000920E-02 0.  1.
    10030    2    1    2    0    0  0.00000000000E+00  0.00000000000E+00 -0.14829127275E+04  0.40721075270E+04  0.37924964805E+04 0.  0.
        2    1    3    3  502    0 -0.74200324786E+03 -0.95342670686E+03 -0.23107765408E+04  0.26075428140E+04  0.25500000920E-02 0.  1.
       -2    1    3    3    0  502  0.74200324786E+03  0.95342670686E+03  0.82786381335E+03  0.14645647130E+04  0.25500000920E-02 0. -1.
</event>
<event>
 5   0  0.1070988E-07  0.3747261E+04  0.7818609E-02  0.8057568E-01
        1   -1    0    0  501    0  0.00000000000E+00  0.00000000000E+00  0.14795775791E+04  0.14795775791E+04  0.50400001928E-02 0. -1.
       -1   -1    0    0    0  501  0.00000000000E+00  0.00000000000E+00 -0.23726304827E+04  0.23726304827E+04  0.50400001928E-02 0.  1.
    10030    2    1    2    0    0  0.00000000000E+00  0.00000000000E+00 -0.89305290354E+03  0.38522080618E+04  0.37472607946E+04 0.  0.
        2    1    3    3  502    0  0.17600852642E+04 -0.51825770883E+03 -0.56425891790E+02  0.18356674729E+04  0.25500000920E-02 0. -1.
       -2    1    3    3    0  502 -0.17600852642E+04  0.51825770883E+03 -0.83662701175E+03  0.20165405889E+04  0.25500000920E-02 0.  1.
</event>
<event>
 5   0  0.1070988E-07  0.3766048E+04  0.7818609E-02  0.8053480E-01
        1   -1    0    0  501    0  0.00000000000E+00  0.00000000000E+00  0.22201092518E+04  0.22201092518E+04  0.50400001928E-02 0. -1.
       -1   -1    0    0    0  501  0.00000000000E+00  0.00000000000E+00 -0.15971194410E+04  0.15971194410E+04  0.50400001928E-02 0.  1.
    10030    2    1    2    0    0  0.00000000000E+00  0.00000000000E+00  0.62298981086E+03  0.38172286928E+04  0.37660481394E+04 0.  0.
        2    1    3    3  502    0 -0.29074385018E+03  0.10554466216E+04 -0.12414096717E+04  0.16551729609E+04  0.25500000920E-02 0.  1.
       -2    1    3    3    0  502  0.29074385018E+03 -0.10554466216E+04  0.18643994825E+04  0.21620557319E+04  0.25500000920E-02 0. -1.
</event>
<event>
 5   0  0.3539010E-07  0.3892773E+04  0.7818609E-02  0.8026534E-01
       -2   -1    0    0    0  501  0.00000000000E+00  0.00000000000E+00  0.20834188716E+04  0.20834188717E+04  0.25500000920E-02 0. -1.
        2   -1    0    0  501    0  0.00000000000E+00  0.00000000000E+00 -0.18183674158E+04  0.18183674158E+04  0.25500000920E-02 0.  1.
    10030    2    1    2    0    0  0.00000000000E+00  0.00000000000E+00  0.26505145585E+03  0.39017862875E+04  0.38927732992E+04 0.  0.
        1    1    3    3  502    0  0.37810357838E+03 -0.16710898600E+04 -0.79314779280E+03  0.18880114028E+04  0.50400001928E-02 0.  1.
       -1    1    3    3    0  502 -0.37810357838E+03  0.16710898600E+04  0.10581992486E+04  0.20137748846E+04  0.50400001928E-02 0. -1.
</event>
<event>
 5   0  0.1085771E-07  0.3777218E+04  0.7818609E-02  0.8051061E-01
       -1   -1    0    0    0  501  0.00000000000E+00  0.00000000000E+00  0.19500657513E+04  0.19500657513E+04  0.50400001928E-02 0. -1.
        1   -1    0    0  501    0  0.00000000000E+00  0.00000000000E+00 -0.18290894159E+04  0.18290894159E+04  0.50400001928E-02 0.  1.
    10030    2    1    2    0    0  0.00000000000E+00  0.00000000000E+00  0.12097633532E+03  0.37791551672E+04  0.37772183554E+04 0.  0.
        1    1    3    3  502    0  0.16890482603E+03  0.15293982773E+04  0.11561554873E+04  0.19246515118E+04  0.50400001928E-02 0. -1.
       -1    1    3    3    0  502 -0.16890482603E+03 -0.15293982773E+04 -0.10351791520E+04  0.18545036554E+04  0.50400001928E-02 0.  1.
</event>
<event>
 5   0  0.1070988E-07  0.3799076E+04  0.7818609E-02  0.8046353E-01
       -1   -1    0    0    0  501  0.00000000000E+00  0.00000000000E+00  0.16852578602E+04  0.16852578602E+04  0.50400001928E-02 0. -1.
        1   -1    0    0  501    0  0.00000000000E+00  0.00000000000E+00 -0.21410635993E+04  0.21410635993E+04  0.50400001928E-02 0.  1.
    10030    2    1    2    0    0  0.00000000000E+00  0.00000000000E+00 -0.45580573909E+03  0.38263214596E+04  0.37990758140E+04 0.  0.
        5    1    3    3  502    0  0.16313648161E+03  0.18809176077E+04 -0.17219480395E+02  0.18880633356E+04  0.46999998093E+01 0.  1.
       -5    1    3    3    0  502 -0.16313648161E+03 -0.18809176077E+04 -0.43858625870E+03  0.19382581240E+04  0.46999998093E+01 0. -1.
</event>
<event>
 5   0  0.1085771E-07  0.3990777E+04  0.7818609E-02  0.8006410E-01
        1   -1    0    0  501    0  0.00000000000E+00  0.00000000000E+00  0.21782778229E+04  0.21782778230E+04  0.50400001928E-02 0.  1.
       -1   -1    0    0    0  501  0.00000000000E+00  0.00000000000E+00 -0.18278546129E+04  0.18278546129E+04  0.50400001928E-02 0. -1.
    10030    2    1    2    0    0  0.00000000000E+00  0.00000000000E+00  0.35042321006E+03  0.40061324358E+04  0.39907769503E+04 0.  0.
        1    1    3    3  502    0 -0.18947026639E+02  0.43775527191E+03  0.21293879831E+04  0.21740013456E+04  0.50400001928E-02 0.  1.
       -1    1    3    3    0  502  0.18947026639E+02 -0.43775527191E+03 -0.17789647731E+04  0.18321310902E+04  0.50400001928E-02 0. -1.
</event>
<event>
 5   0  0.1070988E-07  0.3782234E+04  0.7818609E-02  0.8049978E-01
       -1   -1    0    0    0  501  0.00000000000E+00  0.00000000000E+00  0.17242094722E+04  0.17242094722E+04  0.50400001928E-02 0. -1.
        1   -1    0    0  501    0  0.00000000000E+00  0.00000000000E+00 -0.20741817907E+04  0.20741817907E+04  0.50400001928E-02 0.  1.
    10030    2    1    2    0    0  0.00000000000E+00  0.00000000000E+00 -0.34997231849E+03  0.37983912629E+04  0.37822342025E+04 0.  0.
        3    1    3    3  502    0  0.96626709364E+03 -0.14590621696E+04  0.54486687194E+03  0.18328705436E+04  0.10100000352E+00 0. -1.
       -3    1    3    3    0  502 -0.96626709364E+03  0.14590621696E+04 -0.89483919043E+03  0.19655207193E+04  0.10100000352E+00 0.  1.
</event>
<event>
 5   0  0.3327241E-07  0.3696533E+04  0.7818609E-02  0.8068731E-01
        2   -1    0    0  501    0  0.00000000000E+00  0.00000000000E+00  0.19736180708E+04  0.19736180708E+04  0.25500000920E-02 0. -1.
       -2   -1    0    0    0  501  0.00000000000E+00  0.00000000000E+00 -0.17308765227E+04  0.17308765227E+04  0.25500000920E-02 0.  1.
    10030    2    1    2    0    0  0.00000000000E+00  0.00000000000E+00  0.24274154807E+03  0.37044945935E+04  0.36965330695E+04 0.  0.
        3    1    3    3  502    0  0.31459918371E+03  0.64915126610E+03  0.18267170981E+04  0.19639922045E+04  0.10100000352E+00 0. -1.
       -3    1    3    3    0  502 -0.31459918371E+03 -0.64915126610E+03 -0.15839755500E+04  0.17405023890E+04  0.10100000352E+00 0.  1.
</event>
<event>
 5   0  0.3539010E-07  0.3635049E+04  0.7818609E-02  0.8082510E-01
       -2   -1    0    0    0  501  0.00000000000E+00  0.00000000000E+00  0.22997697013E+04  0.22997697013E+04  0.25500000920E-02 0. -1.
        2   -1    0    0  501    0  0.00000000000E+00  0.00000000000E+00 -0.14364027085E+04  0.14364027085E+04  0.25500000920E-02 0.  1.
    10030    2    1    2    0    0  0.00000000000E+00  0.00000000000E+00  0.86336699279E+03  0.37361724099E+04  0.36350490660E+04 0.  0.
        1    1    3    3  502    0 -0.18032258040E+03  0.10956297556E+04 -0.10472600232E+04  0.15263270785E+04  0.50400001928E-02 0.  1.
       -1    1    3    3    0  502  0.18032258040E+03 -0.10956297556E+04  0.19106270160E+04  0.22098453314E+04  0.50400001928E-02 0. -1.
</event>
<event>
 5   0  0.3509843E-07  0.3751767E+04  0.7818609E-02  0.8056585E-01
       -2   -1    0    0    0  501  0.00000000000E+00  0.00000000000E+00  0.25645327009E+04  0.25645327009E+04  0.25500000920E-02 0.  1.
        2   -1    0    0  501    0  0.00000000000E+00  0.00000000000E+00 -0.13721559947E+04  0.13721559947E+04  0.25500000920E-02 0. -1.
    10030    2    1    2    0    0  0.00000000000E+00  0.00000000000E+00  0.11923767061E+04  0.39366886956E+04  0.37517670073E+04 0.  0.
        4    1    3    3  502    0 -0.11485793215E+04  0.72124043891E+03  0.19560263329E+04  0.23802232787E+04  0.12699999809E+01 0.  1.
       -4    1    3    3    0  502  0.11485793215E+04 -0.72124043891E+03 -0.76364962678E+03  0.15564654169E+04  0.12699999809E+01 0. -1.
</event>
<event>
 5   0  0.1070988E-07  0.3808457E+04  0.7818609E-02  0.8044343E-01
        1   -1    0    0  501    0  0.00000000000E+00  0.00000000000E+00  0.22098135015E+04  0.22098135015E+04  0.50400001928E-02 0.  1.
       -1   -1    0    0    0  501  0.00000000000E+00  0.00000000000E+00 -0.16409011568E+04  0.16409011568E+04  0.50400001928E-02 0. -1.
    10030    2    1    2    0    0  0.00000000000E+00  0.00000000000E+00  0.56891234467E+03  0.38507146583E+04  0.38084566591E+04 0.  0.
        2    1    3    3  502    0 -0.17213329167E+04  0.15832048519E+03 -0.52317661338E+03  0.18060360336E+04  0.25500000920E-02 0. -1.
       -2    1    3    3    0  502  0.17213329167E+04 -0.15832048519E+03  0.10920889581E+04  0.20446786247E+04  0.25500000920E-02 0.  1.
</event>
<event>
 5   0  0.3377396E-07  0.3833059E+04  0.7818609E-02  0.8039098E-01
       -2   -1    0    0    0  501  0.00000000000E+00  0.00000000000E+00  0.17764519556E+04  0.17764519556E+04  0.25500000920E-02 0. -1.
        2   -1    0    0  501    0  0.00000000000E+00  0.00000000000E+00 -0.20676521225E+04  0.20676521225E+04  0.25500000920E-02 0.  1.
    10030    2    1    2    0    0  0.00000000000E+00  0.00000000000E+00 -0.29120016689E+03  0.38441040781E+04  0.38330586515E+04 0.  0.
        5    1    3    3  502    0  0.12133373186E+04 -0.12107034035E+04 -0.10054343071E+04  0.19871865579E+04  0.46999998093E+01 0. -1.
       -5    1    3    3    0  502 -0.12133373186E+04  0.12107034035E+04  0.71423414020E+03  0.18569175202E+04  0.46999998093E+01 0.  1.
</event>
<event>
 5   0  0.3377396E-07  0.3810417E+04  0.7818609E-02  0.8043923E-01
        2   -1    0    0  501    0  0.00000000000E+00  0.00000000000E+00  0.19305983770E+04  0.19305983770E+04  0.25500000920E-02 0. -1.
       -2   -1    0    0    0  501  0.00000000000E+00  0.00000000000E+00 -0.18801524965E+04  0.18801524965E+04  0.25500000920E-02 0.  1.
    10030    2    1    2    0    0  0.00000000000E+00  0.00000000000E+00  0.50445880501E+02  0.38107508735E+04  0.38104169632E+04 0.  0.
        5    1    3    3  502    0  0.61076783801E+03 -0.92618897645E+03 -0.15237620036E+04  0.18848703153E+04  0.46999998093E+01 0.  1.
       -5    1    3    3    0  502 -0.61076783801E+03  0.92618897645E+03  0.15742078841E+04  0.19258805582E+04  0.46999998093E+01 0. -1.
</event>
<event>
 5   0  0.3327241E-07  0.3805180E+04  0.7818609E-02  0.8045044E-01
        2   -1    0    0  501    0  0.00000000000E+00  0.00000000000E+00  0.13040902349E+04  0.13040902349E+04  0.25500000920E-02 0.  1.
       -2   -1    0    0    0  501  0.00000000000E+00  0.00000000000E+00 -0.27757653051E+04  0.27757653051E+04  0.25500000920E-02 0. -1.
    10030    2    1    2    0    0  0.00000000000E+00  0.00000000000E+00 -0.14716750701E+04  0.40798555400E+04  0.38051798532E+04 0.  0.
        3    1    3    3  502    0  0.14504661811E+04  0.11035212009E+04 -0.13213693933E+04  0.22511393264E+04  0.10100000352E+00 0. -1.
       -3    1    3    3    0  502 -0.14504661811E+04 -0.11035212009E+04 -0.15030567683E+03  0.18287162136E+04  0.10100000352E+00 0.  1.
</event>
<event>
 5   0  0.3377396E-07  0.3849709E+04  0.7818609E-02  0.8035571E-01
        2   -1    0    0  501    0  0.00000000000E+00  0.00000000000E+00  0.21159334666E+04  0.21159334666E+04  0.25500000920E-02 0. -1.
       -2   -1    0    0    0  501  0.00000000000E+00  0.00000000000E+00 -0.17510312219E+04  0.17510312219E+04  0.25500000920E-02 0.  1.
    10030    2    1    2    0    0  0.00000000000E+00  0.00000000000E+00  0.36490224475E+03  0.38669646885E+04  0.38497093726E+04 0.  0.
        5    1    3    3  502    0 -0.63095504023E+03  0.16969233869E+04  0.83913228262E+03  0.19954494034E+04  0.46999998093E+01 0. -1.
       -5    1    3    3    0  502  0.63095504023E+03 -0.16969233869E+04 -0.47423003787E+03  0.18715152851E+04  0.46999998093E+01 0.  1.
</event>
<event>
 5   0  0.3442126E-07  0.3816134E+04  0.7818609E-02  0.8042701E-01
       -2   -1    0    0    0  501  0.00000000000E+00  0.00000000000E+00  0.14828079722E+04  0.14828079722E+04  0.25500000920E-02 0.  1.
        2   -1    0    0  501    0  0.00000000000E+00  0.00000000000E+00 -0.24552875014E+04  0.24552875014E+04  0.25500000920E-02 0. -1.
    10030    2    1    2    0    0  0.00000000000E+00  0.00000000000E+00 -0.97247952921E+03  0.39380954735E+04  0.38161341072E+04 0.  0.
        2    1    3    3  502    0 -0.26239458342E+03  0.15761731725E+04  0.58994452671E+03  0.17032930845E+04  0.25500000920E-02 0.  1.
       -2    1    3    3    0  502  0.26239458342E+03 -0.15761731725E+04 -0.15624240559E+04  0.22348023890E+04  0.25500000920E-02 0. -1.
</event>
<event>
 5   0  0.3377396E-07  0.3804814E+04  0.7818609E-02  0.8045123E-01
        2   -1    0    0  501    0  0.00000000000E+00  0.00000000000E+00  0.24642272096E+04  0.24642272096E+04  0.25500000920E-02 0.  1.
       -2   -1    0    0    0  501  0.00000000000E+00  0.00000000000E+00 -0.14686765899E+04  0.14686765899E+04  0.25500000920E-02 0. -1.
    10030    2    1    2    0    0  0.00000000000E+00  0.00000000000E+00  0.99555061966E+03  0.39329037995E+04  0.38048142215E+04 0.  0.
        5    1    3    3  502    0  0.68005778736E+03 -0.13179636179E+04 -0.73381578131E+03  0.16546946495E+04  0.46999998093E+01 0. -1.
       -5    1    3    3    0  502 -0.68005778736E+03  0.13179636179E+04  0.17293664010E+04  0.22782091500E+04  0.46999998093E+01 0.  1.
</event>
<event>
 5   0  0.3442126E-07  0.3756882E+04  0.7818609E-02  0.8055472E-01
        2   -1    0    0  501    0  0.00000000000E+00  0.00000000000E+00  0.23760355033E+04  0.23760355033E+04  0.25500000920E-02 0. -1.
       -2   -1    0    0    0  501  0.00000000000E+00  0.00000000000E+00 -0.14850535137E+04  0.14850535137E+04  0.25500000920E-02 0.  1.
    10030    2    1    2    0    0  0.00000000000E+00  0.00000000000E+00  0.89098198955E+03  0.38610890170E+04  0.37568816180E+04 0.  0.
        2    1    3    3  502    0  0.14852528809E+04  0.80545835464E+03  0.12891131915E+04  0.21252181304E+04  0.25500000920E-02 0. -1.
       -2    1    3    3    0  502 -0.14852528809E+04 -0.80545835464E+03 -0.39813120197E+03  0.17358708867E+04  0.25500000920E-02 0.  1.
</event>
<event>
 5   0  0.3509843E-07  0.4204103E+04  0.7818609E-02  0.7964592E-01
       -2   -1    0    0    0  501  0.00000000000E+00  0.00000000000E+00  0.22166920801E+04  0.22166920801E+04  0.25500000920E-02 0. -1.
        2   -1    0    0  501    0  0.00000000000E+00  0.00000000000E+00 -0.19933393491E+04  0.19933393491E+04  0.25500000920E-02 0.  1.
    10030    2    1    2    0    0  0.00000000000E+00  0.00000000000E+00  0.22335273098E+03  0.42100314291E+04  0.42041025430E+04 0.  0.
        4    1    3    3  502    0 -0.94748569183E+03  0.17941683028E+04 -0.43850621567E+03  0.20758271481E+04  0.12699999809E+01 0. -1.
       -4    1    3    3    0  502  0.94748569183E+03 -0.17941683028E+04  0.66185894665E+03  0.21342042810E+04  0.12699999809E+01 0.  1.
</event>
<event>
 5   0  0.3539010E-07  0.3886415E+04  0.7818609E-02  0.8027861E-01
       -2   -1    0    0    0  501  0.00000000000E+00  0.00000000000E+00  0.25559446306E+04  0.25559446306E+04  0.25500000920E-02 0. -1.
        2   -1    0    0  501    0  0.00000000000E+00  0.00000000000E+00 -0.14773617934E+04  0.14773617934E+04  0.25500000920E-02 0.  1.
    10030    2    1    2    0    0  0.00000000000E+00  0.00000000000E+00  0.10785828372E+04  0.40333064240E+04  0.38864147711E+04 0.  0.
        1    1    3    3  502    0  0.14599910749E+04 -0.40193154770E+03  0.18030749557E+04  0.23546129626E+04  0.50400001928E-02 0. -1.
       -1    1    3    3    0  502 -0.14599910749E+04  0.40193154770E+03 -0.72449211845E+03  0.16786934614E+04  0.50400001928E-02 0.  1.
</event>
<event>
 5   0  0.1085771E-07  0.3795712E+04  0.7818609E-02  0.8047076E-01
       -1   -1    0    0    0  501  0.00000000000E+00  0.00000000000E+00  0.18734267393E+04  0.18734267393E+04  0.50400001928E-02 0. -1.
        1   -1    0    0  501    0  0.00000000000E+00  0.00000000000E+00 -0.19226040890E+04  0.19226040890E+04  0.50400001928E-02 0.  1.
    10030    2    1    2    0    0  0.00000000000E+00  0.00000000000E+00 -0.49177349683E+02  0.37960308284E+04  0.37957122702E+04 0.  0.
        1    1    3    3  502    0 -0.18077027788E+04 -0.57555107499E+03 -0.77598153054E+02  0.18987021488E+04  0.50400001928E-02 0. -1.
       -1    1    3    3    0  502  0.18077027788E+04  0.57555107499E+03  0.28420803371E+02  0.18973286796E+04  0.50400001928E-02 0.  1.
</event>
<event>
 5   0  0.1070988E-07  0.3893695E+04  0.7818609E-02  0.8026342E-01
       -1   -1    0    0    0  501  0.00000000000E+00  0.00000000000E+00  0.19396522429E+04  0.19396522429E+04  0.50400001928E-02 0.  1.
        1   -1    0    0  501    0  0.00000000000E+00  0.00000000000E+00 -0.19540691020E+04  0.19540691020E+04  0.50400001928E-02 0. -1.
    10030    2    1    2    0    0  0.00000000000E+00  0.00000000000E+00 -0.14416859082E+02  0.38937213448E+04  0.38936946549E+04 0.  0.
        5    1    3    3  502    0 -0.47943549526E+02 -0.18177495958E+04  0.68826758042E+03  0.19442856089E+04  0.46999998093E+01 0.  1.
       -5    1    3    3    0  502  0.47943549526E+02  0.18177495958E+04 -0.70268443950E+03  0.19494357359E+04  0.46999998093E+01 0. -1.
</event>
<event>
 5   0  0.1070988E-07  0.3814993E+04  0.7818609E-02  0.8042945E-01
       -1   -1    0    0    0  501  0.00000000000E+00  0.00000000000E+00  0.17640027387E+04  0.17640027387E+04  0.50400001928E-02 0.  1.
        1   -1    0    0  501    0  0.00000000000E+00  0.00000000000E+00 -0.20626627089E+04  0.20626627089E+04  0.50400001928E-02 0. -1.
    10030    2    1    2    0    0  0.00000000000E+00  0.00000000000E+00 -0.29865997020E+03  0.38266654476E+04  0.38149928794E+04 0.  0.
        2    1    3    3  502    0 -0.41848033015E+03  0.90013525783E+03  0.14845102259E+04  0.17858163063E+04  0.25500000920E-02 0.  1.
       -2    1    3    3    0  502  0.41848033015E+03 -0.90013525783E+03 -0.17831701961E+04  0.20408491412E+04  0.25500000920E-02 0. -1.
</event>
<event>
 5   0  0.1070988E-07  0.3611081E+04  0.7818609E-02  0.8087958E-01
       -3   -1    0    0    0  501  0.00000000000E+00  0.00000000000E+00  0.23479812168E+04  0.23479812190E+04  0.10100000352E+00 0.  1.
        3   -1    0    0  501    0  0.00000000000E+00  0.00000000000E+00 -0.13884166800E+04  0.13884166837E+04  0.10100000352E+00 0. -1.
    10030    2    1    2    0    0  0.00000000000E+00  0.00000000000E+00  0.95956453682E+03  0.37363979027E+04  0.36110808890E+04 0.  0.
        3    1    3    3  502    0  0.97040780690E+03  0.78441343817E+03  0.18300526597E+04  0.22149691874E+04  0.10100000352E+00 0.  1.
       -3    1    3    3    0  502 -0.97040780690E+03 -0.78441343817E+03 -0.87048812284E+03  0.15214287153E+04  0.10100000352E+00 0. -1.
</event>
<event>
 5   0  0.3327241E-07  0.3805394E+04  0.7818609E-02  0.8044998E-01
       -2   -1    0    0    0  501  0.00000000000E+00  0.00000000000E+00  0.13014196242E+04  0.13014196242E+04  0.25500000920E-02 0. -1.
        2   -1    0    0  501    0  0.00000000000E+00  0.00000000000E+00 -0.27817744022E+04  0.27817744022E+04  0.25500000920E-02 0.  1.
    10030    2    1    2    0    0  0.00000000000E+00  0.00000000000E+00 -0.14803547779E+04  0.40831940264E+04  0.38053939597E+04 0.  0.
        3    1    3    3  502    0  0.15568238249E+04 -0.45710494395E+03  0.32615654003E+03  0.16549995318E+04  0.10100000352E+00 0.  1.
       -3    1    3    3    0  502 -0.15568238249E+04  0.45710494395E+03 -0.18065113180E+04  0.24281944946E+04  0.10100000352E+00 0. -1.
</event>
<event>
 5   0  0.3509843E-07  0.3574251E+04  0.7818609E-02  0.8096416E-01
       -2   -1    0    0    0  501  0.00000000000E+00  0.00000000000E+00  0.29616279330E+04  0.29616279330E+04  0.25500000920E-02 0. -1.
        2   -1    0    0  501    0  0.00000000000E+00  0.00000000000E+00 -0.10783990310E+04  0.10783990310E+04  0.25500000920E-02 0.  1.
    10030    2    1    2    0    0  0.00000000000E+00  0.00000000000E+00  0.18832289020E+04  0.40400269640E+04  0.35742505190E+04 0.  0.
        4    1    3    3  502    0 -0.56900536079E+03 -0.46506589011E+03 -0.89970964100E+03  0.11616937780E+04  0.12699999809E+01 0.  1.
       -4    1    3    3    0  502  0.56900536079E+03  0.46506589011E+03  0.27829385430E+04  0.28783331861E+04  0.12699999809E+01 0. -1.
</event>
<event>
 5   0  0.1084315E-07  0.3771762E+04  0.7818609E-02  0.8052242E-01
        1   -1    0    0  501    0  0.00000000000E+00  0.00000000000E+00  0.22916127318E+04  0.22916127318E+04  0.50400001928E-02 0. -1.
       -1   -1    0    0    0  501  0.00000000000E+00  0.00000000000E+00 -0.15519846079E+04  0.15519846079E+04  0.50400001928E-02 0.  1.
    10030    2    1    2    0    0  0.00000000000E+00  0.00000000000E+00  0.73962812389E+03  0.38435973398E+04  0.37717622869E+04 0.  0.
        4    1    3    3  502    0  0.11630455572E+04 -0.58234319357E+02 -0.11418394952E+04  0.16309093322E+04  0.12699999809E+01 0.  1.
       -4    1    3    3    0  502 -0.11630455572E+04  0.58234319357E+02  0.18814676191E+04  0.22126880076E+04  0.12699999809E+01 0. -1.
</event>
<event>
 5   0  0.1070988E-07  0.3820082E+04  0.7818609E-02  0.8041859E-01
       -1   -1    0    0    0  501  0.00000000000E+00  0.00000000000E+00  0.24722228839E+04  0.24722228839E+04  0.50400001928E-02 0.  1.
        1   -1    0    0  501    0  0.00000000000E+00  0.00000000000E+00 -0.14756989658E+04  0.14756989658E+04  0.50400001928E-02 0. -1.
    10030    2    1    2    0    0  0.00000000000E+00  0.00000000000E+00  0.99652391810E+03  0.39479218497E+04  0.38200820688E+04 0.  0.
        2    1    3    3  502    0 -0.15015369167E+04  0.21981916253E+00  0.17182953448E+04  0.22819185026E+04  0.25500000920E-02 0.  1.
       -2    1    3    3    0  502  0.15015369167E+04 -0.21981916253E+00 -0.72177142670E+03  0.16660033472E+04  0.25500000920E-02 0. -1.
</event>
<event>
 5   0  0.1070988E-07  0.3796982E+04  0.7818609E-02  0.8046803E-01
       -1   -1    0    0    0  501  0.00000000000E+00  0.00000000000E+00  0.19634613949E+04  0.19634613949E+04  0.50400001928E-02 0.  1.
        1   -1    0    0  501    0  0.00000000000E+00  0.00000000000E+00 -0.18356702805E+04  0.18356702805E+04  0.50400001928E-02 0. -1.
    10030    2    1    2    0    0  0.00000000000E+00  0.00000000000E+00  0.12779111446E+03  0.37991316754E+04  0.37969818169E+04 0.  0.
        2    1    3    3  502    0  0.11602356316E+04 -0.93231230940E+03 -0.11152940052E+04  0.18599015246E+04  0.25500000920E-02 0.  1.
       -2    1    3    3    0  502 -0.11602356316E+04  0.93231230940E+03  0.12430851197E+04  0.19392301508E+04  0.25500000920E-02 0. -1.
</event>
<event>
 5   0  0.3442126E-07  0.3794914E+04  0.7818609E-02  0.8047247E-01
       -2   -1    0    0    0  501  0.00000000000E+00  0.00000000000E+00  0.13480021577E+04  0.13480021577E+04  0.25500000920E-02 0.  1.
        2   -1    0    0  501    0  0.00000000000E+00  0.00000000000E+00 -0.26708736702E+04  0.26708736702E+04  0.25500000920E-02 0. -1.
    10030    2    1    2    0    0  0.00000000000E+00  0.00000000000E+00 -0.13228715125E+04  0.40188758279E+04  0.37949142127E+04 0.  0.
        2    1    3    3  502    0  0.11863871016E+04 -0.10489910931E+04 -0.17683214493E+04  0.23737854613E+04  0.25500000920E-02 0.  1.
       -2    1    3    3    0  502 -0.11863871016E+04  0.10489910931E+04  0.44544993676E+03  0.16450903666E+04  0.25500000920E-02 0. -1.
</event>
<event>
 5   0  0.1085771E-07  0.3721842E+04  0.7818609E-02  0.8063139E-01
        1   -1    0    0  501    0  0.00000000000E+00  0.00000000000E+00  0.16185246154E+04  0.16185246154E+04  0.50400001928E-02 0.  1.
       -1   -1    0    0    0  501  0.00000000000E+00  0.00000000000E+00 -0.21396197345E+04  0.21396197345E+04  0.50400001928E-02 0. -1.
    10030    2    1    2    0    0  0.00000000000E+00  0.00000000000E+00 -0.52109511903E+03  0.37581443499E+04  0.37218421288E+04 0.  0.
        1    1    3    3  502    0  0.17110831533E+04  0.73142702140E+03 -0.24503007915E+03  0.18769205590E+04  0.50400001928E-02 0.  1.
       -1    1    3    3    0  502 -0.17110831533E+04 -0.73142702140E+03 -0.27606503988E+03  0.18812237909E+04  0.50400001928E-02 0. -1.
</event>
<event>
 5   0  0.1084315E-07  0.3778902E+04  0.7818609E-02  0.8050698E-01
       -1   -1    0    0    0  501  0.00000000000E+00  0.00000000000E+00  0.12721158674E+04  0.12721158674E+04  0.50400001928E-02 0. -1.
        1   -1    0    0  501    0  0.00000000000E+00  0.00000000000E+00 -0.28063678111E+04  0.28063678111E+04  0.50400001928E-02 0.  1.
    10030    2    1    2    0    0  0.00000000000E+00  0.00000000000E+00 -0.15342519437E+04  0.40784836786E+04  0.37789019688E+04 0.  0.
        4    1    3    3  502    0 -0.13695650072E+04 -0.99900106284E+03  0.13348044220E+03  0.17004499621E+04  0.12699999809E+01 0. -1.
       -4    1    3    3    0  502  0.13695650072E+04  0.99900106284E+03 -0.16677323859E+04  0.23780337164E+04  0.12699999809E+01 0.  1.
</event>
<event>
 5   0  0.1070988E-07  0.3607001E+04  0.7818609E-02  0.8088890E-01
       -1   -1    0    0    0  501  0.00000000000E+00  0.00000000000E+00  0.14164025287E+04  0.14164025287E+04  0.50400001928E-02 0. -1.
        1   -1    0    0  501    0  0.00000000000E+00  0.00000000000E+00 -0.22963904545E+04  0.22963904545E+04  0.50400001928E-02 0.  1.
    10030    2    1    2    0    0  0.00000000000E+00  0.00000000000E+00 -0.87998792578E+03  0.37127929832E+04  0.36070005526E+04 0.  0.
        3    1    3    3  502    0  0.85131136100E+03 -0.14982133599E+04 -0.98780527907E+03  0.19862360345E+04  0.10100000352E+00 0.  1.
       -3    1    3    3    0  502 -0.85131136100E+03  0.14982133599E+04  0.10781735330E+03  0.17265569487E+04  0.10100000352E+00 0. -1.
</event>
<event>
 5   0  0.1084315E-07  0.3812914E+04  0.7818609E-02  0.8043389E-01
        1   -1    0    0  501    0  0.00000000000E+00  0.00000000000E+00  0.19094764969E+04  0.19094764969E+04  0.50400001928E-02 0. -1.
       -1   -1    0    0    0  501  0.00000000000E+00  0.00000000000E+00 -0.19034427590E+04  0.19034427590E+04  0.50400001928E-02 0.  1.
    10030    2    1    2    0    0  0.00000000000E+00  0.00000000000E+00  0.60337378287E+01  0.38129192559E+04  0.38129144819E+04 0.  0.
        4    1    3    3  502    0  0.18780150511E+04  0.32773979138E+03 -0.11939602265E+02  0.19064359602E+04  0.12699999809E+01 0.  1.
       -4    1    3    3    0  502 -0.18780150511E+04 -0.32773979138E+03  0.17973340094E+02  0.19064832958E+04  0.12699999809E+01 0. -1.
</event>
<event>
 5   0  0.3509843E-07  0.3789459E+04  0.7818609E-02  0.8048421E-01
       -2   -1    0    0    0  501  0.00000000000E+00  0.00000000000E+00  0.15722591390E+04  0.15722591390E+04  0.25500000920E-02 0.  1.
        2   -1    0    0  501    0  0.00000000000E+00  0.00000000000E+00 -0.22833386364E+04  0.22833386364E+04  0.25500000920E-02 0. -1.
    10030    2    1    2    0    0  0.00000000000E+00  0.00000000000E+00 -0.71107949742E+03  0.38555977754E+04  0.37894590847E+04 0.  0.
        4    1    3    3  502    0  0.14757478770E+04 -0.11168349486E+04 -0.76863874119E+03  0.20039858349E+04  0.12699999809E+01 0. -1.
       -4    1    3    3    0  502 -0.14757478770E+04  0.11168349486E+04  0.57559243767E+02  0.18516119406E+04  0.12699999809E+01 0.  1.
</event>
<event>
 5   0  0.3442126E-07  0.3802181E+04  0.7818609E-02  0.8045687E-01
       -2   -1    0    0    0  501  0.00000000000E+00  0.00000000000E+00  0.12812988060E+04  0.12812988060E+04  0.25500000920E-02 0.  1.
        2   -1    0    0  501    0  0.00000000000E+00  0.00000000000E+00 -0.28206886280E+04  0.28206886280E+04  0.25500000920E-02 0. -1.
    10030    2    1    2    0    0  0.00000000000E+00  0.00000000000E+00 -0.15393898219E+04  0.41019874340E+04  0.38021809380E+04 0.  0.
        2    1    3    3  502    0  0.17796838076E+04  0.53880957039E+03 -0.11965639810E+04  0.22111887230E+04  0.25500000920E-02 0. -1.
       -2    1    3    3    0  502 -0.17796838076E+04 -0.53880957039E+03 -0.34282584094E+03  0.18907987110E+04  0.25500000920E-02 0.  1.
</event>
<event>
 5   0  0.3377396E-07  0.3760354E+04  0.7818609E-02  0.8054717E-01
       -2   -1    0    0    0  501  0.00000000000E+00  0.00000000000E+00  0.15995728597E+04  0.15995728597E+04  0.25500000920E-02 0.  1.
        2   -1    0    0  501    0  0.00000000000E+00  0.00000000000E+00 -0.22100063425E+04  0.22100063425E+04  0.25500000920E-02 0. -1.
    10030    2    1    2    0    0  0.00000000000E+00  0.00000000000E+00 -0.61043348290E+03  0.38095792022E+04  0.37603543265E+04 0.  0.
        5    1    3    3  502    0 -0.67413534135E+03  0.40311259832E+03  0.14253855338E+04  0.16274840200E+04  0.46999998093E+01 0.  1.
       -5    1    3    3    0  502  0.67413534135E+03 -0.40311259832E+03 -0.20358190167E+04  0.21820951822E+04  0.46999998093E+01 0. -1.
</event>
<event>
 5   0  0.3327241E-07  0.3786958E+04  0.7818609E-02  0.8048959E-01
       -2   -1    0    0    0  501  0.00000000000E+00  0.00000000000E+00  0.17492630900E+04  0.17492630900E+04  0.25500000920E-02 0. -1.
        2   -1    0    0  501    0  0.00000000000E+00  0.00000000000E+00 -0.20495845485E+04  0.20495845485E+04  0.25500000920E-02 0.  1.
    10030    2    1    2    0    0  0.00000000000E+00  0.00000000000E+00 -0.30032145845E+03  0.37988476385E+04  0.37869579351E+04 0.  0.
        3    1    3    3  502    0 -0.11585579939E+04 -0.40776178294E+02  0.13516513117E+04  0.17806966616E+04  0.10100000352E+00 0. -1.
       -3    1    3    3    0  502  0.11585579939E+04  0.40776178294E+02 -0.16519727702E+04  0.20181509769E+04  0.10100000352E+00 0.  1.
</event>
<event>
 5   0  0.3539010E-07  0.3785845E+04  0.7818609E-02  0.8049199E-01
        2   -1    0    0  501    0  0.00000000000E+00  0.00000000000E+00  0.21340252896E+04  0.21340252896E+04  0.25500000920E-02 0.  1.
       -2   -1    0    0    0  501  0.00000000000E+00  0.00000000000E+00 -0.16790596132E+04  0.16790596132E+04  0.25500000920E-02 0. -1.
    10030    2    1    2    0    0  0.00000000000E+00  0.00000000000E+00  0.45496567638E+03  0.38130849028E+04  0.37858450456E+04 0.  0.
        1    1    3    3  502    0  0.13029351679E+04 -0.95917898249E+03 -0.76218128022E+03  0.17884587432E+04  0.50400001928E-02 0. -1.
       -1    1    3    3    0  502 -0.13029351679E+04  0.95917898249E+03  0.12171469566E+04  0.20246261596E+04  0.50400001928E-02 0.  1.
</event>
<event>
 5   0  0.1070988E-07  0.3779599E+04  0.7818609E-02  0.8050547E-01
        1   -1    0    0  501    0  0.00000000000E+00  0.00000000000E+00  0.17784199330E+04  0.17784199330E+04  0.50400001928E-02 0. -1.
       -1   -1    0    0    0  501  0.00000000000E+00  0.00000000000E+00 -0.20081548387E+04  0.20081548387E+04  0.50400001928E-02 0.  1.
    10030    2    1    2    0    0  0.00000000000E+00  0.00000000000E+00 -0.22973490575E+03  0.37865747717E+04  0.37795992347E+04 0.  0.
        5    1    3    3  502    0 -0.17649094712E+04  0.22341223684E+02  0.56159417916E+03  0.18522458487E+04  0.46999998093E+01 0.  1.
       -5    1    3    3    0  502  0.17649094712E+04 -0.22341223684E+02 -0.79132908491E+03  0.19343289231E+04  0.46999998093E+01 0. -1.
</event>
<event>
 5   0  0.1070988E-07  0.3807342E+04  0.7818609E-02  0.8044581E-01
        1   -1    0    0  501    0  0.00000000000E+00  0.00000000000E+00  0.28161555096E+04  0.28161555096E+04  0.50400001928E-02 0. -1.
       -1   -1    0    0    0  501  0.00000000000E+00  0.00000000000E+00 -0.12868477670E+04  0.12868477670E+04  0.50400001928E-02 0.  1.
    10030    2    1    2    0    0  0.00000000000E+00  0.00000000000E+00  0.15293077425E+04  0.41030032766E+04  0.38073420803E+04 0.  0.
        3    1    3    3  502    0  0.80501373677E+03  0.46726096904E+03  0.25542057788E+04  0.27185192845E+04  0.10100000352E+00 0. -1.
       -3    1    3    3    0  502 -0.80501373677E+03 -0.46726096904E+03 -0.10248980362E+04  0.13844839921E+04  0.10100000352E+00 0.  1.
</event>
<event>
 5   0  0.3377396E-07  0.3818647E+04  0.7818609E-02  0.8042165E-01
       -2   -1    0    0    0  501  0.00000000000E+00  0.00000000000E+00  0.21311426234E+04  0.21311426234E+04  0.25500000920E-02 0.  1.
        2   -1    0    0  501    0  0.00000000000E+00  0.00000000000E+00 -0.17105923735E+04  0.17105923735E+04  0.25500000920E-02 0. -1.
    10030    2    1    2    0    0  0.00000000000E+00  0.00000000000E+00  0.42055024988E+03  0.38417349968E+04  0.38186470475E+04 0.  0.
        5    1    3    3  502    0  0.14552678083E+04 -0.10061580000E+03 -0.10290684544E+04  0.17851980021E+04  0.46999998093E+01 0. -1.
       -5    1    3    3    0  502 -0.14552678083E+04  0.10061580000E+03  0.14496187042E+04  0.20565369947E+04  0.46999998093E+01 0.  1.
</event>
<event>
 5   0  0.1084315E-07  0.3799614E+04  0.7818609E-02  0.8046238E-01
        1   -1    0    0  501    0  0.00000000000E+00  0.00000000000E+00  0.24651286792E+04  0.24651286792E+04  0.50400001928E-02 0. -1.
       -1   -1    0    0    0  501  0.00000000000E+00  0.00000000000E+00 -0.14641288126E+04  0.14641288126E+04  0.50400001928E-02 0.  1.
    10030    2    1    2    0    0  0.00000000000E+00  0.00000000000E+00  0.10009998667E+04  0.39292574918E+04  0.37996136256E+04 0.  0.
        4    1    3    3  502    0 -0.13017520542E+04  0.20191279237E+03  0.19161260337E+04  0.23252672484E+04  0.12699999809E+01 0. -1.
       -4    1    3    3    0  502  0.13017520542E+04 -0.20191279237E+03 -0.91512616706E+03  0.16039902434E+04  0.12699999809E+01 0.  1.
</event>
<event>
 5   0  0.3539010E-07  0.3776959E+04  0.7818609E-02  0.8051118E-01
       -2   -1    0    0    0  501  0.00000000000E+00  0.00000000000E+00  0.19222449879E+04  0.19222449879E+04  0.25500000920E-02 0. -1.
        2   -1    0    0  501    0  0.00000000000E+00  0.00000000000E+00 -0.18553069133E+04  0.18553069133E+04  0.25500000920E-02 0.  1.
    10030    2    1    2    0    0  0.00000000000E+00  0.00000000000E+00  0.66938074599E+02  0.37775519011E+04  0.37769587845E+04 0.  0.
        1    1    3    3  502    0  0.10709854190E+04 -0.13787996827E+03  0.15830133884E+04  0.19162338170E+04  0.50400001928E-02 0. -1.
       -1    1    3    3    0  502 -0.10709854190E+04  0.13787996827E+03 -0.15160753138E+04  0.18613180842E+04  0.50400001928E-02 0.  1.
</event>
<event>
 5   0  0.3327241E-07  0.3830007E+04  0.7818609E-02  0.8039746E-01
        2   -1    0    0  501    0  0.00000000000E+00  0.00000000000E+00  0.21155552532E+04  0.21155552532E+04  0.25500000920E-02 0.  1.
       -2   -1    0    0    0  501  0.00000000000E+00  0.00000000000E+00 -0.17334636041E+04  0.17334636041E+04  0.25500000920E-02 0. -1.
    10030    2    1    2    0    0  0.00000000000E+00  0.00000000000E+00  0.38209164918E+03  0.38490188573E+04  0.38300068062E+04 0.  0.
        3    1    3    3  502    0  0.59260361213E+03 -0.16864190913E+04 -0.49942339715E+03  0.18559666302E+04  0.10100000352E+00 0. -1.
       -3    1    3    3    0  502 -0.59260361213E+03  0.16864190913E+04  0.88151504632E+03  0.19930522271E+04  0.10100000352E+00 0.  1.
</event>
<event>
 5   0  0.1070988E-07  0.3762931E+04  0.7818609E-02  0.8054157E-01
       -1   -1    0    0    0  501  0.00000000000E+00  0.00000000000E+00  0.29302266256E+04  0.29302266256E+04  0.50400001928E-02 0.  1.
        1   -1    0    0  501    0  0.00000000000E+00  0.00000000000E+00 -0.12080678346E+04  0.12080678346E+04  0.50400001928E-02 0. -1.
    10030    2    1    2    0    0  0.00000000000E+00  0.00000000000E+00  0.17221587910E+04  0.41382944602E+04  0.37629310568E+04 0.  0.
        3    1    3    3  502    0  0.80954810783E+03  0.10008990350E+04 -0.64792650591E+03  0.14411716707E+04  0.10100000352E+00 0. -1.
       -3    1    3    3    0  502 -0.80954810783E+03 -0.10008990350E+04  0.23700852969E+04  0.26971227895E+04  0.10100000352E+00 0.  1.
</event>
<event>
 5   0  0.3327241E-07  0.3808387E+04  0.7818609E-02  0.8044357E-01
        2   -1    0    0  501    0  0.00000000000E+00  0.00000000000E+00  0.22210542388E+04  0.22210542388E+04  0.25500000920E-02 0.  1.
       -2   -1    0    0    0  501  0.00000000000E+00  0.00000000000E+00 -0.16325369573E+04  0.16325369573E+04  0.25500000920E-02 0. -1.
    10030    2    1    2    0    0  0.00000000000E+00  0.00000000000E+00  0.58851728148E+03  0.38535911961E+04  0.38083871279E+04 0.  0.
        3    1    3    3  502    0  0.65585489650E+03  0.94746826405E+03  0.18282046981E+04  0.21610585797E+04  0.10100000352E+00 0.  1.
       -3    1    3    3    0  502 -0.65585489650E+03 -0.94746826405E+03 -0.12396874166E+04  0.16925326164E+04  0.10100000352E+00 0. -1.
</event>
<event>
 5   0  0.3539010E-07  0.3781582E+04  0.7818609E-02  0.8050119E-01
        2   -1    0    0  501    0  0.00000000000E+00  0.00000000000E+00  0.11361766998E+04  0.11361766999E+04  0.25500000920E-02 0. -1.
       -2   -1    0    0    0  501  0.00000000000E+00  0.00000000000E+00 -0.31465976541E+04  0.31465976541E+04  0.25500000920E-02 0.  1.
    10030    2    1    2    0    0  0.00000000000E+00  0.00000000000E+00 -0.20104209542E+04  0.42827743539E+04  0.37815821760E+04 0.  0.
        1    1    3    3  502    0  0.75585506559E+03  0.17324938705E+04 -0.10588004151E+04  0.21665433784E+04  0.50400001928E-02 0.  1.
       -1    1    3    3    0  502 -0.75585506559E+03 -0.17324938705E+04 -0.95162053910E+03  0.21162309755E+04  0.50400001928E-02 0. -1.
</event>
<event>
 5   0  0.1084315E-07  0.3793666E+04  0.7818609E-02  0.8047516E-01
        1   -1    0    0  501    0  0.00000000000E+00  0.00000000000E+00  0.21537082265E+04  0.21537082265E+04  0.50400001928E-02 0. -1.
       -1   -1    0    0    0  501  0.00000000000E+00  0.00000000000E+00 -0.16705954345E+04  0.16705954345E+04  0.50400001928E-02 0.  1.
    10030    2    1    2    0    0  0.00000000000E+00  0.00000000000E+00  0.48311279199E+03  0.38243036610E+04  0.37936658421E+04 0.  0.
        4    1    3    3  502    0 -0.95121168549E+03  0.84619870130E+03  0.16590122654E+04  0.20912147720E+04  0.12699999809E+01 0. -1.
       -4    1    3    3    0  502  0.95121168549E+03 -0.84619870130E+03 -0.11758994734E+04  0.17330888890E+04  0.12699999809E+01 0.  1.
</event>
<event>
 5   0  0.3509843E-07  0.3185622E+04  0.7818609E-02  0.8192625E-01
        2   -1    0    0  501    0  0.00000000000E+00  0.00000000000E+00  0.21693420478E+04  0.21693420478E+04  0.25500000920E-02 0. -1.
       -2   -1    0    0    0  501  0.00000000000E+00  0.00000000000E+00 -0.11695007211E+04  0.11695007211E+04  0.25500000920E-02 0.  1.
    10030    2    1    2    0    0  0.00000000000E+00  0.00000000000E+00  0.99984132670E+03  0.33388427689E+04  0.31856221303E+04 0.  0.
        4    1    3    3  502    0 -0.94568633826E+03  0.55399640036E+03 -0.71144200584E+03  0.13066698139E+04  0.12699999809E+01 0.  1.
       -4    1    3    3    0  502  0.94568633826E+03 -0.55399640036E+03  0.17112833325E+04  0.20321729550E+04  0.12699999809E+01 0. -1.
</event>
<event>
 5   0  0.3442126E-07  0.3723555E+04  0.7818609E-02  0.8062762E-01
       -2   -1    0    0    0  501  0.00000000000E+00  0.00000000000E+00  0.12977636925E+04  0.12977636925E+04  0.25500000920E-02 0. -1.
        2   -1    0    0  501    0  0.00000000000E+00  0.00000000000E+00 -0.26709142760E+04  0.26709142760E+04  0.25500000920E-02 0.  1.
    10030    2    1    2    0    0  0.00000000000E+00  0.00000000000E+00 -0.13731505834E+04  0.39686779685E+04  0.37235550610E+04 0.  0.
        2    1    3    3  502    0 -0.10766683883E+04 -0.14188824873E+04 -0.10888615872E+03  0.17844602900E+04  0.25500000920E-02 0. -1.
       -2    1    3    3    0  502  0.10766683883E+04  0.14188824873E+04 -0.12642644247E+04  0.21842176784E+04  0.25500000920E-02 0.  1.
</event>
<event>
 5   0  0.1070988E-07  0.3800767E+04  0.7818609E-02  0.8045990E-01
       -1   -1    0    0    0  501  0.00000000000E+00  0.00000000000E+00  0.20517787880E+04  0.20517787881E+04  0.50400001928E-02 0.  1.
        1   -1    0    0  501    0  0.00000000000E+00  0.00000000000E+00 -0.17601596079E+04  0.17601596079E+04  0.50400001928E-02 0. -1.
    10030    2    1    2    0    0  0.00000000000E+00  0.00000000000E+00  0.29161918019E+03  0.38119383959E+04  0.38007673683E+04 0.  0.
        3    1    3    3  502    0 -0.89168492767E+03  0.64628613183E+03 -0.14075066013E+04  0.17871381080E+04  0.10100000352E+00 0. -1.
       -3    1    3    3    0  502  0.89168492767E+03 -0.64628613183E+03  0.16991257814E+04  0.20248002879E+04  0.10100000352E+00 0.  1.
</event>
<event>
 5   0  0.1084315E-07  0.3829153E+04  0.7818609E-02  0.8039927E-01
       -1   -1    0    0    0  501  0.00000000000E+00  0.00000000000E+00  0.29102008000E+04  0.29102008000E+04  0.50400001928E-02 0. -1.
        1   -1    0    0  501    0  0.00000000000E+00  0.00000000000E+00 -0.12595707979E+04  0.12595707979E+04  0.50400001928E-02 0.  1.
    10030    2    1    2    0    0  0.00000000000E+00  0.00000000000E+00  0.16506300021E+04  0.41697715980E+04  0.38291534019E+04 0.  0.
        4    1    3    3  502    0 -0.18279185180E+03  0.14215654526E+04  0.22076179946E+04  0.26320790300E+04  0.12699999809E+01 0. -1.
       -4    1    3    3    0  502  0.18279185180E+03 -0.14215654526E+04 -0.55698799249E+03  0.15376925680E+04  0.12699999809E+01 0.  1.
</event>
<event>
 5   0  0.1070988E-07  0.3910221E+04  0.7818609E-02  0.8022907E-01
        1   -1    0    0  501    0  0.00000000000E+00  0.00000000000E+00  0.20240918584E+04  0.20240918584E+04  0.50400001928E-02 0. -1.
       -1   -1    0    0    0  501  0.00000000000E+00  0.00000000000E+00 -0.18884805108E+04  0.18884805108E+04  0.50400001928E-02 0.  1.
    10030    2    1    2    0    0  0.00000000000E+00  0.00000000000E+00  0.13561134756E+03  0.39125723692E+04  0.39102214907E+04 0.  0.
        5    1    3    3  502    0 -0.46774978230E+03 -0.43672484920E+03  0.19163246763E+04  0.20203566041E+04  0.46999998093E+01 0. -1.
       -5    1    3    3    0  502  0.46774978230E+03  0.43672484920E+03 -0.17807133287E+04  0.18922157651E+04  0.46999998093E+01 0.  1.
</event>
<event>
 5   0  0.1084315E-07  0.3783608E+04  0.7818609E-02  0.8049682E-01
        1   -1    0    0  501    0  0.00000000000E+00  0.00000000000E+00  0.28529452354E+04  0.28529452354E+04  0.50400001928E-02 0.  1.
       -1   -1    0    0    0  501  0.00000000000E+00  0.00000000000E+00 -0.12544661421E+04  0.12544661421E+04  0.50400001928E-02 0. -1.
    10030    2    1    2    0    0  0.00000000000E+00  0.00000000000E+00  0.15984790934E+04  0.41074113775E+04  0.37836084380E+04 0.  0.
        4    1    3    3  502    0  0.35596695907E+02 -0.78724389883E+03  0.26662806146E+04  0.27803010646E+04  0.12699999809E+01 0.  1.
       -4    1    3    3    0  502 -0.35596695907E+02  0.78724389883E+03 -0.10678015212E+04  0.13271103129E+04  0.12699999809E+01 0. -1.
</event>
<event>
 5   0  0.1085771E-07  0.3747342E+04  0.7818609E-02  0.8057550E-01
       -1   -1    0    0    0  501  0.00000000000E+00  0.00000000000E+00  0.17666917360E+04  0.17666917360E+04  0.50400001928E-02 0.  1.
        1   -1    0    0  501    0  0.00000000000E+00  0.00000000000E+00 -0.19871285625E+04  0.19871285625E+04  0.50400001928E-02 0. -1.
    10030    2    1    2    0    0  0.00000000000E+00  0.00000000000E+00 -0.22043682647E+03  0.37538202985E+04  0.37473423167E+04 0.  0.
        1    1    3    3  502    0  0.50649672314E+03  0.11025224478E+03  0.16934355003E+04  0.17709935861E+04  0.50400001928E-02 0.  1.
       -1    1    3    3    0  502 -0.50649672314E+03 -0.11025224478E+03 -0.19138723268E+04  0.19828267124E+04  0.50400001928E-02 0. -1.
</event>
<event>
 5   0  0.3377396E-07  0.3799525E+04  0.7818609E-02  0.8046257E-01
       -2   -1    0    0    0  501  0.00000000000E+00  0.00000000000E+00  0.13686825825E+04  0.13686825825E+04  0.25500000920E-02 0.  1.
        2   -1    0    0  501    0  0.00000000000E+00  0.00000000000E+00 -0.26369132121E+04  0.26369132121E+04  0.25500000920E-02 0. -1.
    10030    2    1    2    0    0  0.00000000000E+00  0.00000000000E+00 -0.12682306296E+04  0.40055957945E+04  0.37995248044E+04 0.  0.
        5    1    3    3  502    0 -0.16554128155E+04 -0.17394358895E+03 -0.15994335285E+04  0.23084318625E+04  0.46999998093E+01 0. -1.
       -5    1    3    3    0  502  0.16554128155E+04  0.17394358895E+03  0.33120289895E+03  0.16971639320E+04  0.46999998093E+01 0.  1.
</event>
<event>
 5   0  0.1084315E-07  0.3951734E+04  0.7818609E-02  0.8014355E-01
       -1   -1    0    0    0  501  0.00000000000E+00  0.00000000000E+00  0.20485924437E+04  0.20485924437E+04  0.50400001928E-02 0.  1.
        1   -1    0    0  501    0  0.00000000000E+00  0.00000000000E+00 -0.19057235552E+04  0.19057235552E+04  0.50400001928E-02 0. -1.
    10030    2    1    2    0    0  0.00000000000E+00  0.00000000000E+00  0.14286888857E+03  0.39543159989E+04  0.39517342395E+04 0.  0.
        4    1    3    3  502    0  0.56342241629E+03  0.31531576275E+03 -0.17971849424E+04  0.19096450402E+04  0.12699999809E+01 0. -1.
       -4    1    3    3    0  502 -0.56342241629E+03 -0.31531576275E+03  0.19400538310E+04  0.20446709587E+04  0.12699999809E+01 0.  1.
</event>
<event>
 5   0  0.1070988E-07  0.3812593E+04  0.7818609E-02  0.8043458E-01
       -1   -1    0    0    0  501  0.00000000000E+00  0.00000000000E+00  0.27620846272E+04  0.27620846272E+04  0.50400001928E-02 0. -1.
        1   -1    0    0  501    0  0.00000000000E+00  0.00000000000E+00 -0.13156608468E+04  0.13156608468E+04  0.50400001928E-02 0.  1.
    10030    2    1    2    0    0  0.00000000000E+00  0.00000000000E+00  0.14464237804E+04  0.40777454740E+04  0.38125931331E+04 0.  0.
        2    1    3    3  502    0  0.13407478361E+04  0.95978048226E+03 -0.29997198704E+03  0.16759375069E+04  0.25500000920E-02 0.  1.
       -2    1    3    3    0  502 -0.13407478361E+04 -0.95978048226E+03  0.17463957674E+04  0.24018079671E+04  0.25500000920E-02 0. -1.
</event>
<event>
 5   0  0.3327241E-07  0.3806206E+04  0.7818609E-02  0.8044824E-01
       -2   -1    0    0    0  501  0.00000000000E+00  0.00000000000E+00  0.18807976208E+04  0.18807976208E+04  0.25500000920E-02 0.  1.
        2   -1    0    0  501    0  0.00000000000E+00  0.00000000000E+00 -0.19256725443E+04  0.19256725443E+04  0.25500000920E-02 0. -1.
    10030    2    1    2    0    0  0.00000000000E+00  0.00000000000E+00 -0.44874923472E+02  0.38064701651E+04  0.38062056380E+04 0.  0.
        3    1    3    3  502    0  0.33459035884E+03 -0.18734585409E+04 -0.20789056413E+02  0.19032156493E+04  0.10100000352E+00 0. -1.
       -3    1    3    3    0  502 -0.33459035884E+03  0.18734585409E+04 -0.24085867059E+02  0.19032545158E+04  0.10100000352E+00 0.  1.
</event>
<event>
 5   0  0.3327241E-07  0.3806372E+04  0.7818609E-02  0.8044789E-01
       -2   -1    0    0    0  501  0.00000000000E+00  0.00000000000E+00  0.26372332892E+04  0.26372332892E+04  0.25500000920E-02 0.  1.
        2   -1    0    0  501    0  0.00000000000E+00  0.00000000000E+00 -0.13734534770E+04  0.13734534770E+04  0.25500000920E-02 0. -1.
    10030    2    1    2    0    0  0.00000000000E+00  0.00000000000E+00  0.12637798122E+04  0.40106867662E+04  0.38063721472E+04 0.  0.
        3    1    3    3  502    0  0.17307872227E+04  0.19234178304E+03  0.14408897972E+04  0.22602617524E+04  0.10100000352E+00 0.  1.
       -3    1    3    3    0  502 -0.17307872227E+04 -0.19234178304E+03 -0.17710998499E+03  0.17504250137E+04  0.10100000352E+00 0. -1.
</event>
<event>
 5   0  0.1070988E-07  0.3813436E+04  0.7818609E-02  0.8043278E-01
        1   -1    0    0  501    0  0.00000000000E+00  0.00000000000E+00  0.18436498251E+04  0.18436498251E+04  0.50400001928E-02 0.  1.
       -1   -1    0    0    0  501  0.00000000000E+00  0.00000000000E+00 -0.19719432283E+04  0.19719432283E+04  0.50400001928E-02 0. -1.
    10030    2    1    2    0    0  0.00000000000E+00  0.00000000000E+00 -0.12829340325E+03  0.38155930534E+04  0.38134356100E+04 0.  0.
        5    1    3    3  502    0 -0.75398349617E+02  0.18938348699E+04  0.14394998152E+03  0.19007995982E+04  0.46999998093E+01 0.  1.
       -5    1    3    3    0  502  0.75398349617E+02 -0.18938348699E+04 -0.27224338477E+03  0.19147934552E+04  0.46999998093E+01 0. -1.
</event>
<event>
 5   0  0.3377396E-07  0.3816507E+04  0.7818609E-02  0.8042622E-01
        2   -1    0    0  501    0  0.00000000000E+00  0.00000000000E+00  0.28086414840E+04  0.28086414840E+04  0.25500000920E-02 0.  1.
       -2   -1    0    0    0  501  0.00000000000E+00  0.00000000000E+00 -0.12965101330E+04  0.12965101330E+04  0.25500000920E-02 0. -1.
    10030    2    1    2    0    0  0.00000000000E+00  0.00000000000E+00  0.15121313510E+04  0.41051516170E+04  0.38165073792E+04 0.  0.
        5    1    3    3  502    0  0.41439268729E+03  0.42201805712E+03 -0.11954225279E+04  0.13337457216E+04  0.46999998093E+01 0. -1.
       -5    1    3    3    0  502 -0.41439268729E+03 -0.42201805712E+03  0.27075538789E+04  0.27714058953E+04  0.46999998093E+01 0.  1.
</event>
<event>
 5   0  0.3327241E-07  0.3840347E+04  0.7818609E-02  0.8037552E-01
        2   -1    0    0  501    0  0.00000000000E+00  0.00000000000E+00  0.18818914608E+04  0.18818914608E+04  0.25500000920E-02 0. -1.
       -2   -1    0    0    0  501  0.00000000000E+00  0.00000000000E+00 -0.19592341601E+04  0.19592341601E+04  0.25500000920E-02 0.  1.
    10030    2    1    2    0    0  0.00000000000E+00  0.00000000000E+00 -0.77342699290E+02  0.38411256209E+04  0.38403468779E+04 0.  0.
        3    1    3    3  502    0 -0.16531531761E+04 -0.87853960325E+03  0.38840325255E+03  0.19119634816E+04  0.10100000352E+00 0. -1.
       -3    1    3    3    0  502  0.16531531761E+04  0.87853960325E+03 -0.46574595184E+03  0.19291621394E+04  0.10100000352E+00 0.  1.
</event>
<event>
 5   0  0.1070988E-07  0.3438931E+04  0.7818609E-02  0.8128417E-01
       -1   -1    0    0    0  501  0.00000000000E+00  0.00000000000E+00  0.25134556013E+04  0.25134556013E+04  0.50400001928E-02 0. -1.
        1   -1    0    0  501    0  0.00000000000E+00  0.00000000000E+00 -0.11762933033E+04  0.11762933033E+04  0.50400001928E-02 0.  1.
    10030    2    1    2    0    0  0.00000000000E+00  0.00000000000E+00  0.13371622980E+04  0.36897489046E+04  0.34389306431E+04 0.  0.
        3    1    3    3  502    0  0.78487257832E+03 -0.14706206989E+04  0.11210122338E+04  0.20088351458E+04  0.10100000352E+00 0.  1.
       -3    1    3    3    0  502 -0.78487257832E+03  0.14706206989E+04  0.21615006422E+03  0.16809137589E+04  0.10100000352E+00 0. -1.
</event>
<event>
 5   0  0.1070988E-07  0.3676381E+04  0.7818609E-02  0.8073216E-01
        1   -1    0    0  501    0  0.00000000000E+00  0.00000000000E+00  0.10525066103E+04  0.10525066104E+04  0.50400001928E-02 0.  1.
       -1   -1    0    0    0  501  0.00000000000E+00  0.00000000000E+00 -0.32103787729E+04  0.32103787729E+04  0.50400001928E-02 0. -1.
    10030    2    1    2    0    0  0.00000000000E+00  0.00000000000E+00 -0.21578721625E+04  0.42628853832E+04  0.36763813079E+04 0.  0.
        3    1    3    3  502    0  0.12795321451E+03 -0.18133991696E+04 -0.13946960883E+04  0.22912803762E+04  0.10100000352E+00 0. -1.
       -3    1    3    3    0  502 -0.12795321451E+03  0.18133991696E+04 -0.76317607424E+03  0.19716050071E+04  0.10100000352E+00 0.  1.
</event>
<event>
 5   0  0.1084315E-07  0.3804584E+04  0.7818609E-02  0.8045172E-01
       -1   -1    0    0    0  501  0.00000000000E+00  0.00000000000E+00  0.22027282739E+04  0.22027282739E+04  0.50400001928E-02 0. -1.
        1   -1    0    0  501    0  0.00000000000E+00  0.00000000000E+00 -0.16428334624E+04  0.16428334624E+04  0.50400001928E-02 0.  1.
    10030    2    1    2    0    0  0.00000000000E+00  0.00000000000E+00  0.55989481151E+03  0.38455617363E+04  0.38045844541E+04 0.  0.
        4    1    3    3  502    0  0.12488686108E+03  0.10001704349E+04 -0.13507410453E+04  0.16853606769E+04  0.12699999809E+01 0.  1.
       -4    1    3    3    0  502 -0.12488686108E+03 -0.10001704349E+04  0.19106358568E+04  0.21602010594E+04  0.12699999809E+01 0. -1.
</event>
<event>
 5   0  0.3327241E-07  0.3772790E+04  0.7818609E-02  0.8052019E-01
       -2   -1    0    0    0  501  0.00000000000E+00  0.00000000000E+00  0.13464867498E+04  0.13464867498E+04  0.25500000920E-02 0.  1.
        2   -1    0    0  501    0  0.00000000000E+00  0.00000000000E+00 -0.26427927048E+04  0.26427927048E+04  0.25500000920E-02 0. -1.
    10030    2    1    2    0    0  0.00000000000E+00  0.00000000000E+00 -0.12963059550E+04  0.39892794547E+04  0.37727896096E+04 0.  0.
        3    1    3    3  502    0 -0.92456950410E+03 -0.11308140237E+04 -0.19103482198E+04  0.24047867796E+04  0.10100000352E+00 0. -1.
       -3    1    3    3    0  502  0.92456950410E+03  0.11308140237E+04  0.61404226483E+03  0.15844926751E+04  0.10100000352E+00 0.  1.
</event>
<event>
 5   0  0.1070988E-07  0.3811632E+04  0.7818609E-02  0.8043663E-01
        1   -1    0    0  501    0  0.00000000000E+00  0.00000000000E+00  0.22460431112E+04  0.22460431112E+04  0.50400001928E-02 0.  1.
       -1   -1    0    0    0  501  0.00000000000E+00  0.00000000000E+00 -0.16171263415E+04  0.16171263416E+04  0.50400001928E-02 0. -1.
    10030    2    1    2    0    0  0.00000000000E+00  0.00000000000E+00  0.62891676966E+03  0.38631694528E+04  0.38116324479E+04 0.  0.
        2    1    3    3  502    0 -0.79387637654E+02  0.20750592373E+03 -0.16039562223E+04  0.16192704124E+04  0.25500000920E-02 0. -1.
       -2    1    3    3    0  502  0.79387637654E+02 -0.20750592373E+03  0.22328729919E+04  0.22438990404E+04  0.25500000920E-02 0.  1.
</event>
<event>
 5   0  0.3442126E-07  0.3705788E+04  0.7818609E-02  0.8066680E-01
        2   -1    0    0  501    0  0.00000000000E+00  0.00000000000E+00  0.17212880284E+04  0.17212880284E+04  0.25500000920E-02 0.  1.
       -2   -1    0    0    0  501  0.00000000000E+00  0.00000000000E+00 -0.19945620103E+04  0.19945620103E+04  0.25500000920E-02 0. -1.
    10030    2    1    2    0    0  0.00000000000E+00  0.00000000000E+00 -0.27327398188E+03  0.37158500387E+04  0.37057877490E+04 0.  0.
        2    1    3    3  502    0 -0.14512372145E+04 -0.11296698792E+04 -0.36302030761E+03  0.18745738802E+04  0.25500000920E-02 0. -1.
       -2    1    3    3    0  502  0.14512372145E+04  0.11296698792E+04  0.89746325726E+02  0.18412761584E+04  0.25500000920E-02 0.  1.
</event>
<event>
 5   0  0.3327241E-07  0.3805605E+04  0.7818609E-02  0.8044953E-01
        2   -1    0    0  501    0  0.00000000000E+00  0.00000000000E+00  0.17431973460E+04  0.17431973460E+04  0.25500000920E-02 0.  1.
       -2   -1    0    0    0  501  0.00000000000E+00  0.00000000000E+00 -0.20770213138E+04  0.20770213138E+04  0.25500000920E-02 0. -1.
    10030    2    1    2    0    0  0.00000000000E+00  0.00000000000E+00 -0.33382396773E+03  0.38202186598E+04  0.38056053615E+04 0.  0.
        3    1    3    3  502    0 -0.60391832452E+03  0.17860532819E+04 -0.42471395655E+03  0.19326369612E+04  0.10100000352E+00 0. -1.
       -3    1    3    3    0  502  0.60391832452E+03 -0.17860532819E+04  0.90889988823E+02  0.18875816986E+04  0.10100000352E+00 0.  1.
</event>
<event>
 5   0  0.1084315E-07  0.3697889E+04  0.7818609E-02  0.8068430E-01
       -1   -1    0    0    0  501  0.00000000000E+00  0.00000000000E+00  0.14217823516E+04  0.14217823516E+04  0.50400001928E-02 0. -1.
        1   -1    0    0  501    0  0.00000000000E+00  0.00000000000E+00 -0.24044440029E+04  0.24044440029E+04  0.50400001928E-02 0.  1.
    10030    2    1    2    0    0  0.00000000000E+00  0.00000000000E+00 -0.98266165131E+03  0.38262263545E+04  0.36978891539E+04 0.  0.
        4    1    3    3  502    0 -0.12377514375E+03  0.11347622165E+04  0.10136549867E+04  0.15265987093E+04  0.12699999809E+01 0. -1.
       -4    1    3    3    0  502  0.12377514375E+03 -0.11347622165E+04 -0.19963166380E+04  0.22996276452E+04  0.12699999809E+01 0.  1.
</event>
<event>
 5   0  0.1085771E-07  0.3864437E+04  0.7818609E-02  0.8032466E-01
        1   -1    0    0  501    0  0.00000000000E+00  0.00000000000E+00  0.14424354066E+04  0.14424354066E+04  0.50400001928E-02 0.  1.
       -1   -1    0    0    0  501  0.00000000000E+00  0.00000000000E+00 -0.25883091934E+04  0.25883091934E+04  0.50400001928E-02 0. -1.
    10030    2    1    2    0    0  0.00000000000E+00  0.00000000000E+00 -0.11458737868E+04  0.40307446001E+04  0.38644372547E+04 0.  0.
        1    1    3    3  502    0  0.15528708266E+04  0.71454725570E+03  0.36665399727E+03  0.17482622053E+04  0.50400001928E-02 0.  1.
       -1    1    3    3    0  502 -0.15528708266E+04 -0.71454725570E+03 -0.15125277841E+04  0.22824823948E+04  0.50400001928E-02 0. -1.
</event>
<event>
 5   0  0.3327241E-07  0.3772909E+04  0.7818609E-02  0.8051994E-01
        2   -1    0    0  501    0  0.00000000000E+00  0.00000000000E+00  0.10200522455E+04  0.10200522455E+04  0.25500000920E-02 0.  1.
       -2   -1    0    0    0  501  0.00000000000E+00  0.00000000000E+00 -0.34887539000E+04  0.34887539000E+04  0.25500000920E-02 0. -1.
    10030    2    1    2    0    0  0.00000000000E+00  0.00000000000E+00 -0.24687016546E+04  0.45088061455E+04  0.37729093546E+04 0.  0.
        3    1    3    3  502    0  0.20076501241E+03 -0.43893337176E+03 -0.34137133538E+04  0.34476670325E+04  0.10100000352E+00 0. -1.
       -3    1    3    3    0  502 -0.20076501241E+03  0.43893337176E+03  0.94501169926E+03  0.10611391129E+04  0.10100000352E+00 0.  1.
</event>
<event>
 5   0  0.3377396E-07  0.3815104E+04  0.7818609E-02  0.8042921E-01
       -2   -1    0    0    0  501  0.00000000000E+00  0.00000000000E+00  0.13623628159E+04  0.13623628159E+04  0.25500000920E-02 0.  1.
        2   -1    0    0  501    0  0.00000000000E+00  0.00000000000E+00 -0.26709138470E+04  0.26709138470E+04  0.25500000920E-02 0. -1.
    10030    2    1    2    0    0  0.00000000000E+00  0.00000000000E+00 -0.13085510311E+04  0.40332766629E+04  0.38151035161E+04 0.  0.
        5    1    3    3  502    0 -0.36400905271E+02  0.17576380357E+04  0.12841051417E+03  0.17627046946E+04  0.46999998093E+01 0.  1.
       -5    1    3    3    0  502  0.36400905271E+02 -0.17576380357E+04 -0.14369615453E+04  0.22705719683E+04  0.46999998093E+01 0. -1.
</event>
<event>
 5   0  0.1070988E-07  0.3582398E+04  0.7818609E-02  0.8094536E-01
        1   -1    0    0  501    0  0.00000000000E+00  0.00000000000E+00  0.25381176108E+04  0.25381176108E+04  0.50400001928E-02 0. -1.
       -1   -1    0    0    0  501  0.00000000000E+00  0.00000000000E+00 -0.12640839328E+04  0.12640839328E+04  0.50400001928E-02 0.  1.
    10030    2    1    2    0    0  0.00000000000E+00  0.00000000000E+00  0.12740336780E+04  0.38022015436E+04  0.35823979072E+04 0.  0.
        3    1    3    3  502    0 -0.32346335763E+03 -0.12813498509E+04 -0.64626275279E+03  0.14711021514E+04  0.10100000352E+00 0.  1.
       -3    1    3    3    0  502  0.32346335763E+03  0.12813498509E+04  0.19202964308E+04  0.23310993922E+04  0.10100000352E+00 0. -1.
</event>
<event>
 5   0  0.1084315E-07  0.3927448E+04  0.7818609E-02  0.8019345E-01
       -1   -1    0    0    0  501  0.00000000000E+00  0.00000000000E+00  0.29556543205E+04  0.29556543205E+04  0.50400001928E-02 0. -1.
        1   -1    0    0  501    0  0.00000000000E+00  0.00000000000E+00 -0.13046899329E+04  0.13046899329E+04  0.50400001928E-02 0.  1.
    10030    2    1    2    0    0  0.00000000000E+00  0.00000000000E+00  0.16509643876E+04  0.42603442535E+04  0.39274482490E+04 0.  0.
        4    1    3    3  502    0  0.11900525425E+04 -0.15597057795E+04  0.73277696022E+03  0.20942470864E+04  0.12699999809E+01 0. -1.
       -4    1    3    3    0  502 -0.11900525425E+04  0.15597057795E+04  0.91818742738E+03  0.21660971671E+04  0.12699999809E+01 0.  1.
</event>
<event>
 5   0  0.1070988E-07  0.3842153E+04  0.7818609E-02  0.8037169E-01
        1   -1    0    0  501    0  0.00000000000E+00  0.00000000000E+00  0.19003147307E+04  0.19003147307E+04  0.50400001928E-02 0.  1.
       -1   -1    0    0    0  501  0.00000000000E+00  0.00000000000E+00 -0.19420655712E+04  0.19420655712E+04  0.50400001928E-02 0. -1.
    10030    2    1    2    0    0  0.00000000000E+00  0.00000000000E+00 -0.41750840480E+02  0.38423803019E+04  0.38421534654E+04 0.  0.
        2    1    3    3  502    0  0.14540186895E+04  0.64739305600E+03  0.10549425680E+04  0.19095004426E+04  0.25500000920E-02 0.  1.
       -2    1    3    3    0  502 -0.14540186895E+04 -0.64739305600E+03 -0.10966934085E+04  0.19328798593E+04  0.25500000920E-02 0. -1.
</event>
<event>
 5   0  0.3509843E-07  0.3684604E+04  0.7818609E-02  0.8071382E-01
        2   -1    0    0  501    0  0.00000000000E+00  0.00000000000E+00  0.19927092016E+04  0.19927092016E+04  0.25500000920E-02 0. -1.
       -2   -1    0    0    0  501  0.00000000000E+00  0.00000000000E+00 -0.17032473590E+04  0.17032473590E+04  0.25500000920E-02 0.  1.
    10030    2    1    2    0    0  0.00000000000E+00  0.00000000000E+00  0.28946184259E+03  0.36959565607E+04  0.36846040140E+04 0.  0.
        4    1    3    3  502    0  0.55972884803E+03 -0.82066396174E+03  0.17010555302E+04  0.19698673181E+04  0.12699999809E+01 0. -1.
       -4    1    3    3    0  502 -0.55972884803E+03  0.82066396174E+03 -0.14115936876E+04  0.17260892425E+04  0.12699999809E+01 0.  1.
</event>
<event>
 5   0  0.1070988E-07  0.3758191E+04  0.7818609E-02  0.8055187E-01
       -1   -1    0    0    0  501  0.00000000000E+00  0.00000000000E+00  0.18489945935E+04  0.18489945935E+04  0.50400001928E-02 0. -1.
        1   -1    0    0  501    0  0.00000000000E+00  0.00000000000E+00 -0.19096869260E+04  0.19096869260E+04  0.50400001928E-02 0.  1.
    10030    2    1    2    0    0  0.00000000000E+00  0.00000000000E+00 -0.60692332505E+02  0.37586815195E+04  0.37581914807E+04 0.  0.
        5    1    3    3  502    0 -0.10672565225E+04  0.73629941999E+03 -0.13905990187E+04  0.19013050890E+04  0.46999998093E+01 0.  1.
       -5    1    3    3    0  502  0.10672565225E+04 -0.73629941999E+03  0.13299066862E+04  0.18573764305E+04  0.46999998093E+01 0. -1.
</event>
<event>
 5   0  0.3377396E-07  0.3777986E+04  0.7818609E-02  0.8050896E-01
        2   -1    0    0  501    0  0.00000000000E+00  0.00000000000E+00  0.16316377495E+04  0.16316377495E+04  0.25500000920E-02 0. -1.
       -2   -1    0    0    0  501  0.00000000000E+00  0.00000000000E+00 -0.21869405251E+04  0.21869405251E+04  0.25500000920E-02 0.  1.
    10030    2    1    2    0    0  0.00000000000E+00  0.00000000000E+00 -0.55530277557E+03  0.38185782747E+04  0.37779860861E+04 0.  0.
        5    1    3    3  502    0  0.82874595382E+03 -0.99662632805E+03  0.11112264378E+04  0.17073166607E+04  0.46999998093E+01 0. -1.
       -5    1    3    3    0  502 -0.82874595382E+03  0.99662632805E+03 -0.16665292134E+04  0.21112616140E+04  0.46999998093E+01 0.  1.
</event>
<event>
 5   0  0.1070988E-07  0.3082258E+04  0.7818609E-02  0.8220624E-01
       -1   -1    0    0    0  501  0.00000000000E+00  0.00000000000E+00  0.95355501228E+03  0.95355501229E+03  0.50400001928E-02 0.  1.
        1   -1    0    0  501    0  0.00000000000E+00  0.00000000000E+00 -0.24907623196E+04  0.24907623196E+04  0.50400001928E-02 0. -1.
    10030    2    1    2    0    0  0.00000000000E+00  0.00000000000E+00 -0.15372073073E+04  0.34443173319E+04  0.30822581944E+04 0.  0.
        2    1    3    3  502    0 -0.49404810444E+03 -0.10779269267E+04  0.33144392764E+03  0.12312047214E+04  0.25500000920E-02 0.  1.
       -2    1    3    3    0  502  0.49404810444E+03  0.10779269267E+04 -0.18686512349E+04  0.22131126105E+04  0.25500000920E-02 0. -1.
</event>
<event>
 5   0  0.3539010E-07  0.3825987E+04  0.7818609E-02  0.8040601E-01
       -2   -1    0    0    0  501  0.00000000000E+00  0.00000000000E+00  0.31141934831E+04  0.31141934831E+04  0.25500000920E-02 0.  1.
        2   -1    0    0  501    0  0.00000000000E+00  0.00000000000E+00 -0.11751175403E+04  0.11751175403E+04  0.25500000920E-02 0. -1.
    10030    2    1    2    0    0  0.00000000000E+00  0.00000000000E+00  0.19390759428E+04  0.42893110233E+04  0.38259866104E+04 0.  0.
        1    1    3    3  502    0  0.63710113788E+03  0.54666456885E+03 -0.95758037521E+03  0.12734599270E+04  0.50400001928E-02 0. -1.
       -1    1    3    3    0  502 -0.63710113788E+03 -0.54666456885E+03  0.28966563180E+04  0.30158510963E+04  0.50400001928E-02 0.  1.
</event>
<event>
 5   0  0.1070988E-07  0.3774991E+04  0.7818609E-02  0.8051543E-01
       -1   -1    0    0    0  501  0.00000000000E+00  0.00000000000E+00  0.18116590400E+04  0.18116590400E+04  0.50400001928E-02 0.  1.
        1   -1    0    0  501    0  0.00000000000E+00  0.00000000000E+00 -0.19665063582E+04  0.19665063582E+04  0.50400001928E-02 0. -1.
    10030    2    1    2    0    0  0.00000000000E+00  0.00000000000E+00 -0.15484731812E+03  0.37781653982E+04  0.37749908721E+04 0.  0.
        5    1    3    3  502    0 -0.38159077672E+02  0.10444100590E+04  0.14956386524E+04  0.18246110695E+04  0.46999998093E+01 0.  1.
       -5    1    3    3    0  502  0.38159077672E+02 -0.10444100590E+04 -0.16504859705E+04  0.19535543287E+04  0.46999998093E+01 0. -1.
</event>
<event>
 5   0  0.1070988E-07  0.3778553E+04  0.7818609E-02  0.8050773E-01
       -1   -1    0    0    0  501  0.00000000000E+00  0.00000000000E+00  0.14016379449E+04  0.14016379449E+04  0.50400001928E-02 0. -1.
        1   -1    0    0  501    0  0.00000000000E+00  0.00000000000E+00 -0.25465670893E+04  0.25465670893E+04  0.50400001928E-02 0.  1.
    10030    2    1    2    0    0  0.00000000000E+00  0.00000000000E+00 -0.11449291444E+04  0.39482050342E+04  0.37785526656E+04 0.  0.
        2    1    3    3  502    0  0.10571220818E+04  0.64916411731E+03 -0.20613789270E+04  0.24058687054E+04  0.25500000920E-02 0.  1.
       -2    1    3    3    0  502 -0.10571220818E+04 -0.64916411731E+03  0.91644978259E+03  0.15423363288E+04  0.25500000920E-02 0. -1.
</event>
<event>
 5   0  0.3442126E-07  0.3771606E+04  0.7818609E-02  0.8052276E-01
       -2   -1    0    0    0  501  0.00000000000E+00  0.00000000000E+00  0.18402307694E+04  0.18402307694E+04  0.25500000920E-02 0.  1.
        2   -1    0    0  501    0  0.00000000000E+00  0.00000000000E+00 -0.19325037889E+04  0.19325037889E+04  0.25500000920E-02 0. -1.
    10030    2    1    2    0    0  0.00000000000E+00  0.00000000000E+00 -0.92273019482E+02  0.37727345582E+04  0.37716059891E+04 0.  0.
        2    1    3    3  502    0  0.16257621276E+04 -0.89530886703E+03  0.28798809656E+03  0.18781953058E+04  0.25500000920E-02 0.  1.
       -2    1    3    3    0  502 -0.16257621276E+04  0.89530886703E+03 -0.38026111604E+03  0.18945392525E+04  0.25500000920E-02 0. -1.
</event>
<event>
 5   0  0.3442126E-07  0.3909850E+04  0.7818609E-02  0.8022984E-01
       -2   -1    0    0    0  501  0.00000000000E+00  0.00000000000E+00  0.20845022943E+04  0.20845022943E+04  0.25500000920E-02 0.  1.
        2   -1    0    0  501    0  0.00000000000E+00  0.00000000000E+00 -0.18334029533E+04  0.18334029533E+04  0.25500000920E-02 0. -1.
    10030    2    1    2    0    0  0.00000000000E+00  0.00000000000E+00  0.25109934096E+03  0.39179052476E+04  0.39098504639E+04 0.  0.
        2    1    3    3  502    0  0.65629313389E+03  0.18332893767E+04 -0.48191622623E+02  0.19478175091E+04  0.25500000920E-02 0. -1.
       -2    1    3    3    0  502 -0.65629313389E+03 -0.18332893767E+04  0.29929096358E+03  0.19700877385E+04  0.25500000920E-02 0.  1.
</event>
<event>
 5   0  0.3509843E-07  0.3834637E+04  0.7818609E-02  0.8038763E-01
       -2   -1    0    0    0  501  0.00000000000E+00  0.00000000000E+00  0.26026467871E+04  0.26026467871E+04  0.25500000920E-02 0. -1.
        2   -1    0    0  501    0  0.00000000000E+00  0.00000000000E+00 -0.14124503223E+04  0.14124503223E+04  0.25500000920E-02 0.  1.
    10030    2    1    2    0    0  0.00000000000E+00  0.00000000000E+00  0.11901964648E+04  0.40150971094E+04  0.38346365112E+04 0.  0.
        4    1    3    3  502    0 -0.11795738711E+04 -0.44381814032E+03 -0.91780068898E+03  0.15590794645E+04  0.12699999809E+01 0.  1.
       -4    1    3    3    0  502  0.11795738711E+04  0.44381814032E+03  0.21079971538E+04  0.24560176450E+04  0.12699999809E+01 0. -1.
</event>
<event>
 5   0  0.3442126E-07  0.3686265E+04  0.7818609E-02  0.8071013E-01
       -2   -1    0    0    0  501  0.00000000000E+00  0.00000000000E+00  0.22325251697E+04  0.22325251697E+04  0.25500000920E-02 0. -1.
        2   -1    0    0  501    0  0.00000000000E+00  0.00000000000E+00 -0.15216568574E+04  0.15216568575E+04  0.25500000920E-02 0.  1.
    10030    2    1    2    0    0  0.00000000000E+00  0.00000000000E+00  0.71086831224E+03  0.37541820271E+04  0.36862649031E+04 0.  0.
        2    1    3    3  502    0 -0.15343819740E+04  0.23106954723E+03  0.13684547206E+04  0.20689102205E+04  0.25500000920E-02 0. -1.
       -2    1    3    3    0  502  0.15343819740E+04 -0.23106954723E+03 -0.65758640839E+03  0.16852718067E+04  0.25500000920E-02 0.  1.
</event>
<event>
 5   0  0.3442126E-07  0.3737060E+04  0.7818609E-02  0.8059798E-01
       -2   -1    0    0    0  501  0.00000000000E+00  0.00000000000E+00  0.17795512879E+04  0.17795512879E+04  0.25500000920E-02 0. -1.
        2   -1    0    0  501    0  0.00000000000E+00  0.00000000000E+00 -0.19619575650E+04  0.19619575650E+04  0.25500000920E-02 0.  1.
    10030    2    1    2    0    0  0.00000000000E+00  0.00000000000E+00 -0.18240627710E+03  0.37415088529E+04  0.37370598666E+04 0.  0.
        2    1    3    3  502    0 -0.73379220292E+01  0.73926529480E+03 -0.18092988714E+04  0.19545151387E+04  0.25500000920E-02 0.  1.
       -2    1    3    3    0  502  0.73379220292E+01 -0.73926529480E+03  0.16268925943E+04  0.17869937142E+04  0.25500000920E-02 0. -1.
</event>
<event>
 5   0  0.3327241E-07  0.3195664E+04  0.7818609E-02  0.8189963E-01
        2   -1    0    0  501    0  0.00000000000E+00  0.00000000000E+00  0.25386525062E+04  0.25386525062E+04  0.25500000920E-02 0. -1.
       -2   -1    0    0    0  501  0.00000000000E+00  0.00000000000E+00 -0.10056781566E+04  0.10056781566E+04  0.25500000920E-02 0.  1.
    10030    2    1    2    0    0  0.00000000000E+00  0.00000000000E+00  0.15329743496E+04  0.35443306628E+04  0.31956641706E+04 0.  0.
        3    1    3    3  502    0  0.14485928082E+04 -0.64821245332E+03  0.97239550708E+03  0.18612236676E+04  0.10100000352E+00 0. -1.
       -3    1    3    3    0  502 -0.14485928082E+04  0.64821245332E+03  0.56057884248E+03  0.16831069952E+04  0.10100000352E+00 0.  1.
</event>
<event>
 5   0  0.1084315E-07  0.3786508E+04  0.7818609E-02  0.8049056E-01
       -1   -1    0    0    0  501  0.00000000000E+00  0.00000000000E+00  0.17992943000E+04  0.17992943000E+04  0.50400001928E-02 0. -1.
        1   -1    0    0  501    0  0.00000000000E+00  0.00000000000E+00 -0.19921201297E+04  0.19921201297E+04  0.50400001928E-02 0.  1.
    10030    2    1    2    0    0  0.00000000000E+00  0.00000000000E+00 -0.19282582964E+03  0.37914144297E+04  0.37865078340E+04 0.  0.
        4    1    3    3  502    0  0.52769920876E+03 -0.13827082002E+04  0.10858203853E+04  0.18355805468E+04  0.12699999809E+01 0. -1.
       -4    1    3    3    0  502 -0.52769920876E+03  0.13827082002E+04 -0.12786462149E+04  0.19558338829E+04  0.12699999809E+01 0.  1.
</event>
<event>
 5   0  0.1085771E-07  0.3636414E+04  0.7818609E-02  0.8082201E-01
        1   -1    0    0  501    0  0.00000000000E+00  0.00000000000E+00  0.19712918792E+04  0.19712918792E+04  0.50400001928E-02 0.  1.
       -1   -1    0    0    0  501  0.00000000000E+00  0.00000000000E+00 -0.16770099724E+04  0.16770099724E+04  0.50400001928E-02 0. -1.
    10030    2    1    2    0    0  0.00000000000E+00  0.00000000000E+00  0.29428190687E+03  0.36483018516E+04  0.36364136948E+04 0.  0.
        1    1    3    3  502    0 -0.23630484541E+02  0.18086207680E+04  0.33270143739E+03  0.18391187369E+04  0.50400001928E-02 0.  1.
       -1    1    3    3    0  502  0.23630484541E+02 -0.18086207680E+04 -0.38419530526E+02  0.18091831147E+04  0.50400001928E-02 0. -1.
</event>
<event>
 5   0  0.1070988E-07  0.3790050E+04  0.7818609E-02  0.8048294E-01
        1   -1    0    0  501    0  0.00000000000E+00  0.00000000000E+00  0.19410147885E+04  0.19410147885E+04  0.50400001928E-02 0. -1.
       -1   -1    0    0    0  501  0.00000000000E+00  0.00000000000E+00 -0.18501247737E+04  0.18501247737E+04  0.50400001928E-02 0.  1.
    10030    2    1    2    0    0  0.00000000000E+00  0.00000000000E+00  0.90890014788E+02  0.37911395622E+04  0.37900498922E+04 0.  0.
        3    1    3    3  502    0  0.13550895641E+04 -0.89533179874E+03 -0.93117210427E+03  0.18721560444E+04  0.10100000352E+00 0.  1.
       -3    1    3    3    0  502 -0.13550895641E+04  0.89533179874E+03  0.10220621191E+04  0.19189835179E+04  0.10100000352E+00 0. -1.
</event>
<event>
 5   0  0.1070988E-07  0.3846581E+04  0.7818609E-02  0.8036232E-01
        1   -1    0    0  501    0  0.00000000000E+00  0.00000000000E+00  0.17439072706E+04  0.17439072706E+04  0.50400001928E-02 0. -1.
       -1   -1    0    0    0  501  0.00000000000E+00  0.00000000000E+00 -0.21211254539E+04  0.21211254540E+04  0.50400001928E-02 0.  1.
    10030    2    1    2    0    0  0.00000000000E+00  0.00000000000E+00 -0.37721818331E+03  0.38650327246E+04  0.38465808719E+04 0.  0.
        2    1    3    3  502    0 -0.74657824858E+03  0.15556164210E+04  0.66500986894E+03  0.18492051418E+04  0.25500000920E-02 0. -1.
       -2    1    3    3    0  502  0.74657824858E+03 -0.15556164210E+04 -0.10422280522E+04  0.20158275828E+04  0.25500000920E-02 0.  1.
</event>
<event>
 5   0  0.1070988E-07  0.3922563E+04  0.7818609E-02  0.8020353E-01
       -1   -1    0    0    0  501  0.00000000000E+00  0.00000000000E+00  0.19417285231E+04  0.19417285231E+04  0.50400001928E-02 0. -1.
        1   -1    0    0  501    0  0.00000000000E+00  0.00000000000E+00 -0.19810315799E+04  0.19810315799E+04  0.50400001928E-02 0.  1.
    10030    2    1    2    0    0  0.00000000000E+00  0.00000000000E+00 -0.39303056766E+02  0.39227601029E+04  0.39225632047E+04 0.  0.
        3    1    3    3  502    0  0.26715158728E+03  0.15434704831E+04 -0.11999456682E+04  0.19732056963E+04  0.10100000352E+00 0.  1.
       -3    1    3    3    0  502 -0.26715158728E+03 -0.15434704831E+04  0.11606426115E+04  0.19495544067E+04  0.10100000352E+00 0. -1.
</event>
<event>
 5   0  0.3509843E-07  0.3924530E+04  0.7818609E-02  0.8019947E-01
       -2   -1    0    0    0  501  0.00000000000E+00  0.00000000000E+00  0.24453186353E+04  0.24453186353E+04  0.25500000920E-02 0.  1.
        2   -1    0    0  501    0  0.00000000000E+00  0.00000000000E+00 -0.15746352290E+04  0.15746352290E+04  0.25500000920E-02 0. -1.
    10030    2    1    2    0    0  0.00000000000E+00  0.00000000000E+00  0.87068340630E+03  0.40199538643E+04  0.39245304785E+04 0.  0.
        4    1    3    3  502    0  0.86747857467E+03 -0.21385704209E+03  0.22248839039E+04  0.23975745891E+04  0.12699999809E+01 0.  1.
       -4    1    3    3    0  502 -0.86747857467E+03  0.21385704209E+03 -0.13542004975E+04  0.16223792751E+04  0.12699999809E+01 0. -1.
</event>
<event>
 5   0  0.3509843E-07  0.3702742E+04  0.7818609E-02  0.8067354E-01
        2   -1    0    0  501    0  0.00000000000E+00  0.00000000000E+00  0.20317055275E+04  0.20317055275E+04  0.25500000920E-02 0.  1.
       -2   -1    0    0    0  501  0.00000000000E+00  0.00000000000E+00 -0.16870430245E+04  0.16870430245E+04  0.25500000920E-02 0. -1.
    10030    2    1    2    0    0  0.00000000000E+00  0.00000000000E+00  0.34466250303E+03  0.37187485520E+04  0.37027420315E+04 0.  0.
        4    1    3    3  502    0  0.83963997003E+03 -0.76336299985E+03 -0.12968165787E+04  0.17232101440E+04  0.12699999809E+01 0. -1.
       -4    1    3    3    0  502 -0.83963997003E+03  0.76336299985E+03  0.16414790817E+04  0.19955384079E+04  0.12699999809E+01 0.  1.
</event>
<event>
 5   0  0.3442126E-07  0.4045643E+04  0.7818609E-02  0.7995402E-01
       -2   -1    0    0    0  501  0.00000000000E+00  0.00000000000E+00  0.25258633927E+04  0.25258633927E+04  0.25500000920E-02 0.  1.
        2   -1    0    0  501    0  0.00000000000E+00  0.00000000000E+00 -0.16199636976E+04  0.16199636976E+04  0.25500000920E-02 0. -1.
    10030    2    1    2    0    0  0.00000000000E+00  0.00000000000E+00  0.90589969512E+03  0.41458270903E+04  0.40456430892E+04 0.  0.
        2    1    3    3  502    0  0.17550921879E+04  0.92061702695E+02 -0.57334090804E+03  0.18486599855E+04  0.25500000920E-02 0. -1.
       -2    1    3    3    0  502 -0.17550921879E+04 -0.92061702695E+02  0.14792406032E+04  0.22971671048E+04  0.25500000920E-02 0.  1.
</event>
<event>
 5   0  0.1085771E-07  0.3687874E+04  0.7818609E-02  0.8070654E-01
       -1   -1    0    0    0  501  0.00000000000E+00  0.00000000000E+00  0.20744544963E+04  0.20744544963E+04  0.50400001928E-02 0.  1.
        1   -1    0    0  501    0  0.00000000000E+00  0.00000000000E+00 -0.16390351642E+04  0.16390351642E+04  0.50400001928E-02 0. -1.
    10030    2    1    2    0    0  0.00000000000E+00  0.00000000000E+00  0.43541933205E+03  0.37134896605E+04  0.36878741117E+04 0.  0.
        1    1    3    3  502    0 -0.10411079054E+04  0.89803960747E+03  0.14549520112E+04  0.20018157163E+04  0.50400001928E-02 0.  1.
       -1    1    3    3    0  502  0.10411079054E+04 -0.89803960747E+03 -0.10195326791E+04  0.17116739442E+04  0.50400001928E-02 0. -1.
</event>
<event>
 5   0  0.1070988E-07  0.3780788E+04  0.7818609E-02  0.8050290E-01
        1   -1    0    0  501    0  0.00000000000E+00  0.00000000000E+00  0.25915374873E+04  0.25915374873E+04  0.50400001928E-02 0.  1.
       -1   -1    0    0    0  501  0.00000000000E+00  0.00000000000E+00 -0.13789459686E+04  0.13789459686E+04  0.50400001928E-02 0. -1.
    10030    2    1    2    0    0  0.00000000000E+00  0.00000000000E+00  0.12125915187E+04  0.39704834559E+04  0.37807883678E+04 0.  0.
        3    1    3    3  502    0 -0.14530861349E+04 -0.23067421632E+03 -0.64023852677E+03  0.16045483137E+04  0.10100000352E+00 0. -1.
       -3    1    3    3    0  502  0.14530861349E+04  0.23067421632E+03  0.18528300455E+04  0.23659351422E+04  0.10100000352E+00 0.  1.
</event>
<event>
 5   0  0.1084315E-07  0.3806297E+04  0.7818609E-02  0.8044805E-01
       -1   -1    0    0    0  501  0.00000000000E+00  0.00000000000E+00  0.19128584378E+04  0.19128584378E+04  0.50400001928E-02 0.  1.
        1   -1    0    0  501    0  0.00000000000E+00  0.00000000000E+00 -0.18934883012E+04  0.18934883012E+04  0.50400001928E-02 0. -1.
    10030    2    1    2    0    0  0.00000000000E+00  0.00000000000E+00  0.19370136624E+02  0.38063467391E+04  0.38062974523E+04 0.  0.
        4    1    3    3  502    0 -0.31381974543E+03  0.17565765233E+04 -0.65208595509E+03  0.18998056797E+04  0.12699999809E+01 0. -1.
       -4    1    3    3    0  502  0.31381974543E+03 -0.17565765233E+04  0.67145609172E+03  0.19065410593E+04  0.12699999809E+01 0.  1.
</event>
<event>
 5   0  0.1084315E-07  0.3890160E+04  0.7818609E-02  0.8027079E-01
        1   -1    0    0  501    0  0.00000000000E+00  0.00000000000E+00  0.23161929080E+04  0.23161929080E+04  0.50400001928E-02 0.  1.
       -1   -1    0    0    0  501  0.00000000000E+00  0.00000000000E+00 -0.16334288224E+04  0.16334288224E+04  0.50400001928E-02 0. -1.
    10030    2    1    2    0    0  0.00000000000E+00  0.00000000000E+00  0.68276408563E+03  0.39496217304E+04  0.38901600246E+04 0.  0.
        4    1    3    3  502    0  0.12791301085E+04  0.71558800611E+03 -0.95687139326E+03  0.17503841022E+04  0.12699999809E+01 0. -1.
       -4    1    3    3    0  502 -0.12791301085E+04 -0.71558800611E+03  0.16396354789E+04  0.21992376282E+04  0.12699999809E+01 0.  1.
</event>
<event>
 5   0  0.3327241E-07  0.3735949E+04  0.7818609E-02  0.8060042E-01
       -2   -1    0    0    0  501  0.00000000000E+00  0.00000000000E+00  0.28065315959E+04  0.28065315959E+04  0.25500000920E-02 0.  1.
        2   -1    0    0  501    0  0.00000000000E+00  0.00000000000E+00 -0.12432884931E+04  0.12432884931E+04  0.25500000920E-02 0. -1.
    10030    2    1    2    0    0  0.00000000000E+00  0.00000000000E+00  0.15632431028E+04  0.40498200889E+04  0.37359488426E+04 0.  0.
        3    1    3    3  502    0 -0.95880038281E+03 -0.70939968857E+02 -0.95449271562E+03  0.13547645580E+04  0.10100000352E+00 0. -1.
       -3    1    3    3    0  502  0.95880038281E+03  0.70939968857E+02  0.25177358184E+04  0.26950555309E+04  0.10100000352E+00 0.  1.
</event>
<event>
 5   0  0.3442126E-07  0.3806709E+04  0.7818609E-02  0.8044717E-01
       -2   -1    0    0    0  501  0.00000000000E+00  0.00000000000E+00  0.17314739139E+04  0.17314739139E+04  0.25500000920E-02 0.  1.
        2   -1    0    0  501    0  0.00000000000E+00  0.00000000000E+00 -0.20922976830E+04  0.20922976830E+04  0.25500000920E-02 0. -1.
    10030    2    1    2    0    0  0.00000000000E+00  0.00000000000E+00 -0.36082376904E+03  0.38237715969E+04  0.38067092656E+04 0.  0.
        2    1    3    3  502    0  0.11772988187E+04 -0.11919910372E+04 -0.10877232823E+04  0.19975027109E+04  0.25500000920E-02 0. -1.
       -2    1    3    3    0  502 -0.11772988187E+04  0.11919910372E+04  0.72689951322E+03  0.18262688860E+04  0.25500000920E-02 0.  1.
</event>
<event>
 5   0  0.3327241E-07  0.3760668E+04  0.7818609E-02  0.8054648E-01
       -2   -1    0    0    0  501  0.00000000000E+00  0.00000000000E+00  0.26131819359E+04  0.26131819359E+04  0.25500000920E-02 0.  1.
        2   -1    0    0  501    0  0.00000000000E+00  0.00000000000E+00 -0.13530081073E+04  0.13530081073E+04  0.25500000920E-02 0. -1.
    10030    2    1    2    0    0  0.00000000000E+00  0.00000000000E+00  0.12601738286E+04  0.39661900432E+04  0.37606682093E+04 0.  0.
        3    1    3    3  502    0 -0.12421548496E+04  0.49446939595E+03  0.20245435495E+04  0.24261544156E+04  0.10100000352E+00 0.  1.
       -3    1    3    3    0  502  0.12421548496E+04 -0.49446939595E+03 -0.76436972094E+03  0.15400356277E+04  0.10100000352E+00 0. -1.
</event>
<event>
 5   0  0.3377396E-07  0.3791682E+04  0.7818609E-02  0.8047942E-01
        2   -1    0    0  501    0  0.00000000000E+00  0.00000000000E+00  0.23520066549E+04  0.23520066549E+04  0.25500000920E-02 0.  1.
       -2   -1    0    0    0  501  0.00000000000E+00  0.00000000000E+00 -0.15281475587E+04  0.15281475587E+04  0.25500000920E-02 0. -1.
    10030    2    1    2    0    0  0.00000000000E+00  0.00000000000E+00  0.82385909619E+03  0.38801542136E+04  0.37916820688E+04 0.  0.
        5    1    3    3  502    0 -0.15767501046E+04  0.56675636210E+03  0.13196656096E+04  0.21328134183E+04  0.46999998093E+01 0.  1.
       -5    1    3    3    0  502  0.15767501046E+04 -0.56675636210E+03 -0.49580651340E+03  0.17473407953E+04  0.46999998093E+01 0. -1.
</event>
<event>
 5   0  0.1070988E-07  0.3792439E+04  0.7818609E-02  0.8047779E-01
       -1   -1    0    0    0  501  0.00000000000E+00  0.00000000000E+00  0.17093229945E+04  0.17093229945E+04  0.50400001928E-02 0. -1.
        1   -1    0    0  501    0  0.00000000000E+00  0.00000000000E+00 -0.21035507837E+04  0.21035507837E+04  0.50400001928E-02 0.  1.
    10030    2    1    2    0    0  0.00000000000E+00  0.00000000000E+00 -0.39422778921E+03  0.38128737782E+04  0.37924386479E+04 0.  0.
        5    1    3    3  502    0  0.12883018058E+04 -0.70451144948E+03  0.10091710654E+04  0.17817144145E+04  0.46999998093E+01 0. -1.
       -5    1    3    3    0  502 -0.12883018058E+04  0.70451144948E+03 -0.14033988547E+04  0.20311593637E+04  0.46999998093E+01 0.  1.
</event>
<event>
 5   0  0.1070988E-07  0.3846723E+04  0.7818609E-02  0.8036202E-01
        1   -1    0    0  501    0  0.00000000000E+00  0.00000000000E+00  0.13425994185E+04  0.13425994185E+04  0.50400001928E-02 0. -1.
       -1   -1    0    0    0  501  0.00000000000E+00  0.00000000000E+00 -0.27553406406E+04  0.27553406406E+04  0.50400001928E-02 0.  1.
    10030    2    1    2    0    0  0.00000000000E+00  0.00000000000E+00 -0.14127412220E+04  0.40979400591E+04  0.38467226268E+04 0.  0.
        2    1    3    3  502    0  0.22402634761E+03  0.15391975601E+04  0.49888738448E+03  0.16334642806E+04  0.25500000920E-02 0. -1.
       -2    1    3    3    0  502 -0.22402634761E+03 -0.15391975601E+04 -0.19116286065E+04  0.24644757785E+04  0.25500000920E-02 0.  1.
</event>
<event>
 5   0  0.1070988E-07  0.3233746E+04  0.7818609E-02  0.8179961E-01
       -1   -1    0    0    0  501  0.00000000000E+00  0.00000000000E+00  0.12738323727E+04  0.12738323727E+04  0.50400001928E-02 0.  1.
        1   -1    0    0  501    0  0.00000000000E+00  0.00000000000E+00 -0.20522935819E+04  0.20522935819E+04  0.50400001928E-02 0. -1.
    10030    2    1    2    0    0  0.00000000000E+00  0.00000000000E+00 -0.77846120923E+03  0.33261259546E+04  0.32337458174E+04 0.  0.
        5    1    3    3  502    0  0.59948474816E+03  0.67676505254E+03  0.98953453985E+03  0.13403706932E+04  0.46999998093E+01 0.  1.
       -5    1    3    3    0  502 -0.59948474816E+03 -0.67676505254E+03 -0.17679957491E+04  0.19857552614E+04  0.46999998093E+01 0. -1.
</event>
<event>
 5   0  0.3442126E-07  0.3813024E+04  0.7818609E-02  0.8043366E-01
       -2   -1    0    0    0  501  0.00000000000E+00  0.00000000000E+00  0.14049353849E+04  0.14049353849E+04  0.25500000920E-02 0. -1.
        2   -1    0    0  501    0  0.00000000000E+00  0.00000000000E+00 -0.25871560661E+04  0.25871560661E+04  0.25500000920E-02 0.  1.
    10030    2    1    2    0    0  0.00000000000E+00  0.00000000000E+00 -0.11822206812E+04  0.39920914510E+04  0.38130235266E+04 0.  0.
        2    1    3    3  502    0 -0.16099898399E+04  0.60461070190E+03  0.27043567541E+03  0.17409069016E+04  0.25500000920E-02 0. -1.
       -2    1    3    3    0  502  0.16099898399E+04 -0.60461070190E+03 -0.14526563566E+04  0.22511845494E+04  0.25500000920E-02 0.  1.
</event>
<event>
 5   0  0.3539010E-07  0.3823861E+04  0.7818609E-02  0.8041054E-01
       -2   -1    0    0    0  501  0.00000000000E+00  0.00000000000E+00  0.29183626114E+04  0.29183626114E+04  0.25500000920E-02 0.  1.
        2   -1    0    0  501    0  0.00000000000E+00  0.00000000000E+00 -0.12525787346E+04  0.12525787346E+04  0.25500000920E-02 0. -1.
    10030    2    1    2    0    0  0.00000000000E+00  0.00000000000E+00  0.16657838768E+04  0.41709413460E+04  0.38238613714E+04 0.  0.
        1    1    3    3  502    0 -0.14218316731E+04 -0.11773639907E+04  0.29003656557E+03  0.18686659634E+04  0.50400001928E-02 0. -1.
       -1    1    3    3    0  502  0.14218316731E+04  0.11773639907E+04  0.13757473112E+04  0.23022753826E+04  0.50400001928E-02 0.  1.
</event>
<event>
 5   0  0.3539010E-07  0.3789824E+04  0.7818609E-02  0.8048342E-01
        2   -1    0    0  501    0  0.00000000000E+00  0.00000000000E+00  0.20662680155E+04  0.20662680155E+04  0.25500000920E-02 0. -1.
       -2   -1    0    0    0  501  0.00000000000E+00  0.00000000000E+00 -0.17377662841E+04  0.17377662841E+04  0.25500000920E-02 0.  1.
    10030    2    1    2    0    0  0.00000000000E+00  0.00000000000E+00  0.32850173141E+03  0.38040342996E+04  0.37898236852E+04 0.  0.
        1    1    3    3  502    0 -0.16960656425E+04  0.76944485519E+03  0.51485538706E+03  0.19322940041E+04  0.50400001928E-02 0. -1.
       -1    1    3    3    0  502  0.16960656425E+04 -0.76944485519E+03 -0.18635365565E+03  0.18717402955E+04  0.50400001928E-02 0.  1.
</event>
<event>
 5   0  0.3327241E-07  0.3795584E+04  0.7818609E-02  0.8047103E-01
        2   -1    0    0  501    0  0.00000000000E+00  0.00000000000E+00  0.25893723826E+04  0.25893723826E+04  0.25500000920E-02 0.  1.
       -2   -1    0    0    0  501  0.00000000000E+00  0.00000000000E+00 -0.13909221218E+04  0.13909221218E+04  0.25500000920E-02 0. -1.
    10030    2    1    2    0    0  0.00000000000E+00  0.00000000000E+00  0.11984502608E+04  0.39802945044E+04  0.37955844496E+04 0.  0.
        3    1    3    3  502    0 -0.16253502466E+04 -0.56768959106E+03 -0.23811910509E+03  0.17380263560E+04  0.10100000352E+00 0. -1.
       -3    1    3    3    0  502  0.16253502466E+04  0.56768959106E+03  0.14365693659E+04  0.22422681484E+04  0.10100000352E+00 0.  1.
</event>
<event>
 5   0  0.1084315E-07  0.3805996E+04  0.7818609E-02  0.8044869E-01
        1   -1    0    0  501    0  0.00000000000E+00  0.00000000000E+00  0.16905512927E+04  0.16905512927E+04  0.50400001928E-02 0. -1.
       -1   -1    0    0    0  501  0.00000000000E+00  0.00000000000E+00 -0.21421425133E+04  0.21421425133E+04  0.50400001928E-02 0.  1.
    10030    2    1    2    0    0  0.00000000000E+00  0.00000000000E+00 -0.45159122061E+03  0.38326938061E+04  0.38059962140E+04 0.  0.
        4    1    3    3  502    0  0.17594301511E+04 -0.68748988881E+01 -0.95597388715E+03  0.20023809345E+04  0.12699999809E+01 0.  1.
       -4    1    3    3    0  502 -0.17594301511E+04  0.68748988881E+01  0.50438266654E+03  0.18303128716E+04  0.12699999809E+01 0. -1.
</event>
<event>
 5   0  0.3327241E-07  0.3944145E+04  0.7818609E-02  0.8015910E-01
        2   -1    0    0  501    0  0.00000000000E+00  0.00000000000E+00  0.12806981540E+04  0.12806981540E+04  0.25500000920E-02 0.  1.
       -2   -1    0    0    0  501  0.00000000000E+00  0.00000000000E+00 -0.30366796841E+04  0.30366796841E+04  0.25500000920E-02 0. -1.
    10030    2    1    2    0    0  0.00000000000E+00  0.00000000000E+00 -0.17559815301E+04  0.43173778381E+04  0.39441450611E+04 0.  0.
        3    1    3    3  502    0  0.13497662203E+04  0.76103520071E+03  0.45728980681E+03  0.16155981566E+04  0.10100000352E+00 0.  1.
       -3    1    3    3    0  502 -0.13497662203E+04 -0.76103520071E+03 -0.22132713369E+04  0.27017796815E+04  0.10100000352E+00 0. -1.
</event>
<event>
 5   0  0.1070988E-07  0.3671939E+04  0.7818609E-02  0.8074209E-01
        1   -1    0    0  501    0  0.00000000000E+00  0.00000000000E+00  0.23797696904E+04  0.23797696904E+04  0.50400001928E-02 0. -1.
       -1   -1    0    0    0  501  0.00000000000E+00  0.00000000000E+00 -0.14164326577E+04  0.14164326577E+04  0.50400001928E-02 0.  1.
    10030    2    1    2    0    0  0.00000000000E+00  0.00000000000E+00  0.96333703272E+03  0.37962023482E+04  0.36719387290E+04 0.  0.
        2    1    3    3  502    0 -0.84553531474E+03 -0.44112327433E+02 -0.12025437657E+04  0.14707098199E+04  0.25500000920E-02 0.  1.
       -2    1    3    3    0  502  0.84553531474E+03  0.44112327433E+02  0.21658807984E+04  0.23254925283E+04  0.25500000920E-02 0. -1.
</event>
<event>
 5   0  0.1070988E-07  0.3798463E+04  0.7818609E-02  0.8046485E-01
        4   -1    0    0  501    0  0.00000000000E+00  0.00000000000E+00  0.24112134538E+04  0.24112137882E+04  0.12699999809E+01 0. -1.
       -4   -1    0    0    0  501  0.00000000000E+00  0.00000000000E+00 -0.14959598182E+04  0.14959603573E+04  0.12699999809E+01 0.  1.
    10030    2    1    2    0    0  0.00000000000E+00  0.00000000000E+00  0.91525363556E+03  0.39071741455E+04  0.37984629241E+04 0.  0.
        1    1    3    3  502    0  0.45730927565E+03  0.67902189723E+03  0.22204055528E+04  0.23665171306E+04  0.50400001928E-02 0. -1.
       -1    1    3    3    0  502 -0.45730927565E+03 -0.67902189723E+03 -0.13051519172E+04  0.15406570149E+04  0.50400001928E-02 0.  1.
</event>
<event>
 5   0  0.3327241E-07  0.3797603E+04  0.7818609E-02  0.8046669E-01
        2   -1    0    0  501    0  0.00000000000E+00  0.00000000000E+00  0.26946604328E+04  0.26946604328E+04  0.25500000920E-02 0. -1.
       -2   -1    0    0    0  501  0.00000000000E+00  0.00000000000E+00 -0.13379968284E+04  0.13379968284E+04  0.25500000920E-02 0.  1.
    10030    2    1    2    0    0  0.00000000000E+00  0.00000000000E+00  0.13566636043E+04  0.40326572612E+04  0.37976029876E+04 0.  0.
        3    1    3    3  502    0 -0.11305106410E+04  0.90945630240E+03 -0.62234143873E+03  0.15787570909E+04  0.10100000352E+00 0.  1.
       -3    1    3    3    0  502  0.11305106410E+04 -0.90945630240E+03  0.19790050431E+04  0.24539001704E+04  0.10100000352E+00 0. -1.
</event>
<event>
 5   0  0.1070988E-07  0.3654341E+04  0.7818609E-02  0.8078156E-01
        1   -1    0    0  501    0  0.00000000000E+00  0.00000000000E+00  0.14164688576E+04  0.14164688576E+04  0.50400001928E-02 0. -1.
       -1   -1    0    0    0  501  0.00000000000E+00  0.00000000000E+00 -0.23569545965E+04  0.23569545965E+04  0.50400001928E-02 0.  1.
    10030    2    1    2    0    0  0.00000000000E+00  0.00000000000E+00 -0.94048573895E+03  0.37734234541E+04  0.36543414098E+04 0.  0.
        2    1    3    3  502    0 -0.12968937579E+02 -0.11191436407E+04  0.10210858667E+04  0.15150138709E+04  0.25500000920E-02 0. -1.
       -2    1    3    3    0  502  0.12968937579E+02  0.11191436407E+04 -0.19615716056E+04  0.22584095833E+04  0.25500000920E-02 0.  1.
</event>
<event>
 5   0  0.1070988E-07  0.3887491E+04  0.7818609E-02  0.8027636E-01
        1   -1    0    0  501    0  0.00000000000E+00  0.00000000000E+00  0.20074183323E+04  0.20074183323E+04  0.50400001928E-02 0. -1.
       -1   -1    0    0    0  501  0.00000000000E+00  0.00000000000E+00 -0.18820919993E+04  0.18820919994E+04  0.50400001928E-02 0.  1.
    10030    2    1    2    0    0  0.00000000000E+00  0.00000000000E+00  0.12532633299E+03  0.38895103317E+04  0.38874906985E+04 0.  0.
        2    1    3    3  502    0 -0.16810542735E+04 -0.96565757883E+03  0.20312111478E+03  0.19492809488E+04  0.25500000920E-02 0.  1.
       -2    1    3    3    0  502  0.16810542735E+04  0.96565757883E+03 -0.77794781787E+02  0.19402293829E+04  0.25500000920E-02 0. -1.
</event>
<event>
 5   0  0.1070988E-07  0.3920092E+04  0.7818609E-02  0.8020863E-01
        3   -1    0    0  501    0  0.00000000000E+00  0.00000000000E+00  0.28919837390E+04  0.28919837408E+04  0.10100000352E+00 0.  1.
       -3   -1    0    0    0  501  0.00000000000E+00  0.00000000000E+00 -0.13284238919E+04  0.13284238958E+04  0.10100000352E+00 0. -1.
    10030    2    1    2    0    0  0.00000000000E+00  0.00000000000E+00  0.15635598471E+04  0.42204076365E+04  0.39200919917E+04 0.  0.
        5    1    3    3  502    0 -0.10202961554E+04  0.16279652285E+04  0.36413988192E+03  0.19554781956E+04  0.46999998093E+01 0.  1.
       -5    1    3    3    0  502  0.10202961554E+04 -0.16279652285E+04  0.11994199651E+04  0.22649294410E+04  0.46999998093E+01 0. -1.
</event>
<event>
 5   0  0.3442126E-07  0.3769428E+04  0.7818609E-02  0.8052747E-01
       -2   -1    0    0    0  501  0.00000000000E+00  0.00000000000E+00  0.15746340208E+04  0.15746340208E+04  0.25500000920E-02 0.  1.
        2   -1    0    0  501    0  0.00000000000E+00  0.00000000000E+00 -0.22558559167E+04  0.22558559167E+04  0.25500000920E-02 0. -1.
    10030    2    1    2    0    0  0.00000000000E+00  0.00000000000E+00 -0.68122189582E+03  0.38304899375E+04  0.37694283240E+04 0.  0.
        2    1    3    3  502    0  0.11320038579E+04  0.11935861032E+04 -0.12753302309E+04  0.20814772921E+04  0.25500000920E-02 0. -1.
       -2    1    3    3    0  502 -0.11320038579E+04 -0.11935861032E+04  0.59410833507E+03  0.17490126454E+04  0.25500000920E-02 0.  1.
</event>
<event>
 5   0  0.3442126E-07  0.3803793E+04  0.7818609E-02  0.8045342E-01
        2   -1    0    0  501    0  0.00000000000E+00  0.00000000000E+00  0.12488451465E+04  0.12488451465E+04  0.25500000920E-02 0.  1.
       -2   -1    0    0    0  501  0.00000000000E+00  0.00000000000E+00 -0.28964434796E+04  0.28964434796E+04  0.25500000920E-02 0. -1.
    10030    2    1    2    0    0  0.00000000000E+00  0.00000000000E+00 -0.16475983331E+04  0.41452886260E+04  0.38037925188E+04 0.  0.
        2    1    3    3  502    0  0.68966415409E+03  0.15283099782E+04  0.15447982709E+03  0.16838147321E+04  0.25500000920E-02 0.  1.
       -2    1    3    3    0  502 -0.68966415409E+03 -0.15283099782E+04 -0.18020781602E+04  0.24614738939E+04  0.25500000920E-02 0. -1.
</event>
<event>
 5   0  0.1070988E-07  0.3818392E+04  0.7818609E-02  0.8042219E-01
       -1   -1    0    0    0  501  0.00000000000E+00  0.00000000000E+00  0.18659693250E+04  0.18659693250E+04  0.50400001928E-02 0. -1.
        1   -1    0    0  501    0  0.00000000000E+00  0.00000000000E+00 -0.19534240393E+04  0.19534240393E+04  0.50400001928E-02 0.  1.
    10030    2    1    2    0    0  0.00000000000E+00  0.00000000000E+00 -0.87454714336E+02  0.38193933643E+04  0.38183919841E+04 0.  0.
        3    1    3    3  502    0  0.13506296691E+04 -0.93096119940E+03  0.93332974640E+03  0.18873244775E+04  0.10100000352E+00 0. -1.
       -3    1    3    3    0  502 -0.13506296691E+04  0.93096119940E+03 -0.10207844607E+04  0.19320688868E+04  0.10100000352E+00 0.  1.
</event>
<event>
 5   0  0.3509843E-07  0.3783001E+04  0.7818609E-02  0.8049813E-01
        2   -1    0    0  501    0  0.00000000000E+00  0.00000000000E+00  0.24596679392E+04  0.24596679392E+04  0.25500000920E-02 0. -1.
       -2   -1    0    0    0  501  0.00000000000E+00  0.00000000000E+00 -0.14545757313E+04  0.14545757313E+04  0.25500000920E-02 0.  1.
    10030    2    1    2    0    0  0.00000000000E+00  0.00000000000E+00  0.10050922079E+04  0.39142436705E+04  0.37830005506E+04 0.  0.
        4    1    3    3  502    0  0.90190142455E+03  0.15069926972E+04 -0.22418736038E+03  0.17705125682E+04  0.12699999809E+01 0. -1.
       -4    1    3    3    0  502 -0.90190142455E+03 -0.15069926972E+04  0.12292795683E+04  0.21437311023E+04  0.12699999809E+01 0.  1.
</event>
<event>
 5   0  0.1085771E-07  0.3845122E+04  0.7818609E-02  0.8036541E-01
        1   -1    0    0  501    0  0.00000000000E+00  0.00000000000E+00  0.19546204986E+04  0.19546204986E+04  0.50400001928E-02 0.  1.
       -1   -1    0    0    0  501  0.00000000000E+00  0.00000000000E+00 -0.18910273264E+04  0.18910273264E+04  0.50400001928E-02 0. -1.
    10030    2    1    2    0    0  0.00000000000E+00  0.00000000000E+00  0.63593172229E+02  0.38456478250E+04  0.38451219879E+04 0.  0.
        1    1    3    3  502    0 -0.14780021675E+03 -0.77165355097E+03 -0.17231361319E+04  0.18938036424E+04  0.50400001928E-02 0. -1.
       -1    1    3    3    0  502  0.14780021675E+03  0.77165355097E+03  0.17867293041E+04  0.19518441826E+04  0.50400001928E-02 0.  1.
</event>
<event>
 5   0  0.3442126E-07  0.3802075E+04  0.7818609E-02  0.8045710E-01
        2   -1    0    0  501    0  0.00000000000E+00  0.00000000000E+00  0.22113624929E+04  0.22113624929E+04  0.25500000920E-02 0.  1.
       -2   -1    0    0    0  501  0.00000000000E+00  0.00000000000E+00 -0.16342609674E+04  0.16342609674E+04  0.25500000920E-02 0. -1.
    10030    2    1    2    0    0  0.00000000000E+00  0.00000000000E+00  0.57710152555E+03  0.38456234603E+04  0.38020749108E+04 0.  0.
        2    1    3    3  502    0 -0.13571362632E+04 -0.34606425751E+03 -0.10116157153E+04  0.17276995290E+04  0.25500000920E-02 0. -1.
       -2    1    3    3    0  502  0.13571362632E+04  0.34606425751E+03  0.15887172408E+04  0.21179239313E+04  0.25500000920E-02 0.  1.
</event>
<event>
 5   0  0.1070988E-07  0.3813477E+04  0.7818609E-02  0.8043269E-01
        1   -1    0    0  501    0  0.00000000000E+00  0.00000000000E+00  0.19551677676E+04  0.19551677676E+04  0.50400001928E-02 0.  1.
       -1   -1    0    0    0  501  0.00000000000E+00  0.00000000000E+00 -0.18595088474E+04  0.18595088474E+04  0.50400001928E-02 0. -1.
    10030    2    1    2    0    0  0.00000000000E+00  0.00000000000E+00  0.95658920191E+02  0.38146766150E+04  0.38134770287E+04 0.  0.
        5    1    3    3  502    0 -0.16723420785E+04  0.83938937934E+03  0.41445138643E+03  0.19165319197E+04  0.46999998093E+01 0.  1.
       -5    1    3    3    0  502  0.16723420785E+04 -0.83938937934E+03 -0.31879246624E+03  0.18981446953E+04  0.46999998093E+01 0. -1.
</event>
<event>
 5   0  0.3539010E-07  0.3752051E+04  0.7818609E-02  0.8056524E-01
       -2   -1    0    0    0  501  0.00000000000E+00  0.00000000000E+00  0.14221968767E+04  0.14221968767E+04  0.25500000920E-02 0. -1.
        2   -1    0    0  501    0  0.00000000000E+00  0.00000000000E+00 -0.24746720172E+04  0.24746720172E+04  0.25500000920E-02 0.  1.
    10030    2    1    2    0    0  0.00000000000E+00  0.00000000000E+00 -0.10524751406E+04  0.38968688939E+04  0.37520505400E+04 0.  0.
        1    1    3    3  502    0  0.19095950267E+02  0.35738770945E+03  0.13864117658E+04  0.14318618001E+04  0.50400001928E-02 0. -1.
       -1    1    3    3    0  502 -0.19095950267E+02 -0.35738770945E+03 -0.24388869064E+04  0.24650070938E+04  0.50400001928E-02 0.  1.
</event>
<event>
 5   0  0.1070988E-07  0.3762578E+04  0.7818609E-02  0.8054234E-01
        1   -1    0    0  501    0  0.00000000000E+00  0.00000000000E+00  0.18310941332E+04  0.18310941332E+04  0.50400001928E-02 0.  1.
       -1   -1    0    0    0  501  0.00000000000E+00  0.00000000000E+00 -0.19328595771E+04  0.19328595771E+04  0.50400001928E-02 0. -1.
    10030    2    1    2    0    0  0.00000000000E+00  0.00000000000E+00 -0.10176544394E+03  0.37639537103E+04  0.37625777504E+04 0.  0.
        2    1    3    3  502    0  0.46704145361E+03  0.88802301142E+01 -0.18739215810E+04  0.19312660795E+04  0.25500000920E-02 0. -1.
       -2    1    3    3    0  502 -0.46704145361E+03 -0.88802301142E+01  0.17721561371E+04  0.18326876308E+04  0.25500000920E-02 0.  1.
</event>
<event>
 5   0  0.1070988E-07  0.3731668E+04  0.7818609E-02  0.8060980E-01
        1   -1    0    0  501    0  0.00000000000E+00  0.00000000000E+00  0.18720142595E+04  0.18720142595E+04  0.50400001928E-02 0. -1.
       -1   -1    0    0    0  501  0.00000000000E+00  0.00000000000E+00 -0.18596738530E+04  0.18596738530E+04  0.50400001928E-02 0.  1.
    10030    2    1    2    0    0  0.00000000000E+00  0.00000000000E+00  0.12340406513E+02  0.37316881126E+04  0.37316677081E+04 0.  0.
        3    1    3    3  502    0 -0.17927270553E+04 -0.46180100653E+03 -0.22665180863E+03  0.18650741317E+04  0.10100000352E+00 0.  1.
       -3    1    3    3    0  502  0.17927270553E+04  0.46180100653E+03  0.23899221515E+03  0.18666139808E+04  0.10100000352E+00 0. -1.
</event>
<event>
 5   0  0.1084315E-07  0.3274871E+04  0.7818609E-02  0.8169319E-01
       -1   -1    0    0    0  501  0.00000000000E+00  0.00000000000E+00  0.13388934805E+04  0.13388934805E+04  0.50400001928E-02 0.  1.
        1   -1    0    0  501    0  0.00000000000E+00  0.00000000000E+00 -0.20025456758E+04  0.20025456758E+04  0.50400001928E-02 0. -1.
    10030    2    1    2    0    0  0.00000000000E+00  0.00000000000E+00 -0.66365219531E+03  0.33414391564E+04  0.32748712035E+04 0.  0.
        4    1    3    3  502    0 -0.41221177022E+03  0.15789116282E+04 -0.19374882260E+03  0.16432956802E+04  0.12699999809E+01 0.  1.
       -4    1    3    3    0  502  0.41221177022E+03 -0.15789116282E+04 -0.46990337271E+03  0.16981434762E+04  0.12699999809E+01 0. -1.
</event>
<event>
 5   0  0.1084315E-07  0.3868167E+04  0.7818609E-02  0.8031683E-01
        1   -1    0    0  501    0  0.00000000000E+00  0.00000000000E+00  0.26338298790E+04  0.26338298790E+04  0.50400001928E-02 0.  1.
       -1   -1    0    0    0  501  0.00000000000E+00  0.00000000000E+00 -0.14202434058E+04  0.14202434058E+04  0.50400001928E-02 0. -1.
    10030    2    1    2    0    0  0.00000000000E+00  0.00000000000E+00  0.12135864733E+04  0.40540732848E+04  0.38681672754E+04 0.  0.
        4    1    3    3  502    0  0.61553425150E+03  0.12197704628E+04  0.20415093845E+04  0.24565187923E+04  0.12699999809E+01 0.  1.
       -4    1    3    3    0  502 -0.61553425150E+03 -0.12197704628E+04 -0.82792291129E+03  0.15975544925E+04  0.12699999809E+01 0. -1.
</event>
<event>
 5   0  0.3442126E-07  0.3834090E+04  0.7818609E-02  0.8038879E-01
        2   -1    0    0  501    0  0.00000000000E+00  0.00000000000E+00  0.14631701391E+04  0.14631701391E+04  0.25500000920E-02 0.  1.
       -2   -1    0    0    0  501  0.00000000000E+00  0.00000000000E+00 -0.25117112930E+04  0.25117112930E+04  0.25500000920E-02 0. -1.
    10030    2    1    2    0    0  0.00000000000E+00  0.00000000000E+00 -0.10485411539E+04  0.39748814321E+04  0.38340897026E+04 0.  0.
        2    1    3    3  502    0  0.14214401077E+04 -0.11025389586E+04 -0.12111534798E+04  0.21686347979E+04  0.25500000920E-02 0. -1.
       -2    1    3    3    0  502 -0.14214401077E+04  0.11025389586E+04  0.16261232596E+03  0.18062466342E+04  0.25500000920E-02 0.  1.
</event>
<event>
 5   0  0.3442126E-07  0.3677807E+04  0.7818609E-02  0.8072898E-01
        2   -1    0    0  501    0  0.00000000000E+00  0.00000000000E+00  0.27184585886E+04  0.27184585886E+04  0.25500000920E-02 0.  1.
       -2   -1    0    0    0  501  0.00000000000E+00  0.00000000000E+00 -0.12439276889E+04  0.12439276889E+04  0.25500000920E-02 0. -1.
    10030    2    1    2    0    0  0.00000000000E+00  0.00000000000E+00  0.14745308997E+04  0.39623862775E+04  0.36778069060E+04 0.  0.
        2    1    3    3  502    0 -0.11386067694E+04  0.14110480333E+04  0.10677306495E+04  0.21041698286E+04  0.25500000920E-02 0. -1.
       -2    1    3    3    0  502  0.11386067694E+04 -0.14110480333E+04  0.40680025022E+03  0.18582164490E+04  0.25500000920E-02 0.  1.
</event>
<event>
 5   0  0.3509843E-07  0.3829668E+04  0.7818609E-02  0.8039818E-01
        2   -1    0    0  501    0  0.00000000000E+00  0.00000000000E+00  0.16425637111E+04  0.16425637111E+04  0.25500000920E-02 0.  1.
       -2   -1    0    0    0  501  0.00000000000E+00  0.00000000000E+00 -0.22322353486E+04  0.22322353486E+04  0.25500000920E-02 0. -1.
    10030    2    1    2    0    0  0.00000000000E+00  0.00000000000E+00 -0.58967163750E+03  0.38747990596E+04  0.38296677548E+04 0.  0.
        4    1    3    3  502    0 -0.45581829868E+03  0.16009191804E+04  0.66282496762E+03  0.17916615456E+04  0.12699999809E+01 0.  1.
       -4    1    3    3    0  502  0.45581829868E+03 -0.16009191804E+04 -0.12524966051E+04  0.20831375140E+04  0.12699999809E+01 0. -1.
</event>
<event>
 5   0  0.3377396E-07  0.3804667E+04  0.7818609E-02  0.8045154E-01
       -2   -1    0    0    0  501  0.00000000000E+00  0.00000000000E+00  0.23130359280E+04  0.23130359280E+04  0.25500000920E-02 0.  1.
        2   -1    0    0  501    0  0.00000000000E+00  0.00000000000E+00 -0.15645550227E+04  0.15645550227E+04  0.25500000920E-02 0. -1.
    10030    2    1    2    0    0  0.00000000000E+00  0.00000000000E+00  0.74848090530E+03  0.38775909507E+04  0.38046665971E+04 0.  0.
        5    1    3    3  502    0 -0.12986203009E+04 -0.21128053353E+03  0.17745462550E+04  0.22090927212E+04  0.46999998093E+01 0. -1.
       -5    1    3    3    0  502  0.12986203009E+04  0.21128053353E+03 -0.10260653497E+04  0.16684982295E+04  0.46999998093E+01 0.  1.
</event>
<event>
 5   0  0.3442126E-07  0.3719152E+04  0.7818609E-02  0.8063731E-01
       -2   -1    0    0    0  501  0.00000000000E+00  0.00000000000E+00  0.29150693300E+04  0.29150693300E+04  0.25500000920E-02 0.  1.
        2   -1    0    0  501    0  0.00000000000E+00  0.00000000000E+00 -0.11862573860E+04  0.11862573860E+04  0.25500000920E-02 0. -1.
    10030    2    1    2    0    0  0.00000000000E+00  0.00000000000E+00  0.17288119441E+04  0.41013267160E+04  0.37191517976E+04 0.  0.
        2    1    3    3  502    0  0.89974043491E+03  0.99951462832E+03 -0.55188139203E+03  0.14536627578E+04  0.25500000920E-02 0. -1.
       -2    1    3    3    0  502 -0.89974043491E+03 -0.99951462832E+03  0.22806933361E+04  0.26476639582E+04  0.25500000920E-02 0.  1.
</event>
<event>
 5   0  0.3539010E-07  0.3785032E+04  0.7818609E-02  0.8049375E-01
        2   -1    0    0  501    0  0.00000000000E+00  0.00000000000E+00  0.32526309046E+04  0.32526309046E+04  0.25500000920E-02 0.  1.
       -2   -1    0    0    0  501  0.00000000000E+00  0.00000000000E+00 -0.11011443346E+04  0.11011443346E+04  0.25500000920E-02 0. -1.
    10030    2    1    2    0    0  0.00000000000E+00  0.00000000000E+00  0.21514865701E+04  0.43537752392E+04  0.37850316211E+04 0.  0.
        1    1    3    3  502    0 -0.17159854053E+04  0.77464738439E+03  0.12967958828E+04  0.22861242406E+04  0.50400001928E-02 0. -1.
       -1    1    3    3    0  502  0.17159854053E+04 -0.77464738439E+03  0.85469068722E+03  0.20676509987E+04  0.50400001928E-02 0.  1.
</event>
<event>
 5   0  0.3509843E-07  0.3771066E+04  0.7818609E-02  0.8052393E-01
        2   -1    0    0  501    0  0.00000000000E+00  0.00000000000E+00  0.25435808971E+04  0.25435808971E+04  0.25500000920E-02 0. -1.
       -2   -1    0    0    0  501  0.00000000000E+00  0.00000000000E+00 -0.13977280969E+04  0.13977280969E+04  0.25500000920E-02 0.  1.
    10030    2    1    2    0    0  0.00000000000E+00  0.00000000000E+00  0.11458528002E+04  0.39413089940E+04  0.37710658899E+04 0.  0.
        4    1    3    3  502    0 -0.11847325409E+04  0.86992855430E+03  0.18072885792E+04  0.23295193720E+04  0.12699999809E+01 0. -1.
       -4    1    3    3    0  502  0.11847325409E+04 -0.86992855430E+03 -0.66143577896E+03  0.16117896220E+04  0.12699999809E+01 0.  1.
</event>
<event>
 5   0  0.3509843E-07  0.3801324E+04  0.7818609E-02  0.8045871E-01
       -2   -1    0    0    0  501  0.00000000000E+00  0.00000000000E+00  0.29467261179E+04  0.29467261179E+04  0.25500000920E-02 0. -1.
        2   -1    0    0  501    0  0.00000000000E+00  0.00000000000E+00 -0.12259420470E+04  0.12259420470E+04  0.25500000920E-02 0.  1.
    10030    2    1    2    0    0  0.00000000000E+00  0.00000000000E+00  0.17207840709E+04  0.41726681649E+04  0.38013236900E+04 0.  0.
        4    1    3    3  502    0 -0.68865599670E+03 -0.15917817304E+04  0.69455104127E+01  0.17343777017E+04  0.12699999809E+01 0.  1.
       -4    1    3    3    0  502  0.68865599670E+03  0.15917817304E+04  0.17138385604E+04  0.24382904633E+04  0.12699999809E+01 0. -1.
</event>
<event>
 5   0  0.3377396E-07  0.3812825E+04  0.7818609E-02  0.8043408E-01
        2   -1    0    0  501    0  0.00000000000E+00  0.00000000000E+00  0.11375801619E+04  0.11375801619E+04  0.25500000920E-02 0. -1.
       -2   -1    0    0    0  501  0.00000000000E+00  0.00000000000E+00 -0.31948595375E+04  0.31948595375E+04  0.25500000920E-02 0.  1.
    10030    2    1    2    0    0  0.00000000000E+00  0.00000000000E+00 -0.20572793755E+04  0.43324396994E+04  0.38128251101E+04 0.  0.
        5    1    3    3  502    0  0.74291896382E+02 -0.16783141311E+04 -0.20526355134E+04  0.26524690854E+04  0.46999998093E+01 0. -1.
       -5    1    3    3    0  502 -0.74291896382E+02  0.16783141311E+04 -0.46438621504E+01  0.16799706140E+04  0.46999998093E+01 0.  1.
</event>
<event>
 5   0  0.1084315E-07  0.3766023E+04  0.7818609E-02  0.8053486E-01
       -1   -1    0    0    0  501  0.00000000000E+00  0.00000000000E+00  0.12215775654E+04  0.12215775654E+04  0.50400001928E-02 0. -1.
        1   -1    0    0  501    0  0.00000000000E+00  0.00000000000E+00 -0.29025843030E+04  0.29025843030E+04  0.50400001928E-02 0.  1.
    10030    2    1    2    0    0  0.00000000000E+00  0.00000000000E+00 -0.16810067376E+04  0.41241618684E+04  0.37660227647E+04 0.  0.
        4    1    3    3  502    0 -0.84452778459E+03 -0.13562775644E+04 -0.19317690573E+04  0.25068803949E+04  0.12699999809E+01 0.  1.
       -4    1    3    3    0  502  0.84452778459E+03  0.13562775644E+04  0.25076231968E+03  0.16172814735E+04  0.12699999809E+01 0. -1.
</event>
<event>
 5   0  0.3377396E-07  0.3770104E+04  0.7818609E-02  0.8052601E-01
        2   -1    0    0  501    0  0.00000000000E+00  0.00000000000E+00  0.23754252787E+04  0.23754252787E+04  0.25500000920E-02 0. -1.
       -2   -1    0    0    0  501  0.00000000000E+00  0.00000000000E+00 -0.14959095963E+04  0.14959095963E+04  0.25500000920E-02 0.  1.
    10030    2    1    2    0    0  0.00000000000E+00  0.00000000000E+00  0.87951568240E+03  0.38713348750E+04  0.37701042266E+04 0.  0.
        5    1    3    3  502    0 -0.30479687951E+03 -0.36166485347E+03 -0.14339838758E+04  0.15099782946E+04  0.46999998093E+01 0.  1.
       -5    1    3    3    0  502  0.30479687951E+03  0.36166485347E+03  0.23134995582E+04  0.23613565804E+04  0.46999998093E+01 0. -1.
</event>
<event>
 5   0  0.3327241E-07  0.3776631E+04  0.7818609E-02  0.8051189E-01
       -2   -1    0    0    0  501  0.00000000000E+00  0.00000000000E+00  0.19242001538E+04  0.19242001538E+04  0.25500000920E-02 0.  1.
        2   -1    0    0  501    0  0.00000000000E+00  0.00000000000E+00 -0.18530999227E+04  0.18530999227E+04  0.25500000920E-02 0. -1.
    10030    2    1    2    0    0  0.00000000000E+00  0.00000000000E+00  0.71100231093E+02  0.37773000765E+04  0.37766308563E+04 0.  0.
        3    1    3    3  502    0  0.87524372102E+03 -0.21423744880E+03  0.16952976627E+04  0.19198915154E+04  0.10100000352E+00 0.  1.
       -3    1    3    3    0  502 -0.87524372102E+03  0.21423744880E+03 -0.16241974316E+04  0.18574085610E+04  0.10100000352E+00 0. -1.
</event>
<event>
 5   0  0.1070988E-07  0.3756157E+04  0.7818609E-02  0.8055629E-01
        1   -1    0    0  501    0  0.00000000000E+00  0.00000000000E+00  0.20009435036E+04  0.20009435036E+04  0.50400001928E-02 0. -1.
       -1   -1    0    0    0  501  0.00000000000E+00  0.00000000000E+00 -0.17627576986E+04  0.17627576986E+04  0.50400001928E-02 0.  1.
    10030    2    1    2    0    0  0.00000000000E+00  0.00000000000E+00  0.23818580499E+03  0.37637012023E+04  0.37561568474E+04 0.  0.
        2    1    3    3  502    0 -0.17108337918E+04  0.33644096091E+03 -0.58018686367E+03  0.18375966859E+04  0.25500000920E-02 0.  1.
       -2    1    3    3    0  502  0.17108337918E+04 -0.33644096091E+03  0.81837266866E+03  0.19261045164E+04  0.25500000920E-02 0. -1.
</event>
<event>
 5   0  0.1085771E-07  0.3845310E+04  0.7818609E-02  0.8036501E-01
        1   -1    0    0  501    0  0.00000000000E+00  0.00000000000E+00  0.21364873931E+04  0.21364873932E+04  0.50400001928E-02 0. -1.
       -1   -1    0    0    0  501  0.00000000000E+00  0.00000000000E+00 -0.17302245620E+04  0.17302245620E+04  0.50400001928E-02 0.  1.
    10030    2    1    2    0    0  0.00000000000E+00  0.00000000000E+00  0.40626283117E+03  0.38667119551E+04  0.38453103719E+04 0.  0.
        1    1    3    3  502    0  0.70599320304E+03 -0.17800175199E+04  0.29793978800E+02  0.19151439776E+04  0.50400001928E-02 0. -1.
       -1    1    3    3    0  502 -0.70599320304E+03  0.17800175199E+04  0.37646885237E+03  0.19515679775E+04  0.50400001928E-02 0.  1.
</event>
<event>
 5   0  0.1070988E-07  0.3804725E+04  0.7818609E-02  0.8045142E-01
        1   -1    0    0  501    0  0.00000000000E+00  0.00000000000E+00  0.16993370510E+04  0.16993370510E+04  0.50400001928E-02 0.  1.
       -1   -1    0    0    0  501  0.00000000000E+00  0.00000000000E+00 -0.21296435911E+04  0.21296435911E+04  0.50400001928E-02 0. -1.
    10030    2    1    2    0    0  0.00000000000E+00  0.00000000000E+00 -0.43030654008E+03  0.38289806422E+04  0.38047245682E+04 0.  0.
        5    1    3    3  502    0  0.24490233377E+03 -0.65365763601E+03 -0.19961004706E+04  0.21146358166E+04  0.46999998093E+01 0. -1.
       -5    1    3    3    0  502 -0.24490233377E+03  0.65365763601E+03  0.15657939305E+04  0.17143448256E+04  0.46999998093E+01 0.  1.
</event>
<event>
 5   0  0.1070988E-07  0.3795988E+04  0.7818609E-02  0.8047016E-01
       -1   -1    0    0    0  501  0.00000000000E+00  0.00000000000E+00  0.24279827782E+04  0.24279827782E+04  0.50400001928E-02 0. -1.
        1   -1    0    0  501    0  0.00000000000E+00  0.00000000000E+00 -0.14836927576E+04  0.14836927576E+04  0.50400001928E-02 0.  1.
    10030    2    1    2    0    0  0.00000000000E+00  0.00000000000E+00  0.94429002054E+03  0.39116755358E+04  0.37959875994E+04 0.  0.
        5    1    3    3  502    0  0.49473213130E+03  0.14657032055E+04 -0.66105698046E+03  0.16822794625E+04  0.46999998093E+01 0.  1.
       -5    1    3    3    0  502 -0.49473213130E+03 -0.14657032055E+04  0.16053470010E+04  0.22293960734E+04  0.46999998093E+01 0. -1.
</event>
<event>
 5   0  0.3539010E-07  0.3808270E+04  0.7818609E-02  0.8044383E-01
       -2   -1    0    0    0  501  0.00000000000E+00  0.00000000000E+00  0.13446823967E+04  0.13446823967E+04  0.25500000920E-02 0. -1.
        2   -1    0    0  501    0  0.00000000000E+00  0.00000000000E+00 -0.26963464934E+04  0.26963464934E+04  0.25500000920E-02 0.  1.
    10030    2    1    2    0    0  0.00000000000E+00  0.00000000000E+00 -0.13516640967E+04  0.40410288901E+04  0.38082697725E+04 0.  0.
        1    1    3    3  502    0 -0.72932411052E+03 -0.34686106170E+03  0.11539462405E+04  0.14084808058E+04  0.50400001928E-02 0. -1.
       -1    1    3    3    0  502  0.72932411052E+03  0.34686106170E+03 -0.25056103372E+04  0.26325480843E+04  0.50400001928E-02 0.  1.
</event>
<event>
 5   0  0.3539010E-07  0.3786411E+04  0.7818609E-02  0.8049077E-01
        2   -1    0    0  501    0  0.00000000000E+00  0.00000000000E+00  0.21301265850E+04  0.21301265850E+04  0.25500000920E-02 0.  1.
       -2   -1    0    0    0  501  0.00000000000E+00  0.00000000000E+00 -0.16826360612E+04  0.16826360612E+04  0.25500000920E-02 0. -1.
    10030    2    1    2    0    0  0.00000000000E+00  0.00000000000E+00  0.44749052388E+03  0.38127626462E+04  0.37864113917E+04 0.  0.
        1    1    3    3  502    0  0.72991095013E+03 -0.12892955413E+04  0.14105804753E+04  0.20456759923E+04  0.50400001928E-02 0.  1.
       -1    1    3    3    0  502 -0.72991095013E+03  0.12892955413E+04 -0.96308995139E+03  0.17670866539E+04  0.50400001928E-02 0. -1.
</event>
<event>
 5   0  0.1085771E-07  0.3856602E+04  0.7818609E-02  0.8034116E-01
       -1   -1    0    0    0  501  0.00000000000E+00  0.00000000000E+00  0.15098287762E+04  0.15098287763E+04  0.50400001928E-02 0.  1.
        1   -1    0    0  501    0  0.00000000000E+00  0.00000000000E+00 -0.24627591086E+04  0.24627591086E+04  0.50400001928E-02 0. -1.
    10030    2    1    2    0    0  0.00000000000E+00  0.00000000000E+00 -0.95293033234E+03  0.39725878848E+04  0.38566019090E+04 0.  0.
        1    1    3    3  502    0 -0.25907581551E+03 -0.37503369591E+03  0.14535368787E+04  0.15233318775E+04  0.50400001928E-02 0.  1.
       -1    1    3    3    0  502  0.25907581551E+03  0.37503369591E+03 -0.24064672111E+04  0.24492560073E+04  0.50400001928E-02 0. -1.
</event>
<event>
 5   0  0.3442126E-07  0.3765272E+04  0.7818609E-02  0.8053649E-01
        2   -1    0    0  501    0  0.00000000000E+00  0.00000000000E+00  0.22010588929E+04  0.22010588929E+04  0.25500000920E-02 0.  1.
       -2   -1    0    0    0  501  0.00000000000E+00  0.00000000000E+00 -0.16102785074E+04  0.16102785074E+04  0.25500000920E-02 0. -1.
    10030    2    1    2    0    0  0.00000000000E+00  0.00000000000E+00  0.59078038550E+03  0.38113374004E+04  0.37652717453E+04 0.  0.
        2    1    3    3  502    0 -0.36676775660E+03 -0.83536597786E+03 -0.13715612345E+04  0.16472811309E+04  0.25500000920E-02 0. -1.
       -2    1    3    3    0  502  0.36676775660E+03  0.83536597786E+03  0.19623416200E+04  0.21640562695E+04  0.25500000920E-02 0.  1.
</event>
<event>
 5   0  0.3377396E-07  0.3775722E+04  0.7818609E-02  0.8051385E-01
        2   -1    0    0  501    0  0.00000000000E+00  0.00000000000E+00  0.24693744316E+04  0.24693744316E+04  0.25500000920E-02 0.  1.
       -2   -1    0    0    0  501  0.00000000000E+00  0.00000000000E+00 -0.14432881001E+04  0.14432881001E+04  0.25500000920E-02 0. -1.
    10030    2    1    2    0    0  0.00000000000E+00  0.00000000000E+00  0.10260863315E+04  0.39126625318E+04  0.37757217757E+04 0.  0.
        5    1    3    3  502    0 -0.18832361002E+03  0.14756395634E+04 -0.69144654169E+03  0.16404567392E+04  0.46999998093E+01 0. -1.
       -5    1    3    3    0  502  0.18832361002E+03 -0.14756395634E+04  0.17175328732E+04  0.22722057925E+04  0.46999998093E+01 0.  1.
</event>
<event>
 5   0  0.3377396E-07  0.3797625E+04  0.7818609E-02  0.8046665E-01
       -2   -1    0    0    0  501  0.00000000000E+00  0.00000000000E+00  0.21089156606E+04  0.21089156606E+04  0.25500000920E-02 0.  1.
        2   -1    0    0  501    0  0.00000000000E+00  0.00000000000E+00 -0.17096408782E+04  0.17096408782E+04  0.25500000920E-02 0. -1.
    10030    2    1    2    0    0  0.00000000000E+00  0.00000000000E+00  0.39927478240E+03  0.38185565389E+04  0.37976247430E+04 0.  0.
        5    1    3    3  502    0 -0.27077775034E+03 -0.14858524626E+04 -0.95752638097E+03  0.17882832524E+04  0.46999998093E+01 0. -1.
       -5    1    3    3    0  502  0.27077775034E+03  0.14858524626E+04  0.13568011634E+04  0.20302732864E+04  0.46999998093E+01 0.  1.
</event>
<event>
 5   0  0.1085771E-07  0.3596430E+04  0.7818609E-02  0.8091310E-01
        1   -1    0    0  501    0  0.00000000000E+00  0.00000000000E+00  0.16802175546E+04  0.16802175546E+04  0.50400001928E-02 0. -1.
       -1   -1    0    0    0  501  0.00000000000E+00  0.00000000000E+00 -0.19244992700E+04  0.19244992700E+04  0.50400001928E-02 0.  1.
    10030    2    1    2    0    0  0.00000000000E+00  0.00000000000E+00 -0.24428171543E+03  0.36047168246E+04  0.35964301507E+04 0.  0.
        1    1    3    3  502    0  0.95703885973E+03  0.14901214248E+04 -0.43461585220E+03  0.18235339807E+04  0.50400001928E-02 0. -1.
       -1    1    3    3    0  502 -0.95703885973E+03 -0.14901214248E+04  0.19033413677E+03  0.17811828439E+04  0.50400001928E-02 0.  1.
</event>
<event>
 5   0  0.1084315E-07  0.3805624E+04  0.7818609E-02  0.8044949E-01
        1   -1    0    0  501    0  0.00000000000E+00  0.00000000000E+00  0.17248735847E+04  0.17248735847E+04  0.50400001928E-02 0. -1.
       -1   -1    0    0    0  501  0.00000000000E+00  0.00000000000E+00 -0.20991060510E+04  0.20991060510E+04  0.50400001928E-02 0.  1.
    10030    2    1    2    0    0  0.00000000000E+00  0.00000000000E+00 -0.37423246628E+03  0.38239796357E+04  0.38056235120E+04 0.  0.
        4    1    3    3  502    0  0.12567064568E+04 -0.63171626200E+03 -0.14748257375E+04  0.20380110705E+04  0.12699999809E+01 0.  1.
       -4    1    3    3    0  502 -0.12567064568E+04  0.63171626200E+03  0.11005932713E+04  0.17859685652E+04  0.12699999809E+01 0. -1.
</event>
<event>
 5   0  0.3327241E-07  0.4003415E+04  0.7818609E-02  0.8003858E-01
       -2   -1    0    0    0  501  0.00000000000E+00  0.00000000000E+00  0.17656798566E+04  0.17656798566E+04  0.25500000920E-02 0. -1.
        2   -1    0    0  501    0  0.00000000000E+00  0.00000000000E+00 -0.22692864567E+04  0.22692864567E+04  0.25500000920E-02 0.  1.
    10030    2    1    2    0    0  0.00000000000E+00  0.00000000000E+00 -0.50360660006E+03  0.40349663134E+04  0.40034152348E+04 0.  0.
        3    1    3    3  502    0 -0.12050240182E+02  0.19712951952E+04 -0.60193632902E+03  0.20611834730E+04  0.10100000352E+00 0.  1.
       -3    1    3    3    0  502  0.12050240182E+02 -0.19712951952E+04  0.98329728961E+02  0.19737828403E+04  0.10100000352E+00 0. -1.
</event>
<event>
 5   0  0.3539010E-07  0.3843386E+04  0.7818609E-02  0.8036908E-01
        2   -1    0    0  501    0  0.00000000000E+00  0.00000000000E+00  0.16515636491E+04  0.16515636492E+04  0.25500000920E-02 0. -1.
       -2   -1    0    0    0  501  0.00000000000E+00  0.00000000000E+00 -0.22360043561E+04  0.22360043561E+04  0.25500000920E-02 0.  1.
    10030    2    1    2    0    0  0.00000000000E+00  0.00000000000E+00 -0.58444070696E+03  0.38875680053E+04  0.38433857542E+04 0.  0.
        1    1    3    3  502    0  0.17604010668E+04  0.62520807527E+03 -0.74796224751E+03  0.20122983320E+04  0.50400001928E-02 0.  1.
       -1    1    3    3    0  502 -0.17604010668E+04 -0.62520807527E+03  0.16352154055E+03  0.18752696733E+04  0.50400001928E-02 0. -1.
</event>
<event>
 5   0  0.3377396E-07  0.3802287E+04  0.7818609E-02  0.8045664E-01
       -2   -1    0    0    0  501  0.00000000000E+00  0.00000000000E+00  0.15799783952E+04  0.15799783952E+04  0.25500000920E-02 0. -1.
        2   -1    0    0  501    0  0.00000000000E+00  0.00000000000E+00 -0.22875923645E+04  0.22875923645E+04  0.25500000920E-02 0.  1.
    10030    2    1    2    0    0  0.00000000000E+00  0.00000000000E+00 -0.70761396929E+03  0.38675707597E+04  0.38022869502E+04 0.  0.
        5    1    3    3  502    0  0.63752684330E+02 -0.14257478766E+04  0.92374469557E+03  0.17000434598E+04  0.46999998093E+01 0. -1.
       -5    1    3    3    0  502 -0.63752684330E+02  0.14257478766E+04 -0.16313586649E+04  0.21675272999E+04  0.46999998093E+01 0.  1.
</event>
<event>
 5   0  0.1070988E-07  0.3766108E+04  0.7818609E-02  0.8053467E-01
       -1   -1    0    0    0  501  0.00000000000E+00  0.00000000000E+00  0.24553819297E+04  0.24553819297E+04  0.50400001928E-02 0.  1.
        1   -1    0    0  501    0  0.00000000000E+00  0.00000000000E+00 -0.14441307977E+04  0.14441307977E+04  0.50400001928E-02 0. -1.
    10030    2    1    2    0    0  0.00000000000E+00  0.00000000000E+00  0.10112511320E+04  0.38995127274E+04  0.37661081582E+04 0.  0.
        2    1    3    3  502    0 -0.93720210094E+03 -0.38002830231E+03  0.21503259639E+04  0.23762725096E+04  0.25500000920E-02 0.  1.
       -2    1    3    3    0  502  0.93720210094E+03  0.38002830231E+03 -0.11390748319E+04  0.15232402178E+04  0.25500000920E-02 0. -1.
</event>
<event>
 5   0  0.3327241E-07  0.3786703E+04  0.7818609E-02  0.8049014E-01
        2   -1    0    0  501    0  0.00000000000E+00  0.00000000000E+00  0.15332401628E+04  0.15332401628E+04  0.25500000920E-02 0.  1.
       -2   -1    0    0    0  501  0.00000000000E+00  0.00000000000E+00 -0.23380417803E+04  0.23380417803E+04  0.25500000920E-02 0. -1.
    10030    2    1    2    0    0  0.00000000000E+00  0.00000000000E+00 -0.80480161754E+03  0.38712819430E+04  0.37867028189E+04 0.  0.
        3    1    3    3  502    0  0.25888051409E+03  0.68473618512E+03  0.13827090156E+04  0.15645341146E+04  0.10100000352E+00 0.  1.
       -3    1    3    3    0  502 -0.25888051409E+03 -0.68473618512E+03 -0.21875106331E+04  0.23067478284E+04  0.10100000352E+00 0. -1.
</event>
<event>
 5   0  0.3509843E-07  0.3806992E+04  0.7818609E-02  0.8044656E-01
       -2   -1    0    0    0  501  0.00000000000E+00  0.00000000000E+00  0.17388183012E+04  0.17388183012E+04  0.25500000920E-02 0. -1.
        2   -1    0    0  501    0  0.00000000000E+00  0.00000000000E+00 -0.20837695107E+04  0.20837695107E+04  0.25500000920E-02 0.  1.
    10030    2    1    2    0    0  0.00000000000E+00  0.00000000000E+00 -0.34495120955E+03  0.38225878119E+04  0.38069917576E+04 0.  0.
        4    1    3    3  502    0  0.90092385745E+02 -0.18820175108E+04 -0.44411744109E+03  0.19358069282E+04  0.12699999809E+01 0. -1.
       -4    1    3    3    0  502 -0.90092385745E+02  0.18820175108E+04  0.99166231542E+02  0.18867808837E+04  0.12699999809E+01 0.  1.
</event>
<event>
 5   0  0.3327241E-07  0.3824211E+04  0.7818609E-02  0.8040979E-01
       -2   -1    0    0    0  501  0.00000000000E+00  0.00000000000E+00  0.13628442999E+04  0.13628442999E+04  0.25500000920E-02 0. -1.
        2   -1    0    0  501    0  0.00000000000E+00  0.00000000000E+00 -0.26827327822E+04  0.26827327822E+04  0.25500000920E-02 0.  1.
    10030    2    1    2    0    0  0.00000000000E+00  0.00000000000E+00 -0.13198884823E+04  0.40455770821E+04  0.38242108103E+04 0.  0.
        3    1    3    3  502    0  0.17449574341E+04 -0.63709686052E+03 -0.18052457890E+03  0.18663756295E+04  0.10100000352E+00 0.  1.
       -3    1    3    3    0  502 -0.17449574341E+04  0.63709686052E+03 -0.11393639034E+04  0.21792014526E+04  0.10100000352E+00 0. -1.
</event>
<event>
 5   0  0.3509843E-07  0.3768161E+04  0.7818609E-02  0.8053022E-01
        2   -1    0    0  501    0  0.00000000000E+00  0.00000000000E+00  0.25035003586E+04  0.25035003586E+04  0.25500000920E-02 0. -1.
       -2   -1    0    0    0  501  0.00000000000E+00  0.00000000000E+00 -0.14179187822E+04  0.14179187822E+04  0.25500000920E-02 0.  1.
    10030    2    1    2    0    0  0.00000000000E+00  0.00000000000E+00  0.10855815764E+04  0.39214191407E+04  0.37681614507E+04 0.  0.
        4    1    3    3  502    0 -0.66454292278E+03 -0.15903563818E+04  0.13345962281E+04  0.21799081224E+04  0.12699999809E+01 0. -1.
       -4    1    3    3    0  502  0.66454292278E+03  0.15903563818E+04 -0.24901465166E+03  0.17415110183E+04  0.12699999809E+01 0.  1.
</event>
<event>
 5   0  0.3539010E-07  0.3348532E+04  0.7818609E-02  0.8150655E-01
       -2   -1    0    0    0  501  0.00000000000E+00  0.00000000000E+00  0.15235431748E+04  0.15235431748E+04  0.25500000920E-02 0.  1.
        2   -1    0    0  501    0  0.00000000000E+00  0.00000000000E+00 -0.18398995034E+04  0.18398995034E+04  0.25500000920E-02 0. -1.
    10030    2    1    2    0    0  0.00000000000E+00  0.00000000000E+00 -0.31635632857E+03  0.33634426781E+04  0.33485318160E+04 0.  0.
        1    1    3    3  502    0  0.10833901861E+04 -0.12646522717E+04  0.16049309732E+02  0.16653339737E+04  0.50400001928E-02 0.  1.
       -1    1    3    3    0  502 -0.10833901861E+04  0.12646522717E+04 -0.33240563830E+03  0.16981087044E+04  0.50400001928E-02 0. -1.
</event>
<event>
 5   0  0.1084315E-07  0.3795434E+04  0.7818609E-02  0.8047135E-01
        1   -1    0    0  501    0  0.00000000000E+00  0.00000000000E+00  0.18806367816E+04  0.18806367817E+04  0.50400001928E-02 0.  1.
       -1   -1    0    0    0  501  0.00000000000E+00  0.00000000000E+00 -0.19149525204E+04  0.19149525204E+04  0.50400001928E-02 0. -1.
    10030    2    1    2    0    0  0.00000000000E+00  0.00000000000E+00 -0.34315738767E+02  0.37955893021E+04  0.37954341754E+04 0.  0.
        4    1    3    3  502    0 -0.65328081148E+03 -0.34597084939E+03  0.17307284558E+04  0.18819920956E+04  0.12699999809E+01 0.  1.
       -4    1    3    3    0  502  0.65328081148E+03  0.34597084939E+03 -0.17650441945E+04  0.19135972065E+04  0.12699999809E+01 0. -1.
</event>
<event>
 5   0  0.3327241E-07  0.3800974E+04  0.7818609E-02  0.8045946E-01
        2   -1    0    0  501    0  0.00000000000E+00  0.00000000000E+00  0.23688793978E+04  0.23688793978E+04  0.25500000920E-02 0. -1.
       -2   -1    0    0    0  501  0.00000000000E+00  0.00000000000E+00 -0.15247086869E+04  0.15247086869E+04  0.25500000920E-02 0.  1.
    10030    2    1    2    0    0  0.00000000000E+00  0.00000000000E+00  0.84417071090E+03  0.38935880847E+04  0.38009740836E+04 0.  0.
        3    1    3    3  502    0  0.34030769401E+03 -0.77842140379E+03  0.21635379805E+04  0.23243592261E+04  0.10100000352E+00 0. -1.
       -3    1    3    3    0  502 -0.34030769401E+03  0.77842140379E+03 -0.13193672696E+04  0.15692288586E+04  0.10100000352E+00 0.  1.
</event>
<event>
 5   0  0.3377396E-07  0.3755395E+04  0.7818609E-02  0.8055795E-01
       -2   -1    0    0    0  501  0.00000000000E+00  0.00000000000E+00  0.23093413210E+04  0.23093413210E+04  0.25500000920E-02 0.  1.
        2   -1    0    0  501    0  0.00000000000E+00  0.00000000000E+00 -0.15267327325E+04  0.15267327325E+04  0.25500000920E-02 0. -1.
    10030    2    1    2    0    0  0.00000000000E+00  0.00000000000E+00  0.78260858852E+03  0.38360740535E+04  0.37553945120E+04 0.  0.
        5    1    3    3  502    0 -0.35299016864E+03 -0.75568540240E+03 -0.13271161128E+04  0.15674570978E+04  0.46999998093E+01 0. -1.
       -5    1    3    3    0  502  0.35299016864E+03  0.75568540240E+03  0.21097247013E+04  0.22686169557E+04  0.46999998093E+01 0.  1.
</event>
<event>
 5   0  0.1070988E-07  0.3779978E+04  0.7818609E-02  0.8050465E-01
       -1   -1    0    0    0  501  0.00000000000E+00  0.00000000000E+00  0.12690325655E+04  0.12690325655E+04  0.50400001928E-02 0. -1.
        1   -1    0    0  501    0  0.00000000000E+00  0.00000000000E+00 -0.28147890351E+04  0.28147890351E+04  0.50400001928E-02 0.  1.
    10030    2    1    2    0    0  0.00000000000E+00  0.00000000000E+00 -0.15457564696E+04  0.40838216006E+04  0.37799782807E+04 0.  0.
        3    1    3    3  502    0 -0.71393532592E+03 -0.48695157701E+03 -0.25888313327E+04  0.27292623852E+04  0.10100000352E+00 0.  1.
       -3    1    3    3    0  502  0.71393532592E+03  0.48695157701E+03  0.10430748631E+04  0.13545592154E+04  0.10100000352E+00 0. -1.
</event>
<event>
 5   0  0.1084315E-07  0.3813184E+04  0.7818609E-02  0.8043331E-01
       -1   -1    0    0    0  501  0.00000000000E+00  0.00000000000E+00  0.15545490026E+04  0.15545490026E+04  0.50400001928E-02 0.  1.
        1   -1    0    0  501    0  0.00000000000E+00  0.00000000000E+00 -0.23383591551E+04  0.23383591551E+04  0.50400001928E-02 0. -1.
    10030    2    1    2    0    0  0.00000000000E+00  0.00000000000E+00 -0.78381015250E+03  0.38929081578E+04  0.38131844395E+04 0.  0.
        4    1    3    3  502    0  0.93779729501E+03 -0.94958958710E+03  0.99814501356E+03  0.16665771004E+04  0.12699999809E+01 0.  1.
       -4    1    3    3    0  502 -0.93779729501E+03  0.94958958710E+03 -0.17819551661E+04  0.22263310574E+04  0.12699999809E+01 0. -1.
</event>
<event>
 5   0  0.3509843E-07  0.3817854E+04  0.7818609E-02  0.8042334E-01
       -2   -1    0    0    0  501  0.00000000000E+00  0.00000000000E+00  0.12903022234E+04  0.12903022234E+04  0.25500000920E-02 0. -1.
        2   -1    0    0  501    0  0.00000000000E+00  0.00000000000E+00 -0.28241466729E+04  0.28241466729E+04  0.25500000920E-02 0.  1.
    10030    2    1    2    0    0  0.00000000000E+00  0.00000000000E+00 -0.15338444494E+04  0.41144488963E+04  0.38178542305E+04 0.  0.
        4    1    3    3  502    0 -0.45820845339E+02 -0.21951715089E+03 -0.28099020266E+04  0.28188363453E+04  0.12699999809E+01 0.  1.
       -4    1    3    3    0  502  0.45820845339E+02  0.21951715089E+03  0.12760575772E+04  0.12956125511E+04  0.12699999809E+01 0. -1.
</event>
<event>
 5   0  0.1070988E-07  0.3801744E+04  0.7818609E-02  0.8045781E-01
        1   -1    0    0  501    0  0.00000000000E+00  0.00000000000E+00  0.12760386789E+04  0.12760386789E+04  0.50400001928E-02 0. -1.
       -1   -1    0    0    0  501  0.00000000000E+00  0.00000000000E+00 -0.28316651821E+04  0.28316651821E+04  0.50400001928E-02 0.  1.
    10030    2    1    2    0    0  0.00000000000E+00  0.00000000000E+00 -0.15556265032E+04  0.41077038610E+04  0.38017439672E+04 0.  0.
        3    1    3    3  502    0 -0.26114532234E+03 -0.74428371260E+03  0.10908714161E+04  0.13461632817E+04  0.10100000352E+00 0. -1.
       -3    1    3    3    0  502  0.26114532234E+03  0.74428371260E+03 -0.26464979193E+04  0.27615405793E+04  0.10100000352E+00 0.  1.
</event>
<event>
 5   0  0.3377396E-07  0.3836311E+04  0.7818609E-02  0.8038407E-01
        2   -1    0    0  501    0  0.00000000000E+00  0.00000000000E+00  0.19644563005E+04  0.19644563005E+04  0.25500000920E-02 0. -1.
       -2   -1    0    0    0  501  0.00000000000E+00  0.00000000000E+00 -0.18729456424E+04  0.18729456424E+04  0.25500000920E-02 0.  1.
    10030    2    1    2    0    0  0.00000000000E+00  0.00000000000E+00  0.91510658110E+02  0.38374019429E+04  0.38363106588E+04 0.  0.
        5    1    3    3  502    0  0.30362307137E+03 -0.72095570562E+03  0.17976340366E+04  0.19604780842E+04  0.46999998093E+01 0. -1.
       -5    1    3    3    0  502 -0.30362307137E+03  0.72095570562E+03 -0.17061233785E+04  0.18769238588E+04  0.46999998093E+01 0.  1.
</event>
<event>
 5   0  0.3442126E-07  0.3792313E+04  0.7818609E-02  0.8047806E-01
        2   -1    0    0  501    0  0.00000000000E+00  0.00000000000E+00  0.20254827069E+04  0.20254827069E+04  0.25500000920E-02 0. -1.
       -2   -1    0    0    0  501  0.00000000000E+00  0.00000000000E+00 -0.17750878375E+04  0.17750878375E+04  0.25500000920E-02 0.  1.
    10030    2    1    2    0    0  0.00000000000E+00  0.00000000000E+00  0.25039486934E+03  0.38005705444E+04  0.37923131295E+04 0.  0.
        2    1    3    3  502    0 -0.17181222316E+04 -0.53934696249E+03  0.72026686026E+03  0.19394905256E+04  0.25500000920E-02 0. -1.
       -2    1    3    3    0  502  0.17181222316E+04  0.53934696249E+03 -0.46987199092E+03  0.18610800189E+04  0.25500000920E-02 0.  1.
</event>
<event>
 5   0  0.3377396E-07  0.3815969E+04  0.7818609E-02  0.8042737E-01
       -2   -1    0    0    0  501  0.00000000000E+00  0.00000000000E+00  0.24143445772E+04  0.24143445772E+04  0.25500000920E-02 0.  1.
        2   -1    0    0  501    0  0.00000000000E+00  0.00000000000E+00 -0.15078231520E+04  0.15078231520E+04  0.25500000920E-02 0. -1.
    10030    2    1    2    0    0  0.00000000000E+00  0.00000000000E+00  0.90652142524E+03  0.39221677292E+04  0.38159688942E+04 0.  0.
        5    1    3    3  502    0 -0.13177737877E+03  0.96775597856E+03 -0.12313981927E+04  0.15717126043E+04  0.46999998093E+01 0. -1.
       -5    1    3    3    0  502  0.13177737877E+03 -0.96775597856E+03  0.21379196179E+04  0.23504551249E+04  0.46999998093E+01 0.  1.
</event>
<event>
 5   0  0.1070988E-07  0.3770574E+04  0.7818609E-02  0.8052499E-01
       -1   -1    0    0    0  501  0.00000000000E+00  0.00000000000E+00  0.18485700782E+04  0.18485700782E+04  0.50400001928E-02 0. -1.
        1   -1    0    0  501    0  0.00000000000E+00  0.00000000000E+00 -0.19227333831E+04  0.19227333831E+04  0.50400001928E-02 0.  1.
    10030    2    1    2    0    0  0.00000000000E+00  0.00000000000E+00 -0.74163304904E+02  0.37713034613E+04  0.37705741740E+04 0.  0.
        5    1    3    3  502    0  0.78144420924E+03 -0.16683373960E+04 -0.43750967184E+03  0.18935262137E+04  0.46999998093E+01 0.  1.
       -5    1    3    3    0  502 -0.78144420924E+03  0.16683373960E+04  0.36334636693E+03  0.18777772476E+04  0.46999998093E+01 0. -1.
</event>
<event>
 5   0  0.1084315E-07  0.3927191E+04  0.7818609E-02  0.8019398E-01
       -1   -1    0    0    0  501  0.00000000000E+00  0.00000000000E+00  0.17847959106E+04  0.17847959106E+04  0.50400001928E-02 0. -1.
        1   -1    0    0  501    0  0.00000000000E+00  0.00000000000E+00 -0.21603073371E+04  0.21603073371E+04  0.50400001928E-02 0.  1.
    10030    2    1    2    0    0  0.00000000000E+00  0.00000000000E+00 -0.37551142643E+03  0.39451032477E+04  0.39271912105E+04 0.  0.
        4    1    3    3  502    0 -0.13308176219E+04  0.10115668822E+04 -0.12226793262E+04  0.20710599816E+04  0.12699999809E+01 0.  1.
       -4    1    3    3    0  502  0.13308176219E+04 -0.10115668822E+04  0.84716789981E+03  0.18740432661E+04  0.12699999809E+01 0. -1.
</event>
<event>
 5   0  0.3327241E-07  0.3843583E+04  0.7818609E-02  0.8036866E-01
        2   -1    0    0  501    0  0.00000000000E+00  0.00000000000E+00  0.16999371247E+04  0.16999371247E+04  0.25500000920E-02 0. -1.
       -2   -1    0    0    0  501  0.00000000000E+00  0.00000000000E+00 -0.21726000720E+04  0.21726000720E+04  0.25500000920E-02 0.  1.
    10030    2    1    2    0    0  0.00000000000E+00  0.00000000000E+00 -0.47266294730E+03  0.38725371967E+04  0.38435834943E+04 0.  0.
        3    1    3    3  502    0 -0.13312843164E+04  0.20782498658E+03  0.11443102054E+04  0.17677542285E+04  0.10100000352E+00 0. -1.
       -3    1    3    3    0  502  0.13312843164E+04 -0.20782498658E+03 -0.16169731527E+04  0.21047829681E+04  0.10100000352E+00 0.  1.
</event>
<event>
 5   0  0.1070988E-07  0.3765289E+04  0.7818609E-02  0.8053645E-01
       -1   -1    0    0    0  501  0.00000000000E+00  0.00000000000E+00  0.30436667540E+04  0.30436667540E+04  0.50400001928E-02 0.  1.
        1   -1    0    0  501    0  0.00000000000E+00  0.00000000000E+00 -0.11645000747E+04  0.11645000747E+04  0.50400001928E-02 0. -1.
    10030    2    1    2    0    0  0.00000000000E+00  0.00000000000E+00  0.18791666793E+04  0.42081668287E+04  0.37652889198E+04 0.  0.
        2    1    3    3  502    0 -0.31338102009E+03  0.37861493124E+03 -0.10915355043E+04  0.11970825732E+04  0.25500000920E-02 0. -1.
       -2    1    3    3    0  502  0.31338102009E+03 -0.37861493124E+03  0.29707021836E+04  0.30110842555E+04  0.25500000920E-02 0.  1.
</event>
<event>
 5   0  0.3509843E-07  0.3755028E+04  0.7818609E-02  0.8055875E-01
        2   -1    0    0  501    0  0.00000000000E+00  0.00000000000E+00  0.16480817811E+04  0.16480817811E+04  0.25500000920E-02 0. -1.
       -2   -1    0    0    0  501  0.00000000000E+00  0.00000000000E+00 -0.21388861674E+04  0.21388861674E+04  0.25500000920E-02 0.  1.
    10030    2    1    2    0    0  0.00000000000E+00  0.00000000000E+00 -0.49080438633E+03  0.37869679486E+04  0.37550282686E+04 0.  0.
        4    1    3    3  502    0  0.10249881125E+04  0.87147618962E+03  0.10753117115E+04  0.17223147998E+04  0.12699999809E+01 0. -1.
       -4    1    3    3    0  502 -0.10249881125E+04 -0.87147618962E+03 -0.15661160978E+04  0.20646531487E+04  0.12699999809E+01 0.  1.
</event>
<event>
 5   0  0.1084315E-07  0.3792130E+04  0.7818609E-02  0.8047846E-01
        1   -1    0    0  501    0  0.00000000000E+00  0.00000000000E+00  0.17890960827E+04  0.17890960827E+04  0.50400001928E-02 0. -1.
       -1   -1    0    0    0  501  0.00000000000E+00  0.00000000000E+00 -0.20094294262E+04  0.20094294262E+04  0.50400001928E-02 0.  1.
    10030    2    1    2    0    0  0.00000000000E+00  0.00000000000E+00 -0.22033334348E+03  0.37985255089E+04  0.37921299106E+04 0.  0.
        4    1    3    3  502    0 -0.71186333974E+03 -0.51836398711E+02  0.16493904149E+04  0.17971997052E+04  0.12699999809E+01 0. -1.
       -4    1    3    3    0  502  0.71186333974E+03  0.51836398711E+02 -0.18697237584E+04  0.20013258036E+04  0.12699999809E+01 0.  1.
</event>
<event>
 5   0  0.1085771E-07  0.3865466E+04  0.7818609E-02  0.8032250E-01
       -1   -1    0    0    0  501  0.00000000000E+00  0.00000000000E+00  0.15982532810E+04  0.15982532810E+04  0.50400001928E-02 0. -1.
        1   -1    0    0  501    0  0.00000000000E+00  0.00000000000E+00 -0.23372121116E+04  0.23372121116E+04  0.50400001928E-02 0.  1.
    10030    2    1    2    0    0  0.00000000000E+00  0.00000000000E+00 -0.73895883061E+03  0.39354653927E+04  0.38654660396E+04 0.  0.
        1    1    3    3  502    0  0.17916785056E+04  0.11588869217E+03  0.35895944780E+03  0.18309543800E+04  0.50400001928E-02 0. -1.
       -1    1    3    3    0  502 -0.17916785056E+04 -0.11588869217E+03 -0.10979182784E+04  0.21045110127E+04  0.50400001928E-02 0.  1.
</event>
<event>
 5   0  0.1070988E-07  0.3794217E+04  0.7818609E-02  0.8047397E-01
        1   -1    0    0  501    0  0.00000000000E+00  0.00000000000E+00  0.14070787560E+04  0.14070787560E+04  0.50400001928E-02 0. -1.
       -1   -1    0    0    0  501  0.00000000000E+00  0.00000000000E+00 -0.25577967736E+04  0.25577967736E+04  0.50400001928E-02 0.  1.
    10030    2    1    2    0    0  0.00000000000E+00  0.00000000000E+00 -0.11507180177E+04  0.39648755296E+04  0.37942174435E+04 0.  0.
        5    1    3    3  502    0 -0.92367646698E+03 -0.16510285383E+04 -0.42785052646E+03  0.19396266684E+04  0.46999998093E+01 0. -1.
       -5    1    3    3    0  502  0.92367646698E+03  0.16510285383E+04 -0.72286749121E+03  0.20252488612E+04  0.46999998093E+01 0.  1.
</event>
<event>
 5   0  0.1070988E-07  0.3809583E+04  0.7818609E-02  0.8044102E-01
       -1   -1    0    0    0  501  0.00000000000E+00  0.00000000000E+00  0.17698190709E+04  0.17698190709E+04  0.50400001928E-02 0.  1.
        1   -1    0    0  501    0  0.00000000000E+00  0.00000000000E+00 -0.20500571254E+04  0.20500571255E+04  0.50400001928E-02 0. -1.
    10030    2    1    2    0    0  0.00000000000E+00  0.00000000000E+00 -0.28023805459E+03  0.38198761963E+04  0.38095827577E+04 0.  0.
        3    1    3    3  502    0 -0.15934062732E+04 -0.80144163591E+03 -0.81048956587E+03  0.19591185757E+04  0.10100000352E+00 0. -1.
       -3    1    3    3    0  502  0.15934062732E+04  0.80144163591E+03  0.53025151128E+03  0.18607576206E+04  0.10100000352E+00 0.  1.
</event>
<event>
 5   0  0.3442126E-07  0.3840348E+04  0.7818609E-02  0.8037551E-01
        2   -1    0    0  501    0  0.00000000000E+00  0.00000000000E+00  0.20712522992E+04  0.20712522992E+04  0.25500000920E-02 0.  1.
       -2   -1    0    0    0  501  0.00000000000E+00  0.00000000000E+00 -0.17801151313E+04  0.17801151313E+04  0.25500000920E-02 0. -1.
    10030    2    1    2    0    0  0.00000000000E+00  0.00000000000E+00  0.29113716795E+03  0.38513674305E+04  0.38403476710E+04 0.  0.
        2    1    3    3  502    0 -0.12262086802E+04 -0.59451233770E+03  0.15022381965E+04  0.20282387054E+04  0.25500000920E-02 0.  1.
       -2    1    3    3    0  502  0.12262086802E+04  0.59451233770E+03 -0.12111010285E+04  0.18231287251E+04  0.25500000920E-02 0. -1.
</event>
<event>
 5   0  0.1084315E-07  0.3768875E+04  0.7818609E-02  0.8052867E-01
       -1   -1    0    0    0  501  0.00000000000E+00  0.00000000000E+00  0.17130011736E+04  0.17130011736E+04  0.50400001928E-02 0.  1.
        1   -1    0    0  501    0  0.00000000000E+00  0.00000000000E+00 -0.20730310079E+04  0.20730310079E+04  0.50400001928E-02 0. -1.
    10030    2    1    2    0    0  0.00000000000E+00  0.00000000000E+00 -0.36002983428E+03  0.37860321815E+04  0.37688749246E+04 0.  0.
        4    1    3    3  502    0  0.88260400624E+03 -0.65108288136E+03  0.13593461739E+04  0.17466317253E+04  0.12699999809E+01 0.  1.
       -4    1    3    3    0  502 -0.88260400624E+03  0.65108288136E+03 -0.17193760082E+04  0.20394004562E+04  0.12699999809E+01 0. -1.
</event>
<event>
 5   0  0.3377396E-07  0.3887781E+04  0.7818609E-02  0.8027575E-01
        2   -1    0    0  501    0  0.00000000000E+00  0.00000000000E+00  0.24937272791E+04  0.24937272791E+04  0.25500000920E-02 0.  1.
       -2   -1    0    0    0  501  0.00000000000E+00  0.00000000000E+00 -0.15152861945E+04  0.15152861945E+04  0.25500000920E-02 0. -1.
    10030    2    1    2    0    0  0.00000000000E+00  0.00000000000E+00  0.97844108454E+03  0.40090134736E+04  0.38877811250E+04 0.  0.
        5    1    3    3  502    0  0.14903995496E+03 -0.16598067079E+04 -0.54274433841E+03  0.17526450647E+04  0.46999998093E+01 0. -1.
       -5    1    3    3    0  502 -0.14903995496E+03  0.16598067079E+04  0.15211854229E+04  0.22563684089E+04  0.46999998093E+01 0.  1.
</event>
<event>
 5   0  0.3509843E-07  0.3796371E+04  0.7818609E-02  0.8046934E-01
       -2   -1    0    0    0  501  0.00000000000E+00  0.00000000000E+00  0.16762855796E+04  0.16762855796E+04  0.25500000920E-02 0.  1.
        2   -1    0    0  501    0  0.00000000000E+00  0.00000000000E+00 -0.21494595889E+04  0.21494595889E+04  0.25500000920E-02 0. -1.
    10030    2    1    2    0    0  0.00000000000E+00  0.00000000000E+00 -0.47317400936E+03  0.38257451685E+04  0.37963709581E+04 0.  0.
        4    1    3    3  502    0  0.60148442464E+03 -0.17899606198E+04 -0.43138024487E+03  0.19369649099E+04  0.12699999809E+01 0. -1.
       -4    1    3    3    0  502 -0.60148442464E+03  0.17899606198E+04 -0.41793764493E+02  0.18887802586E+04  0.12699999809E+01 0.  1.
</event>
<event>
 5   0  0.1070988E-07  0.3779680E+04  0.7818609E-02  0.8050530E-01
       -1   -1    0    0    0  501  0.00000000000E+00  0.00000000000E+00  0.17662081076E+04  0.17662081076E+04  0.50400001928E-02 0.  1.
        1   -1    0    0  501    0  0.00000000000E+00  0.00000000000E+00 -0.20221255473E+04  0.20221255473E+04  0.50400001928E-02 0. -1.
    10030    2    1    2    0    0  0.00000000000E+00  0.00000000000E+00 -0.25591743975E+03  0.37883336549E+04  0.37796796352E+04 0.  0.
        3    1    3    3  502    0  0.16839874512E+04 -0.15195776869E+03  0.71812430059E+03  0.18370104573E+04  0.10100000352E+00 0.  1.
       -3    1    3    3    0  502 -0.16839874512E+04  0.15195776869E+03 -0.97404174033E+03  0.19513231975E+04  0.10100000352E+00 0. -1.
</event>
<event>
 5   0  0.3377396E-07  0.3819584E+04  0.7818609E-02  0.8041965E-01
       -2   -1    0    0    0  501  0.00000000000E+00  0.00000000000E+00  0.16904923355E+04  0.16904923355E+04  0.25500000920E-02 0. -1.
        2   -1    0    0  501    0  0.00000000000E+00  0.00000000000E+00 -0.21575403238E+04  0.21575403238E+04  0.25500000920E-02 0.  1.
    10030    2    1    2    0    0  0.00000000000E+00  0.00000000000E+00 -0.46704798822E+03  0.38480326593E+04  0.38195839464E+04 0.  0.
        5    1    3    3  502    0  0.63118040152E+03 -0.17987734795E+04 -0.34974596680E+03  0.19381225609E+04  0.46999998093E+01 0. -1.
       -5    1    3    3    0  502 -0.63118040152E+03  0.17987734795E+04 -0.11730202142E+03  0.19099100984E+04  0.46999998093E+01 0.  1.
</event>
<event>
 5   0  0.3539010E-07  0.3768296E+04  0.7818609E-02  0.8052993E-01
       -2   -1    0    0    0  501  0.00000000000E+00  0.00000000000E+00  0.16946938128E+04  0.16946938128E+04  0.25500000920E-02 0.  1.
        2   -1    0    0  501    0  0.00000000000E+00  0.00000000000E+00 -0.20947817974E+04  0.20947817974E+04  0.25500000920E-02 0. -1.
    10030    2    1    2    0    0  0.00000000000E+00  0.00000000000E+00 -0.40008798465E+03  0.37894756102E+04  0.37682960347E+04 0.  0.
        1    1    3    3  502    0 -0.66403748518E+03  0.14192059558E+04  0.85222258930E+03  0.17836408462E+04  0.50400001928E-02 0.  1.
       -1    1    3    3    0  502  0.66403748518E+03 -0.14192059558E+04 -0.12523105739E+04  0.20058347640E+04  0.50400001928E-02 0. -1.
</event>
<event>
 5   0  0.3327241E-07  0.3554966E+04  0.7818609E-02  0.8100886E-01
       -2   -1    0    0    0  501  0.00000000000E+00  0.00000000000E+00  0.14578097592E+04  0.14578097592E+04  0.25500000920E-02 0.  1.
        2   -1    0    0  501    0  0.00000000000E+00  0.00000000000E+00 -0.21672548871E+04  0.21672548871E+04  0.25500000920E-02 0. -1.
    10030    2    1    2    0    0  0.00000000000E+00  0.00000000000E+00 -0.70944512793E+03  0.36250646463E+04  0.35549657243E+04 0.  0.
        3    1    3    3  502    0 -0.29366907550E+03 -0.16976352636E+04  0.91208550708E+02  0.17252611466E+04  0.10100000352E+00 0.  1.
       -3    1    3    3    0  502  0.29366907550E+03  0.16976352636E+04 -0.80065367864E+03  0.18998034997E+04  0.10100000352E+00 0. -1.
</event>
<event>
 5   0  0.1085771E-07  0.3656699E+04  0.7818609E-02  0.8077626E-01
        1   -1    0    0  501    0  0.00000000000E+00  0.00000000000E+00  0.32724296571E+04  0.32724296571E+04  0.50400001928E-02 0. -1.
       -1   -1    0    0    0  501  0.00000000000E+00  0.00000000000E+00 -0.10215231663E+04  0.10215231663E+04  0.50400001928E-02 0.  1.
    10030    2    1    2    0    0  0.00000000000E+00  0.00000000000E+00  0.22509064907E+04  0.42939528234E+04  0.36566994434E+04 0.  0.
        1    1    3    3  502    0  0.84625961794E+02  0.15469379371E+04 -0.14668187940E+02  0.15493203964E+04  0.50400001928E-02 0.  1.
       -1    1    3    3    0  502 -0.84625961794E+02 -0.15469379371E+04  0.22655746787E+04  0.27446324270E+04  0.50400001928E-02 0. -1.
</event>
<event>
 5   0  0.1070988E-07  0.3750527E+04  0.7818609E-02  0.8056856E-01
        1   -1    0    0  501    0  0.00000000000E+00  0.00000000000E+00  0.23629698388E+04  0.23629698388E+04  0.50400001928E-02 0.  1.
       -1   -1    0    0    0  501  0.00000000000E+00  0.00000000000E+00 -0.14882173682E+04  0.14882173682E+04  0.50400001928E-02 0. -1.
    10030    2    1    2    0    0  0.00000000000E+00  0.00000000000E+00  0.87475247064E+03  0.38511872070E+04  0.37505267655E+04 0.  0.
        2    1    3    3  502    0 -0.29423310774E+03 -0.24179966860E+03  0.23228418476E+04  0.23538552314E+04  0.25500000920E-02 0.  1.
       -2    1    3    3    0  502  0.29423310774E+03  0.24179966860E+03 -0.14480893770E+04  0.14973319756E+04  0.25500000920E-02 0. -1.
</event>
<event>
 5   0  0.3539010E-07  0.3788800E+04  0.7818609E-02  0.8048563E-01
       -2   -1    0    0    0  501  0.00000000000E+00  0.00000000000E+00  0.16135428415E+04  0.16135428415E+04  0.25500000920E-02 0. -1.
        2   -1    0    0  501    0  0.00000000000E+00  0.00000000000E+00 -0.22241434598E+04  0.22241434598E+04  0.25500000920E-02 0.  1.
    10030    2    1    2    0    0  0.00000000000E+00  0.00000000000E+00 -0.61060061832E+03  0.38376863013E+04  0.37887996822E+04 0.  0.
        1    1    3    3  502    0 -0.17690065929E+04  0.66548665013E+03 -0.43538619319E+03  0.19395406530E+04  0.50400001928E-02 0. -1.
       -1    1    3    3    0  502  0.17690065929E+04 -0.66548665013E+03 -0.17521442513E+03  0.18981456483E+04  0.50400001928E-02 0.  1.
</event>
<event>
 5   0  0.3327241E-07  0.3810004E+04  0.7818609E-02  0.8044012E-01
        2   -1    0    0  501    0  0.00000000000E+00  0.00000000000E+00  0.16922771786E+04  0.16922771786E+04  0.25500000920E-02 0.  1.
       -2   -1    0    0    0  501  0.00000000000E+00  0.00000000000E+00 -0.21444665910E+04  0.21444665910E+04  0.25500000920E-02 0. -1.
    10030    2    1    2    0    0  0.00000000000E+00  0.00000000000E+00 -0.45218941245E+03  0.38367437696E+04  0.38100036075E+04 0.  0.
        3    1    3    3  502    0  0.55051678827E+03  0.16602357537E+04  0.53390761085E+03  0.18287998357E+04  0.10100000352E+00 0.  1.
       -3    1    3    3    0  502 -0.55051678827E+03 -0.16602357537E+04 -0.98609702330E+03  0.20079439339E+04  0.10100000352E+00 0. -1.
</event>
<event>
 5   0  0.1070988E-07  0.3814731E+04  0.7818609E-02  0.8043001E-01
       -1   -1    0    0    0  501  0.00000000000E+00  0.00000000000E+00  0.17276392301E+04  0.17276392301E+04  0.50400001928E-02 0.  1.
        1   -1    0    0  501    0  0.00000000000E+00  0.00000000000E+00 -0.21057881545E+04  0.21057881545E+04  0.50400001928E-02 0. -1.
    10030    2    1    2    0    0  0.00000000000E+00  0.00000000000E+00 -0.37814892438E+03  0.38334273847E+04  0.38147305153E+04 0.  0.
        5    1    3    3  502    0  0.16263456083E+03  0.18955483760E+04 -0.52516963498E+02  0.19032429608E+04  0.46999998093E+01 0. -1.
       -5    1    3    3    0  502 -0.16263456083E+03 -0.18955483760E+04 -0.32563196088E+03  0.19301844239E+04  0.46999998093E+01 0.  1.
</event>
<event>
 5   0  0.3327241E-07  0.3830084E+04  0.7818609E-02  0.8039730E-01
       -2   -1    0    0    0  501  0.00000000000E+00  0.00000000000E+00  0.18123136510E+04  0.18123136510E+04  0.25500000920E-02 0. -1.
        2   -1    0    0  501    0  0.00000000000E+00  0.00000000000E+00 -0.20235929524E+04  0.20235929524E+04  0.25500000920E-02 0.  1.
    10030    2    1    2    0    0  0.00000000000E+00  0.00000000000E+00 -0.21127930135E+03  0.38359066034E+04  0.38300836188E+04 0.  0.
        3    1    3    3  502    0 -0.10872987188E+03  0.32528863356E+03  0.17813028545E+04  0.18140217060E+04  0.10100000352E+00 0. -1.
       -3    1    3    3    0  502  0.10872987188E+03 -0.32528863356E+03 -0.19925821559E+04  0.20218848974E+04  0.10100000352E+00 0.  1.
</event>
<event>
 5   0  0.1084315E-07  0.3868888E+04  0.7818609E-02  0.8031531E-01
        1   -1    0    0  501    0  0.00000000000E+00  0.00000000000E+00  0.21233661856E+04  0.21233661856E+04  0.50400001928E-02 0. -1.
       -1   -1    0    0    0  501  0.00000000000E+00  0.00000000000E+00 -0.17623309610E+04  0.17623309610E+04  0.50400001928E-02 0.  1.
    10030    2    1    2    0    0  0.00000000000E+00  0.00000000000E+00  0.36103522466E+03  0.38856971466E+04  0.38688881971E+04 0.  0.
        4    1    3    3  502    0  0.16917286290E+03  0.64765642088E+03 -0.16423040229E+04  0.17734831303E+04  0.12699999809E+01 0.  1.
       -4    1    3    3    0  502 -0.16917286290E+03 -0.64765642088E+03  0.20033392475E+04  0.21122140163E+04  0.12699999809E+01 0. -1.
</event>
<event>
 5   0  0.1084315E-07  0.3103846E+04  0.7818609E-02  0.8214683E-01
       -1   -1    0    0    0  501  0.00000000000E+00  0.00000000000E+00  0.11635715146E+04  0.11635715147E+04  0.50400001928E-02 0. -1.
        1   -1    0    0  501    0  0.00000000000E+00  0.00000000000E+00 -0.20698899576E+04  0.20698899576E+04  0.50400001928E-02 0.  1.
    10030    2    1    2    0    0  0.00000000000E+00  0.00000000000E+00 -0.90631844298E+03  0.32334614723E+04  0.31038459969E+04 0.  0.
        4    1    3    3  502    0  0.86388952529E+03  0.69837138407E+03 -0.15821285515E+04  0.19331735743E+04  0.12699999809E+01 0.  1.
       -4    1    3    3    0  502 -0.86388952529E+03 -0.69837138407E+03  0.67581010852E+03  0.13002878980E+04  0.12699999809E+01 0. -1.
</event>
<event>
 5   0  0.3327241E-07  0.3852139E+04  0.7818609E-02  0.8035058E-01
        2   -1    0    0  501    0  0.00000000000E+00  0.00000000000E+00  0.26715625787E+04  0.26715625787E+04  0.25500000920E-02 0. -1.
       -2   -1    0    0    0  501  0.00000000000E+00  0.00000000000E+00 -0.13886041471E+04  0.13886041471E+04  0.25500000920E-02 0.  1.
    10030    2    1    2    0    0  0.00000000000E+00  0.00000000000E+00  0.12829584316E+04  0.40601667258E+04  0.38521385624E+04 0.  0.
        3    1    3    3  502    0 -0.49152666337E+03  0.18531930486E+04  0.83531248363E+03  0.20913320855E+04  0.10100000352E+00 0. -1.
       -3    1    3    3    0  502  0.49152666337E+03 -0.18531930486E+04  0.44764594800E+03  0.19688346404E+04  0.10100000352E+00 0.  1.
</event>
<event>
 5   0  0.1070988E-07  0.3839999E+04  0.7818609E-02  0.8037625E-01
       -1   -1    0    0    0  501  0.00000000000E+00  0.00000000000E+00  0.28700208639E+04  0.28700208639E+04  0.50400001928E-02 0.  1.
        1   -1    0    0  501    0  0.00000000000E+00  0.00000000000E+00 -0.12844499767E+04  0.12844499767E+04  0.50400001928E-02 0. -1.
    10030    2    1    2    0    0  0.00000000000E+00  0.00000000000E+00  0.15855708872E+04  0.41544708407E+04  0.38399990791E+04 0.  0.
        5    1    3    3  502    0 -0.10695859599E+04  0.51393652244E+03 -0.84020445719E+03  0.14539981068E+04  0.46999998093E+01 0.  1.
       -5    1    3    3    0  502  0.10695859599E+04 -0.51393652244E+03  0.24257753444E+04  0.27004727338E+04  0.46999998093E+01 0. -1.
</event>
<event>
 5   0  0.1085771E-07  0.3781932E+04  0.7818609E-02  0.8050043E-01
       -1   -1    0    0    0  501  0.00000000000E+00  0.00000000000E+00  0.16792833631E+04  0.16792833631E+04  0.50400001928E-02 0. -1.
        1   -1    0    0  501    0  0.00000000000E+00  0.00000000000E+00 -0.21293324066E+04  0.21293324066E+04  0.50400001928E-02 0.  1.
    10030    2    1    2    0    0  0.00000000000E+00  0.00000000000E+00 -0.45004904353E+03  0.38086157697E+04  0.37819320379E+04 0.  0.
        1    1    3    3  502    0  0.73815133374E+02  0.68657259157E+03 -0.19978204916E+04  0.21137921644E+04  0.50400001928E-02 0.  1.
       -1    1    3    3    0  502 -0.73815133374E+02 -0.68657259157E+03  0.15477714481E+04  0.16948236053E+04  0.50400001928E-02 0. -1.
</event>
<event>
 5   0  0.1084315E-07  0.3784593E+04  0.7818609E-02  0.8049469E-01
        1   -1    0    0  501    0  0.00000000000E+00  0.00000000000E+00  0.12543822187E+04  0.12543822187E+04  0.50400001928E-02 0.  1.
       -1   -1    0    0    0  501  0.00000000000E+00  0.00000000000E+00 -0.28546217207E+04  0.28546217207E+04  0.50400001928E-02 0. -1.
    10030    2    1    2    0    0  0.00000000000E+00  0.00000000000E+00 -0.16002395020E+04  0.41090039393E+04  0.37845933612E+04 0.  0.
        4    1    3    3  502    0  0.97908971177E+03  0.53673301148E+03 -0.24588500316E+04  0.27004896001E+04  0.12699999809E+01 0. -1.
       -4    1    3    3    0  502 -0.97908971177E+03 -0.53673301148E+03  0.85861052965E+03  0.14085143392E+04  0.12699999809E+01 0.  1.
</event>
<event>
 5   0  0.3442126E-07  0.3815237E+04  0.7818609E-02  0.8042893E-01
        2   -1    0    0  501    0  0.00000000000E+00  0.00000000000E+00  0.25101107607E+04  0.25101107607E+04  0.25500000920E-02 0.  1.
       -2   -1    0    0    0  501  0.00000000000E+00  0.00000000000E+00 -0.14497398512E+04  0.14497398512E+04  0.25500000920E-02 0. -1.
    10030    2    1    2    0    0  0.00000000000E+00  0.00000000000E+00  0.10603709095E+04  0.39598506120E+04  0.38152366117E+04 0.  0.
        2    1    3    3  502    0  0.12765191112E+04 -0.13543767696E+04  0.95787926194E+02  0.18636021040E+04  0.25500000920E-02 0. -1.
       -2    1    3    3    0  502 -0.12765191112E+04  0.13543767696E+04  0.96458298331E+03  0.20962485079E+04  0.25500000920E-02 0.  1.
</event>
<event>
 5   0  0.3442126E-07  0.3785378E+04  0.7818609E-02  0.8049300E-01
       -2   -1    0    0    0  501  0.00000000000E+00  0.00000000000E+00  0.12679062159E+04  0.12679062159E+04  0.25500000920E-02 0. -1.
        2   -1    0    0  501    0  0.00000000000E+00  0.00000000000E+00 -0.28253440057E+04  0.28253440057E+04  0.25500000920E-02 0.  1.
    10030    2    1    2    0    0  0.00000000000E+00  0.00000000000E+00 -0.15574377898E+04  0.40932502216E+04  0.37853777761E+04 0.  0.
        2    1    3    3  502    0  0.18595686615E+03  0.37945806695E+02  0.12575907827E+04  0.12718311275E+04  0.25500000920E-02 0. -1.
       -2    1    3    3    0  502 -0.18595686615E+03 -0.37945806695E+02 -0.28150285725E+04  0.28214190941E+04  0.25500000920E-02 0.  1.
</event>
<event>
 5   0  0.3442126E-07  0.3875107E+04  0.7818609E-02  0.8030226E-01
       -2   -1    0    0    0  501  0.00000000000E+00  0.00000000000E+00  0.16405978624E+04  0.16405978624E+04  0.25500000920E-02 0.  1.
        2   -1    0    0  501    0  0.00000000000E+00  0.00000000000E+00 -0.22882598101E+04  0.22882598101E+04  0.25500000920E-02 0. -1.
    10030    2    1    2    0    0  0.00000000000E+00  0.00000000000E+00 -0.64766194771E+03  0.39288576726E+04  0.38751073034E+04 0.  0.
        2    1    3    3  502    0  0.49593621336E+03 -0.11770674428E+04 -0.18009795457E+04  0.22079329285E+04  0.25500000920E-02 0. -1.
       -2    1    3    3    0  502 -0.49593621336E+03  0.11770674428E+04  0.11533175980E+04  0.17209247440E+04  0.25500000920E-02 0.  1.
</event>
<event>
 5   0  0.1070988E-07  0.3746138E+04  0.7818609E-02  0.8057813E-01
        1   -1    0    0  501    0  0.00000000000E+00  0.00000000000E+00  0.23054130489E+04  0.23054130489E+04  0.50400001928E-02 0. -1.
       -1   -1    0    0    0  501  0.00000000000E+00  0.00000000000E+00 -0.15218041529E+04  0.15218041529E+04  0.50400001928E-02 0.  1.
    10030    2    1    2    0    0  0.00000000000E+00  0.00000000000E+00  0.78360889601E+03  0.38272172018E+04  0.37461378256E+04 0.  0.
        2    1    3    3  502    0 -0.33609989158E+03  0.61900746297E+03 -0.13813441665E+04  0.15505628277E+04  0.25500000920E-02 0.  1.
       -2    1    3    3    0  502  0.33609989158E+03 -0.61900746297E+03  0.21649530625E+04  0.22766543741E+04  0.25500000920E-02 0. -1.
</event>
<event>
 5   0  0.1084315E-07  0.3799027E+04  0.7818609E-02  0.8046364E-01
        1   -1    0    0  501    0  0.00000000000E+00  0.00000000000E+00  0.17775743584E+04  0.17775743584E+04  0.50400001928E-02 0. -1.
       -1   -1    0    0    0  501  0.00000000000E+00  0.00000000000E+00 -0.20298176682E+04  0.20298176682E+04  0.50400001928E-02 0.  1.
    10030    2    1    2    0    0  0.00000000000E+00  0.00000000000E+00 -0.25224330981E+03  0.38073920266E+04  0.37990271593E+04 0.  0.
        4    1    3    3  502    0 -0.19359881871E+03  0.49144739156E+03  0.17024914434E+04  0.17825486723E+04  0.12699999809E+01 0. -1.
       -4    1    3    3    0  502  0.19359881871E+03 -0.49144739156E+03 -0.19547347532E+04  0.20248433543E+04  0.12699999809E+01 0.  1.
</event>
<event>
 5   0  0.1070988E-07  0.3757390E+04  0.7818609E-02  0.8055361E-01
        1   -1    0    0  501    0  0.00000000000E+00  0.00000000000E+00  0.10712979028E+04  0.10712979028E+04  0.50400001928E-02 0. -1.
       -1   -1    0    0    0  501  0.00000000000E+00  0.00000000000E+00 -0.32945978298E+04  0.32945978298E+04  0.50400001928E-02 0.  1.
    10030    2    1    2    0    0  0.00000000000E+00  0.00000000000E+00 -0.22232999270E+04  0.43658957326E+04  0.37573904485E+04 0.  0.
        3    1    3    3  502    0  0.14423434104E+04 -0.67798280963E+03  0.44171245535E+02  0.15943545129E+04  0.10100000352E+00 0. -1.
       -3    1    3    3    0  502 -0.14423434104E+04  0.67798280963E+03 -0.22674711725E+04  0.27715412196E+04  0.10100000352E+00 0.  1.
</event>
<event>
 5   0  0.3377396E-07  0.3413184E+04  0.7818609E-02  0.8134678E-01
        2   -1    0    0  501    0  0.00000000000E+00  0.00000000000E+00  0.10273358735E+04  0.10273358735E+04  0.25500000920E-02 0. -1.
       -2   -1    0    0    0  501  0.00000000000E+00  0.00000000000E+00 -0.28349608942E+04  0.28349608942E+04  0.25500000920E-02 0.  1.
    10030    2    1    2    0    0  0.00000000000E+00  0.00000000000E+00 -0.18076250207E+04  0.38622967677E+04  0.34131844524E+04 0.  0.
        5    1    3    3  502    0  0.47819825719E+03  0.11457611392E+04  0.42114961841E+03  0.13110420483E+04  0.46999998093E+01 0. -1.
       -5    1    3    3    0  502 -0.47819825719E+03 -0.11457611392E+04 -0.22287746391E+04  0.25512547194E+04  0.46999998093E+01 0.  1.
</event>
<event>
 5   0  0.1084315E-07  0.3257700E+04  0.7818609E-02  0.8173743E-01
        1   -1    0    0  501    0  0.00000000000E+00  0.00000000000E+00  0.17299731252E+04  0.17299731252E+04  0.50400001928E-02 0.  1.
       -1   -1    0    0    0  501  0.00000000000E+00  0.00000000000E+00 -0.15336381920E+04  0.15336381920E+04  0.50400001928E-02 0. -1.
    10030    2    1    2    0    0  0.00000000000E+00  0.00000000000E+00  0.19633493319E+03  0.32636113172E+04  0.32577003275E+04 0.  0.
        4    1    3    3  502    0 -0.19282448864E+03 -0.50195934247E+03 -0.14421550274E+04  0.15391417092E+04  0.12699999809E+01 0. -1.
       -4    1    3    3    0  502  0.19282448864E+03  0.50195934247E+03  0.16384899606E+04  0.17244696080E+04  0.12699999809E+01 0.  1.
</event>
<event>
 5   0  0.3377396E-07  0.3806698E+04  0.7818609E-02  0.8044719E-01
        2   -1    0    0  501    0  0.00000000000E+00  0.00000000000E+00  0.23113658913E+04  0.23113658913E+04  0.25500000920E-02 0.  1.
       -2   -1    0    0    0  501  0.00000000000E+00  0.00000000000E+00 -0.15673582191E+04  0.15673582191E+04  0.25500000920E-02 0. -1.
    10030    2    1    2    0    0  0.00000000000E+00  0.00000000000E+00  0.74400767219E+03  0.38787241103E+04  0.38066984787E+04 0.  0.
        5    1    3    3  502    0  0.17327880353E+04  0.74678856637E+03  0.11733744042E+03  0.18905125503E+04  0.46999998093E+01 0.  1.
       -5    1    3    3    0  502 -0.17327880353E+04 -0.74678856637E+03  0.62667023176E+03  0.19882115600E+04  0.46999998093E+01 0. -1.
</event>
<event>
 5   0  0.1084315E-07  0.3794608E+04  0.7818609E-02  0.8047313E-01
        1   -1    0    0  501    0  0.00000000000E+00  0.00000000000E+00  0.23066942896E+04  0.23066942896E+04  0.50400001928E-02 0.  1.
       -1   -1    0    0    0  501  0.00000000000E+00  0.00000000000E+00 -0.15605716420E+04  0.15605716420E+04  0.50400001928E-02 0. -1.
    10030    2    1    2    0    0  0.00000000000E+00  0.00000000000E+00  0.74612264762E+03  0.38672659316E+04  0.37946075924E+04 0.  0.
        4    1    3    3  502    0 -0.13535609196E+04  0.11939306842E+04  0.96920828337E+03  0.20486492992E+04  0.12699999809E+01 0. -1.
       -4    1    3    3    0  502  0.13535609196E+04 -0.11939306842E+04 -0.22308563575E+03  0.18186166324E+04  0.12699999809E+01 0.  1.
</event>
<event>
 5   0  0.1070988E-07  0.3945364E+04  0.7818609E-02  0.8015660E-01
       -1   -1    0    0    0  501  0.00000000000E+00  0.00000000000E+00  0.21368643568E+04  0.21368643568E+04  0.50400001928E-02 0. -1.
        1   -1    0    0  501    0  0.00000000000E+00  0.00000000000E+00 -0.18211144135E+04  0.18211144135E+04  0.50400001928E-02 0.  1.
    10030    2    1    2    0    0  0.00000000000E+00  0.00000000000E+00  0.31574994337E+03  0.39579787703E+04  0.39453641048E+04 0.  0.
        3    1    3    3  502    0  0.35935538800E+03 -0.51195717218E+03 -0.17189992129E+04  0.18292607100E+04  0.10100000352E+00 0.  1.
       -3    1    3    3    0  502 -0.35935538800E+03  0.51195717218E+03  0.20347491563E+04  0.21287180603E+04  0.10100000352E+00 0. -1.
</event>
<event>
 5   0  0.1070988E-07  0.3807817E+04  0.7818609E-02  0.8044479E-01
        1   -1    0    0  501    0  0.00000000000E+00  0.00000000000E+00  0.15903427514E+04  0.15903427514E+04  0.50400001928E-02 0. -1.
       -1   -1    0    0    0  501  0.00000000000E+00  0.00000000000E+00 -0.22792995679E+04  0.22792995679E+04  0.50400001928E-02 0.  1.
    10030    2    1    2    0    0  0.00000000000E+00  0.00000000000E+00 -0.68895681645E+03  0.38696423193E+04  0.38078169841E+04 0.  0.
        3    1    3    3  502    0  0.11331173570E+03 -0.12055753023E+04 -0.18375563212E+04  0.22006509498E+04  0.10100000352E+00 0.  1.
       -3    1    3    3    0  502 -0.11331173570E+03  0.12055753023E+04  0.11485995048E+04  0.16689913695E+04  0.10100000352E+00 0. -1.
</event>
<event>
 5   0  0.3509843E-07  0.3238775E+04  0.7818609E-02  0.8178651E-01
       -2   -1    0    0    0  501  0.00000000000E+00  0.00000000000E+00  0.20716783553E+04  0.20716783553E+04  0.25500000920E-02 0. -1.
        2   -1    0    0  501    0  0.00000000000E+00  0.00000000000E+00 -0.12658408934E+04  0.12658408934E+04  0.25500000920E-02 0.  1.
    10030    2    1    2    0    0  0.00000000000E+00  0.00000000000E+00  0.80583746195E+03  0.33375192487E+04  0.32387745708E+04 0.  0.
        4    1    3    3  502    0  0.32596134458E+03  0.18401271472E+03 -0.12206488649E+04  0.12767524198E+04  0.12699999809E+01 0.  1.
       -4    1    3    3    0  502 -0.32596134458E+03 -0.18401271472E+03  0.20264863268E+04  0.20607668289E+04  0.12699999809E+01 0. -1.
</event>
<event>
 5   0  0.3442126E-07  0.3802783E+04  0.7818609E-02  0.8045558E-01
       -2   -1    0    0    0  501  0.00000000000E+00  0.00000000000E+00  0.27100932158E+04  0.27100932158E+04  0.25500000920E-02 0. -1.
        2   -1    0    0  501    0  0.00000000000E+00  0.00000000000E+00 -0.13340091379E+04  0.13340091379E+04  0.25500000920E-02 0.  1.
    10030    2    1    2    0    0  0.00000000000E+00  0.00000000000E+00  0.13760840778E+04  0.40441023537E+04  0.38027827255E+04 0.  0.
        2    1    3    3  502    0 -0.58091905086E+03 -0.39492081303E+03 -0.11909602911E+04  0.13826842760E+04  0.25500000920E-02 0.  1.
       -2    1    3    3    0  502  0.58091905086E+03  0.39492081303E+03  0.25670443689E+04  0.26614180777E+04  0.25500000920E-02 0. -1.
</event>
<event>
 5   0  0.1070988E-07  0.3313828E+04  0.7818609E-02  0.8159386E-01
       -1   -1    0    0    0  501  0.00000000000E+00  0.00000000000E+00  0.24324598878E+04  0.24324598878E+04  0.50400001928E-02 0. -1.
        1   -1    0    0  501    0  0.00000000000E+00  0.00000000000E+00 -0.11286371162E+04  0.11286371163E+04  0.50400001928E-02 0.  1.
    10030    2    1    2    0    0  0.00000000000E+00  0.00000000000E+00  0.13038227716E+04  0.35610970041E+04  0.33138283077E+04 0.  0.
        3    1    3    3  502    0  0.96068004147E+03 -0.38531257940E+03  0.20422819493E+04  0.22896042227E+04  0.10100000352E+00 0. -1.
       -3    1    3    3    0  502 -0.96068004147E+03  0.38531257940E+03 -0.73845917767E+03  0.12714927814E+04  0.10100000352E+00 0.  1.
</event>
<event>
 5   0  0.3327241E-07  0.3808835E+04  0.7818609E-02  0.8044262E-01
       -2   -1    0    0    0  501  0.00000000000E+00  0.00000000000E+00  0.15590843660E+04  0.15590843660E+04  0.25500000920E-02 0. -1.
        2   -1    0    0  501    0  0.00000000000E+00  0.00000000000E+00 -0.23262413881E+04  0.23262413881E+04  0.25500000920E-02 0.  1.
    10030    2    1    2    0    0  0.00000000000E+00  0.00000000000E+00 -0.76715702212E+03  0.38853257541E+04  0.38088352969E+04 0.  0.
        3    1    3    3  502    0  0.14215851714E+04  0.28069276500E+03  0.87700300942E+03  0.16937612336E+04  0.10100000352E+00 0. -1.
       -3    1    3    3    0  502 -0.14215851714E+04 -0.28069276500E+03 -0.16441600315E+04  0.21915645205E+04  0.10100000352E+00 0.  1.
</event>
<event>
 5   0  0.1085771E-07  0.3859273E+04  0.7818609E-02  0.8033553E-01
        1   -1    0    0  501    0  0.00000000000E+00  0.00000000000E+00  0.27634498289E+04  0.27634498289E+04  0.50400001928E-02 0. -1.
       -1   -1    0    0    0  501  0.00000000000E+00  0.00000000000E+00 -0.13474085994E+04  0.13474085994E+04  0.50400001928E-02 0.  1.
    10030    2    1    2    0    0  0.00000000000E+00  0.00000000000E+00  0.14160412295E+04  0.41108584283E+04  0.38592725032E+04 0.  0.
        1    1    3    3  502    0 -0.62942397326E+03 -0.31850364299E+03 -0.12051379856E+04  0.13964156519E+04  0.50400001928E-02 0.  1.
       -1    1    3    3    0  502  0.62942397326E+03  0.31850364299E+03  0.26211792150E+04  0.27144427763E+04  0.50400001928E-02 0. -1.
</event>
<event>
 5   0  0.1084315E-07  0.3844746E+04  0.7818609E-02  0.8036620E-01
        1   -1    0    0  501    0  0.00000000000E+00  0.00000000000E+00  0.28850112739E+04  0.28850112739E+04  0.50400001928E-02 0. -1.
       -1   -1    0    0    0  501  0.00000000000E+00  0.00000000000E+00 -0.12809373106E+04  0.12809373106E+04  0.50400001928E-02 0.  1.
    10030    2    1    2    0    0  0.00000000000E+00  0.00000000000E+00  0.16040739634E+04  0.41659485845E+04  0.38447463283E+04 0.  0.
        4    1    3    3  502    0  0.11525267431E+04 -0.71831288082E+03  0.22763031452E+04  0.26506317945E+04  0.12699999809E+01 0. -1.
       -4    1    3    3    0  502 -0.11525267431E+04  0.71831288082E+03 -0.67222918180E+03  0.15153167900E+04  0.12699999809E+01 0.  1.
</event>
<event>
 5   0  0.1070988E-07  0.3815014E+04  0.7818609E-02  0.8042941E-01
        1   -1    0    0  501    0  0.00000000000E+00  0.00000000000E+00  0.21828913819E+04  0.21828913819E+04  0.50400001928E-02 0.  1.
       -1   -1    0    0    0  501  0.00000000000E+00  0.00000000000E+00 -0.16668637613E+04  0.16668637613E+04  0.50400001928E-02 0. -1.
    10030    2    1    2    0    0  0.00000000000E+00  0.00000000000E+00  0.51602762066E+03  0.38497551432E+04  0.38150137821E+04 0.  0.
        5    1    3    3  502    0 -0.47203149164E+03  0.10118776148E+04  0.18186583753E+04  0.21340689803E+04  0.46999998093E+01 0.  1.
       -5    1    3    3    0  502  0.47203149164E+03 -0.10118776148E+04 -0.13026307547E+04  0.17156861629E+04  0.46999998093E+01 0. -1.
</event>
<event>
 5   0  0.3327241E-07  0.3765694E+04  0.7818609E-02  0.8053557E-01
       -2   -1    0    0    0  501  0.00000000000E+00  0.00000000000E+00  0.26127192269E+04  0.26127192269E+04  0.25500000920E-02 0.  1.
        2   -1    0    0  501    0  0.00000000000E+00  0.00000000000E+00 -0.13568671859E+04  0.13568671859E+04  0.25500000920E-02 0. -1.
    10030    2    1    2    0    0  0.00000000000E+00  0.00000000000E+00  0.12558520410E+04  0.39695864128E+04  0.37656940847E+04 0.  0.
        3    1    3    3  502    0  0.80454139717E+03 -0.95708168707E+03  0.21119209290E+04  0.24542824279E+04  0.10100000352E+00 0.  1.
       -3    1    3    3    0  502 -0.80454139717E+03  0.95708168707E+03 -0.85606888792E+03  0.15153039849E+04  0.10100000352E+00 0. -1.
</event>
<event>
 5   0  0.1085771E-07  0.3810046E+04  0.7818609E-02  0.8044002E-01
       -1   -1    0    0    0  501  0.00000000000E+00  0.00000000000E+00  0.13719057718E+04  0.13719057718E+04  0.50400001928E-02 0. -1.
        1   -1    0    0  501    0  0.00000000000E+00  0.00000000000E+00 -0.26453077205E+04  0.26453077205E+04  0.50400001928E-02 0.  1.
    10030    2    1    2    0    0  0.00000000000E+00  0.00000000000E+00 -0.12734019487E+04  0.40172134923E+04  0.38100461572E+04 0.  0.
        1    1    3    3  502    0  0.11187911838E+04 -0.11489005140E+04 -0.17209372777E+04  0.23522948833E+04  0.50400001928E-02 0.  1.
       -1    1    3    3    0  502 -0.11187911838E+04  0.11489005140E+04  0.44753532894E+03  0.16649186090E+04  0.50400001928E-02 0. -1.
</event>
<event>
 5   0  0.3539010E-07  0.3818113E+04  0.7818609E-02  0.8042279E-01
       -2   -1    0    0    0  501  0.00000000000E+00  0.00000000000E+00  0.16159205826E+04  0.16159205826E+04  0.25500000920E-02 0.  1.
        2   -1    0    0  501    0  0.00000000000E+00  0.00000000000E+00 -0.22553685780E+04  0.22553685780E+04  0.25500000920E-02 0. -1.
    10030    2    1    2    0    0  0.00000000000E+00  0.00000000000E+00 -0.63944799547E+03  0.38712891606E+04  0.38181128881E+04 0.  0.
        1    1    3    3  502    0  0.15731775368E+04  0.48397817213E+03  0.66089321181E+03  0.17736691548E+04  0.50400001928E-02 0.  1.
       -1    1    3    3    0  502 -0.15731775368E+04 -0.48397817213E+03 -0.13003412073E+04  0.20976200058E+04  0.50400001928E-02 0. -1.
</event>
<event>
 5   0  0.1085771E-07  0.3775907E+04  0.7818609E-02  0.8051345E-01
        1   -1    0    0  501    0  0.00000000000E+00  0.00000000000E+00  0.19817700843E+04  0.19817700843E+04  0.50400001928E-02 0.  1.
       -1   -1    0    0    0  501  0.00000000000E+00  0.00000000000E+00 -0.17985785820E+04  0.17985785820E+04  0.50400001928E-02 0. -1.
    10030    2    1    2    0    0  0.00000000000E+00  0.00000000000E+00  0.18319150228E+03  0.37803486662E+04  0.37759074289E+04 0.  0.
        1    1    3    3  502    0  0.68118573923E+03  0.87733466335E+03 -0.14368429762E+04  0.18161078881E+04  0.50400001928E-02 0. -1.
       -1    1    3    3    0  502 -0.68118573923E+03 -0.87733466335E+03  0.16200344785E+04  0.19642407781E+04  0.50400001928E-02 0.  1.
</event>
<event>
 5   0  0.1070988E-07  0.3786912E+04  0.7818609E-02  0.8048969E-01
       -1   -1    0    0    0  501  0.00000000000E+00  0.00000000000E+00  0.21779886613E+04  0.21779886613E+04  0.50400001928E-02 0.  1.
        1   -1    0    0  501    0  0.00000000000E+00  0.00000000000E+00 -0.16460948914E+04  0.16460948914E+04  0.50400001928E-02 0. -1.
    10030    2    1    2    0    0  0.00000000000E+00  0.00000000000E+00  0.53189376992E+03  0.38240835527E+04  0.37869122033E+04 0.  0.
        5    1    3    3  502    0  0.19780091976E+03  0.15454672676E+04  0.13524070915E+04  0.20631580914E+04  0.46999998093E+01 0.  1.
       -5    1    3    3    0  502 -0.19780091976E+03 -0.15454672676E+04 -0.82051332154E+03  0.17609254612E+04  0.46999998093E+01 0. -1.
</event>
<event>
 5   0  0.1070988E-07  0.3790451E+04  0.7818609E-02  0.8048207E-01
       -1   -1    0    0    0  501  0.00000000000E+00  0.00000000000E+00  0.29051283794E+04  0.29051283794E+04  0.50400001928E-02 0. -1.
        1   -1    0    0  501    0  0.00000000000E+00  0.00000000000E+00 -0.12363930575E+04  0.12363930575E+04  0.50400001928E-02 0.  1.
    10030    2    1    2    0    0  0.00000000000E+00  0.00000000000E+00  0.16687353220E+04  0.41415214369E+04  0.37904514557E+04 0.  0.
        2    1    3    3  502    0  0.31146954717E+03  0.27819911539E+03 -0.11854933725E+04  0.12569019703E+04  0.25500000920E-02 0.  1.
       -2    1    3    3    0  502 -0.31146954717E+03 -0.27819911539E+03  0.28542286945E+04  0.28846194666E+04  0.25500000920E-02 0. -1.
</event>
<event>
 5   0  0.1084315E-07  0.3835508E+04  0.7818609E-02  0.8038578E-01
        1   -1    0    0  501    0  0.00000000000E+00  0.00000000000E+00  0.15039061610E+04  0.15039061610E+04  0.50400001928E-02 0. -1.
       -1   -1    0    0    0  501  0.00000000000E+00  0.00000000000E+00 -0.24454855033E+04  0.24454855033E+04  0.50400001928E-02 0.  1.
    10030    2    1    2    0    0  0.00000000000E+00  0.00000000000E+00 -0.94157934229E+03  0.39493916643E+04  0.38355081620E+04 0.  0.
        4    1    3    3  502    0  0.13757311173E+04  0.11725771561E+04 -0.11302796438E+04  0.21319256507E+04  0.12699999809E+01 0.  1.
       -4    1    3    3    0  502 -0.13757311173E+04 -0.11725771561E+04  0.18870030149E+03  0.18174660136E+04  0.12699999809E+01 0. -1.
</event>
<event>
 5   0  0.1070988E-07  0.3813189E+04  0.7818609E-02  0.8043330E-01
        1   -1    0    0  501    0  0.00000000000E+00  0.00000000000E+00  0.20143337454E+04  0.20143337455E+04  0.50400001928E-02 0. -1.
       -1   -1    0    0    0  501  0.00000000000E+00  0.00000000000E+00 -0.18046178674E+04  0.18046178674E+04  0.50400001928E-02 0.  1.
    10030    2    1    2    0    0  0.00000000000E+00  0.00000000000E+00  0.20971587801E+03  0.38189516129E+04  0.38131890423E+04 0.  0.
        5    1    3    3  502    0 -0.15440253448E+04  0.10673839445E+04 -0.22994926576E+03  0.18910900310E+04  0.46999998093E+01 0.  1.
       -5    1    3    3    0  502  0.15440253448E+04 -0.10673839445E+04  0.43966514377E+03  0.19278615819E+04  0.46999998093E+01 0. -1.
</event>
<event>
 5   0  0.3442126E-07  0.3545390E+04  0.7818609E-02  0.8103116E-01
        2   -1    0    0  501    0  0.00000000000E+00  0.00000000000E+00  0.15136201472E+04  0.15136201473E+04  0.25500000920E-02 0.  1.
       -2   -1    0    0    0  501  0.00000000000E+00  0.00000000000E+00 -0.20761142027E+04  0.20761142027E+04  0.25500000920E-02 0. -1.
    10030    2    1    2    0    0  0.00000000000E+00  0.00000000000E+00 -0.56249405546E+03  0.35897343500E+04  0.35453904074E+04 0.  0.
        2    1    3    3  502    0 -0.11954361794E+04 -0.21025518622E+03 -0.15893711999E+04  0.19998439223E+04  0.25500000920E-02 0. -1.
       -2    1    3    3    0  502  0.11954361794E+04  0.21025518622E+03  0.10268771445E+04  0.15898904277E+04  0.25500000920E-02 0.  1.
</event>
<event>
 5   0  0.1085771E-07  0.3522885E+04  0.7818609E-02  0.8108388E-01
       -1   -1    0    0    0  501  0.00000000000E+00  0.00000000000E+00  0.11402923320E+04  0.11402923320E+04  0.50400001928E-02 0.  1.
        1   -1    0    0  501    0  0.00000000000E+00  0.00000000000E+00 -0.27209504441E+04  0.27209504441E+04  0.50400001928E-02 0. -1.
    10030    2    1    2    0    0  0.00000000000E+00  0.00000000000E+00 -0.15806581121E+04  0.38612427761E+04  0.35228845721E+04 0.  0.
        1    1    3    3  502    0  0.12667943619E+04  0.74602121353E+03 -0.18537551957E+04  0.23659509572E+04  0.50400001928E-02 0. -1.
       -1    1    3    3    0  502 -0.12667943619E+04 -0.74602121353E+03  0.27309708355E+03  0.14952918189E+04  0.50400001928E-02 0.  1.
</event>
<event>
 5   0  0.1085771E-07  0.3779804E+04  0.7818609E-02  0.8050503E-01
        1   -1    0    0  501    0  0.00000000000E+00  0.00000000000E+00  0.22492584022E+04  0.22492584022E+04  0.50400001928E-02 0. -1.
       -1   -1    0    0    0  501  0.00000000000E+00  0.00000000000E+00 -0.15879590409E+04  0.15879590409E+04  0.50400001928E-02 0.  1.
    10030    2    1    2    0    0  0.00000000000E+00  0.00000000000E+00  0.66129936131E+03  0.38372174431E+04  0.37798043415E+04 0.  0.
        1    1    3    3  502    0  0.11413742322E+04  0.33960011579E+03 -0.11591790698E+04  0.16618542332E+04  0.50400001928E-02 0.  1.
       -1    1    3    3    0  502 -0.11413742322E+04 -0.33960011579E+03  0.18204784311E+04  0.21753632099E+04  0.50400001928E-02 0. -1.
</event>
<event>
 5   0  0.1070988E-07  0.3771181E+04  0.7818609E-02  0.8052368E-01
       -1   -1    0    0    0  501  0.00000000000E+00  0.00000000000E+00  0.30068374491E+04  0.30068374491E+04  0.50400001928E-02 0.  1.
        1   -1    0    0  501    0  0.00000000000E+00  0.00000000000E+00 -0.11824554175E+04  0.11824554175E+04  0.50400001928E-02 0. -1.
    10030    2    1    2    0    0  0.00000000000E+00  0.00000000000E+00  0.18243820317E+04  0.41892928666E+04  0.37711808396E+04 0.  0.
        3    1    3    3  502    0  0.16271840617E+04  0.66227198283E+03  0.16730512874E+04  0.24259910903E+04  0.10100000352E+00 0.  1.
       -3    1    3    3    0  502 -0.16271840617E+04 -0.66227198283E+03  0.15133074428E+03  0.17633017763E+04  0.10100000352E+00 0. -1.
</event>
<event>
 5   0  0.3509843E-07  0.3899027E+04  0.7818609E-02  0.8025232E-01
       -2   -1    0    0    0  501  0.00000000000E+00  0.00000000000E+00  0.16468361491E+04  0.16468361491E+04  0.25500000920E-02 0.  1.
        2   -1    0    0  501    0  0.00000000000E+00  0.00000000000E+00 -0.23078213652E+04  0.23078213652E+04  0.25500000920E-02 0. -1.
    10030    2    1    2    0    0  0.00000000000E+00  0.00000000000E+00 -0.66098521613E+03  0.39546575142E+04  0.38990273914E+04 0.  0.
        4    1    3    3  502    0  0.12283943272E+04  0.12493953668E+04 -0.11974753366E+04  0.21222370745E+04  0.12699999809E+01 0. -1.
       -4    1    3    3    0  502 -0.12283943272E+04 -0.12493953668E+04  0.53649012052E+03  0.18324204397E+04  0.12699999809E+01 0.  1.
</event>
<event>
 5   0  0.1070988E-07  0.3814952E+04  0.7818609E-02  0.8042954E-01
        1   -1    0    0  501    0  0.00000000000E+00  0.00000000000E+00  0.22901563808E+04  0.22901563808E+04  0.50400001928E-02 0.  1.
       -1   -1    0    0    0  501  0.00000000000E+00  0.00000000000E+00 -0.15887408441E+04  0.15887408441E+04  0.50400001928E-02 0. -1.
    10030    2    1    2    0    0  0.00000000000E+00  0.00000000000E+00  0.70141553670E+03  0.38788972250E+04  0.38149521526E+04 0.  0.
        3    1    3    3  502    0  0.11549459222E+04  0.10271865054E+04  0.14872330468E+04  0.21449648822E+04  0.10100000352E+00 0.  1.
       -3    1    3    3    0  502 -0.11549459222E+04 -0.10271865054E+04 -0.78581751006E+03  0.17339323428E+04  0.10100000352E+00 0. -1.
</event>
<event>
 5   0  0.3509843E-07  0.3781920E+04  0.7818609E-02  0.8050046E-01
        2   -1    0    0  501    0  0.00000000000E+00  0.00000000000E+00  0.12605528614E+04  0.12605528614E+04  0.25500000920E-02 0. -1.
       -2   -1    0    0    0  501  0.00000000000E+00  0.00000000000E+00 -0.28366360383E+04  0.28366360383E+04  0.25500000920E-02 0.  1.
    10030    2    1    2    0    0  0.00000000000E+00  0.00000000000E+00 -0.15760831769E+04  0.40971888996E+04  0.37819199752E+04 0.  0.
        4    1    3    3  502    0 -0.13866500278E+04  0.33749709301E+03 -0.21320331955E+04  0.25655934493E+04  0.12699999809E+01 0.  1.
       -4    1    3    3    0  502  0.13866500278E+04 -0.33749709301E+03  0.55595001862E+03  0.15315954504E+04  0.12699999809E+01 0. -1.
</event>
<event>
 5   0  0.3327241E-07  0.3813006E+04  0.7818609E-02  0.8043370E-01
       -2   -1    0    0    0  501  0.00000000000E+00  0.00000000000E+00  0.11063584080E+04  0.11063584080E+04  0.25500000920E-02 0.  1.
        2   -1    0    0  501    0  0.00000000000E+00  0.00000000000E+00 -0.32853316140E+04  0.32853316140E+04  0.25500000920E-02 0. -1.
    10030    2    1    2    0    0  0.00000000000E+00  0.00000000000E+00 -0.21789732060E+04  0.43916900220E+04  0.38130062965E+04 0.  0.
        3    1    3    3  502    0  0.72806986800E+03 -0.17014587217E+04 -0.56204990952E+03  0.19341529478E+04  0.10100000352E+00 0.  1.
       -3    1    3    3    0  502 -0.72806986800E+03  0.17014587217E+04 -0.16169232965E+04  0.24575370743E+04  0.10100000352E+00 0. -1.
</event>
<event>
 5   0  0.3539010E-07  0.3788796E+04  0.7818609E-02  0.8048564E-01
        2   -1    0    0  501    0  0.00000000000E+00  0.00000000000E+00  0.26152235005E+04  0.26152235005E+04  0.25500000920E-02 0.  1.
       -2   -1    0    0    0  501  0.00000000000E+00  0.00000000000E+00 -0.13722511543E+04  0.13722511544E+04  0.25500000920E-02 0. -1.
    10030    2    1    2    0    0  0.00000000000E+00  0.00000000000E+00  0.12429723461E+04  0.39874746548E+04  0.37887958337E+04 0.  0.
        1    1    3    3  502    0  0.76463704357E+02  0.56298831284E+03 -0.12804717077E+04  0.14008605686E+04  0.50400001928E-02 0. -1.
       -1    1    3    3    0  502 -0.76463704357E+02 -0.56298831284E+03  0.25234440538E+04  0.25866140862E+04  0.50400001928E-02 0.  1.
</event>
<event>
 5   0  0.3509843E-07  0.3755727E+04  0.7818609E-02  0.8055723E-01
       -2   -1    0    0    0  501  0.00000000000E+00  0.00000000000E+00  0.12723639665E+04  0.12723639665E+04  0.25500000920E-02 0. -1.
        2   -1    0    0  501    0  0.00000000000E+00  0.00000000000E+00 -0.27715111560E+04  0.27715111560E+04  0.25500000920E-02 0.  1.
    10030    2    1    2    0    0  0.00000000000E+00  0.00000000000E+00 -0.14991471895E+04  0.40438751225E+04  0.37557267886E+04 0.  0.
        4    1    3    3  502    0 -0.25161664323E+03 -0.18275906988E+04 -0.11271496291E+04  0.21619127172E+04  0.12699999809E+01 0. -1.
       -4    1    3    3    0  502  0.25161664323E+03  0.18275906988E+04 -0.37199756044E+03  0.18819624054E+04  0.12699999809E+01 0.  1.
</event>
<event>
 5   0  0.1070988E-07  0.3950126E+04  0.7818609E-02  0.8014684E-01
       -1   -1    0    0    0  501  0.00000000000E+00  0.00000000000E+00  0.33346056762E+04  0.33346056762E+04  0.50400001928E-02 0.  1.
        1   -1    0    0  501    0  0.00000000000E+00  0.00000000000E+00 -0.11698156369E+04  0.11698156369E+04  0.50400001928E-02 0. -1.
    10030    2    1    2    0    0  0.00000000000E+00  0.00000000000E+00  0.21647900393E+04  0.45044213131E+04  0.39501260045E+04 0.  0.
        3    1    3    3  502    0  0.79976267285E+03  0.13566770932E+04 -0.27678289360E+03  0.15990002653E+04  0.10100000352E+00 0. -1.
       -3    1    3    3    0  502 -0.79976267285E+03 -0.13566770932E+04  0.24415729329E+04  0.29054210478E+04  0.10100000352E+00 0.  1.
</event>
<event>
 5   0  0.3327241E-07  0.3895947E+04  0.7818609E-02  0.8025873E-01
        2   -1    0    0  501    0  0.00000000000E+00  0.00000000000E+00  0.22784693918E+04  0.22784693918E+04  0.25500000920E-02 0.  1.
       -2   -1    0    0    0  501  0.00000000000E+00  0.00000000000E+00 -0.16654165694E+04  0.16654165694E+04  0.25500000920E-02 0. -1.
    10030    2    1    2    0    0  0.00000000000E+00  0.00000000000E+00  0.61305282243E+03  0.39438859613E+04  0.38959469596E+04 0.  0.
        3    1    3    3  502    0 -0.83060385395E+03 -0.15878097627E+04  0.10798359196E+04  0.20921491888E+04  0.10100000352E+00 0.  1.
       -3    1    3    3    0  502  0.83060385395E+03  0.15878097627E+04 -0.46678309719E+03  0.18517367725E+04  0.10100000352E+00 0. -1.
</event>
<event>
 5   0  0.1070988E-07  0.3799001E+04  0.7818609E-02  0.8046369E-01
        1   -1    0    0  501    0  0.00000000000E+00  0.00000000000E+00  0.24562888592E+04  0.24562888592E+04  0.50400001928E-02 0.  1.
       -1   -1    0    0    0  501  0.00000000000E+00  0.00000000000E+00 -0.14689239396E+04  0.14689239396E+04  0.50400001928E-02 0. -1.
    10030    2    1    2    0    0  0.00000000000E+00  0.00000000000E+00  0.98736491964E+03  0.39252127989E+04  0.37990006623E+04 0.  0.
        3    1    3    3  502    0  0.14593849391E+04  0.25041670118E+03 -0.73563021981E+03  0.16533797976E+04  0.10100000352E+00 0. -1.
       -3    1    3    3    0  502 -0.14593849391E+04 -0.25041670118E+03  0.17229951394E+04  0.22718330012E+04  0.10100000352E+00 0.  1.
</event>
<event>
 5   0  0.3509843E-07  0.3882931E+04  0.7818609E-02  0.8028589E-01
       -2   -1    0    0    0  501  0.00000000000E+00  0.00000000000E+00  0.20324304679E+04  0.20324304679E+04  0.25500000920E-02 0.  1.
        2   -1    0    0  501    0  0.00000000000E+00  0.00000000000E+00 -0.18545720394E+04  0.18545720394E+04  0.25500000920E-02 0. -1.
    10030    2    1    2    0    0  0.00000000000E+00  0.00000000000E+00  0.17785842848E+03  0.38870025073E+04  0.38829312215E+04 0.  0.
        4    1    3    3  502    0 -0.54754819245E+03  0.18619884447E+04  0.13875200998E+03  0.19457810063E+04  0.12699999809E+01 0.  1.
       -4    1    3    3    0  502  0.54754819245E+03 -0.18619884447E+04  0.39106418499E+02  0.19412215010E+04  0.12699999809E+01 0. -1.
</event>
<event>
 5   0  0.3442126E-07  0.3262701E+04  0.7818609E-02  0.8172452E-01
        2   -1    0    0  501    0  0.00000000000E+00  0.00000000000E+00  0.16511265581E+04  0.16511265581E+04  0.25500000920E-02 0. -1.
       -2   -1    0    0    0  501  0.00000000000E+00  0.00000000000E+00 -0.16118109934E+04  0.16118109934E+04  0.25500000920E-02 0.  1.
    10030    2    1    2    0    0  0.00000000000E+00  0.00000000000E+00  0.39315564640E+02  0.32629375515E+04  0.32627006837E+04 0.  0.
        2    1    3    3  502    0 -0.81000674470E+03  0.13394037217E+04 -0.43993045412E+03  0.16259311365E+04  0.25500000920E-02 0.  1.
       -2    1    3    3    0  502  0.81000674470E+03 -0.13394037217E+04  0.47924601876E+03  0.16370064150E+04  0.25500000920E-02 0. -1.
</event>
<event>
 5   0  0.3539010E-07  0.3840757E+04  0.7818609E-02  0.8037465E-01
        2   -1    0    0  501    0  0.00000000000E+00  0.00000000000E+00  0.15060128986E+04  0.15060128986E+04  0.25500000920E-02 0.  1.
       -2   -1    0    0    0  501  0.00000000000E+00  0.00000000000E+00 -0.24487524001E+04  0.24487524001E+04  0.25500000920E-02 0. -1.
    10030    2    1    2    0    0  0.00000000000E+00  0.00000000000E+00 -0.94273950148E+03  0.39547652987E+04  0.38407565401E+04 0.  0.
        1    1    3    3  502    0 -0.10042001738E+04  0.46846374566E+03  0.11436186557E+04  0.15924006719E+04  0.50400001928E-02 0.  1.
       -1    1    3    3    0  502  0.10042001738E+04 -0.46846374566E+03 -0.20863581572E+04  0.23623646268E+04  0.50400001928E-02 0. -1.
</event>
<event>
 5   0  0.3327241E-07  0.3841323E+04  0.7818609E-02  0.8037345E-01
        2   -1    0    0  501    0  0.00000000000E+00  0.00000000000E+00  0.13488862147E+04  0.13488862147E+04  0.25500000920E-02 0.  1.
       -2   -1    0    0    0  501  0.00000000000E+00  0.00000000000E+00 -0.27348050465E+04  0.27348050465E+04  0.25500000920E-02 0. -1.
    10030    2    1    2    0    0  0.00000000000E+00  0.00000000000E+00 -0.13859188318E+04  0.40836912611E+04  0.38413231194E+04 0.  0.
        3    1    3    3  502    0 -0.69018507912E+03  0.11493568310E+04 -0.21550780402E+04  0.25380579067E+04  0.10100000352E+00 0. -1.
       -3    1    3    3    0  502  0.69018507912E+03 -0.11493568310E+04  0.76915920836E+03  0.15456333544E+04  0.10100000352E+00 0.  1.
</event>
<event>
 5   0  0.3442126E-07  0.3766006E+04  0.7818609E-02  0.8053489E-01
        2   -1    0    0  501    0  0.00000000000E+00  0.00000000000E+00  0.17350137937E+04  0.17350137937E+04  0.25500000920E-02 0. -1.
       -2   -1    0    0    0  501  0.00000000000E+00  0.00000000000E+00 -0.20436151733E+04  0.20436151733E+04  0.25500000920E-02 0.  1.
    10030    2    1    2    0    0  0.00000000000E+00  0.00000000000E+00 -0.30860137952E+03  0.37786289670E+04  0.37660061151E+04 0.  0.
        2    1    3    3  502    0 -0.11952880516E+04  0.59696747798E+02 -0.16129351611E+04  0.20084414510E+04  0.25500000920E-02 0.  1.
       -2    1    3    3    0  502  0.11952880516E+04 -0.59696747798E+02  0.13043337816E+04  0.17701875160E+04  0.25500000920E-02 0. -1.
</event>
<event>
 5   0  0.1084315E-07  0.3848873E+04  0.7818609E-02  0.8035747E-01
       -1   -1    0    0    0  501  0.00000000000E+00  0.00000000000E+00  0.16891405097E+04  0.16891405097E+04  0.50400001928E-02 0. -1.
        1   -1    0    0  501    0  0.00000000000E+00  0.00000000000E+00 -0.21925095942E+04  0.21925095942E+04  0.50400001928E-02 0.  1.
    10030    2    1    2    0    0  0.00000000000E+00  0.00000000000E+00 -0.50336908444E+03  0.38816501039E+04  0.38488734838E+04 0.  0.
        4    1    3    3  502    0  0.12476723787E+02 -0.39451676955E+03  0.16478775792E+04  0.16944914515E+04  0.12699999809E+01 0. -1.
       -4    1    3    3    0  502 -0.12476723787E+02  0.39451676955E+03 -0.21512466637E+04  0.21871586524E+04  0.12699999809E+01 0.  1.
</event>
<event>
 5   0  0.1070988E-07  0.3797294E+04  0.7818609E-02  0.8046736E-01
        1   -1    0    0  501    0  0.00000000000E+00  0.00000000000E+00  0.10642116790E+04  0.10642116790E+04  0.50400001928E-02 0.  1.
       -1   -1    0    0    0  501  0.00000000000E+00  0.00000000000E+00 -0.33873520232E+04  0.33873520232E+04  0.50400001928E-02 0. -1.
    10030    2    1    2    0    0  0.00000000000E+00  0.00000000000E+00 -0.23231403442E+04  0.44515637022E+04  0.37972935541E+04 0.  0.
        2    1    3    3  502    0 -0.16908151053E+03  0.16015819139E+04 -0.23404195679E+04  0.28409887254E+04  0.25500000920E-02 0. -1.
       -2    1    3    3    0  502  0.16908151053E+03 -0.16015819139E+04  0.17279223642E+02  0.16105749768E+04  0.25500000920E-02 0.  1.
</event>
<event>
 5   0  0.1084315E-07  0.3840537E+04  0.7818609E-02  0.8037511E-01
        1   -1    0    0  501    0  0.00000000000E+00  0.00000000000E+00  0.16814072368E+04  0.16814072368E+04  0.50400001928E-02 0.  1.
       -1   -1    0    0    0  501  0.00000000000E+00  0.00000000000E+00 -0.21930621502E+04  0.21930621502E+04  0.50400001928E-02 0. -1.
    10030    2    1    2    0    0  0.00000000000E+00  0.00000000000E+00 -0.51165491345E+03  0.38744693870E+04  0.38405367177E+04 0.  0.
        4    1    3    3  502    0  0.28089897797E+02 -0.18599869226E+04  0.22492104892E+03  0.18737479782E+04  0.12699999809E+01 0. -1.
       -4    1    3    3    0  502 -0.28089897797E+02  0.18599869226E+04 -0.73657596236E+03  0.20007214088E+04  0.12699999809E+01 0.  1.
</event>
<event>
 5   0  0.1070988E-07  0.3724556E+04  0.7818609E-02  0.8062542E-01
        1   -1    0    0  501    0  0.00000000000E+00  0.00000000000E+00  0.20142337741E+04  0.20142337741E+04  0.50400001928E-02 0. -1.
       -1   -1    0    0    0  501  0.00000000000E+00  0.00000000000E+00 -0.17217858109E+04  0.17217858109E+04  0.50400001928E-02 0.  1.
    10030    2    1    2    0    0  0.00000000000E+00  0.00000000000E+00  0.29244796320E+03  0.37360195850E+04  0.37245558834E+04 0.  0.
        5    1    3    3  502    0  0.16368873950E+04  0.36247622789E+03  0.95943974566E+03  0.19316666574E+04  0.46999998093E+01 0. -1.
       -5    1    3    3    0  502 -0.16368873950E+04 -0.36247622789E+03 -0.66699178245E+03  0.18043529276E+04  0.46999998093E+01 0.  1.
</event>
<event>
 5   0  0.1070988E-07  0.3655053E+04  0.7818609E-02  0.8077996E-01
        1   -1    0    0  501    0  0.00000000000E+00  0.00000000000E+00  0.26814043221E+04  0.26814043221E+04  0.50400001928E-02 0.  1.
       -1   -1    0    0    0  501  0.00000000000E+00  0.00000000000E+00 -0.12455609642E+04  0.12455609642E+04  0.50400001928E-02 0. -1.
    10030    2    1    2    0    0  0.00000000000E+00  0.00000000000E+00  0.14358433579E+04  0.39269652863E+04  0.36550526961E+04 0.  0.
        5    1    3    3  502    0  0.16620886341E+03  0.11618096075E+04 -0.78715135882E+03  0.14131724248E+04  0.46999998093E+01 0. -1.
       -5    1    3    3    0  502 -0.16620886341E+03 -0.11618096075E+04  0.22229947167E+04  0.25137928616E+04  0.46999998093E+01 0.  1.
</event>
<event>
 5   0  0.3327241E-07  0.3768218E+04  0.7818609E-02  0.8053010E-01
       -2   -1    0    0    0  501  0.00000000000E+00  0.00000000000E+00  0.19886078636E+04  0.19886078636E+04  0.25500000920E-02 0. -1.
        2   -1    0    0  501    0  0.00000000000E+00  0.00000000000E+00 -0.17851014932E+04  0.17851014932E+04  0.25500000920E-02 0.  1.
    10030    2    1    2    0    0  0.00000000000E+00  0.00000000000E+00  0.20350637036E+03  0.37737093569E+04  0.37682180759E+04 0.  0.
        3    1    3    3  502    0  0.80178627576E+03 -0.11465847759E+04  0.13654751867E+04  0.19550039325E+04  0.10100000352E+00 0. -1.
       -3    1    3    3    0  502 -0.80178627576E+03  0.11465847759E+04 -0.11619688163E+04  0.18187054244E+04  0.10100000352E+00 0.  1.
</event>
<event>
 5   0  0.3327241E-07  0.3783769E+04  0.7818609E-02  0.8049647E-01
       -2   -1    0    0    0  501  0.00000000000E+00  0.00000000000E+00  0.20942863115E+04  0.20942863115E+04  0.25500000920E-02 0. -1.
        2   -1    0    0  501    0  0.00000000000E+00  0.00000000000E+00 -0.17090434029E+04  0.17090434029E+04  0.25500000920E-02 0.  1.
    10030    2    1    2    0    0  0.00000000000E+00  0.00000000000E+00  0.38524290858E+03  0.38033297144E+04  0.37837686000E+04 0.  0.
        3    1    3    3  502    0 -0.71834188870E+03 -0.15688130184E+04 -0.58730013226E+03  0.18226658529E+04  0.10100000352E+00 0.  1.
       -3    1    3    3    0  502  0.71834188870E+03  0.15688130184E+04  0.97254304084E+03  0.19806638615E+04  0.10100000352E+00 0. -1.
</event>
<event>
 5   0  0.3539010E-07  0.3835459E+04  0.7818609E-02  0.8038588E-01
        2   -1    0    0  501    0  0.00000000000E+00  0.00000000000E+00  0.22217445917E+04  0.22217445917E+04  0.25500000920E-02 0.  1.
       -2   -1    0    0    0  501  0.00000000000E+00  0.00000000000E+00 -0.16553145424E+04  0.16553145424E+04  0.25500000920E-02 0. -1.
    10030    2    1    2    0    0  0.00000000000E+00  0.00000000000E+00  0.56643004932E+03  0.38770591342E+04  0.38354588420E+04 0.  0.
        1    1    3    3  502    0  0.12900472516E+04 -0.13094738565E+04 -0.26928660100E+03  0.18578102610E+04  0.50400001928E-02 0. -1.
       -1    1    3    3    0  502 -0.12900472516E+04  0.13094738565E+04  0.83571665031E+03  0.20192488732E+04  0.50400001928E-02 0.  1.
</event>
<event>
 5   0  0.1070988E-07  0.3666429E+04  0.7818609E-02  0.8075442E-01
        1   -1    0    0  501    0  0.00000000000E+00  0.00000000000E+00  0.21617971128E+04  0.21617971128E+04  0.50400001928E-02 0.  1.
       -1   -1    0    0    0  501  0.00000000000E+00  0.00000000000E+00 -0.15545752481E+04  0.15545752481E+04  0.50400001928E-02 0. -1.
    10030    2    1    2    0    0  0.00000000000E+00  0.00000000000E+00  0.60722186464E+03  0.37163723609E+04  0.36664294800E+04 0.  0.
        2    1    3    3  502    0 -0.90912726408E+03  0.15662001802E+04  0.14807196602E+02  0.18109982440E+04  0.25500000920E-02 0.  1.
       -2    1    3    3    0  502  0.90912726408E+03 -0.15662001802E+04  0.59241466804E+03  0.19053741169E+04  0.25500000920E-02 0. -1.
</event>
<event>
 5   0  0.3327241E-07  0.3797025E+04  0.7818609E-02  0.8046794E-01
        2   -1    0    0  501    0  0.00000000000E+00  0.00000000000E+00  0.13757125110E+04  0.13757125110E+04  0.25500000920E-02 0.  1.
       -2   -1    0    0    0  501  0.00000000000E+00  0.00000000000E+00 -0.26199870914E+04  0.26199870914E+04  0.25500000920E-02 0. -1.
    10030    2    1    2    0    0  0.00000000000E+00  0.00000000000E+00 -0.12442745804E+04  0.39956996024E+04  0.37970246353E+04 0.  0.
        3    1    3    3  502    0 -0.16491740529E+04  0.40792634299E+03  0.26965366036E+03  0.17201430361E+04  0.10100000352E+00 0.  1.
       -3    1    3    3    0  502  0.16491740529E+04 -0.40792634299E+03 -0.15139282407E+04  0.22755565663E+04  0.10100000352E+00 0. -1.
</event>
<event>
 5   0  0.3509843E-07  0.3692550E+04  0.7818609E-02  0.8069615E-01
        2   -1    0    0  501    0  0.00000000000E+00  0.00000000000E+00  0.31796361376E+04  0.31796361376E+04  0.25500000920E-02 0.  1.
       -2   -1    0    0    0  501  0.00000000000E+00  0.00000000000E+00 -0.10720506328E+04  0.10720506328E+04  0.25500000920E-02 0. -1.
    10030    2    1    2    0    0  0.00000000000E+00  0.00000000000E+00  0.21075855048E+04  0.42516867703E+04  0.36925497604E+04 0.  0.
        4    1    3    3  502    0  0.12613929705E+04 -0.13393238672E+04  0.87605289257E+03  0.20377367178E+04  0.12699999809E+01 0.  1.
       -4    1    3    3    0  502 -0.12613929705E+04  0.13393238672E+04  0.12315326122E+04  0.22139500526E+04  0.12699999809E+01 0. -1.
</event>
<event>
 5   0  0.3377396E-07  0.3791029E+04  0.7818609E-02  0.8048083E-01
       -2   -1    0    0    0  501  0.00000000000E+00  0.00000000000E+00  0.18742684738E+04  0.18742684738E+04  0.25500000920E-02 0. -1.
        2   -1    0    0  501    0  0.00000000000E+00  0.00000000000E+00 -0.19170013888E+04  0.19170013888E+04  0.25500000920E-02 0.  1.
    10030    2    1    2    0    0  0.00000000000E+00  0.00000000000E+00 -0.42732915063E+02  0.37912698626E+04  0.37910290251E+04 0.  0.
        5    1    3    3  502    0 -0.15555086126E+04 -0.67959407636E+03 -0.86492346700E+03  0.19051429989E+04  0.46999998093E+01 0.  1.
       -5    1    3    3    0  502  0.15555086126E+04  0.67959407636E+03  0.82219055194E+03  0.18861268637E+04  0.46999998093E+01 0. -1.
</event>
<event>
 5   0  0.1085771E-07  0.3847068E+04  0.7818609E-02  0.8036129E-01
       -1   -1    0    0    0  501  0.00000000000E+00  0.00000000000E+00  0.21348379461E+04  0.21348379461E+04  0.50400001928E-02 0. -1.
        1   -1    0    0  501    0  0.00000000000E+00  0.00000000000E+00 -0.17331450193E+04  0.17331450193E+04  0.50400001928E-02 0.  1.
    10030    2    1    2    0    0  0.00000000000E+00  0.00000000000E+00  0.40169292684E+03  0.38679829654E+04  0.38470683660E+04 0.  0.
        1    1    3    3  502    0 -0.14714809894E+04  0.79768655505E+03 -0.75215864143E+03  0.18350211891E+04  0.50400001928E-02 0.  1.
       -1    1    3    3    0  502  0.14714809894E+04 -0.79768655505E+03  0.11538515683E+04  0.20329617763E+04  0.50400001928E-02 0. -1.
</event>
<event>
 5   0  0.1070988E-07  0.3807063E+04  0.7818609E-02  0.8044641E-01
        1   -1    0    0  501    0  0.00000000000E+00  0.00000000000E+00  0.31638038574E+04  0.31638038574E+04  0.50400001928E-02 0.  1.
       -1   -1    0    0    0  501  0.00000000000E+00  0.00000000000E+00 -0.11452768643E+04  0.11452768643E+04  0.50400001928E-02 0. -1.
    10030    2    1    2    0    0  0.00000000000E+00  0.00000000000E+00  0.20185269931E+04  0.43090807217E+04  0.38070625742E+04 0.  0.
        3    1    3    3  502    0 -0.21645342581E+03  0.74522153534E+03 -0.95810669494E+03  0.12329540427E+04  0.10100000352E+00 0. -1.
       -3    1    3    3    0  502  0.21645342581E+03 -0.74522153534E+03  0.29766336880E+04  0.30761266790E+04  0.10100000352E+00 0.  1.
</event>
<event>
 5   0  0.1084315E-07  0.3777703E+04  0.7818609E-02  0.8050957E-01
       -1   -1    0    0    0  501  0.00000000000E+00  0.00000000000E+00  0.19769656135E+04  0.19769656135E+04  0.50400001928E-02 0. -1.
        1   -1    0    0  501    0  0.00000000000E+00  0.00000000000E+00 -0.18046648791E+04  0.18046648791E+04  0.50400001928E-02 0.  1.
    10030    2    1    2    0    0  0.00000000000E+00  0.00000000000E+00  0.17230073440E+03  0.37816304925E+04  0.37777032227E+04 0.  0.
        4    1    3    3  502    0  0.22623899683E+03  0.18676077371E+04  0.25548902867E+03  0.18985307478E+04  0.12699999809E+01 0. -1.
       -4    1    3    3    0  502 -0.22623899683E+03 -0.18676077371E+04 -0.83188294269E+02  0.18830997448E+04  0.12699999809E+01 0.  1.
</event>
<event>
 5   0  0.1070988E-07  0.3830704E+04  0.7818609E-02  0.8039598E-01
       -1   -1    0    0    0  501  0.00000000000E+00  0.00000000000E+00  0.24171143905E+04  0.24171143905E+04  0.50400001928E-02 0.  1.
        1   -1    0    0  501    0  0.00000000000E+00  0.00000000000E+00 -0.15177488830E+04  0.15177488830E+04  0.50400001928E-02 0. -1.
    10030    2    1    2    0    0  0.00000000000E+00  0.00000000000E+00  0.89936550756E+03  0.39348632735E+04  0.38307036775E+04 0.  0.
        5    1    3    3  502    0 -0.39789111530E+03 -0.60720105646E+02  0.23731769350E+04  0.24070718988E+04  0.46999998093E+01 0.  1.
       -5    1    3    3    0  502  0.39789111530E+03  0.60720105646E+02 -0.14738114275E+04  0.15277913747E+04  0.46999998093E+01 0. -1.
</event>
<event>
 5   0  0.3327241E-07  0.3798580E+04  0.7818609E-02  0.8046460E-01
        2   -1    0    0  501    0  0.00000000000E+00  0.00000000000E+00  0.26974213924E+04  0.26974213924E+04  0.25500000920E-02 0.  1.
       -2   -1    0    0    0  501  0.00000000000E+00  0.00000000000E+00 -0.13373150437E+04  0.13373150437E+04  0.25500000920E-02 0. -1.
    10030    2    1    2    0    0  0.00000000000E+00  0.00000000000E+00  0.13601063487E+04  0.40347364361E+04  0.37985798436E+04 0.  0.
        3    1    3    3  502    0 -0.22790315273E+03  0.18709977317E+04  0.43156484783E+03  0.19336030066E+04  0.10100000352E+00 0.  1.
       -3    1    3    3    0  502  0.22790315273E+03 -0.18709977317E+04  0.92854150091E+03  0.21011334294E+04  0.10100000352E+00 0. -1.
</event>
<event>
 5   0  0.1070988E-07  0.3768867E+04  0.7818609E-02  0.8052869E-01
       -1   -1    0    0    0  501  0.00000000000E+00  0.00000000000E+00  0.12026040165E+04  0.12026040165E+04  0.50400001928E-02 0. -1.
        1   -1    0    0  501    0  0.00000000000E+00  0.00000000000E+00 -0.29528334207E+04  0.29528334207E+04  0.50400001928E-02 0.  1.
    10030    2    1    2    0    0  0.00000000000E+00  0.00000000000E+00 -0.17502294042E+04  0.41554374372E+04  0.37688668492E+04 0.  0.
        2    1    3    3  502    0 -0.10713926141E+04  0.87116074868E+03 -0.22889364335E+04  0.26732065352E+04  0.25500000920E-02 0.  1.
       -2    1    3    3    0  502  0.10713926141E+04 -0.87116074868E+03  0.53870702925E+03  0.14822309020E+04  0.25500000920E-02 0. -1.
</event>
<event>
 5   0  0.1084315E-07  0.3720527E+04  0.7818609E-02  0.8063428E-01
       -1   -1    0    0    0  501  0.00000000000E+00  0.00000000000E+00  0.10523562957E+04  0.10523562957E+04  0.50400001928E-02 0.  1.
        1   -1    0    0  501    0  0.00000000000E+00  0.00000000000E+00 -0.32884119412E+04  0.32884119412E+04  0.50400001928E-02 0. -1.
    10030    2    1    2    0    0  0.00000000000E+00  0.00000000000E+00 -0.22360556455E+04  0.43407682369E+04  0.37205273869E+04 0.  0.
        4    1    3    3  502    0 -0.10420776737E+04 -0.15400121575E+04 -0.10539536489E+04  0.21373776527E+04  0.12699999809E+01 0. -1.
       -4    1    3    3    0  502  0.10420776737E+04  0.15400121575E+04 -0.11821019966E+04  0.22033905842E+04  0.12699999809E+01 0.  1.
</event>
<event>
 5   0  0.1070988E-07  0.3691119E+04  0.7818609E-02  0.8069933E-01
       -1   -1    0    0    0  501  0.00000000000E+00  0.00000000000E+00  0.12377156117E+04  0.12377156117E+04  0.50400001928E-02 0. -1.
        1   -1    0    0  501    0  0.00000000000E+00  0.00000000000E+00 -0.27519168767E+04  0.27519168767E+04  0.50400001928E-02 0.  1.
    10030    2    1    2    0    0  0.00000000000E+00  0.00000000000E+00 -0.15142012650E+04  0.39896324884E+04  0.36911193318E+04 0.  0.
        3    1    3    3  502    0  0.13738081436E+04  0.12303328930E+04 -0.68049860218E+03  0.19657431675E+04  0.10100000352E+00 0. -1.
       -3    1    3    3    0  502 -0.13738081436E+04 -0.12303328930E+04 -0.83370266285E+03  0.20238893209E+04  0.10100000352E+00 0.  1.
</event>
<event>
 5   0  0.1084315E-07  0.3663130E+04  0.7818609E-02  0.8076182E-01
       -1   -1    0    0    0  501  0.00000000000E+00  0.00000000000E+00  0.12319593506E+04  0.12319593506E+04  0.50400001928E-02 0.  1.
        1   -1    0    0  501    0  0.00000000000E+00  0.00000000000E+00 -0.27230040519E+04  0.27230040519E+04  0.50400001928E-02 0. -1.
    10030    2    1    2    0    0  0.00000000000E+00  0.00000000000E+00 -0.14910447014E+04  0.39549634025E+04  0.36631299750E+04 0.  0.
        4    1    3    3  502    0  0.10319338359E+04  0.94142893341E+03 -0.20245768450E+04  0.24596928452E+04  0.12699999809E+01 0. -1.
       -4    1    3    3    0  502 -0.10319338359E+04 -0.94142893341E+03  0.53353214364E+03  0.14952705573E+04  0.12699999809E+01 0.  1.
</event>
<event>
 5   0  0.3442126E-07  0.3764086E+04  0.7818609E-02  0.8053906E-01
        2   -1    0    0  501    0  0.00000000000E+00  0.00000000000E+00  0.14579190134E+04  0.14579190134E+04  0.25500000920E-02 0.  1.
       -2   -1    0    0    0  501  0.00000000000E+00  0.00000000000E+00 -0.24295494576E+04  0.24295494576E+04  0.25500000920E-02 0. -1.
    10030    2    1    2    0    0  0.00000000000E+00  0.00000000000E+00 -0.97163044420E+03  0.38874684711E+04  0.37640862627E+04 0.  0.
        2    1    3    3  502    0 -0.69769949103E+03  0.10320385909E+03 -0.22879034590E+04  0.23941465815E+04  0.25500000920E-02 0. -1.
       -2    1    3    3    0  502  0.69769949103E+03 -0.10320385909E+03  0.13162730148E+04  0.14933218895E+04  0.25500000920E-02 0.  1.
</event>
<event>
 5   0  0.3377396E-07  0.3833630E+04  0.7818609E-02  0.8038976E-01
       -2   -1    0    0    0  501  0.00000000000E+00  0.00000000000E+00  0.17333197613E+04  0.17333197613E+04  0.25500000920E-02 0. -1.
        2   -1    0    0  501    0  0.00000000000E+00  0.00000000000E+00 -0.21197354108E+04  0.21197354108E+04  0.25500000920E-02 0.  1.
    10030    2    1    2    0    0  0.00000000000E+00  0.00000000000E+00 -0.38641564944E+03  0.38530551721E+04  0.38336297559E+04 0.  0.
        5    1    3    3  502    0  0.95371171980E+03  0.29167599947E+03  0.14520094400E+04  0.17615318439E+04  0.46999998093E+01 0. -1.
       -5    1    3    3    0  502 -0.95371171980E+03 -0.29167599947E+03 -0.18384250894E+04  0.20915233282E+04  0.46999998093E+01 0.  1.
</event>
<event>
 5   0  0.3327241E-07  0.3822134E+04  0.7818609E-02  0.8041422E-01
       -2   -1    0    0    0  501  0.00000000000E+00  0.00000000000E+00  0.18937032913E+04  0.18937032913E+04  0.25500000920E-02 0. -1.
        2   -1    0    0  501    0  0.00000000000E+00  0.00000000000E+00 -0.19285894919E+04  0.19285894919E+04  0.25500000920E-02 0.  1.
    10030    2    1    2    0    0  0.00000000000E+00  0.00000000000E+00 -0.34886200542E+02  0.38222927832E+04  0.38221335761E+04 0.  0.
        3    1    3    3  502    0 -0.52763602074E+03 -0.16275974706E+04 -0.86877343359E+03  0.19189165135E+04  0.10100000352E+00 0.  1.
       -3    1    3    3    0  502  0.52763602074E+03  0.16275974706E+04  0.83388723305E+03  0.19033762697E+04  0.10100000352E+00 0. -1.
</event>
<event>
 5   0  0.3377396E-07  0.3934492E+04  0.7818609E-02  0.8017894E-01
       -2   -1    0    0    0  501  0.00000000000E+00  0.00000000000E+00  0.16807304540E+04  0.16807304540E+04  0.25500000920E-02 0.  1.
        2   -1    0    0  501    0  0.00000000000E+00  0.00000000000E+00 -0.23026036213E+04  0.23026036213E+04  0.25500000920E-02 0. -1.
    10030    2    1    2    0    0  0.00000000000E+00  0.00000000000E+00 -0.62187316731E+03  0.39833340754E+04  0.39344915961E+04 0.  0.
        5    1    3    3  502    0 -0.11109725826E+04 -0.83337178974E+02  0.13305572643E+04  0.17353990574E+04  0.46999998093E+01 0.  1.
       -5    1    3    3    0  502  0.11109725826E+04  0.83337178974E+02 -0.19524304316E+04  0.22479350180E+04  0.46999998093E+01 0. -1.
</event>
<event>
 5   0  0.1084315E-07  0.3799248E+04  0.7818609E-02  0.8046316E-01
        1   -1    0    0  501    0  0.00000000000E+00  0.00000000000E+00  0.16279530241E+04  0.16279530241E+04  0.50400001928E-02 0. -1.
       -1   -1    0    0    0  501  0.00000000000E+00  0.00000000000E+00 -0.22166308483E+04  0.22166308483E+04  0.50400001928E-02 0.  1.
    10030    2    1    2    0    0  0.00000000000E+00  0.00000000000E+00 -0.58867782420E+03  0.38445838723E+04  0.37992477638E+04 0.  0.
        4    1    3    3  502    0 -0.15238188662E+04  0.10429801904E+04 -0.74545863511E+03  0.19913668181E+04  0.12699999809E+01 0.  1.
       -4    1    3    3    0  502  0.15238188662E+04 -0.10429801904E+04  0.15678081091E+03  0.18532170543E+04  0.12699999809E+01 0. -1.
</event>
<event>
 5   0  0.1070988E-07  0.3744136E+04  0.7818609E-02  0.8058250E-01
       -1   -1    0    0    0  501  0.00000000000E+00  0.00000000000E+00  0.17863151681E+04  0.17863151681E+04  0.50400001928E-02 0.  1.
        1   -1    0    0  501    0  0.00000000000E+00  0.00000000000E+00 -0.19619378553E+04  0.19619378553E+04  0.50400001928E-02 0. -1.
    10030    2    1    2    0    0  0.00000000000E+00  0.00000000000E+00 -0.17562268720E+03  0.37482530234E+04  0.37441364023E+04 0.  0.
        5    1    3    3  502    0 -0.12855466592E+04 -0.14717260322E+03  0.12665720284E+04  0.18106674961E+04  0.46999998093E+01 0.  1.
       -5    1    3    3    0  502  0.12855466592E+04  0.14717260322E+03 -0.14421947156E+04  0.19375855274E+04  0.46999998093E+01 0. -1.
</event>
<event>
 5   0  0.1070988E-07  0.3811380E+04  0.7818609E-02  0.8043717E-01
       -1   -1    0    0    0  501  0.00000000000E+00  0.00000000000E+00  0.20864414355E+04  0.20864414355E+04  0.50400001928E-02 0. -1.
        1   -1    0    0  501    0  0.00000000000E+00  0.00000000000E+00 -0.17405970364E+04  0.17405970364E+04  0.50400001928E-02 0.  1.
    10030    2    1    2    0    0  0.00000000000E+00  0.00000000000E+00  0.34584439909E+03  0.38270384719E+04  0.38113796868E+04 0.  0.
        3    1    3    3  502    0 -0.14992319182E+03 -0.68236454583E+02  0.20792797923E+04  0.20857942473E+04  0.10100000352E+00 0. -1.
       -3    1    3    3    0  502  0.14992319182E+03  0.68236454583E+02 -0.17334353932E+04  0.17412442246E+04  0.10100000352E+00 0.  1.
</event>
<event>
 5   0  0.1070988E-07  0.3769344E+04  0.7818609E-02  0.8052766E-01
        1   -1    0    0  501    0  0.00000000000E+00  0.00000000000E+00  0.17334444609E+04  0.17334444609E+04  0.50400001928E-02 0.  1.
       -1   -1    0    0    0  501  0.00000000000E+00  0.00000000000E+00 -0.20490927613E+04  0.20490927613E+04  0.50400001928E-02 0. -1.
    10030    2    1    2    0    0  0.00000000000E+00  0.00000000000E+00 -0.31564830043E+03  0.37825372222E+04  0.37693439731E+04 0.  0.
        5    1    3    3  502    0  0.98105209081E+03  0.14545893423E+04 -0.84847217830E+03  0.19489023800E+04  0.46999998093E+01 0. -1.
       -5    1    3    3    0  502 -0.98105209081E+03 -0.14545893423E+04  0.53282387787E+03  0.18336348421E+04  0.46999998093E+01 0.  1.
</event>
<event>
 5   0  0.3442126E-07  0.3771434E+04  0.7818609E-02  0.8052313E-01
        2   -1    0    0  501    0  0.00000000000E+00  0.00000000000E+00  0.11784748611E+04  0.11784748611E+04  0.25500000920E-02 0. -1.
       -2   -1    0    0    0  501  0.00000000000E+00  0.00000000000E+00 -0.30173994551E+04  0.30173994551E+04  0.25500000920E-02 0.  1.
    10030    2    1    2    0    0  0.00000000000E+00  0.00000000000E+00 -0.18389245940E+04  0.41958743162E+04  0.37714344240E+04 0.  0.
        2    1    3    3  502    0 -0.66494959600E+00  0.75042637800E+03 -0.28441220948E+04  0.29414572377E+04  0.25500000920E-02 0.  1.
       -2    1    3    3    0  502  0.66494959600E+00 -0.75042637800E+03  0.10051975009E+04  0.12544170785E+04  0.25500000920E-02 0. -1.
</event>
<event>
 5   0  0.3327241E-07  0.3197910E+04  0.7818609E-02  0.8189369E-01
        2   -1    0    0  501    0  0.00000000000E+00  0.00000000000E+00  0.21003644926E+04  0.21003644926E+04  0.25500000920E-02 0. -1.
       -2   -1    0    0    0  501  0.00000000000E+00  0.00000000000E+00 -0.12172442662E+04  0.12172442662E+04  0.25500000920E-02 0.  1.
    10030    2    1    2    0    0  0.00000000000E+00  0.00000000000E+00  0.88312022641E+03  0.33176087588E+04  0.31979097145E+04 0.  0.
        3    1    3    3  502    0 -0.61283489243E+03 -0.11413361542E+04 -0.53077387735E+03  0.13999770503E+04  0.10100000352E+00 0.  1.
       -3    1    3    3    0  502  0.61283489243E+03  0.11413361542E+04  0.14138941038E+04  0.19176317084E+04  0.10100000352E+00 0. -1.
</event>
<event>
 5   0  0.3327241E-07  0.3774953E+04  0.7818609E-02  0.8051551E-01
        2   -1    0    0  501    0  0.00000000000E+00  0.00000000000E+00  0.22480059718E+04  0.22480059718E+04  0.25500000920E-02 0. -1.
       -2   -1    0    0    0  501  0.00000000000E+00  0.00000000000E+00 -0.15847678999E+04  0.15847678999E+04  0.25500000920E-02 0.  1.
    10030    2    1    2    0    0  0.00000000000E+00  0.00000000000E+00  0.66323807194E+03  0.38327738717E+04  0.37749530873E+04 0.  0.
        3    1    3    3  502    0  0.13928895387E+04  0.12638899745E+04  0.17105585528E+03  0.18886024596E+04  0.10100000352E+00 0. -1.
       -3    1    3    3    0  502 -0.13928895387E+04 -0.12638899745E+04  0.49218221666E+03  0.19441714120E+04  0.10100000352E+00 0.  1.
</event>
<event>
 5   0  0.1070988E-07  0.3814099E+04  0.7818609E-02  0.8043136E-01
        1   -1    0    0  501    0  0.00000000000E+00  0.00000000000E+00  0.17258254205E+04  0.17258254205E+04  0.50400001928E-02 0.  1.
       -1   -1    0    0    0  501  0.00000000000E+00  0.00000000000E+00 -0.21073032448E+04  0.21073032448E+04  0.50400001928E-02 0. -1.
    10030    2    1    2    0    0  0.00000000000E+00  0.00000000000E+00 -0.38147782424E+03  0.38331286653E+04  0.38140988496E+04 0.  0.
        2    1    3    3  502    0  0.22454857004E+03  0.18812206272E+04 -0.40959688660E+03  0.19383453557E+04  0.25500000920E-02 0. -1.
       -2    1    3    3    0  502 -0.22454857004E+03 -0.18812206272E+04  0.28119062361E+02  0.18947833096E+04  0.25500000920E-02 0.  1.
</event>
<event>
 5   0  0.3509843E-07  0.3543785E+04  0.7818609E-02  0.8103491E-01
        2   -1    0    0  501    0  0.00000000000E+00  0.00000000000E+00  0.18971579816E+04  0.18971579816E+04  0.25500000920E-02 0. -1.
       -2   -1    0    0    0  501  0.00000000000E+00  0.00000000000E+00 -0.16548984718E+04  0.16548984718E+04  0.25500000920E-02 0.  1.
    10030    2    1    2    0    0  0.00000000000E+00  0.00000000000E+00  0.24225950978E+03  0.35520564534E+04  0.35437854588E+04 0.  0.
        4    1    3    3  502    0 -0.22315501656E+01  0.15766810399E+04  0.93151792602E+03  0.18312988125E+04  0.12699999809E+01 0. -1.
       -4    1    3    3    0  502  0.22315501656E+01 -0.15766810399E+04 -0.68925841624E+03  0.17207576409E+04  0.12699999809E+01 0.  1.
</event>
<event>
 5   0  0.3327241E-07  0.3797248E+04  0.7818609E-02  0.8046746E-01
        2   -1    0    0  501    0  0.00000000000E+00  0.00000000000E+00  0.16200661432E+04  0.16200661432E+04  0.25500000920E-02 0. -1.
       -2   -1    0    0    0  501  0.00000000000E+00  0.00000000000E+00 -0.22250778746E+04  0.22250778746E+04  0.25500000920E-02 0.  1.
    10030    2    1    2    0    0  0.00000000000E+00  0.00000000000E+00 -0.60501173137E+03  0.38451440178E+04  0.37972481249E+04 0.  0.
        3    1    3    3  502    0  0.34346993555E+03 -0.27811078810E+03 -0.21722672521E+04  0.22167684209E+04  0.10100000352E+00 0.  1.
       -3    1    3    3    0  502 -0.34346993555E+03  0.27811078810E+03  0.15672555207E+04  0.16283755969E+04  0.10100000352E+00 0. -1.
</event>
<event>
 5   0  0.3327241E-07  0.3178045E+04  0.7818609E-02  0.8194640E-01
        2   -1    0    0  501    0  0.00000000000E+00  0.00000000000E+00  0.12503578182E+04  0.12503578182E+04  0.25500000920E-02 0. -1.
       -2   -1    0    0    0  501  0.00000000000E+00  0.00000000000E+00 -0.20194156652E+04  0.20194156652E+04  0.25500000920E-02 0.  1.
    10030    2    1    2    0    0  0.00000000000E+00  0.00000000000E+00 -0.76905784706E+03  0.32697734834E+04  0.31780447858E+04 0.  0.
        3    1    3    3  502    0 -0.12925787078E+04  0.75645222890E+03 -0.93090516499E+03  0.17633956241E+04  0.10100000352E+00 0.  1.
       -3    1    3    3    0  502  0.12925787078E+04 -0.75645222890E+03  0.16184731793E+03  0.15063778593E+04  0.10100000352E+00 0. -1.
</event>
<event>
 5   0  0.3327241E-07  0.3799287E+04  0.7818609E-02  0.8046308E-01
       -2   -1    0    0    0  501  0.00000000000E+00  0.00000000000E+00  0.13588782293E+04  0.13588782293E+04  0.25500000920E-02 0.  1.
        2   -1    0    0  501    0  0.00000000000E+00  0.00000000000E+00 -0.26556058388E+04  0.26556058388E+04  0.25500000920E-02 0. -1.
    10030    2    1    2    0    0  0.00000000000E+00  0.00000000000E+00 -0.12967276094E+04  0.40144840681E+04  0.37992867541E+04 0.  0.
        3    1    3    3  502    0  0.11886954148E+03  0.15691529335E+04 -0.17727187719E+04  0.23704224837E+04  0.10100000352E+00 0. -1.
       -3    1    3    3    0  502 -0.11886954148E+03 -0.15691529335E+04  0.47599116246E+03  0.16440615845E+04  0.10100000352E+00 0.  1.
</event>
<event>
 5   0  0.3377396E-07  0.3793799E+04  0.7818609E-02  0.8047487E-01
        2   -1    0    0  501    0  0.00000000000E+00  0.00000000000E+00  0.11912428644E+04  0.11912428644E+04  0.25500000920E-02 0.  1.
       -2   -1    0    0    0  501  0.00000000000E+00  0.00000000000E+00 -0.30205665449E+04  0.30205665449E+04  0.25500000920E-02 0. -1.
    10030    2    1    2    0    0  0.00000000000E+00  0.00000000000E+00 -0.18293236805E+04  0.42118094094E+04  0.37937993322E+04 0.  0.
        5    1    3    3  502    0 -0.17425205738E+04  0.60896903376E+03 -0.13998319153E+04  0.23166296025E+04  0.46999998093E+01 0. -1.
       -5    1    3    3    0  502  0.17425205738E+04 -0.60896903376E+03 -0.42949176522E+03  0.18951798069E+04  0.46999998093E+01 0.  1.
</event>
<event>
 5   0  0.1070988E-07  0.3813037E+04  0.7818609E-02  0.8043363E-01
       -1   -1    0    0    0  501  0.00000000000E+00  0.00000000000E+00  0.22154472886E+04  0.22154472886E+04  0.50400001928E-02 0.  1.
        1   -1    0    0  501    0  0.00000000000E+00  0.00000000000E+00 -0.16406678109E+04  0.16406678109E+04  0.50400001928E-02 0. -1.
    10030    2    1    2    0    0  0.00000000000E+00  0.00000000000E+00  0.57477947764E+03  0.38561150995E+04  0.38130371376E+04 0.  0.
        5    1    3    3  502    0 -0.15817149481E+02 -0.70989869980E+03  0.20767248204E+04  0.21947697866E+04  0.46999998093E+01 0.  1.
       -5    1    3    3    0  502  0.15817149481E+02  0.70989869980E+03 -0.15019453428E+04  0.16613453130E+04  0.46999998093E+01 0. -1.
</event>
<event>
 5   0  0.1070988E-07  0.3513945E+04  0.7818609E-02  0.8110493E-01
       -1   -1    0    0    0  501  0.00000000000E+00  0.00000000000E+00  0.18697880842E+04  0.18697880842E+04  0.50400001928E-02 0.  1.
        1   -1    0    0  501    0  0.00000000000E+00  0.00000000000E+00 -0.16509633908E+04  0.16509633908E+04  0.50400001928E-02 0. -1.
    10030    2    1    2    0    0  0.00000000000E+00  0.00000000000E+00  0.21882469338E+03  0.35207514751E+04  0.35139446072E+04 0.  0.
        2    1    3    3  502    0  0.12239616844E+04  0.44054309966E+03  0.12927128946E+04  0.18339212239E+04  0.25500000920E-02 0. -1.
       -2    1    3    3    0  502 -0.12239616844E+04 -0.44054309966E+03 -0.10738882013E+04  0.16868302512E+04  0.25500000920E-02 0.  1.
</event>
<event>
 5   0  0.1084315E-07  0.3851428E+04  0.7818609E-02  0.8035208E-01
       -1   -1    0    0    0  501  0.00000000000E+00  0.00000000000E+00  0.25268302568E+04  0.25268302568E+04  0.50400001928E-02 0. -1.
        1   -1    0    0  501    0  0.00000000000E+00  0.00000000000E+00 -0.14675994403E+04  0.14675994403E+04  0.50400001928E-02 0.  1.
    10030    2    1    2    0    0  0.00000000000E+00  0.00000000000E+00  0.10592308165E+04  0.39944296971E+04  0.38514281354E+04 0.  0.
        4    1    3    3  502    0  0.17345822132E+04  0.77960450546E+03  0.84387491698E+03  0.20805492370E+04  0.12699999809E+01 0. -1.
       -4    1    3    3    0  502 -0.17345822132E+04 -0.77960450546E+03  0.21535589947E+03  0.19138804601E+04  0.12699999809E+01 0.  1.
</event>
<event>
 5   0  0.3327241E-07  0.3775665E+04  0.7818609E-02  0.8051397E-01
       -2   -1    0    0    0  501  0.00000000000E+00  0.00000000000E+00  0.18738858867E+04  0.18738858867E+04  0.25500000920E-02 0.  1.
        2   -1    0    0  501    0  0.00000000000E+00  0.00000000000E+00 -0.19018826791E+04  0.19018826791E+04  0.25500000920E-02 0. -1.
    10030    2    1    2    0    0  0.00000000000E+00  0.00000000000E+00 -0.27996792344E+02  0.37757685658E+04  0.37756647682E+04 0.  0.
        3    1    3    3  502    0 -0.12039930484E+04  0.11440537151E+04 -0.91149336725E+03  0.18945390818E+04  0.10100000352E+00 0. -1.
       -3    1    3    3    0  502  0.12039930484E+04 -0.11440537151E+04  0.88349657490E+03  0.18812294840E+04  0.10100000352E+00 0.  1.
</event>
<event>
 5   0  0.3327241E-07  0.3812137E+04  0.7818609E-02  0.8043555E-01
        2   -1    0    0  501    0  0.00000000000E+00  0.00000000000E+00  0.19324235504E+04  0.19324235504E+04  0.25500000920E-02 0. -1.
       -2   -1    0    0    0  501  0.00000000000E+00  0.00000000000E+00 -0.18800726184E+04  0.18800726184E+04  0.25500000920E-02 0.  1.
    10030    2    1    2    0    0  0.00000000000E+00  0.00000000000E+00  0.52350932061E+02  0.38124961688E+04  0.38121367259E+04 0.  0.
        3    1    3    3  502    0 -0.16672989493E+04 -0.54863283462E+03 -0.71700483544E+03  0.18960431741E+04  0.10100000352E+00 0.  1.
       -3    1    3    3    0  502  0.16672989493E+04  0.54863283462E+03  0.76935576750E+03  0.19164529947E+04  0.10100000352E+00 0. -1.
</event>
<event>
 5   0  0.3539010E-07  0.3809549E+04  0.7818609E-02  0.8044109E-01
        2   -1    0    0  501    0  0.00000000000E+00  0.00000000000E+00  0.20398906414E+04  0.20398906414E+04  0.25500000920E-02 0. -1.
       -2   -1    0    0    0  501  0.00000000000E+00  0.00000000000E+00 -0.17786079668E+04  0.17786079668E+04  0.25500000920E-02 0.  1.
    10030    2    1    2    0    0  0.00000000000E+00  0.00000000000E+00  0.26128267452E+03  0.38184986082E+04  0.38095489214E+04 0.  0.
        1    1    3    3  502    0  0.10268266334E+04 -0.13254274859E+04 -0.77538194196E+03  0.18472542087E+04  0.50400001928E-02 0.  1.
       -1    1    3    3    0  502 -0.10268266334E+04  0.13254274859E+04  0.10366646165E+04  0.19712443995E+04  0.50400001928E-02 0. -1.
</event>
<event>
 5   0  0.1085771E-07  0.3802096E+04  0.7818609E-02  0.8045705E-01
       -1   -1    0    0    0  501  0.00000000000E+00  0.00000000000E+00  0.34606211050E+04  0.34606211050E+04  0.50400001928E-02 0. -1.
        1   -1    0    0  501    0  0.00000000000E+00  0.00000000000E+00 -0.10443166118E+04  0.10443166118E+04  0.50400001928E-02 0.  1.
    10030    2    1    2    0    0  0.00000000000E+00  0.00000000000E+00  0.24163044933E+04  0.45049377168E+04  0.38020963202E+04 0.  0.
        1    1    3    3  502    0  0.33917449729E+03 -0.53612928695E+03 -0.91519159039E+03  0.11135751430E+04  0.50400001928E-02 0.  1.
       -1    1    3    3    0  502 -0.33917449729E+03  0.53612928695E+03  0.33314960837E+04  0.33913625739E+04  0.50400001928E-02 0. -1.
</event>
<event>
 5   0  0.3442126E-07  0.3509485E+04  0.7818609E-02  0.8111546E-01
       -2   -1    0    0    0  501  0.00000000000E+00  0.00000000000E+00  0.23448377819E+04  0.23448377819E+04  0.25500000920E-02 0.  1.
        2   -1    0    0  501    0  0.00000000000E+00  0.00000000000E+00 -0.13131492062E+04  0.13131492062E+04  0.25500000920E-02 0. -1.
    10030    2    1    2    0    0  0.00000000000E+00  0.00000000000E+00  0.10316885757E+04  0.36579869882E+04  0.35094853595E+04 0.  0.
        2    1    3    3  502    0 -0.13186289825E+04 -0.87238341735E+03  0.13091589516E+04  0.20527377770E+04  0.25500000920E-02 0.  1.
       -2    1    3    3    0  502  0.13186289825E+04  0.87238341735E+03 -0.27747037596E+03  0.16052492112E+04  0.25500000920E-02 0. -1.
</event>
<event>
 5   0  0.3327241E-07  0.3796261E+04  0.7818609E-02  0.8046958E-01
       -2   -1    0    0    0  501  0.00000000000E+00  0.00000000000E+00  0.15690896618E+04  0.15690896618E+04  0.25500000920E-02 0.  1.
        2   -1    0    0  501    0  0.00000000000E+00  0.00000000000E+00 -0.22961715143E+04  0.22961715143E+04  0.25500000920E-02 0. -1.
    10030    2    1    2    0    0  0.00000000000E+00  0.00000000000E+00 -0.72708185253E+03  0.38652611761E+04  0.37962607839E+04 0.  0.
        3    1    3    3  502    0  0.80099928553E+03  0.11083755061E+04 -0.17038266251E+04  0.21847474217E+04  0.10100000352E+00 0. -1.
       -3    1    3    3    0  502 -0.80099928553E+03 -0.11083755061E+04  0.97674477259E+03  0.16805137544E+04  0.10100000352E+00 0.  1.
</event>
<event>
 5   0  0.1085771E-07  0.3772231E+04  0.7818609E-02  0.8052140E-01
       -1   -1    0    0    0  501  0.00000000000E+00  0.00000000000E+00  0.15527304992E+04  0.15527304992E+04  0.50400001928E-02 0. -1.
        1   -1    0    0  501    0  0.00000000000E+00  0.00000000000E+00 -0.22910816197E+04  0.22910816197E+04  0.50400001928E-02 0.  1.
    10030    2    1    2    0    0  0.00000000000E+00  0.00000000000E+00 -0.73835112043E+03  0.38438121189E+04  0.37722313328E+04 0.  0.
        1    1    3    3  502    0  0.15232099089E+04 -0.10736138045E+04 -0.72765211545E+02  0.18649691161E+04  0.50400001928E-02 0. -1.
       -1    1    3    3    0  502 -0.15232099089E+04  0.10736138045E+04 -0.66558590889E+03  0.19788430029E+04  0.50400001928E-02 0.  1.
</event>
<event>
 5   0  0.3509843E-07  0.3731477E+04  0.7818609E-02  0.8061022E-01
       -2   -1    0    0    0  501  0.00000000000E+00  0.00000000000E+00  0.13588158786E+04  0.13588158786E+04  0.25500000920E-02 0. -1.
        2   -1    0    0  501    0  0.00000000000E+00  0.00000000000E+00 -0.25617742585E+04  0.25617742585E+04  0.25500000920E-02 0.  1.
    10030    2    1    2    0    0  0.00000000000E+00  0.00000000000E+00 -0.12029583799E+04  0.39205901371E+04  0.37314766728E+04 0.  0.
        4    1    3    3  502    0  0.99621307931E+02  0.17033916843E+04 -0.13943848181E+04  0.22035830524E+04  0.12699999809E+01 0.  1.
       -4    1    3    3    0  502 -0.99621307931E+02 -0.17033916843E+04  0.19142643818E+03  0.17170070848E+04  0.12699999809E+01 0. -1.
</event>
<event>
 5   0  0.3377396E-07  0.3796995E+04  0.7818609E-02  0.8046800E-01
        2   -1    0    0  501    0  0.00000000000E+00  0.00000000000E+00  0.18295424380E+04  0.18295424380E+04  0.25500000920E-02 0.  1.
       -2   -1    0    0    0  501  0.00000000000E+00  0.00000000000E+00 -0.19700518173E+04  0.19700518174E+04  0.25500000920E-02 0. -1.
    10030    2    1    2    0    0  0.00000000000E+00  0.00000000000E+00 -0.14050937934E+03  0.37995942554E+04  0.37969953410E+04 0.  0.
        5    1    3    3  502    0 -0.14390329755E+04 -0.97973205419E+02  0.11650361391E+04  0.18541159481E+04  0.46999998093E+01 0.  1.
       -5    1    3    3    0  502  0.14390329755E+04  0.97973205419E+02 -0.13055455184E+04  0.19454783073E+04  0.46999998093E+01 0. -1.
</event>
<event>
 5   0  0.3509843E-07  0.3215563E+04  0.7818609E-02  0.8184719E-01
        2   -1    0    0  501    0  0.00000000000E+00  0.00000000000E+00  0.23075982586E+04  0.23075982586E+04  0.25500000920E-02 0. -1.
       -2   -1    0    0    0  501  0.00000000000E+00  0.00000000000E+00 -0.11201956687E+04  0.11201956687E+04  0.25500000920E-02 0.  1.
    10030    2    1    2    0    0  0.00000000000E+00  0.00000000000E+00  0.11874025899E+04  0.34277939273E+04  0.32155631385E+04 0.  0.
        4    1    3    3  502    0 -0.61349491936E+03  0.14784117527E+04  0.75495536253E+03  0.17697560676E+04  0.12699999809E+01 0. -1.
       -4    1    3    3    0  502  0.61349491936E+03 -0.14784117527E+04  0.43244722739E+03  0.16580378596E+04  0.12699999809E+01 0.  1.
</event>
<event>
 5   0  0.3327241E-07  0.3857581E+04  0.7818609E-02  0.8033910E-01
       -2   -1    0    0    0  501  0.00000000000E+00  0.00000000000E+00  0.14189897123E+04  0.14189897124E+04  0.25500000920E-02 0.  1.
        2   -1    0    0  501    0  0.00000000000E+00  0.00000000000E+00 -0.26217474238E+04  0.26217474238E+04  0.25500000920E-02 0. -1.
    10030    2    1    2    0    0  0.00000000000E+00  0.00000000000E+00 -0.12027577114E+04  0.40407371361E+04  0.38575809118E+04 0.  0.
        3    1    3    3  502    0 -0.11150141479E+04  0.18728172906E+03  0.10354739838E+04  0.15331462349E+04  0.10100000352E+00 0.  1.
       -3    1    3    3    0  502  0.11150141479E+04 -0.18728172906E+03 -0.22382316953E+04  0.25075909012E+04  0.10100000352E+00 0. -1.
</event>
<event>
 5   0  0.3327241E-07  0.3752527E+04  0.7818609E-02  0.8056420E-01
        2   -1    0    0  501    0  0.00000000000E+00  0.00000000000E+00  0.18159689310E+04  0.18159689310E+04  0.25500000920E-02 0.  1.
       -2   -1    0    0    0  501  0.00000000000E+00  0.00000000000E+00 -0.19385597414E+04  0.19385597414E+04  0.25500000920E-02 0. -1.
    10030    2    1    2    0    0  0.00000000000E+00  0.00000000000E+00 -0.12259081043E+03  0.37545286724E+04  0.37525267548E+04 0.  0.
        3    1    3    3  502    0 -0.35214324038E+03 -0.57687609935E+03  0.16899450036E+04  0.18200837951E+04  0.10100000352E+00 0.  1.
       -3    1    3    3    0  502  0.35214324038E+03  0.57687609935E+03 -0.18125358141E+04  0.19344448773E+04  0.10100000352E+00 0. -1.
</event>
<event>
 5   0  0.3509843E-07  0.3700019E+04  0.7818609E-02  0.8067958E-01
        2   -1    0    0  501    0  0.00000000000E+00  0.00000000000E+00  0.23412128152E+04  0.23412128152E+04  0.25500000920E-02 0.  1.
       -2   -1    0    0    0  501  0.00000000000E+00  0.00000000000E+00 -0.14618641676E+04  0.14618641676E+04  0.25500000920E-02 0. -1.
    10030    2    1    2    0    0  0.00000000000E+00  0.00000000000E+00  0.87934864756E+03  0.38030769828E+04  0.37000189855E+04 0.  0.
        4    1    3    3  502    0 -0.10714914053E+04 -0.12138403503E+04  0.13596066974E+04  0.21142455421E+04  0.12699999809E+01 0.  1.
       -4    1    3    3    0  502  0.10714914053E+04  0.12138403503E+04 -0.48025804987E+03  0.16888314407E+04  0.12699999809E+01 0. -1.
</event>
<event>
 5   0  0.3327241E-07  0.3809009E+04  0.7818609E-02  0.8044224E-01
        2   -1    0    0  501    0  0.00000000000E+00  0.00000000000E+00  0.15369883828E+04  0.15369883828E+04  0.25500000920E-02 0. -1.
       -2   -1    0    0    0  501  0.00000000000E+00  0.00000000000E+00 -0.23598990941E+04  0.23598990941E+04  0.25500000920E-02 0.  1.
    10030    2    1    2    0    0  0.00000000000E+00  0.00000000000E+00 -0.82291071132E+03  0.38968874770E+04  0.38090090534E+04 0.  0.
        3    1    3    3  502    0 -0.15246397009E+04 -0.10097271700E+04  0.13285535657E+03  0.18335009494E+04  0.10100000352E+00 0. -1.
       -3    1    3    3    0  502  0.15246397009E+04  0.10097271700E+04 -0.95576606789E+03  0.20633865276E+04  0.10100000352E+00 0.  1.
</event>
<event>
 5   0  0.1070988E-07  0.3807144E+04  0.7818609E-02  0.8044624E-01
       -1   -1    0    0    0  501  0.00000000000E+00  0.00000000000E+00  0.21286177458E+04  0.21286177458E+04  0.50400001928E-02 0.  1.
        1   -1    0    0  501    0  0.00000000000E+00  0.00000000000E+00 -0.17023187909E+04  0.17023187909E+04  0.50400001928E-02 0. -1.
    10030    2    1    2    0    0  0.00000000000E+00  0.00000000000E+00  0.42629895488E+03  0.38309365368E+04  0.38071438047E+04 0.  0.
        5    1    3    3  502    0  0.47605778325E+03  0.10521211193E+04  0.17358726440E+04  0.20849138565E+04  0.46999998093E+01 0.  1.
       -5    1    3    3    0  502 -0.47605778325E+03 -0.10521211193E+04 -0.13095736891E+04  0.17460226803E+04  0.46999998093E+01 0. -1.
</event>
<event>
 5   0  0.3539010E-07  0.3782827E+04  0.7818609E-02  0.8049850E-01
       -2   -1    0    0    0  501  0.00000000000E+00  0.00000000000E+00  0.15969239562E+04  0.15969239562E+04  0.25500000920E-02 0.  1.
        2   -1    0    0  501    0  0.00000000000E+00  0.00000000000E+00 -0.22402099881E+04  0.22402099881E+04  0.25500000920E-02 0. -1.
    10030    2    1    2    0    0  0.00000000000E+00  0.00000000000E+00 -0.64328603189E+03  0.38371339443E+04  0.37828269836E+04 0.  0.
        1    1    3    3  502    0 -0.88767064016E+03 -0.13962336739E+04 -0.12513254212E+04  0.20744259320E+04  0.50400001928E-02 0. -1.
       -1    1    3    3    0  502  0.88767064016E+03  0.13962336739E+04  0.60803938935E+03  0.17627080123E+04  0.50400001928E-02 0.  1.
</event>
<event>
 5   0  0.1070988E-07  0.3790542E+04  0.7818609E-02  0.8048188E-01
        1   -1    0    0  501    0  0.00000000000E+00  0.00000000000E+00  0.27476789596E+04  0.27476789596E+04  0.50400001928E-02 0.  1.
       -1   -1    0    0    0  501  0.00000000000E+00  0.00000000000E+00 -0.13073044394E+04  0.13073044394E+04  0.50400001928E-02 0. -1.
    10030    2    1    2    0    0  0.00000000000E+00  0.00000000000E+00  0.14403745202E+04  0.40549833990E+04  0.37905423896E+04 0.  0.
        3    1    3    3  502    0  0.14545204883E+03  0.18051564113E+04  0.12235612529E+03  0.18151355320E+04  0.10100000352E+00 0. -1.
       -3    1    3    3    0  502 -0.14545204883E+03 -0.18051564113E+04  0.13180183949E+04  0.22398478670E+04  0.10100000352E+00 0.  1.
</event>
<event>
 5   0  0.3509843E-07  0.3567431E+04  0.7818609E-02  0.8097993E-01
       -2   -1    0    0    0  501  0.00000000000E+00  0.00000000000E+00  0.27014896774E+04  0.27014896774E+04  0.25500000920E-02 0.  1.
        2   -1    0    0  501    0  0.00000000000E+00  0.00000000000E+00 -0.11777359184E+04  0.11777359184E+04  0.25500000920E-02 0. -1.
    10030    2    1    2    0    0  0.00000000000E+00  0.00000000000E+00  0.15237537589E+04  0.38792255958E+04  0.35674312474E+04 0.  0.
        4    1    3    3  502    0  0.70400628105E+03  0.11158663722E+04 -0.54339173836E+03  0.14269053222E+04  0.12699999809E+01 0. -1.
       -4    1    3    3    0  502 -0.70400628105E+03 -0.11158663722E+04  0.20671454973E+04  0.24523202736E+04  0.12699999809E+01 0.  1.
</event>
<event>
 5   0  0.3539010E-07  0.3788455E+04  0.7818609E-02  0.8048637E-01
       -2   -1    0    0    0  501  0.00000000000E+00  0.00000000000E+00  0.15285702182E+04  0.15285702182E+04  0.25500000920E-02 0. -1.
        2   -1    0    0  501    0  0.00000000000E+00  0.00000000000E+00 -0.23473551738E+04  0.23473551738E+04  0.25500000920E-02 0.  1.
    10030    2    1    2    0    0  0.00000000000E+00  0.00000000000E+00 -0.81878495554E+03  0.38759253920E+04  0.37884546772E+04 0.  0.
        1    1    3    3  502    0  0.81001713749E+03  0.89819798610E+03  0.10820764851E+04  0.16228915259E+04  0.50400001928E-02 0. -1.
       -1    1    3    3    0  502 -0.81001713749E+03 -0.89819798610E+03 -0.19008614406E+04  0.22530338661E+04  0.50400001928E-02 0.  1.
</event>
<event>
 5   0  0.3509843E-07  0.3786540E+04  0.7818609E-02  0.8049050E-01
        2   -1    0    0  501    0  0.00000000000E+00  0.00000000000E+00  0.24060726938E+04  0.24060726938E+04  0.25500000920E-02 0. -1.
       -2   -1    0    0    0  501  0.00000000000E+00  0.00000000000E+00 -0.14897598115E+04  0.14897598115E+04  0.25500000920E-02 0.  1.
    10030    2    1    2    0    0  0.00000000000E+00  0.00000000000E+00  0.91631288230E+03  0.38958325052E+04  0.37865395298E+04 0.  0.
        4    1    3    3  502    0 -0.48429753577E+03 -0.93869162743E+03 -0.11584310570E+04  0.15676894467E+04  0.12699999809E+01 0.  1.
       -4    1    3    3    0  502  0.48429753577E+03  0.93869162743E+03  0.20747439393E+04  0.23281430585E+04  0.12699999809E+01 0. -1.
</event>
<event>
 5   0  0.3539010E-07  0.3789181E+04  0.7818609E-02  0.8048481E-01
       -2   -1    0    0    0  501  0.00000000000E+00  0.00000000000E+00  0.18020569001E+04  0.18020569001E+04  0.25500000920E-02 0.  1.
        2   -1    0    0  501    0  0.00000000000E+00  0.00000000000E+00 -0.19918756410E+04  0.19918756410E+04  0.25500000920E-02 0. -1.
    10030    2    1    2    0    0  0.00000000000E+00  0.00000000000E+00 -0.18981874088E+03  0.37939325412E+04  0.37891810425E+04 0.  0.
        1    1    3    3  502    0 -0.13906254827E+04 -0.10992140232E+04  0.57478100448E+03  0.18634601968E+04  0.50400001928E-02 0.  1.
       -1    1    3    3    0  502  0.13906254827E+04  0.10992140232E+04 -0.76459974537E+03  0.19304723444E+04  0.50400001928E-02 0. -1.
</event>
<event>
 5   0  0.1085771E-07  0.3790786E+04  0.7818609E-02  0.8048135E-01
       -1   -1    0    0    0  501  0.00000000000E+00  0.00000000000E+00  0.13054260145E+04  0.13054260145E+04  0.50400001928E-02 0. -1.
        1   -1    0    0  501    0  0.00000000000E+00  0.00000000000E+00 -0.27519858537E+04  0.27519858537E+04  0.50400001928E-02 0.  1.
    10030    2    1    2    0    0  0.00000000000E+00  0.00000000000E+00 -0.14465598392E+04  0.40574118682E+04  0.37907856310E+04 0.  0.
        1    1    3    3  502    0 -0.50169639311E+03 -0.64973831665E+03  0.11052885790E+04  0.13767795734E+04  0.50400001928E-02 0. -1.
       -1    1    3    3    0  502  0.50169639311E+03  0.64973831665E+03 -0.25518484181E+04  0.26806322948E+04  0.50400001928E-02 0.  1.
</event>
<event>
 5   0  0.1070988E-07  0.3839631E+04  0.7818609E-02  0.8037703E-01
        1   -1    0    0  501    0  0.00000000000E+00  0.00000000000E+00  0.32012511659E+04  0.32012511659E+04  0.50400001928E-02 0. -1.
       -1   -1    0    0    0  501  0.00000000000E+00  0.00000000000E+00 -0.11513285945E+04  0.11513285945E+04  0.50400001928E-02 0.  1.
    10030    2    1    2    0    0  0.00000000000E+00  0.00000000000E+00  0.20499225714E+04  0.43525797604E+04  0.38396312351E+04 0.  0.
        5    1    3    3  502    0 -0.14050564944E+04  0.11590224683E+04  0.33714660374E+03  0.18523516828E+04  0.46999998093E+01 0. -1.
       -5    1    3    3    0  502  0.14050564944E+04 -0.11590224683E+04  0.17127759676E+04  0.25002280775E+04  0.46999998093E+01 0.  1.
</event>
<event>
 5   0  0.3509843E-07  0.3822739E+04  0.7818609E-02  0.8041293E-01
       -2   -1    0    0    0  501  0.00000000000E+00  0.00000000000E+00  0.22899318593E+04  0.22899318593E+04  0.25500000920E-02 0. -1.
        2   -1    0    0  501    0  0.00000000000E+00  0.00000000000E+00 -0.15953897572E+04  0.15953897572E+04  0.25500000920E-02 0.  1.
    10030    2    1    2    0    0  0.00000000000E+00  0.00000000000E+00  0.69454210213E+03  0.38853216165E+04  0.38227392446E+04 0.  0.
        4    1    3    3  502    0  0.13459668115E+04  0.12959002008E+04 -0.62249858612E+02  0.18694546386E+04  0.12699999809E+01 0.  1.
       -4    1    3    3    0  502 -0.13459668115E+04 -0.12959002008E+04  0.75679196075E+03  0.20158669779E+04  0.12699999809E+01 0. -1.
</event>
<event>
 5   0  0.3539010E-07  0.3808327E+04  0.7818609E-02  0.8044370E-01
        2   -1    0    0  501    0  0.00000000000E+00  0.00000000000E+00  0.12642008172E+04  0.12642008172E+04  0.25500000920E-02 0.  1.
       -2   -1    0    0    0  501  0.00000000000E+00  0.00000000000E+00 -0.28680873670E+04  0.28680873670E+04  0.25500000920E-02 0. -1.
    10030    2    1    2    0    0  0.00000000000E+00  0.00000000000E+00 -0.16038865499E+04  0.41322881842E+04  0.38083268731E+04 0.  0.
        1    1    3    3  502    0 -0.71747620170E+03  0.16682979768E+04 -0.14232309743E+04  0.23072877249E+04  0.50400001928E-02 0. -1.
       -1    1    3    3    0  502  0.71747620170E+03 -0.16682979768E+04 -0.18065557561E+03  0.18250004593E+04  0.50400001928E-02 0.  1.
</event>
<event>
 5   0  0.3442126E-07  0.3924445E+04  0.7818609E-02  0.8019964E-01
        2   -1    0    0  501    0  0.00000000000E+00  0.00000000000E+00  0.23938385414E+04  0.23938385414E+04  0.25500000920E-02 0. -1.
       -2   -1    0    0    0  501  0.00000000000E+00  0.00000000000E+00 -0.16084283808E+04  0.16084283808E+04  0.25500000920E-02 0.  1.
    10030    2    1    2    0    0  0.00000000000E+00  0.00000000000E+00  0.78541016064E+03  0.40022669222E+04  0.39244453616E+04 0.  0.
        2    1    3    3  502    0 -0.13737671732E+04 -0.76809980463E+02 -0.10340300343E+04  0.17211490729E+04  0.25500000920E-02 0.  1.
       -2    1    3    3    0  502  0.13737671732E+04  0.76809980463E+02  0.18194401950E+04  0.22811178493E+04  0.25500000920E-02 0. -1.
</event>
<event>
 5   0  0.3377396E-07  0.3786156E+04  0.7818609E-02  0.8049132E-01
       -2   -1    0    0    0  501  0.00000000000E+00  0.00000000000E+00  0.20803584291E+04  0.20803584291E+04  0.25500000920E-02 0.  1.
        2   -1    0    0  501    0  0.00000000000E+00  0.00000000000E+00 -0.17226569924E+04  0.17226569924E+04  0.25500000920E-02 0. -1.
    10030    2    1    2    0    0  0.00000000000E+00  0.00000000000E+00  0.35770143671E+03  0.38030154215E+04  0.37861558312E+04 0.  0.
        5    1    3    3  502    0 -0.80356245950E+03 -0.97773688914E+03 -0.12352677466E+04  0.17684995184E+04  0.46999998093E+01 0. -1.
       -5    1    3    3    0  502  0.80356245950E+03  0.97773688914E+03  0.15929691833E+04  0.20345159031E+04  0.46999998093E+01 0.  1.
</event>
<event>
 5   0  0.3442126E-07  0.3626698E+04  0.7818609E-02  0.8084403E-01
       -2   -1    0    0    0  501  0.00000000000E+00  0.00000000000E+00  0.14176871319E+04  0.14176871319E+04  0.25500000920E-02 0.  1.
        2   -1    0    0  501    0  0.00000000000E+00  0.00000000000E+00 -0.23194360279E+04  0.23194360279E+04  0.25500000920E-02 0. -1.
    10030    2    1    2    0    0  0.00000000000E+00  0.00000000000E+00 -0.90174889594E+03  0.37371231598E+04  0.36266980079E+04 0.  0.
        2    1    3    3  502    0  0.50560107368E+03 -0.10131011297E+04 -0.19104150782E+04  0.22207413438E+04  0.25500000920E-02 0. -1.
       -2    1    3    3    0  502 -0.50560107368E+03  0.10131011297E+04  0.10086661823E+04  0.15163818161E+04  0.25500000920E-02 0.  1.
</event>
<event>
 5   0  0.1070988E-07  0.3732287E+04  0.7818609E-02  0.8060844E-01
       -1   -1    0    0    0  501  0.00000000000E+00  0.00000000000E+00  0.12884396810E+04  0.12884396810E+04  0.50400001928E-02 0.  1.
        1   -1    0    0  501    0  0.00000000000E+00  0.00000000000E+00 -0.27028756549E+04  0.27028756549E+04  0.50400001928E-02 0. -1.
    10030    2    1    2    0    0  0.00000000000E+00  0.00000000000E+00 -0.14144359739E+04  0.39913153359E+04  0.37322873665E+04 0.  0.
        3    1    3    3  502    0  0.10314928401E+04  0.14884161259E+04 -0.11891994605E+04  0.21664614951E+04  0.10100000352E+00 0.  1.
       -3    1    3    3    0  502 -0.10314928401E+04 -0.14884161259E+04 -0.22523651336E+03  0.18248538407E+04  0.10100000352E+00 0. -1.
</event>
<event>
 5   0  0.3539010E-07  0.3571018E+04  0.7818609E-02  0.8097163E-01
       -2   -1    0    0    0  501  0.00000000000E+00  0.00000000000E+00  0.23400431572E+04  0.23400431572E+04  0.25500000920E-02 0. -1.
        2   -1    0    0  501    0  0.00000000000E+00  0.00000000000E+00 -0.13623865120E+04  0.13623865120E+04  0.25500000920E-02 0.  1.
    10030    2    1    2    0    0  0.00000000000E+00  0.00000000000E+00  0.97765664520E+03  0.37024296691E+04  0.35710184736E+04 0.  0.
        1    1    3    3  502    0 -0.10764232575E+03 -0.16449939274E+03 -0.13511316617E+04  0.13653584466E+04  0.50400001928E-02 0.  1.
       -1    1    3    3    0  502  0.10764232575E+03  0.16449939274E+03  0.23287883069E+04  0.23370712225E+04  0.50400001928E-02 0. -1.
</event>
<event>
 5   0  0.1084315E-07  0.3741561E+04  0.7818609E-02  0.8058813E-01
        1   -1    0    0  501    0  0.00000000000E+00  0.00000000000E+00  0.19139286618E+04  0.19139286618E+04  0.50400001928E-02 0.  1.
       -1   -1    0    0    0  501  0.00000000000E+00  0.00000000000E+00 -0.18286049124E+04  0.18286049124E+04  0.50400001928E-02 0. -1.
    10030    2    1    2    0    0  0.00000000000E+00  0.00000000000E+00  0.85323749415E+02  0.37425335743E+04  0.37415608257E+04 0.  0.
        4    1    3    3  502    0 -0.14872459206E+02 -0.58883231049E+03 -0.17334329062E+04  0.18307746812E+04  0.12699999809E+01 0. -1.
       -4    1    3    3    0  502  0.14872459206E+02  0.58883231049E+03  0.18187566557E+04  0.19117588931E+04  0.12699999809E+01 0.  1.
</event>
<event>
 5   0  0.1084315E-07  0.3808849E+04  0.7818609E-02  0.8044258E-01
       -1   -1    0    0    0  501  0.00000000000E+00  0.00000000000E+00  0.22400689092E+04  0.22400689092E+04  0.50400001928E-02 0.  1.
        1   -1    0    0  501    0  0.00000000000E+00  0.00000000000E+00 -0.16190723136E+04  0.16190723136E+04  0.50400001928E-02 0. -1.
    10030    2    1    2    0    0  0.00000000000E+00  0.00000000000E+00  0.62099659557E+03  0.38591412228E+04  0.38088494595E+04 0.  0.
        4    1    3    3  502    0  0.32605430539E+03  0.11154053987E+04 -0.12181948699E+04  0.16835798072E+04  0.12699999809E+01 0. -1.
       -4    1    3    3    0  502 -0.32605430539E+03 -0.11154053987E+04  0.18391914654E+04  0.21755614155E+04  0.12699999809E+01 0.  1.
</event>
<event>
 5   0  0.3327241E-07  0.3869201E+04  0.7818609E-02  0.8031466E-01
        2   -1    0    0  501    0  0.00000000000E+00  0.00000000000E+00  0.16625614203E+04  0.16625614203E+04  0.25500000920E-02 0.  1.
       -2   -1    0    0    0  501  0.00000000000E+00  0.00000000000E+00 -0.22511519167E+04  0.22511519167E+04  0.25500000920E-02 0. -1.
    10030    2    1    2    0    0  0.00000000000E+00  0.00000000000E+00 -0.58859049645E+03  0.39137133370E+04  0.38692006037E+04 0.  0.
        3    1    3    3  502    0 -0.57093287237E+03 -0.19108228368E+03 -0.21539788544E+04  0.22365378824E+04  0.10100000352E+00 0. -1.
       -3    1    3    3    0  502  0.57093287237E+03  0.19108228368E+03  0.15653883580E+04  0.16771754546E+04  0.10100000352E+00 0.  1.
</event>
<event>
 5   0  0.3377396E-07  0.3746735E+04  0.7818609E-02  0.8057683E-01
       -2   -1    0    0    0  501  0.00000000000E+00  0.00000000000E+00  0.13756934996E+04  0.13756934996E+04  0.25500000920E-02 0. -1.
        2   -1    0    0  501    0  0.00000000000E+00  0.00000000000E+00 -0.25510815480E+04  0.25510815480E+04  0.25500000920E-02 0.  1.
    10030    2    1    2    0    0  0.00000000000E+00  0.00000000000E+00 -0.11753880484E+04  0.39267750476E+04  0.37467352736E+04 0.  0.
        5    1    3    3  502    0 -0.10213200012E+04 -0.85618278931E+03 -0.19675221109E+04  0.23764067119E+04  0.46999998093E+01 0.  1.
       -5    1    3    3    0  502  0.10213200012E+04  0.85618278931E+03  0.79213406246E+03  0.15503683357E+04  0.46999998093E+01 0. -1.
</event>
<event>
 5   0  0.3377396E-07  0.3912677E+04  0.7818609E-02  0.8022398E-01
        2   -1    0    0  501    0  0.00000000000E+00  0.00000000000E+00  0.12042405732E+04  0.12042405732E+04  0.25500000920E-02 0. -1.
       -2   -1    0    0    0  501  0.00000000000E+00  0.00000000000E+00 -0.31781530132E+04  0.31781530132E+04  0.25500000920E-02 0.  1.
    10030    2    1    2    0    0  0.00000000000E+00  0.00000000000E+00 -0.19739124399E+04  0.43823935864E+04  0.39126772453E+04 0.  0.
        5    1    3    3  502    0 -0.32136348921E+02 -0.20860539552E+03  0.11914442227E+04  0.12100042900E+04  0.46999998093E+01 0. -1.
       -5    1    3    3    0  502  0.32136348921E+02  0.20860539552E+03 -0.31653566627E+04  0.31723892964E+04  0.46999998093E+01 0.  1.
</event>
<event>
 5   0  0.3539010E-07  0.3774711E+04  0.7818609E-02  0.8051604E-01
        2   -1    0    0  501    0  0.00000000000E+00  0.00000000000E+00  0.26821827261E+04  0.26821827261E+04  0.25500000920E-02 0. -1.
       -2   -1    0    0    0  501  0.00000000000E+00  0.00000000000E+00 -0.13280638355E+04  0.13280638355E+04  0.25500000920E-02 0.  1.
    10030    2    1    2    0    0  0.00000000000E+00  0.00000000000E+00  0.13541188906E+04  0.40102465616E+04  0.37747105207E+04 0.  0.
        1    1    3    3  502    0 -0.23830511621E+03  0.13388470168E+04 -0.71334746998E+03  0.15356318816E+04  0.50400001928E-02 0.  1.
       -1    1    3    3    0  502  0.23830511621E+03 -0.13388470168E+04  0.20674663606E+04  0.24746146801E+04  0.50400001928E-02 0. -1.
</event>
<event>
 5   0  0.1085771E-07  0.3935878E+04  0.7818609E-02  0.8017608E-01
       -1   -1    0    0    0  501  0.00000000000E+00  0.00000000000E+00  0.30285533490E+04  0.30285533490E+04  0.50400001928E-02 0. -1.
        1   -1    0    0  501    0  0.00000000000E+00  0.00000000000E+00 -0.12787569403E+04  0.12787569403E+04  0.50400001928E-02 0.  1.
    10030    2    1    2    0    0  0.00000000000E+00  0.00000000000E+00  0.17497964086E+04  0.43073102893E+04  0.39358778509E+04 0.  0.
        1    1    3    3  502    0 -0.80085441257E+03 -0.16154057031E+04  0.11884037403E+02  0.18030653361E+04  0.50400001928E-02 0.  1.
       -1    1    3    3    0  502  0.80085441257E+03  0.16154057031E+04  0.17379123712E+04  0.25042449533E+04  0.50400001928E-02 0. -1.
</event>
<event>
 5   0  0.3377396E-07  0.3742643E+04  0.7818609E-02  0.8058577E-01
        2   -1    0    0  501    0  0.00000000000E+00  0.00000000000E+00  0.31097527701E+04  0.31097527701E+04  0.25500000920E-02 0. -1.
       -2   -1    0    0    0  501  0.00000000000E+00  0.00000000000E+00 -0.11260845050E+04  0.11260845050E+04  0.25500000920E-02 0.  1.
    10030    2    1    2    0    0  0.00000000000E+00  0.00000000000E+00  0.19836682651E+04  0.42358372751E+04  0.37426431349E+04 0.  0.
        5    1    3    3  502    0  0.93003464827E+03 -0.51865972071E+03 -0.74972385526E+03  0.13023364780E+04  0.46999998093E+01 0.  1.
       -5    1    3    3    0  502 -0.93003464827E+03  0.51865972071E+03  0.27333921203E+04  0.29335007970E+04  0.46999998093E+01 0. -1.
</event>
<event>
 5   0  0.3442126E-07  0.3758298E+04  0.7818609E-02  0.8055164E-01
        2   -1    0    0  501    0  0.00000000000E+00  0.00000000000E+00  0.15755257194E+04  0.15755257194E+04  0.25500000920E-02 0.  1.
       -2   -1    0    0    0  501  0.00000000000E+00  0.00000000000E+00 -0.22412839979E+04  0.22412839979E+04  0.25500000920E-02 0. -1.
    10030    2    1    2    0    0  0.00000000000E+00  0.00000000000E+00 -0.66575827854E+03  0.38168097174E+04  0.37582977973E+04 0.  0.
        2    1    3    3  502    0  0.51594709897E+03  0.63002270991E+03 -0.20527832541E+04  0.22084042004E+04  0.25500000920E-02 0. -1.
       -2    1    3    3    0  502 -0.51594709897E+03 -0.63002270991E+03  0.13870249756E+04  0.16084055169E+04  0.25500000920E-02 0.  1.
</event>
<event>
 5   0  0.3327241E-07  0.3849671E+04  0.7818609E-02  0.8035579E-01
       -2   -1    0    0    0  501  0.00000000000E+00  0.00000000000E+00  0.16048656838E+04  0.16048656838E+04  0.25500000920E-02 0.  1.
        2   -1    0    0  501    0  0.00000000000E+00  0.00000000000E+00 -0.23085987032E+04  0.23085987032E+04  0.25500000920E-02 0. -1.
    10030    2    1    2    0    0  0.00000000000E+00  0.00000000000E+00 -0.70373301945E+03  0.39134643870E+04  0.38496705503E+04 0.  0.
        3    1    3    3  502    0 -0.16246509925E+02  0.10267017387E+03  0.16020103230E+04  0.16053791449E+04  0.10100000352E+00 0.  1.
       -3    1    3    3    0  502  0.16246509925E+02 -0.10267017387E+03 -0.23057433424E+04  0.23080852421E+04  0.10100000352E+00 0. -1.
</event>
<event>
 5   0  0.1085771E-07  0.3798410E+04  0.7818609E-02  0.8046496E-01
        1   -1    0    0  501    0  0.00000000000E+00  0.00000000000E+00  0.12809625966E+04  0.12809625966E+04  0.50400001928E-02 0. -1.
       -1   -1    0    0    0  501  0.00000000000E+00  0.00000000000E+00 -0.28158357262E+04  0.28158357262E+04  0.50400001928E-02 0.  1.
    10030    2    1    2    0    0  0.00000000000E+00  0.00000000000E+00 -0.15348731297E+04  0.40967983228E+04  0.37984103220E+04 0.  0.
        1    1    3    3  502    0  0.12693778245E+04  0.13939949495E+04 -0.10144194480E+04  0.21409317591E+04  0.50400001928E-02 0.  1.
       -1    1    3    3    0  502 -0.12693778245E+04 -0.13939949495E+04 -0.52045368170E+03  0.19558665638E+04  0.50400001928E-02 0. -1.
</event>
<event>
 5   0  0.3327241E-07  0.3799905E+04  0.7818609E-02  0.8046175E-01
        2   -1    0    0  501    0  0.00000000000E+00  0.00000000000E+00  0.13787194455E+04  0.13787194455E+04  0.25500000920E-02 0. -1.
       -2   -1    0    0    0  501  0.00000000000E+00  0.00000000000E+00 -0.26182404552E+04  0.26182404552E+04  0.25500000920E-02 0.  1.
    10030    2    1    2    0    0  0.00000000000E+00  0.00000000000E+00 -0.12395210097E+04  0.39969599008E+04  0.37999047507E+04 0.  0.
        3    1    3    3  502    0 -0.88313425209E+03  0.15795943995E+04 -0.12283623007E+04  0.21872170734E+04  0.10100000352E+00 0.  1.
       -3    1    3    3    0  502  0.88313425209E+03 -0.15795943995E+04 -0.11158709038E+02  0.18097428274E+04  0.10100000352E+00 0. -1.
</event>
<event>
 5   0  0.3377396E-07  0.3785553E+04  0.7818609E-02  0.8049262E-01
        2   -1    0    0  501    0  0.00000000000E+00  0.00000000000E+00  0.16332567517E+04  0.16332567517E+04  0.25500000920E-02 0. -1.
       -2   -1    0    0    0  501  0.00000000000E+00  0.00000000000E+00 -0.21935328428E+04  0.21935328428E+04  0.25500000920E-02 0.  1.
    10030    2    1    2    0    0  0.00000000000E+00  0.00000000000E+00 -0.56027609114E+03  0.38267895945E+04  0.37855527077E+04 0.  0.
        5    1    3    3  502    0  0.17919833142E+04 -0.59449040511E+03 -0.41560224737E+03  0.19332279633E+04  0.46999998093E+01 0. -1.
       -5    1    3    3    0  502 -0.17919833142E+04  0.59449040511E+03 -0.14467384377E+03  0.18935616312E+04  0.46999998093E+01 0.  1.
</event>
<event>
 5   0  0.1085771E-07  0.3797952E+04  0.7818609E-02  0.8046594E-01
       -1   -1    0    0    0  501  0.00000000000E+00  0.00000000000E+00  0.23692361216E+04  0.23692361216E+04  0.50400001928E-02 0.  1.
        1   -1    0    0  501    0  0.00000000000E+00  0.00000000000E+00 -0.15220562065E+04  0.15220562065E+04  0.50400001928E-02 0. -1.
    10030    2    1    2    0    0  0.00000000000E+00  0.00000000000E+00  0.84717991514E+03  0.38912923281E+04  0.37979523660E+04 0.  0.
        1    1    3    3  502    0  0.18498718419E+04 -0.42875769471E+03  0.43984011442E+03  0.19491840135E+04  0.50400001928E-02 0.  1.
       -1    1    3    3    0  502 -0.18498718419E+04  0.42875769471E+03  0.40733980072E+03  0.19421083146E+04  0.50400001928E-02 0. -1.
</event>
<event>
 5   0  0.1070988E-07  0.3751951E+04  0.7818609E-02  0.8056545E-01
       -1   -1    0    0    0  501  0.00000000000E+00  0.00000000000E+00  0.13306391388E+04  0.13306391388E+04  0.50400001928E-02 0.  1.
        1   -1    0    0  501    0  0.00000000000E+00  0.00000000000E+00 -0.26448074182E+04  0.26448074182E+04  0.50400001928E-02 0. -1.
    10030    2    1    2    0    0  0.00000000000E+00  0.00000000000E+00 -0.13141682794E+04  0.39754465571E+04  0.37519511006E+04 0.  0.
        2    1    3    3  502    0 -0.71518425492E+03 -0.63862314883E+03 -0.23655714896E+04  0.25525000524E+04  0.25500000920E-02 0. -1.
       -2    1    3    3    0  502  0.71518425492E+03  0.63862314883E+03  0.10514032103E+04  0.14229465047E+04  0.25500000920E-02 0.  1.
</event>
<event>
 5   0  0.3509843E-07  0.3824772E+04  0.7818609E-02  0.8040860E-01
       -2   -1    0    0    0  501  0.00000000000E+00  0.00000000000E+00  0.19634585913E+04  0.19634585913E+04  0.25500000920E-02 0.  1.
        2   -1    0    0  501    0  0.00000000000E+00  0.00000000000E+00 -0.18626417385E+04  0.18626417385E+04  0.25500000920E-02 0. -1.
    10030    2    1    2    0    0  0.00000000000E+00  0.00000000000E+00  0.10081685282E+03  0.38261003298E+04  0.38247718488E+04 0.  0.
        4    1    3    3  502    0 -0.13264668769E+04  0.24815438917E+03 -0.13050985118E+04  0.18773328727E+04  0.12699999809E+01 0. -1.
       -4    1    3    3    0  502  0.13264668769E+04 -0.24815438917E+03  0.14059153646E+04  0.19487674571E+04  0.12699999809E+01 0.  1.
</event>
<event>
 5   0  0.3509843E-07  0.3813555E+04  0.7818609E-02  0.8043252E-01
        2   -1    0    0  501    0  0.00000000000E+00  0.00000000000E+00  0.27571719372E+04  0.27571719372E+04  0.25500000920E-02 0.  1.
       -2   -1    0    0    0  501  0.00000000000E+00  0.00000000000E+00 -0.13186702513E+04  0.13186702513E+04  0.25500000920E-02 0. -1.
    10030    2    1    2    0    0  0.00000000000E+00  0.00000000000E+00  0.14385016859E+04  0.40758421885E+04  0.38135550927E+04 0.  0.
        4    1    3    3  502    0 -0.91602752055E+03 -0.11297751446E+04  0.20370586727E+04  0.25030197652E+04  0.12699999809E+01 0.  1.
       -4    1    3    3    0  502  0.91602752055E+03  0.11297751446E+04 -0.59855698679E+03  0.15728224233E+04  0.12699999809E+01 0. -1.
</event>
<event>
 5   0  0.3442126E-07  0.3483868E+04  0.7818609E-02  0.8117624E-01
       -2   -1    0    0    0  501  0.00000000000E+00  0.00000000000E+00  0.17891504339E+04  0.17891504339E+04  0.25500000920E-02 0.  1.
        2   -1    0    0  501    0  0.00000000000E+00  0.00000000000E+00 -0.16959634812E+04  0.16959634812E+04  0.25500000920E-02 0. -1.
    10030    2    1    2    0    0  0.00000000000E+00  0.00000000000E+00  0.93186952765E+02  0.34851139151E+04  0.34838678495E+04 0.  0.
        2    1    3    3  502    0  0.30230907899E+03  0.53070724016E+03  0.16785238975E+04  0.17861924388E+04  0.25500000920E-02 0.  1.
       -2    1    3    3    0  502 -0.30230907899E+03 -0.53070724016E+03 -0.15853369448E+04  0.16989214762E+04  0.25500000920E-02 0. -1.
</event>
<event>
 5   0  0.3539010E-07  0.3190862E+04  0.7818609E-02  0.8191235E-01
       -2   -1    0    0    0  501  0.00000000000E+00  0.00000000000E+00  0.14425370430E+04  0.14425370430E+04  0.25500000920E-02 0. -1.
        2   -1    0    0  501    0  0.00000000000E+00  0.00000000000E+00 -0.17645304302E+04  0.17645304302E+04  0.25500000920E-02 0.  1.
    10030    2    1    2    0    0  0.00000000000E+00  0.00000000000E+00 -0.32199338722E+03  0.32070674731E+04  0.31908622715E+04 0.  0.
        1    1    3    3  502    0 -0.33105254609E+03 -0.75738894033E+03  0.12105459585E+04  0.14658292237E+04  0.50400001928E-02 0. -1.
       -1    1    3    3    0  502  0.33105254609E+03  0.75738894033E+03 -0.15325393457E+04  0.17412382495E+04  0.50400001928E-02 0.  1.
</event>
<event>
 5   0  0.3509843E-07  0.3802890E+04  0.7818609E-02  0.8045535E-01
        2   -1    0    0  501    0  0.00000000000E+00  0.00000000000E+00  0.21802133241E+04  0.21802133241E+04  0.25500000920E-02 0. -1.
       -2   -1    0    0    0  501  0.00000000000E+00  0.00000000000E+00 -0.16583203782E+04  0.16583203782E+04  0.25500000920E-02 0.  1.
    10030    2    1    2    0    0  0.00000000000E+00  0.00000000000E+00  0.52189294595E+03  0.38385337023E+04  0.38028895246E+04 0.  0.
        4    1    3    3  502    0  0.14259936743E+04 -0.70342750138E+03 -0.79152622131E+03  0.17761710449E+04  0.12699999809E+01 0.  1.
       -4    1    3    3    0  502 -0.14259936743E+04  0.70342750138E+03  0.13134191673E+04  0.20623626574E+04  0.12699999809E+01 0. -1.
</event>
<event>
 5   0  0.3377396E-07  0.3769812E+04  0.7818609E-02  0.8052664E-01
       -2   -1    0    0    0  501  0.00000000000E+00  0.00000000000E+00  0.13976599065E+04  0.13976599065E+04  0.25500000920E-02 0. -1.
        2   -1    0    0  501    0  0.00000000000E+00  0.00000000000E+00 -0.25420132183E+04  0.25420132183E+04  0.25500000920E-02 0.  1.
    10030    2    1    2    0    0  0.00000000000E+00  0.00000000000E+00 -0.11443533119E+04  0.39396731248E+04  0.37698116436E+04 0.  0.
        5    1    3    3  502    0  0.14119106658E+04 -0.91077806771E+03 -0.14649767056E+04  0.22291673905E+04  0.46999998093E+01 0. -1.
       -5    1    3    3    0  502 -0.14119106658E+04  0.91077806771E+03  0.32062339376E+03  0.17105057344E+04  0.46999998093E+01 0.  1.
</event>
<event>
 5   0  0.1070988E-07  0.3787755E+04  0.7818609E-02  0.8048788E-01
        1   -1    0    0  501    0  0.00000000000E+00  0.00000000000E+00  0.29988027822E+04  0.29988027822E+04  0.50400001928E-02 0. -1.
       -1   -1    0    0    0  501  0.00000000000E+00  0.00000000000E+00 -0.11960677050E+04  0.11960677050E+04  0.50400001928E-02 0.  1.
    10030    2    1    2    0    0  0.00000000000E+00  0.00000000000E+00  0.18027350772E+04  0.41948704873E+04  0.37877545652E+04 0.  0.
        3    1    3    3  502    0 -0.89222063514E+03  0.11498146520E+04 -0.44076178989E+03  0.15206585288E+04  0.10100000352E+00 0.  1.
       -3    1    3    3    0  502  0.89222063514E+03 -0.11498146520E+04  0.22434968671E+04  0.26742119584E+04  0.10100000352E+00 0. -1.
</event>
<event>
 5   0  0.1070988E-07  0.3775240E+04  0.7818609E-02  0.8051489E-01
        1   -1    0    0  501    0  0.00000000000E+00  0.00000000000E+00  0.18328647471E+04  0.18328647471E+04  0.50400001928E-02 0. -1.
       -1   -1    0    0    0  501  0.00000000000E+00  0.00000000000E+00 -0.19440111557E+04  0.19440111557E+04  0.50400001928E-02 0.  1.
    10030    2    1    2    0    0  0.00000000000E+00  0.00000000000E+00 -0.11114640863E+03  0.37768759028E+04  0.37752401329E+04 0.  0.
        3    1    3    3  502    0  0.11950066217E+04  0.14463930968E+04  0.15191890003E+03  0.18823318460E+04  0.10100000352E+00 0. -1.
       -3    1    3    3    0  502 -0.11950066217E+04 -0.14463930968E+04 -0.26306530866E+03  0.18945440568E+04  0.10100000352E+00 0.  1.
</event>
<event>
 5   0  0.1084315E-07  0.3741925E+04  0.7818609E-02  0.8058734E-01
        1   -1    0    0  501    0  0.00000000000E+00  0.00000000000E+00  0.27859540875E+04  0.27859540875E+04  0.50400001928E-02 0.  1.
       -1   -1    0    0    0  501  0.00000000000E+00  0.00000000000E+00 -0.12564818021E+04  0.12564818022E+04  0.50400001928E-02 0. -1.
    10030    2    1    2    0    0  0.00000000000E+00  0.00000000000E+00  0.15294722854E+04  0.40424358897E+04  0.37419249659E+04 0.  0.
        4    1    3    3  502    0  0.17943986756E+04  0.33016975003E+03  0.12122767339E+04  0.21905467727E+04  0.12699999809E+01 0. -1.
       -4    1    3    3    0  502 -0.17943986756E+04 -0.33016975003E+03  0.31719555146E+03  0.18518891170E+04  0.12699999809E+01 0.  1.
</event>
<event>
 5   0  0.1070988E-07  0.3779307E+04  0.7818609E-02  0.8050610E-01
        1   -1    0    0  501    0  0.00000000000E+00  0.00000000000E+00  0.14233412509E+04  0.14233412510E+04  0.50400001928E-02 0. -1.
       -1   -1    0    0    0  501  0.00000000000E+00  0.00000000000E+00 -0.25087382027E+04  0.25087382027E+04  0.50400001928E-02 0.  1.
    10030    2    1    2    0    0  0.00000000000E+00  0.00000000000E+00 -0.10853969518E+04  0.39320794537E+04  0.37793071173E+04 0.  0.
        3    1    3    3  502    0  0.12875081155E+03 -0.18250581464E+04 -0.50966000560E+02  0.18303036777E+04  0.10100000352E+00 0. -1.
       -3    1    3    3    0  502 -0.12875081155E+03  0.18250581464E+04 -0.10344309512E+04  0.21017757759E+04  0.10100000352E+00 0.  1.
</event>
<event>
 5   0  0.3539010E-07  0.3832263E+04  0.7818609E-02  0.8039267E-01
       -2   -1    0    0    0  501  0.00000000000E+00  0.00000000000E+00  0.14947196051E+04  0.14947196051E+04  0.25500000920E-02 0.  1.
        2   -1    0    0  501    0  0.00000000000E+00  0.00000000000E+00 -0.24563533591E+04  0.24563533591E+04  0.25500000920E-02 0. -1.
    10030    2    1    2    0    0  0.00000000000E+00  0.00000000000E+00 -0.96163375396E+03  0.39510729642E+04  0.38322627900E+04 0.  0.
        1    1    3    3  502    0 -0.18590526934E+04 -0.25814047916E+03 -0.83050109431E+02  0.18787258301E+04  0.50400001928E-02 0.  1.
       -1    1    3    3    0  502  0.18590526934E+04  0.25814047916E+03 -0.87858364453E+03  0.20723471341E+04  0.50400001928E-02 0. -1.
</event>
<event>
 5   0  0.3509843E-07  0.3821329E+04  0.7818609E-02  0.8041593E-01
        2   -1    0    0  501    0  0.00000000000E+00  0.00000000000E+00  0.19333580184E+04  0.19333580184E+04  0.25500000920E-02 0. -1.
       -2   -1    0    0    0  501  0.00000000000E+00  0.00000000000E+00 -0.18882378336E+04  0.18882378336E+04  0.25500000920E-02 0.  1.
    10030    2    1    2    0    0  0.00000000000E+00  0.00000000000E+00  0.45120184791E+02  0.38215958519E+04  0.38213294839E+04 0.  0.
        4    1    3    3  502    0 -0.57943954608E+03  0.15702674748E+04  0.94411660083E+03  0.19216784067E+04  0.12699999809E+01 0. -1.
       -4    1    3    3    0  502  0.57943954608E+03 -0.15702674748E+04 -0.89899641604E+03  0.18999174453E+04  0.12699999809E+01 0.  1.
</event>
<event>
 5   0  0.3442126E-07  0.3767899E+04  0.7818609E-02  0.8053079E-01
        2   -1    0    0  501    0  0.00000000000E+00  0.00000000000E+00  0.13968626548E+04  0.13968626548E+04  0.25500000920E-02 0. -1.
       -2   -1    0    0    0  501  0.00000000000E+00  0.00000000000E+00 -0.25408844497E+04  0.25408844497E+04  0.25500000920E-02 0.  1.
    10030    2    1    2    0    0  0.00000000000E+00  0.00000000000E+00 -0.11440217948E+04  0.39377471045E+04  0.37678994668E+04 0.  0.
        2    1    3    3  502    0  0.67277949291E+03 -0.16129029621E+04  0.16339880371E+03  0.17552171889E+04  0.25500000920E-02 0. -1.
       -2    1    3    3    0  502 -0.67277949291E+03  0.16129029621E+04 -0.13074205985E+04  0.21825299156E+04  0.25500000920E-02 0.  1.
</event>
<event>
 5   0  0.1070988E-07  0.3693432E+04  0.7818609E-02  0.8069419E-01
       -3   -1    0    0    0  501  0.00000000000E+00  0.00000000000E+00  0.14698879199E+04  0.14698879234E+04  0.10100000352E+00 0.  1.
        3   -1    0    0  501    0  0.00000000000E+00  0.00000000000E+00 -0.23201494661E+04  0.23201494683E+04  0.10100000352E+00 0. -1.
    10030    2    1    2    0    0  0.00000000000E+00  0.00000000000E+00 -0.85026154617E+03  0.37900373917E+04  0.36934318368E+04 0.  0.
        3    1    3    3  502    0  0.14498665775E+04  0.10437500816E+04 -0.90516164195E+03  0.20027093982E+04  0.10100000352E+00 0. -1.
       -3    1    3    3    0  502 -0.14498665775E+04 -0.10437500816E+04  0.54900095779E+02  0.17873279935E+04  0.10100000352E+00 0.  1.
</event>
<event>
 5   0  0.1070988E-07  0.3855418E+04  0.7818609E-02  0.8034366E-01
        1   -1    0    0  501    0  0.00000000000E+00  0.00000000000E+00  0.11764041403E+04  0.11764041403E+04  0.50400001928E-02 0. -1.
       -1   -1    0    0    0  501  0.00000000000E+00  0.00000000000E+00 -0.31588312596E+04  0.31588312596E+04  0.50400001928E-02 0.  1.
    10030    2    1    2    0    0  0.00000000000E+00  0.00000000000E+00 -0.19824271193E+04  0.43352353999E+04  0.38554180952E+04 0.  0.
        3    1    3    3  502    0  0.34700580590E+03  0.14193185635E+04  0.42273106541E+03  0.15210456199E+04  0.10100000352E+00 0. -1.
       -3    1    3    3    0  502 -0.34700580590E+03 -0.14193185635E+04 -0.24051581847E+04  0.28141897800E+04  0.10100000352E+00 0.  1.
</event>
<event>
 5   0  0.3539010E-07  0.3792812E+04  0.7818609E-02  0.8047699E-01
        2   -1    0    0  501    0  0.00000000000E+00  0.00000000000E+00  0.15597551000E+04  0.15597551000E+04  0.25500000920E-02 0. -1.
       -2   -1    0    0    0  501  0.00000000000E+00  0.00000000000E+00 -0.23057179880E+04  0.23057179880E+04  0.25500000920E-02 0.  1.
    10030    2    1    2    0    0  0.00000000000E+00  0.00000000000E+00 -0.74596288803E+03  0.38654730879E+04  0.37928118281E+04 0.  0.
        1    1    3    3  502    0  0.81797056861E+02 -0.17785274555E+04 -0.10385660661E+04  0.20611817344E+04  0.50400001928E-02 0.  1.
       -1    1    3    3    0  502 -0.81797056861E+02  0.17785274555E+04  0.29260317810E+03  0.18042913535E+04  0.50400001928E-02 0. -1.
</event>
<event>
 5   0  0.1084315E-07  0.3808584E+04  0.7818609E-02  0.8044315E-01
       -1   -1    0    0    0  501  0.00000000000E+00  0.00000000000E+00  0.22134143672E+04  0.22134143672E+04  0.50400001928E-02 0.  1.
        1   -1    0    0  501    0  0.00000000000E+00  0.00000000000E+00 -0.16383414729E+04  0.16383414729E+04  0.50400001928E-02 0. -1.
    10030    2    1    2    0    0  0.00000000000E+00  0.00000000000E+00  0.57507289430E+03  0.38517558401E+04  0.38085842800E+04 0.  0.
        4    1    3    3  502    0  0.12880253905E+04  0.11250809620E+04  0.11345926459E+04  0.20523446744E+04  0.12699999809E+01 0.  1.
       -4    1    3    3    0  502 -0.12880253905E+04 -0.11250809620E+04 -0.55951975158E+03  0.17994111656E+04  0.12699999809E+01 0. -1.
</event>
<event>
 5   0  0.1070988E-07  0.3862179E+04  0.7818609E-02  0.8032941E-01
       -1   -1    0    0    0  501  0.00000000000E+00  0.00000000000E+00  0.14953731973E+04  0.14953731973E+04  0.50400001928E-02 0. -1.
        1   -1    0    0  501    0  0.00000000000E+00  0.00000000000E+00 -0.24937636188E+04  0.24937636188E+04  0.50400001928E-02 0.  1.
    10030    2    1    2    0    0  0.00000000000E+00  0.00000000000E+00 -0.99839042149E+03  0.39891368161E+04  0.38621793205E+04 0.  0.
        3    1    3    3  502    0  0.19619413581E+03  0.19171663579E+04 -0.62606739213E+03  0.20263216360E+04  0.10100000352E+00 0. -1.
       -3    1    3    3    0  502 -0.19619413581E+03 -0.19171663579E+04 -0.37232302936E+03  0.19628151801E+04  0.10100000352E+00 0.  1.
</event>
<event>
 5   0  0.1085771E-07  0.3570949E+04  0.7818609E-02  0.8097179E-01
       -1   -1    0    0    0  501  0.00000000000E+00  0.00000000000E+00  0.20282558985E+04  0.20282558985E+04  0.50400001928E-02 0.  1.
        1   -1    0    0  501    0  0.00000000000E+00  0.00000000000E+00 -0.15717542002E+04  0.15717542002E+04  0.50400001928E-02 0. -1.
    10030    2    1    2    0    0  0.00000000000E+00  0.00000000000E+00  0.45650169833E+03  0.36000100988E+04  0.35709493010E+04 0.  0.
        1    1    3    3  502    0  0.49958553570E+03  0.14659357376E+04 -0.66744252621E+03  0.16864260494E+04  0.50400001928E-02 0. -1.
       -1    1    3    3    0  502 -0.49958553570E+03 -0.14659357376E+04  0.11239442245E+04  0.19135840494E+04  0.50400001928E-02 0.  1.
</event>
<event>
 5   0  0.1070988E-07  0.3818728E+04  0.7818609E-02  0.8042148E-01
        3   -1    0    0  501    0  0.00000000000E+00  0.00000000000E+00  0.23577748765E+04  0.23577748786E+04  0.10100000352E+00 0.  1.
       -3   -1    0    0    0  501  0.00000000000E+00  0.00000000000E+00 -0.15462332916E+04  0.15462332949E+04  0.10100000352E+00 0. -1.
    10030    2    1    2    0    0  0.00000000000E+00  0.00000000000E+00  0.81154158487E+03  0.39040081736E+04  0.38187275466E+04 0.  0.
        3    1    3    3  502    0  0.83889184563E+03  0.93711559784E+03 -0.10628850728E+04  0.16467087965E+04  0.10100000352E+00 0. -1.
       -3    1    3    3    0  502 -0.83889184563E+03 -0.93711559784E+03  0.18744266577E+04  0.22572993770E+04  0.10100000352E+00 0.  1.
</event>
<event>
 5   0  0.1070988E-07  0.3782994E+04  0.7818609E-02  0.8049814E-01
        1   -1    0    0  501    0  0.00000000000E+00  0.00000000000E+00  0.21851598835E+04  0.21851598835E+04  0.50400001928E-02 0. -1.
       -1   -1    0    0    0  501  0.00000000000E+00  0.00000000000E+00 -0.16372993762E+04  0.16372993762E+04  0.50400001928E-02 0.  1.
    10030    2    1    2    0    0  0.00000000000E+00  0.00000000000E+00  0.54786050727E+03  0.38224592597E+04  0.37829940070E+04 0.  0.
        3    1    3    3  502    0  0.15331732459E+03 -0.18321619812E+04 -0.17504424911E+03  0.18468795918E+04  0.10100000352E+00 0.  1.
       -3    1    3    3    0  502 -0.15331732459E+03  0.18321619812E+04  0.72290475638E+03  0.19755796679E+04  0.10100000352E+00 0. -1.
</event>
<event>
 5   0  0.3509843E-07  0.3678045E+04  0.7818609E-02  0.8072845E-01
        2   -1    0    0  501    0  0.00000000000E+00  0.00000000000E+00  0.18061672269E+04  0.18061672269E+04  0.25500000920E-02 0.  1.
       -2   -1    0    0    0  501  0.00000000000E+00  0.00000000000E+00 -0.18724756835E+04  0.18724756835E+04  0.25500000920E-02 0. -1.
    10030    2    1    2    0    0  0.00000000000E+00  0.00000000000E+00 -0.66308456605E+02  0.36786429104E+04  0.36780452486E+04 0.  0.
        4    1    3    3  502    0 -0.40483213575E+03  0.15442089218E+03  0.17543876357E+04  0.18071005670E+04  0.12699999809E+01 0.  1.
       -4    1    3    3    0  502  0.40483213575E+03 -0.15442089218E+03 -0.18206960923E+04  0.18715423435E+04  0.12699999809E+01 0. -1.
</event>
<event>
 5   0  0.3539010E-07  0.3834292E+04  0.7818609E-02  0.8038836E-01
        2   -1    0    0  501    0  0.00000000000E+00  0.00000000000E+00  0.27527807096E+04  0.27527807096E+04  0.25500000920E-02 0.  1.
       -2   -1    0    0    0  501  0.00000000000E+00  0.00000000000E+00 -0.13351765069E+04  0.13351765069E+04  0.25500000920E-02 0. -1.
    10030    2    1    2    0    0  0.00000000000E+00  0.00000000000E+00  0.14176042027E+04  0.40879572166E+04  0.38342916593E+04 0.  0.
        1    1    3    3  502    0 -0.33523859953E+03 -0.16709899961E+04  0.16448708065E+04  0.23685844836E+04  0.50400001928E-02 0.  1.
       -1    1    3    3    0  502  0.33523859953E+03  0.16709899961E+04 -0.22726660377E+03  0.17193727330E+04  0.50400001928E-02 0. -1.
</event>
<event>
 5   0  0.1084315E-07  0.3828385E+04  0.7818609E-02  0.8040091E-01
       -1   -1    0    0    0  501  0.00000000000E+00  0.00000000000E+00  0.15998503253E+04  0.15998503253E+04  0.50400001928E-02 0.  1.
        1   -1    0    0  501    0  0.00000000000E+00  0.00000000000E+00 -0.22902967485E+04  0.22902967485E+04  0.50400001928E-02 0. -1.
    10030    2    1    2    0    0  0.00000000000E+00  0.00000000000E+00 -0.69044642325E+03  0.38901470738E+04  0.38283845147E+04 0.  0.
        4    1    3    3  502    0  0.97745639096E+03  0.36498432494E+03 -0.19759488365E+04  0.22345044128E+04  0.12699999809E+01 0. -1.
       -4    1    3    3    0  502 -0.97745639096E+03 -0.36498432494E+03  0.12855024132E+04  0.16556426610E+04  0.12699999809E+01 0.  1.
</event>
<event>
 5   0  0.3377396E-07  0.3638784E+04  0.7818609E-02  0.8081665E-01
        2   -1    0    0  501    0  0.00000000000E+00  0.00000000000E+00  0.24342073614E+04  0.24342073614E+04  0.25500000920E-02 0.  1.
       -2   -1    0    0    0  501  0.00000000000E+00  0.00000000000E+00 -0.13598621689E+04  0.13598621689E+04  0.25500000920E-02 0. -1.
    10030    2    1    2    0    0  0.00000000000E+00  0.00000000000E+00  0.10743451925E+04  0.37940695303E+04  0.36387835891E+04 0.  0.
        5    1    3    3  502    0 -0.83184540182E+03  0.71972631744E+03  0.20482215125E+04  0.23249099335E+04  0.46999998093E+01 0.  1.
       -5    1    3    3    0  502  0.83184540182E+03 -0.71972631744E+03 -0.97387631995E+03  0.14691595969E+04  0.46999998093E+01 0. -1.
</event>
<event>
 5   0  0.1084315E-07  0.3796992E+04  0.7818609E-02  0.8046801E-01
        1   -1    0    0  501    0  0.00000000000E+00  0.00000000000E+00  0.19599196259E+04  0.19599196259E+04  0.50400001928E-02 0.  1.
       -1   -1    0    0    0  501  0.00000000000E+00  0.00000000000E+00 -0.18389973925E+04  0.18389973926E+04  0.50400001928E-02 0. -1.
    10030    2    1    2    0    0  0.00000000000E+00  0.00000000000E+00  0.12092223334E+03  0.37989170184E+04  0.37969920103E+04 0.  0.
        4    1    3    3  502    0  0.17078271020E+04 -0.33596897427E+03  0.81895951319E+03  0.19236020532E+04  0.12699999809E+01 0.  1.
       -4    1    3    3    0  502 -0.17078271020E+04  0.33596897427E+03 -0.69803727985E+03  0.18753149652E+04  0.12699999809E+01 0. -1.
</event>
<event>
 5   0  0.1085771E-07  0.3515114E+04  0.7818609E-02  0.8110217E-01
       -1   -1    0    0    0  501  0.00000000000E+00  0.00000000000E+00  0.99461962736E+03  0.99461962738E+03  0.50400001928E-02 0.  1.
        1   -1    0    0  501    0  0.00000000000E+00  0.00000000000E+00 -0.31057169238E+04  0.31057169238E+04  0.50400001928E-02 0. -1.
    10030    2    1    2    0    0  0.00000000000E+00  0.00000000000E+00 -0.21110972964E+04  0.41003365512E+04  0.35151142283E+04 0.  0.
        1    1    3    3  502    0  0.15993533053E+04  0.72138948410E+03 -0.93503730615E+03  0.19881218642E+04  0.50400001928E-02 0. -1.
       -1    1    3    3    0  502 -0.15993533053E+04 -0.72138948410E+03 -0.11760599903E+04  0.21122146870E+04  0.50400001928E-02 0.  1.
</event>
<event>
 5   0  0.1070988E-07  0.3790501E+04  0.7818609E-02  0.8048196E-01
       -1   -1    0    0    0  501  0.00000000000E+00  0.00000000000E+00  0.16033765046E+04  0.16033765046E+04  0.50400001928E-02 0. -1.
        1   -1    0    0  501    0  0.00000000000E+00  0.00000000000E+00 -0.22402561179E+04  0.22402561180E+04  0.50400001928E-02 0.  1.
    10030    2    1    2    0    0  0.00000000000E+00  0.00000000000E+00 -0.63687961338E+03  0.38436326225E+04  0.37905007710E+04 0.  0.
        3    1    3    3  502    0 -0.16835436313E+04 -0.74255154889E+03 -0.77897781287E+03  0.19981262233E+04  0.10100000352E+00 0. -1.
       -3    1    3    3    0  502  0.16835436313E+04  0.74255154889E+03  0.14209819949E+03  0.18455063992E+04  0.10100000352E+00 0.  1.
</event>
<event>
 5   0  0.1070988E-07  0.3660330E+04  0.7818609E-02  0.8076811E-01
       -1   -1    0    0    0  501  0.00000000000E+00  0.00000000000E+00  0.23741944516E+04  0.23741944516E+04  0.50400001928E-02 0. -1.
        1   -1    0    0  501    0  0.00000000000E+00  0.00000000000E+00 -0.14107958190E+04  0.14107958190E+04  0.50400001928E-02 0.  1.
    10030    2    1    2    0    0  0.00000000000E+00  0.00000000000E+00  0.96339863260E+03  0.37849902707E+04  0.36603298245E+04 0.  0.
        3    1    3    3  502    0  0.14336987085E+04 -0.35379389649E+03 -0.63625062173E+03  0.16079418434E+04  0.10100000352E+00 0.  1.
       -3    1    3    3    0  502 -0.14336987085E+04  0.35379389649E+03  0.15996492543E+04  0.21770484273E+04  0.10100000352E+00 0. -1.
</event>
<event>
 5   0  0.3377396E-07  0.3787697E+04  0.7818609E-02  0.8048800E-01
       -2   -1    0    0    0  501  0.00000000000E+00  0.00000000000E+00  0.17192179121E+04  0.17192179121E+04  0.25500000920E-02 0.  1.
        2   -1    0    0  501    0  0.00000000000E+00  0.00000000000E+00 -0.20862168244E+04  0.20862168244E+04  0.25500000920E-02 0. -1.
    10030    2    1    2    0    0  0.00000000000E+00  0.00000000000E+00 -0.36699891233E+03  0.38054347364E+04  0.37876965733E+04 0.  0.
        5    1    3    3  502    0  0.13503199014E+04  0.12104347640E+04  0.36506403845E+03  0.18498135031E+04  0.46999998093E+01 0.  1.
       -5    1    3    3    0  502 -0.13503199014E+04 -0.12104347640E+04 -0.73206295078E+03  0.19556212333E+04  0.46999998093E+01 0. -1.
</event>
<event>
 5   0  0.3539010E-07  0.3816259E+04  0.7818609E-02  0.8042675E-01
        2   -1    0    0  501    0  0.00000000000E+00  0.00000000000E+00  0.25263262925E+04  0.25263262925E+04  0.25500000920E-02 0.  1.
       -2   -1    0    0    0  501  0.00000000000E+00  0.00000000000E+00 -0.14412064655E+04  0.14412064655E+04  0.25500000920E-02 0. -1.
    10030    2    1    2    0    0  0.00000000000E+00  0.00000000000E+00  0.10851198270E+04  0.39675327580E+04  0.38162587892E+04 0.  0.
        1    1    3    3  502    0  0.73318831300E+03  0.14911403171E+04  0.15177688985E+04  0.22504859424E+04  0.50400001928E-02 0. -1.
       -1    1    3    3    0  502 -0.73318831300E+03 -0.14911403171E+04 -0.43264907150E+03  0.17170468155E+04  0.50400001928E-02 0.  1.
</event>
<event>
 5   0  0.1084315E-07  0.3803518E+04  0.7818609E-02  0.8045400E-01
       -1   -1    0    0    0  501  0.00000000000E+00  0.00000000000E+00  0.12010930361E+04  0.12010930361E+04  0.50400001928E-02 0. -1.
        1   -1    0    0  501    0  0.00000000000E+00  0.00000000000E+00 -0.30111626069E+04  0.30111626069E+04  0.50400001928E-02 0.  1.
    10030    2    1    2    0    0  0.00000000000E+00  0.00000000000E+00 -0.18100695708E+04  0.42122556431E+04  0.38035175498E+04 0.  0.
        4    1    3    3  502    0  0.16618229968E+04  0.86461776161E+03 -0.54198734397E+03  0.19501208784E+04  0.12699999809E+01 0. -1.
       -4    1    3    3    0  502 -0.16618229968E+04 -0.86461776161E+03 -0.12680822268E+04  0.22621347646E+04  0.12699999809E+01 0.  1.
</event>
<event>
 5   0  0.1070988E-07  0.3697261E+04  0.7818609E-02  0.8068569E-01
        1   -1    0    0  501    0  0.00000000000E+00  0.00000000000E+00  0.23369083718E+04  0.23369083718E+04  0.50400001928E-02 0.  1.
       -1   -1    0    0    0  501  0.00000000000E+00  0.00000000000E+00 -0.14623744292E+04  0.14623744292E+04  0.50400001928E-02 0. -1.
    10030    2    1    2    0    0  0.00000000000E+00  0.00000000000E+00  0.87453394255E+03  0.37992828010E+04  0.36972611735E+04 0.  0.
        3    1    3    3  502    0  0.10057885335E+03 -0.91947450809E+03 -0.12074885554E+04  0.15210450678E+04  0.10100000352E+00 0. -1.
       -3    1    3    3    0  502 -0.10057885335E+03  0.91947450809E+03  0.20820224979E+04  0.22782377332E+04  0.10100000352E+00 0.  1.
</event>
<event>
 5   0  0.3377396E-07  0.3815405E+04  0.7818609E-02  0.8042857E-01
        2   -1    0    0  501    0  0.00000000000E+00  0.00000000000E+00  0.13159910235E+04  0.13159910235E+04  0.25500000920E-02 0.  1.
       -2   -1    0    0    0  501  0.00000000000E+00  0.00000000000E+00 -0.27654661965E+04  0.27654661965E+04  0.25500000920E-02 0. -1.
    10030    2    1    2    0    0  0.00000000000E+00  0.00000000000E+00 -0.14494751729E+04  0.40814572200E+04  0.38154049277E+04 0.  0.
        5    1    3    3  502    0 -0.26939638704E+03  0.15245703723E+04 -0.19171002521E+04  0.24641803303E+04  0.46999998093E+01 0. -1.
       -5    1    3    3    0  502  0.26939638704E+03 -0.15245703723E+04  0.46762507919E+03  0.16172768898E+04  0.46999998093E+01 0.  1.
</event>
<event>
 5   0  0.1070988E-07  0.3756123E+04  0.7818609E-02  0.8055637E-01
        1   -1    0    0  501    0  0.00000000000E+00  0.00000000000E+00  0.21241244217E+04  0.21241244217E+04  0.50400001928E-02 0. -1.
       -1   -1    0    0    0  501  0.00000000000E+00  0.00000000000E+00 -0.16605027465E+04  0.16605027465E+04  0.50400001928E-02 0.  1.
    10030    2    1    2    0    0  0.00000000000E+00  0.00000000000E+00  0.46362167522E+03  0.37846271682E+04  0.37561227009E+04 0.  0.
        5    1    3    3  502    0 -0.22501337496E+03  0.17172494439E+04  0.96362534767E+03  0.19819617988E+04  0.46999998093E+01 0. -1.
       -5    1    3    3    0  502  0.22501337496E+03 -0.17172494439E+04 -0.50000367246E+03  0.18026653693E+04  0.46999998093E+01 0.  1.
</event>
<event>
 5   0  0.1070988E-07  0.3785964E+04  0.7818609E-02  0.8049174E-01
        1   -1    0    0  501    0  0.00000000000E+00  0.00000000000E+00  0.12186855085E+04  0.12186855085E+04  0.50400001928E-02 0.  1.
       -1   -1    0    0    0  501  0.00000000000E+00  0.00000000000E+00 -0.29403648610E+04  0.29403648610E+04  0.50400001928E-02 0. -1.
    10030    2    1    2    0    0  0.00000000000E+00  0.00000000000E+00 -0.17216793525E+04  0.41590503695E+04  0.37859635740E+04 0.  0.
        3    1    3    3  502    0  0.12341020087E+03 -0.92529703691E+03  0.94825217700E+03  0.13306340164E+04  0.10100000352E+00 0.  1.
       -3    1    3    3    0  502 -0.12341020087E+03  0.92529703691E+03 -0.26699315295E+04  0.28284163531E+04  0.10100000352E+00 0. -1.
</event>
<event>
 5   0  0.3509843E-07  0.3708481E+04  0.7818609E-02  0.8066085E-01
        2   -1    0    0  501    0  0.00000000000E+00  0.00000000000E+00  0.23306187821E+04  0.23306187821E+04  0.25500000920E-02 0.  1.
       -2   -1    0    0    0  501  0.00000000000E+00  0.00000000000E+00 -0.14752339064E+04  0.14752339064E+04  0.25500000920E-02 0. -1.
    10030    2    1    2    0    0  0.00000000000E+00  0.00000000000E+00  0.85538487571E+03  0.38058526885E+04  0.37084810099E+04 0.  0.
        4    1    3    3  502    0 -0.12088602749E+04 -0.12401418213E+04  0.11075912991E+04  0.20557370940E+04  0.12699999809E+01 0.  1.
       -4    1    3    3    0  502  0.12088602749E+04  0.12401418213E+04 -0.25220642338E+03  0.17501155945E+04  0.12699999809E+01 0. -1.
</event>
<event>
 5   0  0.3442126E-07  0.3840328E+04  0.7818609E-02  0.8037555E-01
       -2   -1    0    0    0  501  0.00000000000E+00  0.00000000000E+00  0.24171813593E+04  0.24171813593E+04  0.25500000920E-02 0.  1.
        2   -1    0    0  501    0  0.00000000000E+00  0.00000000000E+00 -0.15253429244E+04  0.15253429244E+04  0.25500000920E-02 0. -1.
    10030    2    1    2    0    0  0.00000000000E+00  0.00000000000E+00  0.89183843490E+03  0.39425242837E+04  0.38403283627E+04 0.  0.
        2    1    3    3  502    0 -0.10495999707E+04 -0.14141306939E+04  0.12315315970E+04  0.21489755216E+04  0.25500000920E-02 0.  1.
       -2    1    3    3    0  502  0.10495999707E+04  0.14141306939E+04 -0.33969316211E+03  0.17935487621E+04  0.25500000920E-02 0. -1.
</event>
<event>
 5   0  0.1070988E-07  0.3757334E+04  0.7818609E-02  0.8055373E-01
       -1   -1    0    0    0  501  0.00000000000E+00  0.00000000000E+00  0.11892913169E+04  0.11892913169E+04  0.50400001928E-02 0. -1.
        1   -1    0    0  501    0  0.00000000000E+00  0.00000000000E+00 -0.29676404142E+04  0.29676404142E+04  0.50400001928E-02 0.  1.
    10030    2    1    2    0    0  0.00000000000E+00  0.00000000000E+00 -0.17783490974E+04  0.41569317311E+04  0.37573336164E+04 0.  0.
        2    1    3    3  502    0 -0.97545478188E+03  0.49976682382E+03 -0.25772617938E+04  0.28006351536E+04  0.25500000920E-02 0.  1.
       -2    1    3    3    0  502  0.97545478188E+03 -0.49976682382E+03  0.79891269646E+03  0.13562965775E+04  0.25500000920E-02 0. -1.
</event>
<event>
 5   0  0.3442126E-07  0.3758918E+04  0.7818609E-02  0.8055029E-01
        2   -1    0    0  501    0  0.00000000000E+00  0.00000000000E+00  0.12292851722E+04  0.12292851722E+04  0.25500000920E-02 0. -1.
       -2   -1    0    0    0  501  0.00000000000E+00  0.00000000000E+00 -0.28735126037E+04  0.28735126037E+04  0.25500000920E-02 0.  1.
    10030    2    1    2    0    0  0.00000000000E+00  0.00000000000E+00 -0.16442274315E+04  0.41027977760E+04  0.37589181614E+04 0.  0.
        2    1    3    3  502    0 -0.15612319179E+04  0.20095579872E+03  0.29873856249E+03  0.16022088077E+04  0.25500000920E-02 0. -1.
       -2    1    3    3    0  502  0.15612319179E+04 -0.20095579872E+03 -0.19429659940E+04  0.25005889683E+04  0.25500000920E-02 0.  1.
</event>
<event>
 5   0  0.1070988E-07  0.3760913E+04  0.7818609E-02  0.8054595E-01
        1   -1    0    0  501    0  0.00000000000E+00  0.00000000000E+00  0.19234610693E+04  0.19234610693E+04  0.50400001928E-02 0. -1.
       -1   -1    0    0    0  501  0.00000000000E+00  0.00000000000E+00 -0.18384138573E+04  0.18384138573E+04  0.50400001928E-02 0.  1.
    10030    2    1    2    0    0  0.00000000000E+00  0.00000000000E+00  0.85047212028E+02  0.37618749266E+04  0.37609134442E+04 0.  0.
        2    1    3    3  502    0  0.10154622053E+04  0.13168074747E+04  0.92079823185E+03  0.19007932027E+04  0.25500000920E-02 0. -1.
       -2    1    3    3    0  502 -0.10154622053E+04 -0.13168074747E+04 -0.83575101982E+03  0.18610817239E+04  0.25500000920E-02 0.  1.
</event>
<event>
 5   0  0.1070988E-07  0.3787416E+04  0.7818609E-02  0.8048861E-01
       -1   -1    0    0    0  501  0.00000000000E+00  0.00000000000E+00  0.13100128861E+04  0.13100128861E+04  0.50400001928E-02 0. -1.
        1   -1    0    0  501    0  0.00000000000E+00  0.00000000000E+00 -0.27374774250E+04  0.27374774250E+04  0.50400001928E-02 0.  1.
    10030    2    1    2    0    0  0.00000000000E+00  0.00000000000E+00 -0.14274645389E+04  0.40474903111E+04  0.37874163765E+04 0.  0.
        3    1    3    3  502    0 -0.11874745358E+04  0.52362369024E+03  0.76004296808E+03  0.15039756865E+04  0.10100000352E+00 0.  1.
       -3    1    3    3    0  502  0.11874745358E+04 -0.52362369024E+03 -0.21875075070E+04  0.25435146246E+04  0.10100000352E+00 0. -1.
</event>
<event>
 5   0  0.3442126E-07  0.3791137E+04  0.7818609E-02  0.8048060E-01
       -2   -1    0    0    0  501  0.00000000000E+00  0.00000000000E+00  0.17754034991E+04  0.17754034991E+04  0.25500000920E-02 0.  1.
        2   -1    0    0  501    0  0.00000000000E+00  0.00000000000E+00 -0.20238662914E+04  0.20238662914E+04  0.25500000920E-02 0. -1.
    10030    2    1    2    0    0  0.00000000000E+00  0.00000000000E+00 -0.24846279232E+03  0.37992697904E+04  0.37911366609E+04 0.  0.
        2    1    3    3  502    0  0.12520569437E+04  0.83398898986E+02  0.12995830338E+04  0.18065209737E+04  0.25500000920E-02 0.  1.
       -2    1    3    3    0  502 -0.12520569437E+04 -0.83398898986E+02 -0.15480458261E+04  0.19927488167E+04  0.25500000920E-02 0. -1.
</event>
<event>
 5   0  0.3509843E-07  0.3794119E+04  0.7818609E-02  0.8047418E-01
        2   -1    0    0  501    0  0.00000000000E+00  0.00000000000E+00  0.20500965829E+04  0.20500965829E+04  0.25500000920E-02 0. -1.
       -2   -1    0    0    0  501  0.00000000000E+00  0.00000000000E+00 -0.17554462827E+04  0.17554462827E+04  0.25500000920E-02 0.  1.
    10030    2    1    2    0    0  0.00000000000E+00  0.00000000000E+00  0.29465030021E+03  0.38055428656E+04  0.37941188309E+04 0.  0.
        4    1    3    3  502    0  0.11894139910E+04 -0.13945951710E+04 -0.34326051363E+03  0.18647870458E+04  0.12699999809E+01 0. -1.
       -4    1    3    3    0  502 -0.11894139910E+04  0.13945951710E+04  0.63791081384E+03  0.19407558198E+04  0.12699999809E+01 0.  1.
</event>
<event>
 5   0  0.3539010E-07  0.3853099E+04  0.7818609E-02  0.8034855E-01
        2   -1    0    0  501    0  0.00000000000E+00  0.00000000000E+00  0.22081473317E+04  0.22081473317E+04  0.25500000920E-02 0. -1.
       -2   -1    0    0    0  501  0.00000000000E+00  0.00000000000E+00 -0.16808632169E+04  0.16808632169E+04  0.25500000920E-02 0.  1.
    10030    2    1    2    0    0  0.00000000000E+00  0.00000000000E+00  0.52728411478E+03  0.38890105486E+04  0.38530993381E+04 0.  0.
        1    1    3    3  502    0 -0.58241798480E+03  0.12844193350E+04 -0.10610881078E+04  0.17648942489E+04  0.50400001928E-02 0.  1.
       -1    1    3    3    0  502  0.58241798480E+03 -0.12844193350E+04  0.15883722226E+04  0.21241162997E+04  0.50400001928E-02 0. -1.
</event>
<event>
 5   0  0.3539010E-07  0.3790827E+04  0.7818609E-02  0.8048126E-01
       -2   -1    0    0    0  501  0.00000000000E+00  0.00000000000E+00  0.13535389035E+04  0.13535389035E+04  0.25500000920E-02 0. -1.
        2   -1    0    0  501    0  0.00000000000E+00  0.00000000000E+00 -0.26542221432E+04  0.26542221432E+04  0.25500000920E-02 0.  1.
    10030    2    1    2    0    0  0.00000000000E+00  0.00000000000E+00 -0.13006832397E+04  0.40077610467E+04  0.37908273131E+04 0.  0.
        1    1    3    3  502    0  0.28169366144E+02 -0.65382372959E+03 -0.25309899880E+04  0.26142282421E+04  0.50400001928E-02 0.  1.
       -1    1    3    3    0  502 -0.28169366144E+02  0.65382372959E+03  0.12303067483E+04  0.13935328046E+04  0.50400001928E-02 0. -1.
</event>
<event>
 5   0  0.1070988E-07  0.3156180E+04  0.7818609E-02  0.8200487E-01
       -1   -1    0    0    0  501  0.00000000000E+00  0.00000000000E+00  0.19167784146E+04  0.19167784146E+04  0.50400001928E-02 0. -1.
        1   -1    0    0  501    0  0.00000000000E+00  0.00000000000E+00 -0.12992468378E+04  0.12992468378E+04  0.50400001928E-02 0.  1.
    10030    2    1    2    0    0  0.00000000000E+00  0.00000000000E+00  0.61753157677E+03  0.32160252524E+04  0.31561801557E+04 0.  0.
        2    1    3    3  502    0 -0.65799107421E+02  0.15523337126E+04  0.59022571148E+03  0.16620577211E+04  0.25500000920E-02 0. -1.
       -2    1    3    3    0  502  0.65799107421E+02 -0.15523337126E+04  0.27305865286E+02  0.15539675312E+04  0.25500000920E-02 0.  1.
</event>
<event>
 5   0  0.1070988E-07  0.3805196E+04  0.7818609E-02  0.8045041E-01
        1   -1    0    0  501    0  0.00000000000E+00  0.00000000000E+00  0.21720817484E+04  0.21720817484E+04  0.50400001928E-02 0.  1.
       -1   -1    0    0    0  501  0.00000000000E+00  0.00000000000E+00 -0.16665483273E+04  0.16665483273E+04  0.50400001928E-02 0. -1.
    10030    2    1    2    0    0  0.00000000000E+00  0.00000000000E+00  0.50553342109E+03  0.38386300758E+04  0.38051960289E+04 0.  0.
        2    1    3    3  502    0 -0.12634841647E+02  0.13616322066E+04 -0.10876964829E+04  0.17427809800E+04  0.25500000920E-02 0. -1.
       -2    1    3    3    0  502  0.12634841647E+02 -0.13616322066E+04  0.15932299040E+04  0.20958490958E+04  0.25500000920E-02 0.  1.
</event>
<event>
 5   0  0.3539010E-07  0.3823932E+04  0.7818609E-02  0.8041039E-01
        2   -1    0    0  501    0  0.00000000000E+00  0.00000000000E+00  0.28056043559E+04  0.28056043559E+04  0.25500000920E-02 0. -1.
       -2   -1    0    0    0  501  0.00000000000E+00  0.00000000000E+00 -0.13029683380E+04  0.13029683380E+04  0.25500000920E-02 0.  1.
    10030    2    1    2    0    0  0.00000000000E+00  0.00000000000E+00  0.15026360179E+04  0.41085726940E+04  0.38239318220E+04 0.  0.
        1    1    3    3  502    0 -0.10789159435E+04  0.13786593829E+04  0.15772044080E+04  0.23563393329E+04  0.50400001928E-02 0. -1.
       -1    1    3    3    0  502  0.10789159435E+04 -0.13786593829E+04 -0.74568390068E+02  0.17522333611E+04  0.50400001928E-02 0.  1.
</event>
<event>
 5   0  0.3377396E-07  0.3721473E+04  0.7818609E-02  0.8063220E-01
        2   -1    0    0  501    0  0.00000000000E+00  0.00000000000E+00  0.19751889059E+04  0.19751889059E+04  0.25500000920E-02 0. -1.
       -2   -1    0    0    0  501  0.00000000000E+00  0.00000000000E+00 -0.17529161594E+04  0.17529161594E+04  0.25500000920E-02 0.  1.
    10030    2    1    2    0    0  0.00000000000E+00  0.00000000000E+00  0.22227274647E+03  0.37281050652E+04  0.37214731228E+04 0.  0.
        5    1    3    3  502    0 -0.18203213686E+03  0.15507362926E+04  0.11250663903E+04  0.19245038895E+04  0.46999998093E+01 0.  1.
       -5    1    3    3    0  502  0.18203213686E+03 -0.15507362926E+04 -0.90279364383E+03  0.18036011758E+04  0.46999998093E+01 0. -1.
</event>
<event>
 5   0  0.3509843E-07  0.3805540E+04  0.7818609E-02  0.8044967E-01
       -2   -1    0    0    0  501  0.00000000000E+00  0.00000000000E+00  0.12480236606E+04  0.12480236606E+04  0.25500000920E-02 0. -1.
        2   -1    0    0  501    0  0.00000000000E+00  0.00000000000E+00 -0.29010141139E+04  0.29010141139E+04  0.25500000920E-02 0.  1.
    10030    2    1    2    0    0  0.00000000000E+00  0.00000000000E+00 -0.16529904533E+04  0.41490377745E+04  0.38055403053E+04 0.  0.
        4    1    3    3  502    0  0.87514449332E+03 -0.16559164348E+04 -0.11923355851E+04  0.22202709032E+04  0.12699999809E+01 0. -1.
       -4    1    3    3    0  502 -0.87514449332E+03  0.16559164348E+04 -0.46065486824E+03  0.19287668713E+04  0.12699999809E+01 0.  1.
</event>
<event>
 5   0  0.1070988E-07  0.3792154E+04  0.7818609E-02  0.8047841E-01
       -1   -1    0    0    0  501  0.00000000000E+00  0.00000000000E+00  0.13430471155E+04  0.13430471156E+04  0.50400001928E-02 0. -1.
        1   -1    0    0  501    0  0.00000000000E+00  0.00000000000E+00 -0.26768296399E+04  0.26768296399E+04  0.50400001928E-02 0.  1.
    10030    2    1    2    0    0  0.00000000000E+00  0.00000000000E+00 -0.13337825243E+04  0.40198767554E+04  0.37921541776E+04 0.  0.
        3    1    3    3  502    0  0.18050226615E+04 -0.57547773226E+03 -0.74780924862E+03  0.20367867123E+04  0.10100000352E+00 0. -1.
       -3    1    3    3    0  502 -0.18050226615E+04  0.57547773226E+03 -0.58597327571E+03  0.19830900431E+04  0.10100000352E+00 0.  1.
</event>
<event>
 5   0  0.3327241E-07  0.3862339E+04  0.7818609E-02  0.8032908E-01
        2   -1    0    0  501    0  0.00000000000E+00  0.00000000000E+00  0.16226580984E+04  0.16226580984E+04  0.25500000920E-02 0.  1.
       -2   -1    0    0    0  501  0.00000000000E+00  0.00000000000E+00 -0.22983374673E+04  0.22983374673E+04  0.25500000920E-02 0. -1.
    10030    2    1    2    0    0  0.00000000000E+00  0.00000000000E+00 -0.67567936888E+03  0.39209955658E+04  0.38623391380E+04 0.  0.
        3    1    3    3  502    0 -0.40648310536E+03  0.16008644711E+04  0.67806776966E+03  0.17854331352E+04  0.10100000352E+00 0.  1.
       -3    1    3    3    0  502  0.40648310536E+03 -0.16008644711E+04 -0.13537471385E+04  0.21355624306E+04  0.10100000352E+00 0. -1.
</event>
<event>
 5   0  0.3539010E-07  0.3470291E+04  0.7818609E-02  0.8120867E-01
        2   -1    0    0  501    0  0.00000000000E+00  0.00000000000E+00  0.21548988320E+04  0.21548988320E+04  0.25500000920E-02 0. -1.
       -2   -1    0    0    0  501  0.00000000000E+00  0.00000000000E+00 -0.13971561761E+04  0.13971561761E+04  0.25500000920E-02 0.  1.
    10030    2    1    2    0    0  0.00000000000E+00  0.00000000000E+00  0.75774265587E+03  0.35520550081E+04  0.34702911763E+04 0.  0.
        1    1    3    3  502    0  0.79899780592E+03  0.13559416819E+04 -0.36892735086E+03  0.16165032412E+04  0.50400001928E-02 0.  1.
       -1    1    3    3    0  502 -0.79899780592E+03 -0.13559416819E+04  0.11266700067E+04  0.19355517670E+04  0.50400001928E-02 0. -1.
</event>
<event>
 5   0  0.1084315E-07  0.3756584E+04  0.7818609E-02  0.8055537E-01
        1   -1    0    0  501    0  0.00000000000E+00  0.00000000000E+00  0.15958609077E+04  0.15958609077E+04  0.50400001928E-02 0.  1.
       -1   -1    0    0    0  501  0.00000000000E+00  0.00000000000E+00 -0.22107071034E+04  0.22107071034E+04  0.50400001928E-02 0. -1.
    10030    2    1    2    0    0  0.00000000000E+00  0.00000000000E+00 -0.61484619572E+03  0.38065680111E+04  0.37565841104E+04 0.  0.
        4    1    3    3  502    0 -0.17271199475E+04 -0.73795282609E+03 -0.28564892328E+03  0.18997669875E+04  0.12699999809E+01 0. -1.
       -4    1    3    3    0  502  0.17271199475E+04  0.73795282609E+03 -0.32919727244E+03  0.19068010236E+04  0.12699999809E+01 0.  1.
</event>
<event>
 5   0  0.3327241E-07  0.3794428E+04  0.7818609E-02  0.8047352E-01
       -2   -1    0    0    0  501  0.00000000000E+00  0.00000000000E+00  0.14020913371E+04  0.14020913371E+04  0.25500000920E-02 0.  1.
        2   -1    0    0  501    0  0.00000000000E+00  0.00000000000E+00 -0.25671804122E+04  0.25671804122E+04  0.25500000920E-02 0. -1.
    10030    2    1    2    0    0  0.00000000000E+00  0.00000000000E+00 -0.11650890750E+04  0.39692717493E+04  0.37944282398E+04 0.  0.
        3    1    3    3  502    0 -0.16492651055E+04  0.76310060403E+03 -0.12432927626E+02  0.18172926313E+04  0.10100000352E+00 0.  1.
       -3    1    3    3    0  502  0.16492651055E+04 -0.76310060403E+03 -0.11526561474E+04  0.21519791180E+04  0.10100000352E+00 0. -1.
</event>
<event>
 5   0  0.3539010E-07  0.3817751E+04  0.7818609E-02  0.8042356E-01
       -2   -1    0    0    0  501  0.00000000000E+00  0.00000000000E+00  0.16527324627E+04  0.16527324627E+04  0.25500000920E-02 0. -1.
        2   -1    0    0  501    0  0.00000000000E+00  0.00000000000E+00 -0.22047164422E+04  0.22047164422E+04  0.25500000920E-02 0.  1.
    10030    2    1    2    0    0  0.00000000000E+00  0.00000000000E+00 -0.55198397957E+03  0.38574489049E+04  0.38177513984E+04 0.  0.
        1    1    3    3  502    0  0.41144223007E+03  0.16879743927E+03  0.15996589144E+04  0.16603270541E+04  0.50400001928E-02 0. -1.
       -1    1    3    3    0  502 -0.41144223007E+03 -0.16879743927E+03 -0.21516428939E+04  0.21971218508E+04  0.50400001928E-02 0.  1.
</event>
<event>
 5   0  0.1070988E-07  0.3207922E+04  0.7818609E-02  0.8186728E-01
       -1   -1    0    0    0  501  0.00000000000E+00  0.00000000000E+00  0.16299592278E+04  0.16299592278E+04  0.50400001928E-02 0.  1.
        1   -1    0    0  501    0  0.00000000000E+00  0.00000000000E+00 -0.15783778552E+04  0.15783778552E+04  0.50400001928E-02 0. -1.
    10030    2    1    2    0    0  0.00000000000E+00  0.00000000000E+00  0.51581372634E+02  0.32083370831E+04  0.32079224119E+04 0.  0.
        2    1    3    3  502    0  0.10045873057E+04 -0.75127283217E+02 -0.12225099839E+04  0.15840992470E+04  0.25500000920E-02 0. -1.
       -2    1    3    3    0  502 -0.10045873057E+04  0.75127283217E+02  0.12740913566E+04  0.16242378361E+04  0.25500000920E-02 0.  1.
</event>
<event>
 5   0  0.3377396E-07  0.3726691E+04  0.7818609E-02  0.8062072E-01
        2   -1    0    0  501    0  0.00000000000E+00  0.00000000000E+00  0.13952982747E+04  0.13952982747E+04  0.25500000920E-02 0.  1.
       -2   -1    0    0    0  501  0.00000000000E+00  0.00000000000E+00 -0.24883975991E+04  0.24883975991E+04  0.25500000920E-02 0. -1.
    10030    2    1    2    0    0  0.00000000000E+00  0.00000000000E+00 -0.10930993244E+04  0.38836958738E+04  0.37266912277E+04 0.  0.
        5    1    3    3  502    0  0.11955381770E+04  0.11147808731E+04 -0.14786512100E+04  0.22041958666E+04  0.46999998093E+01 0. -1.
       -5    1    3    3    0  502 -0.11955381770E+04 -0.11147808731E+04  0.38555188550E+03  0.16795000072E+04  0.46999998093E+01 0.  1.
</event>
<event>
 5   0  0.1070988E-07  0.3795126E+04  0.7818609E-02  0.8047202E-01
       -1   -1    0    0    0  501  0.00000000000E+00  0.00000000000E+00  0.14098449033E+04  0.14098449033E+04  0.50400001928E-02 0. -1.
        1   -1    0    0  501    0  0.00000000000E+00  0.00000000000E+00 -0.25540005518E+04  0.25540005518E+04  0.50400001928E-02 0.  1.
    10030    2    1    2    0    0  0.00000000000E+00  0.00000000000E+00 -0.11441556485E+04  0.39638454552E+04  0.37951256428E+04 0.  0.
        3    1    3    3  502    0  0.83799368206E+03 -0.17009175895E+04 -0.49539310328E+03  0.19597878442E+04  0.10100000352E+00 0. -1.
       -3    1    3    3    0  502 -0.83799368206E+03  0.17009175895E+04 -0.64876254525E+03  0.20040576109E+04  0.10100000352E+00 0.  1.
</event>
<event>
 5   0  0.3539010E-07  0.3788212E+04  0.7818609E-02  0.8048689E-01
        2   -1    0    0  501    0  0.00000000000E+00  0.00000000000E+00  0.19698746731E+04  0.19698746731E+04  0.25500000920E-02 0.  1.
       -2   -1    0    0    0  501  0.00000000000E+00  0.00000000000E+00 -0.18212517279E+04  0.18212517279E+04  0.25500000920E-02 0. -1.
    10030    2    1    2    0    0  0.00000000000E+00  0.00000000000E+00  0.14862294524E+03  0.37911264010E+04  0.37882120596E+04 0.  0.
        1    1    3    3  502    0 -0.11889392791E+03  0.89883938145E+03  0.17385970633E+04  0.19608079326E+04  0.50400001928E-02 0.  1.
       -1    1    3    3    0  502  0.11889392791E+03 -0.89883938145E+03 -0.15899741181E+04  0.18303184685E+04  0.50400001928E-02 0. -1.
</event>
<event>
 5   0  0.3442126E-07  0.3732734E+04  0.7818609E-02  0.8060746E-01
       -2   -1    0    0    0  501  0.00000000000E+00  0.00000000000E+00  0.17458697161E+04  0.17458697161E+04  0.25500000920E-02 0. -1.
        2   -1    0    0  501    0  0.00000000000E+00  0.00000000000E+00 -0.19951805416E+04  0.19951805416E+04  0.25500000920E-02 0.  1.
    10030    2    1    2    0    0  0.00000000000E+00  0.00000000000E+00 -0.24931082555E+03  0.37410502577E+04  0.37327337358E+04 0.  0.
        2    1    3    3  502    0 -0.38818270962E+03 -0.17238565013E+04  0.47748116019E+03  0.18303975829E+04  0.25500000920E-02 0. -1.
       -2    1    3    3    0  502  0.38818270962E+03  0.17238565013E+04 -0.72679198574E+03  0.19106526748E+04  0.25500000920E-02 0.  1.
</event>
<event>
 5   0  0.1070988E-07  0.3763758E+04  0.7818609E-02  0.8053977E-01
        3   -1    0    0  501    0  0.00000000000E+00  0.00000000000E+00  0.22800369219E+04  0.22800369242E+04  0.10100000352E+00 0.  1.
       -3   -1    0    0    0  501  0.00000000000E+00  0.00000000000E+00 -0.15532505034E+04  0.15532505067E+04  0.10100000352E+00 0. -1.
    10030    2    1    2    0    0  0.00000000000E+00  0.00000000000E+00  0.72678641858E+03  0.38332874308E+04  0.37637579663E+04 0.  0.
        5    1    3    3  502    0 -0.12066994035E+04  0.14370044757E+04  0.50865017052E+03  0.19441842504E+04  0.46999998093E+01 0. -1.
       -5    1    3    3    0  502  0.12066994035E+04 -0.14370044757E+04  0.21813624806E+03  0.18891031804E+04  0.46999998093E+01 0.  1.
</event>
<event>
 5   0  0.1070988E-07  0.3774350E+04  0.7818609E-02  0.8051682E-01
        1   -1    0    0  501    0  0.00000000000E+00  0.00000000000E+00  0.26063856065E+04  0.26063856065E+04  0.50400001928E-02 0.  1.
       -1   -1    0    0    0  501  0.00000000000E+00  0.00000000000E+00 -0.13664246052E+04  0.13664246052E+04  0.50400001928E-02 0. -1.
    10030    2    1    2    0    0  0.00000000000E+00  0.00000000000E+00  0.12399610013E+04  0.39728102116E+04  0.37743499696E+04 0.  0.
        3    1    3    3  502    0  0.93352124903E+03  0.93571752432E+03 -0.79784307926E+03  0.15438856166E+04  0.10100000352E+00 0. -1.
       -3    1    3    3    0  502 -0.93352124903E+03 -0.93571752432E+03  0.20378040805E+04  0.24289245951E+04  0.10100000352E+00 0.  1.
</event>
<event>
 5   0  0.3327241E-07  0.4117162E+04  0.7818609E-02  0.7981320E-01
        2   -1    0    0  501    0  0.00000000000E+00  0.00000000000E+00  0.32482048140E+04  0.32482048140E+04  0.25500000920E-02 0. -1.
       -2   -1    0    0    0  501  0.00000000000E+00  0.00000000000E+00 -0.13046453261E+04  0.13046453262E+04  0.25500000920E-02 0.  1.
    10030    2    1    2    0    0  0.00000000000E+00  0.00000000000E+00  0.19435594879E+04  0.45528501402E+04  0.41171617549E+04 0.  0.
        3    1    3    3  502    0  0.11155168880E+03  0.82911870763E+03 -0.11081879156E+04  0.13885107407E+04  0.10100000352E+00 0.  1.
       -3    1    3    3    0  502 -0.11155168880E+03 -0.82911870763E+03  0.30517474034E+04  0.31643393995E+04  0.10100000352E+00 0. -1.
</event>
<event>
 5   0  0.3377396E-07  0.3774012E+04  0.7818609E-02  0.8051755E-01
        2   -1    0    0  501    0  0.00000000000E+00  0.00000000000E+00  0.29268481762E+04  0.29268481762E+04  0.25500000920E-02 0.  1.
       -2   -1    0    0    0  501  0.00000000000E+00  0.00000000000E+00 -0.12165956744E+04  0.12165956744E+04  0.25500000920E-02 0. -1.
    10030    2    1    2    0    0  0.00000000000E+00  0.00000000000E+00  0.17102525018E+04  0.41434438506E+04  0.37740115690E+04 0.  0.
        5    1    3    3  502    0  0.22835336086E+02 -0.17056261163E+04 -0.30759444850E+02  0.17060627581E+04  0.46999998093E+01 0.  1.
       -5    1    3    3    0  502 -0.22835336086E+02  0.17056261163E+04  0.17410119467E+04  0.24373810924E+04  0.46999998093E+01 0. -1.
</event>
<event>
 5   0  0.1070988E-07  0.3792827E+04  0.7818609E-02  0.8047696E-01
       -3   -1    0    0    0  501  0.00000000000E+00  0.00000000000E+00  0.15826866662E+04  0.15826866694E+04  0.10100000352E+00 0. -1.
        3   -1    0    0  501    0  0.00000000000E+00  0.00000000000E+00 -0.22723291205E+04  0.22723291228E+04  0.10100000352E+00 0.  1.
    10030    2    1    2    0    0  0.00000000000E+00  0.00000000000E+00 -0.68964245435E+03  0.38550157922E+04  0.37928274470E+04 0.  0.
        5    1    3    3  502    0  0.16967736540E+03 -0.14245216521E+04 -0.16054438284E+04  0.21530267815E+04  0.46999998093E+01 0.  1.
       -5    1    3    3    0  502 -0.16967736540E+03  0.14245216521E+04  0.91580137408E+03  0.17019890107E+04  0.46999998093E+01 0. -1.
</event>
<event>
 5   0  0.3539010E-07  0.3796842E+04  0.7818609E-02  0.8046833E-01
        2   -1    0    0  501    0  0.00000000000E+00  0.00000000000E+00  0.17334672565E+04  0.17334672565E+04  0.25500000920E-02 0.  1.
       -2   -1    0    0    0  501  0.00000000000E+00  0.00000000000E+00 -0.20790712937E+04  0.20790712937E+04  0.25500000920E-02 0. -1.
    10030    2    1    2    0    0  0.00000000000E+00  0.00000000000E+00 -0.34560403724E+03  0.38125385502E+04  0.37968418516E+04 0.  0.
        1    1    3    3  502    0 -0.16896400248E+04 -0.50133764767E+03 -0.88125346532E+03  0.19704899189E+04  0.50400001928E-02 0. -1.
       -1    1    3    3    0  502  0.16896400248E+04  0.50133764767E+03  0.53564942809E+03  0.18420486313E+04  0.50400001928E-02 0.  1.
</event>
<event>
 5   0  0.1085771E-07  0.3858903E+04  0.7818609E-02  0.8033631E-01
        1   -1    0    0  501    0  0.00000000000E+00  0.00000000000E+00  0.12623872283E+04  0.12623872283E+04  0.50400001928E-02 0. -1.
       -1   -1    0    0    0  501  0.00000000000E+00  0.00000000000E+00 -0.29490028194E+04  0.29490028194E+04  0.50400001928E-02 0.  1.
    10030    2    1    2    0    0  0.00000000000E+00  0.00000000000E+00 -0.16866155912E+04  0.42113900477E+04  0.38589032096E+04 0.  0.
        1    1    3    3  502    0 -0.25481228162E+03  0.73275249155E+03  0.10846763333E+04  0.13335584954E+04  0.50400001928E-02 0. -1.
       -1    1    3    3    0  502  0.25481228162E+03 -0.73275249155E+03 -0.27712919244E+04  0.28778315523E+04  0.50400001928E-02 0.  1.
</event>
<event>
 5   0  0.3327241E-07  0.3852960E+04  0.7818609E-02  0.8034884E-01
       -2   -1    0    0    0  501  0.00000000000E+00  0.00000000000E+00  0.18257784888E+04  0.18257784888E+04  0.25500000920E-02 0.  1.
        2   -1    0    0  501    0  0.00000000000E+00  0.00000000000E+00 -0.20327357118E+04  0.20327357118E+04  0.25500000920E-02 0. -1.
    10030    2    1    2    0    0  0.00000000000E+00  0.00000000000E+00 -0.20695722308E+03  0.38585142006E+04  0.38529599718E+04 0.  0.
        3    1    3    3  502    0 -0.68340526340E+03 -0.27017436431E+02 -0.19070613368E+04  0.20259949774E+04  0.10100000352E+00 0. -1.
       -3    1    3    3    0  502  0.68340526340E+03  0.27017436431E+02  0.17001041137E+04  0.18325192232E+04  0.10100000352E+00 0.  1.
</event>
<event>
 5   0  0.3509843E-07  0.3725733E+04  0.7818609E-02  0.8062283E-01
        2   -1    0    0  501    0  0.00000000000E+00  0.00000000000E+00  0.16969693131E+04  0.16969693131E+04  0.25500000920E-02 0.  1.
       -2   -1    0    0    0  501  0.00000000000E+00  0.00000000000E+00 -0.20449817344E+04  0.20449817344E+04  0.25500000920E-02 0. -1.
    10030    2    1    2    0    0  0.00000000000E+00  0.00000000000E+00 -0.34801242130E+03  0.37419510475E+04  0.37257328134E+04 0.  0.
        4    1    3    3  502    0  0.14590122918E+04  0.78514234142E+03  0.68123107591E+03  0.17914359480E+04  0.12699999809E+01 0.  1.
       -4    1    3    3    0  502 -0.14590122918E+04 -0.78514234142E+03 -0.10292434972E+04  0.19505150995E+04  0.12699999809E+01 0. -1.
</event>
<event>
 5   0  0.3442126E-07  0.3813495E+04  0.7818609E-02  0.8043265E-01
        2   -1    0    0  501    0  0.00000000000E+00  0.00000000000E+00  0.25297935022E+04  0.25297935022E+04  0.25500000920E-02 0.  1.
       -2   -1    0    0    0  501  0.00000000000E+00  0.00000000000E+00 -0.14371476440E+04  0.14371476440E+04  0.25500000920E-02 0. -1.
    10030    2    1    2    0    0  0.00000000000E+00  0.00000000000E+00  0.10926458582E+04  0.39669411462E+04  0.38134953895E+04 0.  0.
        2    1    3    3  502    0 -0.10481532198E+03 -0.18638385713E+04  0.95028656649E+03  0.20947374609E+04  0.25500000920E-02 0.  1.
       -2    1    3    3    0  502  0.10481532198E+03  0.18638385713E+04  0.14235929169E+03  0.18722036853E+04  0.25500000920E-02 0. -1.
</event>
<event>
 5   0  0.3442126E-07  0.3807089E+04  0.7818609E-02  0.8044635E-01
       -2   -1    0    0    0  501  0.00000000000E+00  0.00000000000E+00  0.13483901063E+04  0.13483901063E+04  0.25500000920E-02 0.  1.
        2   -1    0    0  501    0  0.00000000000E+00  0.00000000000E+00 -0.26872655956E+04  0.26872655956E+04  0.25500000920E-02 0. -1.
    10030    2    1    2    0    0  0.00000000000E+00  0.00000000000E+00 -0.13388754893E+04  0.40356557018E+04  0.38070893564E+04 0.  0.
        2    1    3    3  502    0  0.13298607889E+04  0.89455231963E+03  0.41922016928E+03  0.16566529874E+04  0.25500000920E-02 0.  1.
       -2    1    3    3    0  502 -0.13298607889E+04 -0.89455231963E+03 -0.17580956586E+04  0.23790027144E+04  0.25500000920E-02 0. -1.
</event>
<event>
 5   0  0.3539010E-07  0.3385884E+04  0.7818609E-02  0.8141379E-01
       -2   -1    0    0    0  501  0.00000000000E+00  0.00000000000E+00  0.25320584871E+04  0.25320584871E+04  0.25500000920E-02 0.  1.
        2   -1    0    0  501    0  0.00000000000E+00  0.00000000000E+00 -0.11319063946E+04  0.11319063946E+04  0.25500000920E-02 0. -1.
    10030    2    1    2    0    0  0.00000000000E+00  0.00000000000E+00  0.14001520925E+04  0.36639648818E+04  0.33858843413E+04 0.  0.
        1    1    3    3  502    0  0.44205832546E+03 -0.14442818367E+02  0.24684320619E+04  0.25077442060E+04  0.50400001928E-02 0.  1.
       -1    1    3    3    0  502 -0.44205832546E+03  0.14442818367E+02 -0.10682799694E+04  0.11562206758E+04  0.50400001928E-02 0. -1.
</event>
<event>
 5   0  0.1070988E-07  0.3808853E+04  0.7818609E-02  0.8044258E-01
        3   -1    0    0  501    0  0.00000000000E+00  0.00000000000E+00  0.15002938575E+04  0.15002938609E+04  0.10100000352E+00 0.  1.
       -3   -1    0    0    0  501  0.00000000000E+00  0.00000000000E+00 -0.24174194538E+04  0.24174194559E+04  0.10100000352E+00 0. -1.
    10030    2    1    2    0    0  0.00000000000E+00  0.00000000000E+00 -0.91712559635E+03  0.39177133168E+04  0.38088526190E+04 0.  0.
        5    1    3    3  502    0  0.11217305800E+04 -0.14109871980E+04  0.17353607781E+03  0.18108841010E+04  0.46999998093E+01 0.  1.
       -5    1    3    3    0  502 -0.11217305800E+04  0.14109871980E+04 -0.10906616742E+04  0.21068292158E+04  0.46999998093E+01 0. -1.
</event>
<event>
 5   0  0.1085771E-07  0.3782111E+04  0.7818609E-02  0.8050005E-01
        1   -1    0    0  501    0  0.00000000000E+00  0.00000000000E+00  0.13855192439E+04  0.13855192439E+04  0.50400001928E-02 0. -1.
       -1   -1    0    0    0  501  0.00000000000E+00  0.00000000000E+00 -0.25810475181E+04  0.25810475182E+04  0.50400001928E-02 0.  1.
    10030    2    1    2    0    0  0.00000000000E+00  0.00000000000E+00 -0.11955282742E+04  0.39665667621E+04  0.37821110538E+04 0.  0.
        1    1    3    3  502    0 -0.17639645329E+04  0.68112487252E+03 -0.62321796063E+03  0.19909551959E+04  0.50400001928E-02 0.  1.
       -1    1    3    3    0  502  0.17639645329E+04 -0.68112487252E+03 -0.57231031361E+03  0.19756115662E+04  0.50400001928E-02 0. -1.
</event>
<event>
 5   0  0.3539010E-07  0.3784682E+04  0.7818609E-02  0.8049450E-01
        2   -1    0    0  501    0  0.00000000000E+00  0.00000000000E+00  0.22225032616E+04  0.22225032616E+04  0.25500000920E-02 0. -1.
       -2   -1    0    0    0  501  0.00000000000E+00  0.00000000000E+00 -0.16112257419E+04  0.16112257419E+04  0.25500000920E-02 0.  1.
    10030    2    1    2    0    0  0.00000000000E+00  0.00000000000E+00  0.61127751977E+03  0.38337290035E+04  0.37846820033E+04 0.  0.
        1    1    3    3  502    0 -0.18262633637E+04 -0.18457401400E+03 -0.16037651571E+03  0.18425596509E+04  0.50400001928E-02 0.  1.
       -1    1    3    3    0  502  0.18262633637E+04  0.18457401400E+03  0.77165403548E+03  0.19911693526E+04  0.50400001928E-02 0. -1.
</event>
<event>
 5   0  0.1070988E-07  0.3690988E+04  0.7818609E-02  0.8069962E-01
       -1   -1    0    0    0  501  0.00000000000E+00  0.00000000000E+00  0.33707679269E+04  0.33707679269E+04  0.50400001928E-02 0. -1.
        1   -1    0    0  501    0  0.00000000000E+00  0.00000000000E+00 -0.10104072454E+04  0.10104072455E+04  0.50400001928E-02 0.  1.
    10030    2    1    2    0    0  0.00000000000E+00  0.00000000000E+00  0.23603606814E+04  0.43811751723E+04  0.36909881257E+04 0.  0.
        2    1    3    3  502    0 -0.56440062252E+03  0.72978944351E+03 -0.71704349993E+03  0.11684571346E+04  0.25500000920E-02 0.  1.
       -2    1    3    3    0  502  0.56440062252E+03 -0.72978944351E+03  0.30774041814E+04  0.32127180378E+04  0.25500000920E-02 0. -1.
</event>
<event>
 5   0  0.1070988E-07  0.3760550E+04  0.7818609E-02  0.8054674E-01
        1   -1    0    0  501    0  0.00000000000E+00  0.00000000000E+00  0.20467355608E+04  0.20467355608E+04  0.50400001928E-02 0.  1.
       -1   -1    0    0    0  501  0.00000000000E+00  0.00000000000E+00 -0.17273526447E+04  0.17273526447E+04  0.50400001928E-02 0. -1.
    10030    2    1    2    0    0  0.00000000000E+00  0.00000000000E+00  0.31938291606E+03  0.37740882055E+04  0.37605500044E+04 0.  0.
        5    1    3    3  502    0  0.84140194827E+03 -0.15591958470E+04 -0.47214876208E+03  0.18335745067E+04  0.46999998093E+01 0. -1.
       -5    1    3    3    0  502 -0.84140194827E+03  0.15591958470E+04  0.79153167814E+03  0.19405136988E+04  0.46999998093E+01 0.  1.
</event>
<event>
 5   0  0.1084315E-07  0.3788950E+04  0.7818609E-02  0.8048530E-01
       -1   -1    0    0    0  501  0.00000000000E+00  0.00000000000E+00  0.23173017425E+04  0.23173017425E+04  0.50400001928E-02 0. -1.
        1   -1    0    0  501    0  0.00000000000E+00  0.00000000000E+00 -0.15487990452E+04  0.15487990452E+04  0.50400001928E-02 0.  1.
    10030    2    1    2    0    0  0.00000000000E+00  0.00000000000E+00  0.76850269724E+03  0.38661007877E+04  0.37889495780E+04 0.  0.
        4    1    3    3  502    0  0.16392022943E+04 -0.92479667454E+03  0.60498958156E+03  0.19769286931E+04  0.12699999809E+01 0. -1.
       -4    1    3    3    0  502 -0.16392022943E+04  0.92479667454E+03  0.16351311568E+03  0.18891720946E+04  0.12699999809E+01 0.  1.
</event>
<event>
 5   0  0.3539010E-07  0.3795341E+04  0.7818609E-02  0.8047156E-01
        2   -1    0    0  501    0  0.00000000000E+00  0.00000000000E+00  0.24233461107E+04  0.24233461107E+04  0.25500000920E-02 0. -1.
       -2   -1    0    0    0  501  0.00000000000E+00  0.00000000000E+00 -0.14860248639E+04  0.14860248639E+04  0.25500000920E-02 0.  1.
    10030    2    1    2    0    0  0.00000000000E+00  0.00000000000E+00  0.93732124680E+03  0.39093709746E+04  0.37953406036E+04 0.  0.
        1    1    3    3  502    0  0.19986518747E+03  0.15355371206E+04 -0.66126251574E+03  0.16837720917E+04  0.50400001928E-02 0.  1.
       -1    1    3    3    0  502 -0.19986518747E+03 -0.15355371206E+04  0.15985837625E+04  0.22255988830E+04  0.50400001928E-02 0. -1.
</event>
<event>
 5   0  0.1070988E-07  0.3801781E+04  0.7818609E-02  0.8045773E-01
       -1   -1    0    0    0  501  0.00000000000E+00  0.00000000000E+00  0.24528267400E+04  0.24528267400E+04  0.50400001928E-02 0.  1.
        1   -1    0    0  501    0  0.00000000000E+00  0.00000000000E+00 -0.14731514719E+04  0.14731514719E+04  0.50400001928E-02 0. -1.
    10030    2    1    2    0    0  0.00000000000E+00  0.00000000000E+00  0.97967526812E+03  0.39259782119E+04  0.38017813311E+04 0.  0.
        2    1    3    3  502    0 -0.18889254333E+04  0.21142802802E+03  0.46362700809E+03  0.19564485954E+04  0.25500000920E-02 0.  1.
       -2    1    3    3    0  502  0.18889254333E+04 -0.21142802802E+03  0.51604826003E+03  0.19695296165E+04  0.25500000920E-02 0. -1.
</event>
<event>
 5   0  0.1070988E-07  0.3746602E+04  0.7818609E-02  0.8057712E-01
        1   -1    0    0  501    0  0.00000000000E+00  0.00000000000E+00  0.20794169312E+04  0.20794169312E+04  0.50400001928E-02 0.  1.
       -1   -1    0    0    0  501  0.00000000000E+00  0.00000000000E+00 -0.16876155216E+04  0.16876155216E+04  0.50400001928E-02 0. -1.
    10030    2    1    2    0    0  0.00000000000E+00  0.00000000000E+00  0.39180140959E+03  0.37670324528E+04  0.37466018144E+04 0.  0.
        5    1    3    3  502    0  0.83818886883E+03  0.10956422107E+03 -0.14849418494E+04  0.17086951994E+04  0.46999998093E+01 0. -1.
       -5    1    3    3    0  502 -0.83818886883E+03 -0.10956422107E+03  0.18767432590E+04  0.20583372534E+04  0.46999998093E+01 0.  1.
</event>
<event>
 5   0  0.1070988E-07  0.3653526E+04  0.7818609E-02  0.8078340E-01
       -1   -1    0    0    0  501  0.00000000000E+00  0.00000000000E+00  0.27361239268E+04  0.27361239268E+04  0.50400001928E-02 0.  1.
        1   -1    0    0  501    0  0.00000000000E+00  0.00000000000E+00 -0.12196313231E+04  0.12196313231E+04  0.50400001928E-02 0. -1.
    10030    2    1    2    0    0  0.00000000000E+00  0.00000000000E+00  0.15164926037E+04  0.39557552498E+04  0.36535256643E+04 0.  0.
        5    1    3    3  502    0  0.60405224072E+02 -0.73110350281E+03  0.25696253104E+04  0.26722944165E+04  0.46999998093E+01 0.  1.
       -5    1    3    3    0  502 -0.60405224072E+02  0.73110350281E+03 -0.10531327066E+04  0.12834608333E+04  0.46999998093E+01 0. -1.
</event>
<event>
 5   0  0.3539010E-07  0.3695583E+04  0.7818609E-02  0.8068941E-01
       -2   -1    0    0    0  501  0.00000000000E+00  0.00000000000E+00  0.21801084191E+04  0.21801084191E+04  0.25500000920E-02 0. -1.
        2   -1    0    0  501    0  0.00000000000E+00  0.00000000000E+00 -0.15661304386E+04  0.15661304386E+04  0.25500000920E-02 0.  1.
    10030    2    1    2    0    0  0.00000000000E+00  0.00000000000E+00  0.61397798051E+03  0.37462388577E+04  0.36955833935E+04 0.  0.
        1    1    3    3  502    0 -0.27263175610E+03 -0.86941285562E+03 -0.13225674802E+04  0.16060484201E+04  0.50400001928E-02 0.  1.
       -1    1    3    3    0  502  0.27263175610E+03  0.86941285562E+03  0.19365454607E+04  0.21401904376E+04  0.50400001928E-02 0. -1.
</event>
<event>
 5   0  0.1070988E-07  0.3777977E+04  0.7818609E-02  0.8050897E-01
        1   -1    0    0  501    0  0.00000000000E+00  0.00000000000E+00  0.19901429151E+04  0.19901429151E+04  0.50400001928E-02 0. -1.
       -1   -1    0    0    0  501  0.00000000000E+00  0.00000000000E+00 -0.17929759854E+04  0.17929759854E+04  0.50400001928E-02 0.  1.
    10030    2    1    2    0    0  0.00000000000E+00  0.00000000000E+00  0.19716692968E+03  0.37831189005E+04  0.37779774771E+04 0.  0.
        5    1    3    3  502    0 -0.50447542504E+03 -0.10233466858E+03  0.19185520053E+04  0.19864117715E+04  0.46999998093E+01 0. -1.
       -5    1    3    3    0  502  0.50447542504E+03  0.10233466858E+03 -0.17213850756E+04  0.17967071290E+04  0.46999998093E+01 0.  1.
</event>
<event>
 5   0  0.3442126E-07  0.3912930E+04  0.7818609E-02  0.8022345E-01
       -2   -1    0    0    0  501  0.00000000000E+00  0.00000000000E+00  0.20837146558E+04  0.20837146558E+04  0.25500000920E-02 0. -1.
        2   -1    0    0  501    0  0.00000000000E+00  0.00000000000E+00 -0.18369862147E+04  0.18369862148E+04  0.25500000920E-02 0.  1.
    10030    2    1    2    0    0  0.00000000000E+00  0.00000000000E+00  0.24672844108E+03  0.39207008706E+04  0.39129298988E+04 0.  0.
        2    1    3    3  502    0 -0.22987627475E+03  0.14643156076E+04  0.14028857124E+04  0.20408703100E+04  0.25500000920E-02 0. -1.
       -2    1    3    3    0  502  0.22987627475E+03 -0.14643156076E+04 -0.11561572713E+04  0.18798305605E+04  0.25500000920E-02 0.  1.
</event>
<event>
 5   0  0.1070988E-07  0.3878585E+04  0.7818609E-02  0.8029498E-01
       -1   -1    0    0    0  501  0.00000000000E+00  0.00000000000E+00  0.20653064060E+04  0.20653064060E+04  0.50400001928E-02 0.  1.
        1   -1    0    0  501    0  0.00000000000E+00  0.00000000000E+00 -0.18209674184E+04  0.18209674184E+04  0.50400001928E-02 0. -1.
    10030    2    1    2    0    0  0.00000000000E+00  0.00000000000E+00  0.24433898762E+03  0.38862738244E+04  0.38785851412E+04 0.  0.
        2    1    3    3  502    0 -0.10134823737E+04  0.73469479598E+03 -0.13619597397E+04  0.18498262885E+04  0.25500000920E-02 0. -1.
       -2    1    3    3    0  502  0.10134823737E+04 -0.73469479598E+03  0.16062987273E+04  0.20364475359E+04  0.25500000920E-02 0.  1.
</event>
<event>
 5   0  0.3377396E-07  0.3791963E+04  0.7818609E-02  0.8047882E-01
        2   -1    0    0  501    0  0.00000000000E+00  0.00000000000E+00  0.12302983354E+04  0.12302983354E+04  0.25500000920E-02 0.  1.
       -2   -1    0    0    0  501  0.00000000000E+00  0.00000000000E+00 -0.29218489059E+04  0.29218489059E+04  0.25500000920E-02 0. -1.
    10030    2    1    2    0    0  0.00000000000E+00  0.00000000000E+00 -0.16915505705E+04  0.41521472412E+04  0.37919629983E+04 0.  0.
        5    1    3    3  502    0  0.12987807236E+04  0.51899835485E+03  0.55586400750E+03  0.15050573229E+04  0.46999998093E+01 0.  1.
       -5    1    3    3    0  502 -0.12987807236E+04 -0.51899835485E+03 -0.22474145780E+04  0.26470899183E+04  0.46999998093E+01 0. -1.
</event>
<event>
 5   0  0.3509843E-07  0.3768833E+04  0.7818609E-02  0.8052876E-01
       -2   -1    0    0    0  501  0.00000000000E+00  0.00000000000E+00  0.13402740803E+04  0.13402740803E+04  0.25500000920E-02 0. -1.
        2   -1    0    0  501    0  0.00000000000E+00  0.00000000000E+00 -0.26494773150E+04  0.26494773150E+04  0.25500000920E-02 0.  1.
    10030    2    1    2    0    0  0.00000000000E+00  0.00000000000E+00 -0.13092032347E+04  0.39897513952E+04  0.37688331200E+04 0.  0.
        4    1    3    3  502    0  0.14644196574E+04  0.94761152771E+03 -0.14095163619E+04  0.22425945972E+04  0.12699999809E+01 0.  1.
       -4    1    3    3    0  502 -0.14644196574E+04 -0.94761152771E+03  0.10031312718E+03  0.17471567980E+04  0.12699999809E+01 0. -1.
</event>
<event>
 5   0  0.3509843E-07  0.3796080E+04  0.7818609E-02  0.8046997E-01
       -2   -1    0    0    0  501  0.00000000000E+00  0.00000000000E+00  0.14137276660E+04  0.14137276660E+04  0.25500000920E-02 0. -1.
        2   -1    0    0  501    0  0.00000000000E+00  0.00000000000E+00 -0.25482667400E+04  0.25482667400E+04  0.25500000920E-02 0.  1.
    10030    2    1    2    0    0  0.00000000000E+00  0.00000000000E+00 -0.11345390740E+04  0.39619944061E+04  0.37960796571E+04 0.  0.
        4    1    3    3  502    0 -0.15095945717E+04  0.22535435144E+03  0.61026737052E+03  0.16438029782E+04  0.12699999809E+01 0. -1.
       -4    1    3    3    0  502  0.15095945717E+04 -0.22535435144E+03 -0.17448064445E+04  0.23181914279E+04  0.12699999809E+01 0.  1.
</event>
<event>
 5   0  0.1070988E-07  0.3811929E+04  0.7818609E-02  0.8043600E-01
       -3   -1    0    0    0  501  0.00000000000E+00  0.00000000000E+00  0.21109455615E+04  0.21109455639E+04  0.10100000352E+00 0.  1.
        3   -1    0    0  501    0  0.00000000000E+00  0.00000000000E+00 -0.17208882916E+04  0.17208882945E+04  0.10100000352E+00 0. -1.
    10030    2    1    2    0    0  0.00000000000E+00  0.00000000000E+00  0.39005726995E+03  0.38318338585E+04  0.38119294386E+04 0.  0.
        5    1    3    3  502    0 -0.24027056081E+03  0.28341961810E+03  0.20741808948E+04  0.21072031455E+04  0.46999998093E+01 0.  1.
       -5    1    3    3    0  502  0.24027056081E+03 -0.28341961810E+03 -0.16841236248E+04  0.17246307129E+04  0.46999998093E+01 0. -1.
</event>
<event>
 5   0  0.1070988E-07  0.3786040E+04  0.7818609E-02  0.8049157E-01
        3   -1    0    0  501    0  0.00000000000E+00  0.00000000000E+00  0.15060087423E+04  0.15060087457E+04  0.10100000352E+00 0. -1.
       -3   -1    0    0    0  501  0.00000000000E+00  0.00000000000E+00 -0.23794849435E+04  0.23794849456E+04  0.10100000352E+00 0.  1.
    10030    2    1    2    0    0  0.00000000000E+00  0.00000000000E+00 -0.87347620113E+03  0.38854936913E+04  0.37860402205E+04 0.  0.
        4    1    3    3  502    0  0.31898394099E+03 -0.18018712886E+04  0.60798534468E+02  0.18308984052E+04  0.12699999809E+01 0. -1.
       -4    1    3    3    0  502 -0.31898394099E+03  0.18018712886E+04 -0.93427473560E+03  0.20545952861E+04  0.12699999809E+01 0.  1.
</event>
<event>
 5   0  0.3539010E-07  0.3783037E+04  0.7818609E-02  0.8049805E-01
        2   -1    0    0  501    0  0.00000000000E+00  0.00000000000E+00  0.14269412100E+04  0.14269412100E+04  0.25500000920E-02 0. -1.
       -2   -1    0    0    0  501  0.00000000000E+00  0.00000000000E+00 -0.25073508206E+04  0.25073508206E+04  0.25500000920E-02 0.  1.
    10030    2    1    2    0    0  0.00000000000E+00  0.00000000000E+00 -0.10804096106E+04  0.39342920306E+04  0.37830369884E+04 0.  0.
        1    1    3    3  502    0  0.12529056899E+04  0.13136368262E+04 -0.10928924472E+04  0.21189214899E+04  0.50400001928E-02 0.  1.
       -1    1    3    3    0  502 -0.12529056899E+04 -0.13136368262E+04  0.12482836638E+02  0.18153705408E+04  0.50400001928E-02 0. -1.
</event>
<event>
 5   0  0.3377396E-07  0.3762538E+04  0.7818609E-02  0.8054242E-01
        2   -1    0    0  501    0  0.00000000000E+00  0.00000000000E+00  0.21033654381E+04  0.21033654381E+04  0.25500000920E-02 0.  1.
       -2   -1    0    0    0  501  0.00000000000E+00  0.00000000000E+00 -0.16826237846E+04  0.16826237846E+04  0.25500000920E-02 0. -1.
    10030    2    1    2    0    0  0.00000000000E+00  0.00000000000E+00  0.42074165344E+03  0.37859892227E+04  0.37625378211E+04 0.  0.
        5    1    3    3  502    0  0.10920544954E+04  0.15299036873E+04  0.28806810329E+03  0.19016292055E+04  0.46999998093E+01 0.  1.
       -5    1    3    3    0  502 -0.10920544954E+04 -0.15299036873E+04  0.13267355014E+03  0.18843600171E+04  0.46999998093E+01 0. -1.
</event>
<event>
 5   0  0.1070988E-07  0.3767499E+04  0.7818609E-02  0.8053166E-01
       -1   -1    0    0    0  501  0.00000000000E+00  0.00000000000E+00  0.11448068067E+04  0.11448068067E+04  0.50400001928E-02 0. -1.
        1   -1    0    0  501    0  0.00000000000E+00  0.00000000000E+00 -0.30996595399E+04  0.30996595399E+04  0.50400001928E-02 0.  1.
    10030    2    1    2    0    0  0.00000000000E+00  0.00000000000E+00 -0.19548527333E+04  0.42444663466E+04  0.37674985546E+04 0.  0.
        5    1    3    3  502    0  0.11562807822E+04  0.67432837193E+03 -0.24706654151E+04  0.28099668474E+04  0.46999998093E+01 0.  1.
       -5    1    3    3    0  502 -0.11562807822E+04 -0.67432837193E+03  0.51581268178E+03  0.14344994992E+04  0.46999998093E+01 0. -1.
</event>
<event>
 5   0  0.3509843E-07  0.3748935E+04  0.7818609E-02  0.8057203E-01
        2   -1    0    0  501    0  0.00000000000E+00  0.00000000000E+00  0.23285776537E+04  0.23285776537E+04  0.25500000920E-02 0.  1.
       -2   -1    0    0    0  501  0.00000000000E+00  0.00000000000E+00 -0.15089163904E+04  0.15089163904E+04  0.25500000920E-02 0. -1.
    10030    2    1    2    0    0  0.00000000000E+00  0.00000000000E+00  0.81966126335E+03  0.38374940441E+04  0.37489353091E+04 0.  0.
        4    1    3    3  502    0 -0.12695614044E+04  0.10913661023E+04 -0.45315117132E+03  0.17344202852E+04  0.12699999809E+01 0. -1.
       -4    1    3    3    0  502  0.12695614044E+04 -0.10913661023E+04  0.12728124347E+04  0.21030737589E+04  0.12699999809E+01 0.  1.
</event>
<event>
 5   0  0.3539010E-07  0.3807978E+04  0.7818609E-02  0.8044445E-01
       -2   -1    0    0    0  501  0.00000000000E+00  0.00000000000E+00  0.10581050757E+04  0.10581050757E+04  0.25500000920E-02 0.  1.
        2   -1    0    0  501    0  0.00000000000E+00  0.00000000000E+00 -0.34261001200E+04  0.34261001200E+04  0.25500000920E-02 0. -1.
    10030    2    1    2    0    0  0.00000000000E+00  0.00000000000E+00 -0.23679950443E+04  0.44842051958E+04  0.38079779027E+04 0.  0.
        1    1    3    3  502    0 -0.37313266930E+03  0.74821334777E+03 -0.31983586240E+04  0.33058356115E+04  0.50400001928E-02 0. -1.
       -1    1    3    3    0  502  0.37313266930E+03 -0.74821334777E+03  0.83036357966E+03  0.11783695843E+04  0.50400001928E-02 0.  1.
</event>
<event>
 5   0  0.1070988E-07  0.3269597E+04  0.7818609E-02  0.8170675E-01
       -1   -1    0    0    0  501  0.00000000000E+00  0.00000000000E+00  0.94912277907E+03  0.94912277908E+03  0.50400001928E-02 0. -1.
        1   -1    0    0  501    0  0.00000000000E+00  0.00000000000E+00 -0.28158268028E+04  0.28158268028E+04  0.50400001928E-02 0.  1.
    10030    2    1    2    0    0  0.00000000000E+00  0.00000000000E+00 -0.18667040237E+04  0.37649495819E+04  0.32695965258E+04 0.  0.
        3    1    3    3  502    0  0.24147325101E+03 -0.71152655522E+03 -0.26052079829E+04  0.27113996411E+04  0.10100000352E+00 0.  1.
       -3    1    3    3    0  502 -0.24147325101E+03  0.71152655522E+03  0.73850395915E+03  0.10535499407E+04  0.10100000352E+00 0. -1.
</event>
<event>
 5   0  0.3327241E-07  0.3769560E+04  0.7818609E-02  0.8052719E-01
        2   -1    0    0  501    0  0.00000000000E+00  0.00000000000E+00  0.19850234090E+04  0.19850234090E+04  0.25500000920E-02 0. -1.
       -2   -1    0    0    0  501  0.00000000000E+00  0.00000000000E+00 -0.17895989331E+04  0.17895989331E+04  0.25500000920E-02 0.  1.
    10030    2    1    2    0    0  0.00000000000E+00  0.00000000000E+00  0.19542447589E+03  0.37746223421E+04  0.37695600671E+04 0.  0.
        3    1    3    3  502    0 -0.11801719171E+03  0.93340006314E+03 -0.15376472575E+04  0.18026432908E+04  0.10100000352E+00 0.  1.
       -3    1    3    3    0  502  0.11801719171E+03 -0.93340006314E+03  0.17330717334E+04  0.19719790512E+04  0.10100000352E+00 0. -1.
</event>
<event>
 5   0  0.1070988E-07  0.3783322E+04  0.7818609E-02  0.8049743E-01
        1   -1    0    0  501    0  0.00000000000E+00  0.00000000000E+00  0.23241620641E+04  0.23241620641E+04  0.50400001928E-02 0.  1.
       -1   -1    0    0    0  501  0.00000000000E+00  0.00000000000E+00 -0.15396434120E+04  0.15396434120E+04  0.50400001928E-02 0. -1.
    10030    2    1    2    0    0  0.00000000000E+00  0.00000000000E+00  0.78451865208E+03  0.38638054762E+04  0.37833217207E+04 0.  0.
        3    1    3    3  502    0  0.86648134522E+03 -0.37316079782E+03 -0.12822371202E+04  0.15919079575E+04  0.10100000352E+00 0. -1.
       -3    1    3    3    0  502 -0.86648134522E+03  0.37316079782E+03  0.20667557723E+04  0.22718975186E+04  0.10100000352E+00 0.  1.
</event>
<event>
 5   0  0.1070988E-07  0.3799855E+04  0.7818609E-02  0.8046186E-01
        1   -1    0    0  501    0  0.00000000000E+00  0.00000000000E+00  0.13982543845E+04  0.13982543845E+04  0.50400001928E-02 0.  1.
       -1   -1    0    0    0  501  0.00000000000E+00  0.00000000000E+00 -0.25815930676E+04  0.25815930676E+04  0.50400001928E-02 0. -1.
    10030    2    1    2    0    0  0.00000000000E+00  0.00000000000E+00 -0.11833386831E+04  0.39798474522E+04  0.37998546425E+04 0.  0.
        5    1    3    3  502    0 -0.55332401317E+03 -0.98780608914E+03 -0.21896436513E+04  0.24650536998E+04  0.46999998093E+01 0. -1.
       -5    1    3    3    0  502  0.55332401317E+03  0.98780608914E+03  0.10063049682E+04  0.15147937524E+04  0.46999998093E+01 0.  1.
</event>
<event>
 5   0  0.1085771E-07  0.3887959E+04  0.7818609E-02  0.8027538E-01
        1   -1    0    0  501    0  0.00000000000E+00  0.00000000000E+00  0.13078862171E+04  0.13078862171E+04  0.50400001928E-02 0. -1.
       -1   -1    0    0    0  501  0.00000000000E+00  0.00000000000E+00 -0.28894374256E+04  0.28894374256E+04  0.50400001928E-02 0.  1.
    10030    2    1    2    0    0  0.00000000000E+00  0.00000000000E+00 -0.15815512085E+04  0.41973236427E+04  0.38879585307E+04 0.  0.
        1    1    3    3  502    0 -0.16549516256E+04 -0.10198140434E+04 -0.77670727741E+03  0.20933608769E+04  0.50400001928E-02 0.  1.
       -1    1    3    3    0  502  0.16549516256E+04  0.10198140434E+04 -0.80484393107E+03  0.21039627657E+04  0.50400001928E-02 0. -1.
</event>
<event>
 5   0  0.1085771E-07  0.3841325E+04  0.7818609E-02  0.8037344E-01
       -1   -1    0    0    0  501  0.00000000000E+00  0.00000000000E+00  0.15511155352E+04  0.15511155352E+04  0.50400001928E-02 0.  1.
        1   -1    0    0  501    0  0.00000000000E+00  0.00000000000E+00 -0.23782530373E+04  0.23782530373E+04  0.50400001928E-02 0. -1.
    10030    2    1    2    0    0  0.00000000000E+00  0.00000000000E+00 -0.82713750212E+03  0.39293685726E+04  0.38413254134E+04 0.  0.
        1    1    3    3  502    0  0.76297454830E+03  0.13315731987E+04  0.76777226798E+03  0.17160103730E+04  0.50400001928E-02 0.  1.
       -1    1    3    3    0  502 -0.76297454830E+03 -0.13315731987E+04 -0.15949097701E+04  0.22133581996E+04  0.50400001928E-02 0. -1.
</event>
<event>
 5   0  0.3327241E-07  0.3816188E+04  0.7818609E-02  0.8042690E-01
       -2   -1    0    0    0  501  0.00000000000E+00  0.00000000000E+00  0.15808617331E+04  0.15808617331E+04  0.25500000920E-02 0. -1.
        2   -1    0    0  501    0  0.00000000000E+00  0.00000000000E+00 -0.23030620363E+04  0.23030620363E+04  0.25500000920E-02 0.  1.
    10030    2    1    2    0    0  0.00000000000E+00  0.00000000000E+00 -0.72220030317E+03  0.38839237694E+04  0.38161879629E+04 0.  0.
        3    1    3    3  502    0 -0.17541613498E+04 -0.16046717732E+03 -0.11075977160E+04  0.20807701619E+04  0.10100000352E+00 0.  1.
       -3    1    3    3    0  502  0.17541613498E+04  0.16046717732E+03  0.38539741284E+03  0.18031536075E+04  0.10100000352E+00 0. -1.
</event>
<event>
 5   0  0.1070988E-07  0.3772626E+04  0.7818609E-02  0.8052055E-01
       -1   -1    0    0    0  501  0.00000000000E+00  0.00000000000E+00  0.15273269288E+04  0.15273269288E+04  0.50400001928E-02 0. -1.
        1   -1    0    0  501    0  0.00000000000E+00  0.00000000000E+00 -0.23296757190E+04  0.23296757190E+04  0.50400001928E-02 0.  1.
    10030    2    1    2    0    0  0.00000000000E+00  0.00000000000E+00 -0.80234879022E+03  0.38570026478E+04  0.37726258553E+04 0.  0.
        3    1    3    3  502    0 -0.46820230464E+03 -0.49714097300E+03 -0.21988564090E+04  0.23024621740E+04  0.10100000352E+00 0.  1.
       -3    1    3    3    0  502  0.46820230464E+03  0.49714097300E+03  0.13965076188E+04  0.15545404738E+04  0.10100000352E+00 0. -1.
</event>
<event>
 5   0  0.1070988E-07  0.3802868E+04  0.7818609E-02  0.8045540E-01
       -1   -1    0    0    0  501  0.00000000000E+00  0.00000000000E+00  0.14898429847E+04  0.14898429847E+04  0.50400001928E-02 0.  1.
        1   -1    0    0  501    0  0.00000000000E+00  0.00000000000E+00 -0.24267327900E+04  0.24267327900E+04  0.50400001928E-02 0. -1.
    10030    2    1    2    0    0  0.00000000000E+00  0.00000000000E+00 -0.93688980527E+03  0.39165757747E+04  0.38028677721E+04 0.  0.
        2    1    3    3  502    0 -0.37844938614E+03 -0.16541990981E+04 -0.13519124746E+04  0.21696234542E+04  0.25500000920E-02 0.  1.
       -2    1    3    3    0  502  0.37844938614E+03  0.16541990981E+04  0.41502266931E+03  0.17469523205E+04  0.25500000920E-02 0. -1.
</event>
<event>
 5   0  0.1070988E-07  0.3788741E+04  0.7818609E-02  0.8048575E-01
        1   -1    0    0  501    0  0.00000000000E+00  0.00000000000E+00  0.21990927094E+04  0.21990927094E+04  0.50400001928E-02 0.  1.
       -1   -1    0    0    0  501  0.00000000000E+00  0.00000000000E+00 -0.16318726994E+04  0.16318726994E+04  0.50400001928E-02 0. -1.
    10030    2    1    2    0    0  0.00000000000E+00  0.00000000000E+00  0.56722001003E+03  0.38309654088E+04  0.37887408757E+04 0.  0.
        5    1    3    3  502    0  0.76808065631E+03 -0.11989765938E+04  0.15469844755E+04  0.21025403265E+04  0.46999998093E+01 0.  1.
       -5    1    3    3    0  502 -0.76808065631E+03  0.11989765938E+04 -0.97976446547E+03  0.17284250822E+04  0.46999998093E+01 0. -1.
</event>
<event>
 5   0  0.3539010E-07  0.3685828E+04  0.7818609E-02  0.8071110E-01
        2   -1    0    0  501    0  0.00000000000E+00  0.00000000000E+00  0.20656391380E+04  0.20656391380E+04  0.25500000920E-02 0. -1.
       -2   -1    0    0    0  501  0.00000000000E+00  0.00000000000E+00 -0.16442042721E+04  0.16442042721E+04  0.25500000920E-02 0.  1.
    10030    2    1    2    0    0  0.00000000000E+00  0.00000000000E+00  0.42143486592E+03  0.37098434102E+04  0.36858283712E+04 0.  0.
        1    1    3    3  502    0  0.90185647081E+03 -0.69032877791E+03  0.16715295934E+04  0.20208686492E+04  0.50400001928E-02 0. -1.
       -1    1    3    3    0  502 -0.90185647081E+03  0.69032877791E+03 -0.12500947275E+04  0.16889747610E+04  0.50400001928E-02 0.  1.
</event>
<event>
 5   0  0.3327241E-07  0.3821154E+04  0.7818609E-02  0.8041630E-01
        2   -1    0    0  501    0  0.00000000000E+00  0.00000000000E+00  0.24123218610E+04  0.24123218610E+04  0.25500000920E-02 0. -1.
       -2   -1    0    0    0  501  0.00000000000E+00  0.00000000000E+00 -0.15131912736E+04  0.15131912737E+04  0.25500000920E-02 0.  1.
    10030    2    1    2    0    0  0.00000000000E+00  0.00000000000E+00  0.89913058733E+03  0.39255131346E+04  0.38211539562E+04 0.  0.
        3    1    3    3  502    0 -0.17075387464E+04  0.53718089976E+03  0.11356770844E+04  0.21199090404E+04  0.10100000352E+00 0. -1.
       -3    1    3    3    0  502  0.17075387464E+04 -0.53718089976E+03 -0.23654649702E+03  0.18056040942E+04  0.10100000352E+00 0.  1.
</event>
<event>
 5   0  0.1085771E-07  0.3804024E+04  0.7818609E-02  0.8045292E-01
        1   -1    0    0  501    0  0.00000000000E+00  0.00000000000E+00  0.22327651726E+04  0.22327651726E+04  0.50400001928E-02 0.  1.
       -1   -1    0    0    0  501  0.00000000000E+00  0.00000000000E+00 -0.16202552322E+04  0.16202552322E+04  0.50400001928E-02 0. -1.
    10030    2    1    2    0    0  0.00000000000E+00  0.00000000000E+00  0.61250994043E+03  0.38530204049E+04  0.38040238976E+04 0.  0.
        1    1    3    3  502    0  0.10999448632E+04  0.32870085736E+03 -0.12297625415E+04  0.16823313776E+04  0.50400001928E-02 0. -1.
       -1    1    3    3    0  502 -0.10999448632E+04 -0.32870085736E+03  0.18422724819E+04  0.21706890273E+04  0.50400001928E-02 0.  1.
</event>
<event>
 5   0  0.1070988E-07  0.3191350E+04  0.7818609E-02  0.8191105E-01
       -1   -1    0    0    0  501  0.00000000000E+00  0.00000000000E+00  0.13049605745E+04  0.13049605745E+04  0.50400001928E-02 0. -1.
        1   -1    0    0  501    0  0.00000000000E+00  0.00000000000E+00 -0.19511537434E+04  0.19511537434E+04  0.50400001928E-02 0.  1.
    10030    2    1    2    0    0  0.00000000000E+00  0.00000000000E+00 -0.64619316894E+03  0.32561143179E+04  0.31913500027E+04 0.  0.
        2    1    3    3  502    0 -0.15386518883E+04  0.30827943555E+03 -0.61826468988E+03  0.16866348361E+04  0.25500000920E-02 0. -1.
       -2    1    3    3    0  502  0.15386518883E+04 -0.30827943555E+03 -0.27928479062E+02  0.15694794818E+04  0.25500000920E-02 0.  1.
</event>
<event>
 5   0  0.1084315E-07  0.3822137E+04  0.7818609E-02  0.8041421E-01
       -1   -1    0    0    0  501  0.00000000000E+00  0.00000000000E+00  0.14634890765E+04  0.14634890765E+04  0.50400001928E-02 0.  1.
        1   -1    0    0  501    0  0.00000000000E+00  0.00000000000E+00 -0.24955315329E+04  0.24955315329E+04  0.50400001928E-02 0. -1.
    10030    2    1    2    0    0  0.00000000000E+00  0.00000000000E+00 -0.10320424565E+04  0.39590206094E+04  0.38221371710E+04 0.  0.
        4    1    3    3  502    0  0.38116291924E+03  0.15991568702E+04 -0.15253912366E+04  0.22426341441E+04  0.12699999809E+01 0. -1.
       -4    1    3    3    0  502 -0.38116291924E+03 -0.15991568702E+04  0.49334878018E+03  0.17163864653E+04  0.12699999809E+01 0.  1.
</event>
<event>
 5   0  0.1070988E-07  0.3513545E+04  0.7818609E-02  0.8110587E-01
        1   -1    0    0  501    0  0.00000000000E+00  0.00000000000E+00  0.24035773864E+04  0.24035773864E+04  0.50400001928E-02 0. -1.
       -1   -1    0    0    0  501  0.00000000000E+00  0.00000000000E+00 -0.12840237198E+04  0.12840237199E+04  0.50400001928E-02 0.  1.
    10030    2    1    2    0    0  0.00000000000E+00  0.00000000000E+00  0.11195536666E+04  0.36876011063E+04  0.35135454326E+04 0.  0.
        3    1    3    3  502    0  0.32209806700E+03  0.92358909649E+03  0.20913431151E+04  0.23087832335E+04  0.10100000352E+00 0. -1.
       -3    1    3    3    0  502 -0.32209806700E+03 -0.92358909649E+03 -0.97178944852E+03  0.13788178728E+04  0.10100000352E+00 0.  1.
</event>
<event>
 5   0  0.1085771E-07  0.3813118E+04  0.7818609E-02  0.8043346E-01
       -1   -1    0    0    0  501  0.00000000000E+00  0.00000000000E+00  0.14591094248E+04  0.14591094248E+04  0.50400001928E-02 0. -1.
        1   -1    0    0  501    0  0.00000000000E+00  0.00000000000E+00 -0.24912231332E+04  0.24912231332E+04  0.50400001928E-02 0.  1.
    10030    2    1    2    0    0  0.00000000000E+00  0.00000000000E+00 -0.10321137084E+04  0.39503325580E+04  0.38131179645E+04 0.  0.
        1    1    3    3  502    0  0.15577191987E+04 -0.44657665843E+03  0.52460392690E+03  0.17032701178E+04  0.50400001928E-02 0. -1.
       -1    1    3    3    0  502 -0.15577191987E+04  0.44657665843E+03 -0.15567176353E+04  0.22470624402E+04  0.50400001928E-02 0.  1.
</event>
<event>
 5   0  0.3509843E-07  0.3853165E+04  0.7818609E-02  0.8034841E-01
       -2   -1    0    0    0  501  0.00000000000E+00  0.00000000000E+00  0.10963749846E+04  0.10963749846E+04  0.25500000920E-02 0.  1.
        2   -1    0    0  501    0  0.00000000000E+00  0.00000000000E+00 -0.33854475869E+04  0.33854475869E+04  0.25500000920E-02 0. -1.
    10030    2    1    2    0    0  0.00000000000E+00  0.00000000000E+00 -0.22890726023E+04  0.44818225715E+04  0.38531649568E+04 0.  0.
        4    1    3    3  502    0  0.86195764640E+03 -0.13271156679E+04  0.13361623745E+03  0.15881000888E+04  0.12699999809E+01 0.  1.
       -4    1    3    3    0  502 -0.86195764640E+03  0.13271156679E+04 -0.24226888398E+04  0.28937224828E+04  0.12699999809E+01 0. -1.
</event>
<event>
 5   0  0.3509843E-07  0.3831542E+04  0.7818609E-02  0.8039420E-01
       -2   -1    0    0    0  501  0.00000000000E+00  0.00000000000E+00  0.17482846333E+04  0.17482846333E+04  0.25500000920E-02 0. -1.
        2   -1    0    0  501    0  0.00000000000E+00  0.00000000000E+00 -0.20993029831E+04  0.20993029831E+04  0.25500000920E-02 0.  1.
    10030    2    1    2    0    0  0.00000000000E+00  0.00000000000E+00 -0.35101834977E+03  0.38475876164E+04  0.38315423245E+04 0.  0.
        4    1    3    3  502    0  0.51353290782E+03  0.15186169160E+04 -0.12288365514E+04  0.20198896673E+04  0.12699999809E+01 0.  1.
       -4    1    3    3    0  502 -0.51353290782E+03 -0.15186169160E+04  0.87781820167E+03  0.18276979491E+04  0.12699999809E+01 0. -1.
</event>
<event>
 5   0  0.1070988E-07  0.3892461E+04  0.7818609E-02  0.8026599E-01
        1   -1    0    0  501    0  0.00000000000E+00  0.00000000000E+00  0.12660835794E+04  0.12660835794E+04  0.50400001928E-02 0.  1.
       -1   -1    0    0    0  501  0.00000000000E+00  0.00000000000E+00 -0.29917554535E+04  0.29917554535E+04  0.50400001928E-02 0. -1.
    10030    2    1    2    0    0  0.00000000000E+00  0.00000000000E+00 -0.17256718742E+04  0.42578390329E+04  0.38924606373E+04 0.  0.
        3    1    3    3  502    0 -0.46804652011E+03  0.17706696992E+04 -0.14264708731E+03  0.18370320983E+04  0.10100000352E+00 0.  1.
       -3    1    3    3    0  502  0.46804652011E+03 -0.17706696992E+04 -0.15830247868E+04  0.24208069346E+04  0.10100000352E+00 0. -1.
</event>
<event>
 5   0  0.1084315E-07  0.3790234E+04  0.7818609E-02  0.8048254E-01
       -1   -1    0    0    0  501  0.00000000000E+00  0.00000000000E+00  0.28028284807E+04  0.28028284807E+04  0.50400001928E-02 0.  1.
        1   -1    0    0  501    0  0.00000000000E+00  0.00000000000E+00 -0.12813730090E+04  0.12813730090E+04  0.50400001928E-02 0. -1.
    10030    2    1    2    0    0  0.00000000000E+00  0.00000000000E+00  0.15214554717E+04  0.40842014897E+04  0.37902341690E+04 0.  0.
        4    1    3    3  502    0  0.80248894464E+03 -0.54103292651E+03 -0.99498683991E+03  0.13880581970E+04  0.12699999809E+01 0. -1.
       -4    1    3    3    0  502 -0.80248894464E+03  0.54103292651E+03  0.25164423116E+04  0.26961432926E+04  0.12699999809E+01 0.  1.
</event>
<event>
 5   0  0.3509843E-07  0.3834400E+04  0.7818609E-02  0.8038813E-01
       -2   -1    0    0    0  501  0.00000000000E+00  0.00000000000E+00  0.17020604008E+04  0.17020604008E+04  0.25500000920E-02 0.  1.
        2   -1    0    0  501    0  0.00000000000E+00  0.00000000000E+00 -0.21595335999E+04  0.21595335999E+04  0.25500000920E-02 0. -1.
    10030    2    1    2    0    0  0.00000000000E+00  0.00000000000E+00 -0.45747319915E+03  0.38615940007E+04  0.38344004092E+04 0.  0.
        4    1    3    3  502    0  0.10170335795E+04 -0.11618676963E+04  0.91570335073E+03  0.17952181163E+04  0.12699999809E+01 0.  1.
       -4    1    3    3    0  502 -0.10170335795E+04  0.11618676963E+04 -0.13731765499E+04  0.20663758844E+04  0.12699999809E+01 0. -1.
</event>
<event>
 5   0  0.3509843E-07  0.3404550E+04  0.7818609E-02  0.8136791E-01
        2   -1    0    0  501    0  0.00000000000E+00  0.00000000000E+00  0.14701089622E+04  0.14701089622E+04  0.25500000920E-02 0. -1.
       -2   -1    0    0    0  501  0.00000000000E+00  0.00000000000E+00 -0.19711057159E+04  0.19711057159E+04  0.25500000920E-02 0.  1.
    10030    2    1    2    0    0  0.00000000000E+00  0.00000000000E+00 -0.50099675367E+03  0.34412146781E+04  0.34045500017E+04 0.  0.
        4    1    3    3  502    0 -0.41175256896E+02  0.11585485472E+04 -0.15104410521E+04  0.19040388448E+04  0.12699999809E+01 0.  1.
       -4    1    3    3    0  502  0.41175256896E+02 -0.11585485472E+04  0.10094442984E+04  0.15371758333E+04  0.12699999809E+01 0. -1.
</event>
<event>
 5   0  0.3377396E-07  0.3824467E+04  0.7818609E-02  0.8040925E-01
        2   -1    0    0  501    0  0.00000000000E+00  0.00000000000E+00  0.20908029975E+04  0.20908029975E+04  0.25500000920E-02 0. -1.
       -2   -1    0    0    0  501  0.00000000000E+00  0.00000000000E+00 -0.17489148796E+04  0.17489148796E+04  0.25500000920E-02 0.  1.
    10030    2    1    2    0    0  0.00000000000E+00  0.00000000000E+00  0.34188811790E+03  0.38397178770E+04  0.38244667458E+04 0.  0.
        5    1    3    3  502    0 -0.16644337179E+04  0.66285839134E+03 -0.50022273613E+03  0.18600983103E+04  0.46999998093E+01 0.  1.
       -5    1    3    3    0  502  0.16644337179E+04 -0.66285839134E+03  0.84211085403E+03  0.19796195667E+04  0.46999998093E+01 0. -1.
</event>
<event>
 5   0  0.3539010E-07  0.3852064E+04  0.7818609E-02  0.8035073E-01
       -2   -1    0    0    0  501  0.00000000000E+00  0.00000000000E+00  0.31673330660E+04  0.31673330660E+04  0.25500000920E-02 0.  1.
        2   -1    0    0  501    0  0.00000000000E+00  0.00000000000E+00 -0.11712059936E+04  0.11712059936E+04  0.25500000920E-02 0. -1.
    10030    2    1    2    0    0  0.00000000000E+00  0.00000000000E+00  0.19961270724E+04  0.43385390596E+04  0.38520641067E+04 0.  0.
        1    1    3    3  502    0 -0.15026222197E+04 -0.75205733167E+03 -0.62166549060E+02  0.16814661593E+04  0.50400001928E-02 0. -1.
       -1    1    3    3    0  502  0.15026222197E+04  0.75205733167E+03  0.20582936215E+04  0.26570729003E+04  0.50400001928E-02 0.  1.
</event>
<event>
 5   0  0.1070988E-07  0.3768943E+04  0.7818609E-02  0.8052853E-01
        3   -1    0    0  501    0  0.00000000000E+00  0.00000000000E+00  0.15429240071E+04  0.15429240104E+04  0.10100000352E+00 0. -1.
       -3   -1    0    0    0  501  0.00000000000E+00  0.00000000000E+00 -0.23016249948E+04  0.23016249970E+04  0.10100000352E+00 0.  1.
    10030    2    1    2    0    0  0.00000000000E+00  0.00000000000E+00 -0.75870098771E+03  0.38445490074E+04  0.37689428069E+04 0.  0.
        5    1    3    3  502    0  0.21601948470E+03 -0.96506449111E+03 -0.20156482295E+04  0.22451890265E+04  0.46999998093E+01 0.  1.
       -5    1    3    3    0  502 -0.21601948470E+03  0.96506449111E+03  0.12569472418E+04  0.15993599809E+04  0.46999998093E+01 0. -1.
</event>
<event>
 5   0  0.3377396E-07  0.3801883E+04  0.7818609E-02  0.8045751E-01
        2   -1    0    0  501    0  0.00000000000E+00  0.00000000000E+00  0.21621805016E+04  0.21621805016E+04  0.25500000920E-02 0.  1.
       -2   -1    0    0    0  501  0.00000000000E+00  0.00000000000E+00 -0.16712659021E+04  0.16712659021E+04  0.25500000920E-02 0. -1.
    10030    2    1    2    0    0  0.00000000000E+00  0.00000000000E+00  0.49091459948E+03  0.38334464037E+04  0.38018829790E+04 0.  0.
        5    1    3    3  502    0 -0.31215856032E+03 -0.95150420316E+03  0.18746541557E+04  0.21253596187E+04  0.46999998093E+01 0.  1.
       -5    1    3    3    0  502  0.31215856032E+03  0.95150420316E+03 -0.13837395562E+04  0.17080867849E+04  0.46999998093E+01 0. -1.
</event>
<event>
 5   0  0.1070988E-07  0.3847562E+04  0.7818609E-02  0.8036025E-01
       -1   -1    0    0    0  501  0.00000000000E+00  0.00000000000E+00  0.13737717575E+04  0.13737717575E+04  0.50400001928E-02 0.  1.
        1   -1    0    0  501    0  0.00000000000E+00  0.00000000000E+00 -0.26939940423E+04  0.26939940423E+04  0.50400001928E-02 0. -1.
    10030    2    1    2    0    0  0.00000000000E+00  0.00000000000E+00 -0.13202222848E+04  0.40677657998E+04  0.38475617891E+04 0.  0.
        2    1    3    3  502    0 -0.12906863579E+04  0.11693816601E+04 -0.15239468759E+04  0.23142469233E+04  0.25500000920E-02 0. -1.
       -2    1    3    3    0  502  0.12906863579E+04 -0.11693816601E+04  0.20372459110E+03  0.17535188765E+04  0.25500000920E-02 0.  1.
</event>
<event>
 5   0  0.3377396E-07  0.3765110E+04  0.7818609E-02  0.8053684E-01
        2   -1    0    0  501    0  0.00000000000E+00  0.00000000000E+00  0.26458266660E+04  0.26458266660E+04  0.25500000920E-02 0. -1.
       -2   -1    0    0    0  501  0.00000000000E+00  0.00000000000E+00 -0.13394730386E+04  0.13394730386E+04  0.25500000920E-02 0.  1.
    10030    2    1    2    0    0  0.00000000000E+00  0.00000000000E+00  0.13063536275E+04  0.39852997046E+04  0.37651100828E+04 0.  0.
        5    1    3    3  502    0 -0.12774892715E+03  0.18774309927E+04  0.59593582399E+03  0.19738866525E+04  0.46999998093E+01 0.  1.
       -5    1    3    3    0  502  0.12774892715E+03 -0.18774309927E+04  0.71041780347E+03  0.20114130521E+04  0.46999998093E+01 0. -1.
</event>
<event>
 5   0  0.1070988E-07  0.3256827E+04  0.7818609E-02  0.8173968E-01
        1   -1    0    0  501    0  0.00000000000E+00  0.00000000000E+00  0.17085219704E+04  0.17085219704E+04  0.50400001928E-02 0. -1.
       -1   -1    0    0    0  501  0.00000000000E+00  0.00000000000E+00 -0.15520613392E+04  0.15520613392E+04  0.50400001928E-02 0.  1.
    10030    2    1    2    0    0  0.00000000000E+00  0.00000000000E+00  0.15646063121E+03  0.32605833096E+04  0.32568272275E+04 0.  0.
        3    1    3    3  502    0 -0.28317847436E+03 -0.10794323352E+04 -0.11090406956E+04  0.15733198942E+04  0.10100000352E+00 0.  1.
       -3    1    3    3    0  502  0.28317847436E+03  0.10794323352E+04  0.12655013268E+04  0.16872634154E+04  0.10100000352E+00 0. -1.
</event>
<event>
 5   0  0.1084315E-07  0.3753414E+04  0.7818609E-02  0.8056227E-01
        1   -1    0    0  501    0  0.00000000000E+00  0.00000000000E+00  0.15396625370E+04  0.15396625370E+04  0.50400001928E-02 0.  1.
       -1   -1    0    0    0  501  0.00000000000E+00  0.00000000000E+00 -0.22875331444E+04  0.22875331444E+04  0.50400001928E-02 0. -1.
    10030    2    1    2    0    0  0.00000000000E+00  0.00000000000E+00 -0.74787060747E+03  0.38271956814E+04  0.37534139577E+04 0.  0.
        4    1    3    3  502    0 -0.10517983090E+04 -0.96780352007E+03 -0.16140263702E+04  0.21559234850E+04  0.12699999809E+01 0. -1.
       -4    1    3    3    0  502  0.10517983090E+04  0.96780352007E+03  0.86615576275E+03  0.16712721964E+04  0.12699999809E+01 0.  1.
</event>
<event>
 5   0  0.1070988E-07  0.3471602E+04  0.7818609E-02  0.8120553E-01
       -1   -1    0    0    0  501  0.00000000000E+00  0.00000000000E+00  0.21148531735E+04  0.21148531735E+04  0.50400001928E-02 0. -1.
        1   -1    0    0  501    0  0.00000000000E+00  0.00000000000E+00 -0.14246877738E+04  0.14246877738E+04  0.50400001928E-02 0.  1.
    10030    2    1    2    0    0  0.00000000000E+00  0.00000000000E+00  0.69016539967E+03  0.35395409473E+04  0.34716022005E+04 0.  0.
        5    1    3    3  502    0 -0.92399615269E+03  0.39349403957E+03  0.17885491111E+04  0.20512280376E+04  0.46999998093E+01 0. -1.
       -5    1    3    3    0  502  0.92399615269E+03 -0.39349403957E+03 -0.10983837115E+04  0.14883129096E+04  0.46999998093E+01 0.  1.
</event>
<event>
 5   0  0.1070988E-07  0.3827959E+04  0.7818609E-02  0.8040182E-01
        1   -1    0    0  501    0  0.00000000000E+00  0.00000000000E+00  0.14123916819E+04  0.14123916819E+04  0.50400001928E-02 0.  1.
       -1   -1    0    0    0  501  0.00000000000E+00  0.00000000000E+00 -0.25936976543E+04  0.25936976543E+04  0.50400001928E-02 0. -1.
    10030    2    1    2    0    0  0.00000000000E+00  0.00000000000E+00 -0.11813059724E+04  0.40060893362E+04  0.38279587209E+04 0.  0.
        3    1    3    3  502    0  0.35699698637E+03 -0.18252143075E+04 -0.11743569461E+03  0.18635034932E+04  0.10100000352E+00 0.  1.
       -3    1    3    3    0  502 -0.35699698637E+03  0.18252143075E+04 -0.10638702778E+04  0.21425858430E+04  0.10100000352E+00 0. -1.
</event>
<event>
 5   0  0.3442126E-07  0.3760485E+04  0.7818609E-02  0.8054688E-01
        2   -1    0    0  501    0  0.00000000000E+00  0.00000000000E+00  0.26312287108E+04  0.26312287108E+04  0.25500000920E-02 0. -1.
       -2   -1    0    0    0  501  0.00000000000E+00  0.00000000000E+00 -0.13435971767E+04  0.13435971767E+04  0.25500000920E-02 0.  1.
    10030    2    1    2    0    0  0.00000000000E+00  0.00000000000E+00  0.12876315341E+04  0.39748258875E+04  0.37604847917E+04 0.  0.
        2    1    3    3  502    0 -0.85247070232E+03 -0.13827302122E+03  0.24091882214E+04  0.25592994379E+04  0.25500000920E-02 0. -1.
       -2    1    3    3    0  502  0.85247070232E+03  0.13827302122E+03 -0.11215566873E+04  0.14155264496E+04  0.25500000920E-02 0.  1.
</event>
<event>
 5   0  0.1070988E-07  0.3770691E+04  0.7818609E-02  0.8052474E-01
        1   -1    0    0  501    0  0.00000000000E+00  0.00000000000E+00  0.26374505610E+04  0.26374505610E+04  0.50400001928E-02 0.  1.
       -1   -1    0    0    0  501  0.00000000000E+00  0.00000000000E+00 -0.13477136739E+04  0.13477136739E+04  0.50400001928E-02 0. -1.
    10030    2    1    2    0    0  0.00000000000E+00  0.00000000000E+00  0.12897368871E+04  0.39851642349E+04  0.37706912816E+04 0.  0.
        5    1    3    3  502    0  0.16715976987E+04 -0.86098068904E+03  0.49926641510E+03  0.19454602685E+04  0.46999998093E+01 0. -1.
       -5    1    3    3    0  502 -0.16715976987E+04  0.86098068904E+03  0.79047047198E+03  0.20397039663E+04  0.46999998093E+01 0.  1.
</event>
<event>
 5   0  0.1070988E-07  0.3706249E+04  0.7818609E-02  0.8066578E-01
       -1   -1    0    0    0  501  0.00000000000E+00  0.00000000000E+00  0.21798161878E+04  0.21798161878E+04  0.50400001928E-02 0.  1.
        1   -1    0    0  501    0  0.00000000000E+00  0.00000000000E+00 -0.15753945190E+04  0.15753945190E+04  0.50400001928E-02 0. -1.
    10030    2    1    2    0    0  0.00000000000E+00  0.00000000000E+00  0.60442166885E+03  0.37552107068E+04  0.37062490335E+04 0.  0.
        2    1    3    3  502    0 -0.14117431874E+04 -0.52479075892E+03  0.13961246544E+04  0.20536767561E+04  0.25500000920E-02 0.  1.
       -2    1    3    3    0  502  0.14117431874E+04  0.52479075892E+03 -0.79170298559E+03  0.17015339507E+04  0.25500000920E-02 0. -1.
</event>
<event>
 5   0  0.1070988E-07  0.3737031E+04  0.7818609E-02  0.8059804E-01
       -1   -1    0    0    0  501  0.00000000000E+00  0.00000000000E+00  0.30237168962E+04  0.30237168962E+04  0.50400001928E-02 0. -1.
        1   -1    0    0  501    0  0.00000000000E+00  0.00000000000E+00 -0.11546552970E+04  0.11546552970E+04  0.50400001928E-02 0.  1.
    10030    2    1    2    0    0  0.00000000000E+00  0.00000000000E+00  0.18690615992E+04  0.41783721932E+04  0.37370312981E+04 0.  0.
        3    1    3    3  502    0 -0.79769036226E+02 -0.51248131158E+03  0.29416204804E+04  0.29869936817E+04  0.10100000352E+00 0. -1.
       -3    1    3    3    0  502  0.79769036226E+02  0.51248131158E+03 -0.10725588811E+04  0.11913785115E+04  0.10100000352E+00 0.  1.
</event>
<event>
 5   0  0.3539010E-07  0.3823378E+04  0.7818609E-02  0.8041157E-01
        2   -1    0    0  501    0  0.00000000000E+00  0.00000000000E+00  0.19642768044E+04  0.19642768044E+04  0.25500000920E-02 0.  1.
       -2   -1    0    0    0  501  0.00000000000E+00  0.00000000000E+00 -0.18605090728E+04  0.18605090728E+04  0.25500000920E-02 0. -1.
    10030    2    1    2    0    0  0.00000000000E+00  0.00000000000E+00  0.10376773158E+03  0.38247858772E+04  0.38233779913E+04 0.  0.
        1    1    3    3  502    0  0.14658493072E+04 -0.63806595131E+03  0.11004647045E+04  0.19408412906E+04  0.50400001928E-02 0.  1.
       -1    1    3    3    0  502 -0.14658493072E+04  0.63806595131E+03 -0.99669697288E+03  0.18839445866E+04  0.50400001928E-02 0. -1.
</event>
<event>
 5   0  0.3442126E-07  0.3860881E+04  0.7818609E-02  0.8033215E-01
       -2   -1    0    0    0  501  0.00000000000E+00  0.00000000000E+00  0.14043717268E+04  0.14043717268E+04  0.25500000920E-02 0. -1.
        2   -1    0    0  501    0  0.00000000000E+00  0.00000000000E+00 -0.26535716380E+04  0.26535716380E+04  0.25500000920E-02 0.  1.
    10030    2    1    2    0    0  0.00000000000E+00  0.00000000000E+00 -0.12491999112E+04  0.40579433648E+04  0.38608812380E+04 0.  0.
        2    1    3    3  502    0 -0.48527902198E+03  0.97103016724E+03  0.10531868605E+04  0.15124807033E+04  0.25500000920E-02 0. -1.
       -2    1    3    3    0  502  0.48527902198E+03 -0.97103016724E+03 -0.23023867716E+04  0.25454626615E+04  0.25500000920E-02 0.  1.
</event>
<event>
 5   0  0.1070988E-07  0.3848314E+04  0.7818609E-02  0.8035866E-01
        1   -1    0    0  501    0  0.00000000000E+00  0.00000000000E+00  0.21228056106E+04  0.21228056106E+04  0.50400001928E-02 0.  1.
       -1   -1    0    0    0  501  0.00000000000E+00  0.00000000000E+00 -0.17440976281E+04  0.17440976281E+04  0.50400001928E-02 0. -1.
    10030    2    1    2    0    0  0.00000000000E+00  0.00000000000E+00  0.37870798250E+03  0.38669032386E+04  0.38483140362E+04 0.  0.
        5    1    3    3  502    0  0.76035230127E+03 -0.17161496351E+04 -0.23583649464E+03  0.18918102797E+04  0.46999998093E+01 0.  1.
       -5    1    3    3    0  502 -0.76035230127E+03  0.17161496351E+04  0.61454447714E+03  0.19750929589E+04  0.46999998093E+01 0. -1.
</event>
<event>
 5   0  0.3539010E-07  0.3813036E+04  0.7818609E-02  0.8043363E-01
       -2   -1    0    0    0  501  0.00000000000E+00  0.00000000000E+00  0.18406862136E+04  0.18406862136E+04  0.25500000920E-02 0.  1.
        2   -1    0    0  501    0  0.00000000000E+00  0.00000000000E+00 -0.19747042103E+04  0.19747042103E+04  0.25500000920E-02 0. -1.
    10030    2    1    2    0    0  0.00000000000E+00  0.00000000000E+00 -0.13401799666E+03  0.38153904239E+04  0.38130359641E+04 0.  0.
        1    1    3    3  502    0 -0.62869836454E+03 -0.49393360084E+03 -0.17988517513E+04  0.19685272817E+04  0.50400001928E-02 0. -1.
       -1    1    3    3    0  502  0.62869836454E+03  0.49393360084E+03  0.16648337546E+04  0.18468631422E+04  0.50400001928E-02 0.  1.
</event>
<event>
 5   0  0.1085771E-07  0.3817785E+04  0.7818609E-02  0.8042349E-01
        1   -1    0    0  501    0  0.00000000000E+00  0.00000000000E+00  0.20843751493E+04  0.20843751493E+04  0.50400001928E-02 0.  1.
       -1   -1    0    0    0  501  0.00000000000E+00  0.00000000000E+00 -0.17481832543E+04  0.17481832543E+04  0.50400001928E-02 0. -1.
    10030    2    1    2    0    0  0.00000000000E+00  0.00000000000E+00  0.33619189499E+03  0.38325584036E+04  0.38177845574E+04 0.  0.
        1    1    3    3  502    0 -0.94611245338E+03  0.38271256960E+03  0.17874943743E+04  0.20583327777E+04  0.50400001928E-02 0.  1.
       -1    1    3    3    0  502  0.94611245338E+03 -0.38271256960E+03 -0.14513024793E+04  0.17742256260E+04  0.50400001928E-02 0. -1.
</event>
<event>
 5   0  0.1070988E-07  0.3677565E+04  0.7818609E-02  0.8072952E-01
       -1   -1    0    0    0  501  0.00000000000E+00  0.00000000000E+00  0.13844358454E+04  0.13844358454E+04  0.50400001928E-02 0. -1.
        1   -1    0    0  501    0  0.00000000000E+00  0.00000000000E+00 -0.24422381140E+04  0.24422381140E+04  0.50400001928E-02 0.  1.
    10030    2    1    2    0    0  0.00000000000E+00  0.00000000000E+00 -0.10578022687E+04  0.38266739594E+04  0.36775654926E+04 0.  0.
        3    1    3    3  502    0  0.30536209111E+03  0.12200725311E+04  0.86686518203E+03  0.15275071986E+04  0.10100000352E+00 0. -1.
       -3    1    3    3    0  502 -0.30536209111E+03 -0.12200725311E+04 -0.19246674507E+04  0.22991667608E+04  0.10100000352E+00 0.  1.
</event>
<event>
 5   0  0.3509843E-07  0.3873485E+04  0.7818609E-02  0.8030567E-01
        2   -1    0    0  501    0  0.00000000000E+00  0.00000000000E+00  0.19924181937E+04  0.19924181937E+04  0.25500000920E-02 0. -1.
       -2   -1    0    0    0  501  0.00000000000E+00  0.00000000000E+00 -0.18826223027E+04  0.18826223027E+04  0.25500000920E-02 0.  1.
    10030    2    1    2    0    0  0.00000000000E+00  0.00000000000E+00  0.10979589100E+03  0.38750404964E+04  0.38734846987E+04 0.  0.
        4    1    3    3  502    0 -0.13765694302E+03 -0.86351122045E+03 -0.16739073367E+04  0.18885360591E+04  0.12699999809E+01 0.  1.
       -4    1    3    3    0  502  0.13765694302E+03  0.86351122045E+03  0.17837032277E+04  0.19865044373E+04  0.12699999809E+01 0. -1.
</event>
<event>
 5   0  0.1070988E-07  0.3266796E+04  0.7818609E-02  0.8171396E-01
        1   -1    0    0  501    0  0.00000000000E+00  0.00000000000E+00  0.13105094936E+04  0.13105094936E+04  0.50400001928E-02 0. -1.
       -1   -1    0    0    0  501  0.00000000000E+00  0.00000000000E+00 -0.20358409549E+04  0.20358409549E+04  0.50400001928E-02 0.  1.
    10030    2    1    2    0    0  0.00000000000E+00  0.00000000000E+00 -0.72533146132E+03  0.33463504485E+04  0.32667959219E+04 0.  0.
        2    1    3    3  502    0 -0.16679066571E+03  0.15585073036E+03  0.12940895041E+04  0.13140685754E+04  0.25500000920E-02 0. -1.
       -2    1    3    3    0  502  0.16679066571E+03 -0.15585073036E+03 -0.20194209654E+04  0.20322818731E+04  0.25500000920E-02 0.  1.
</event>
<event>
 5   0  0.3539010E-07  0.3814733E+04  0.7818609E-02  0.8043001E-01
        2   -1    0    0  501    0  0.00000000000E+00  0.00000000000E+00  0.13016267792E+04  0.13016267792E+04  0.25500000920E-02 0.  1.
       -2   -1    0    0    0  501  0.00000000000E+00  0.00000000000E+00 -0.27950002101E+04  0.27950002101E+04  0.25500000920E-02 0. -1.
    10030    2    1    2    0    0  0.00000000000E+00  0.00000000000E+00 -0.14933734309E+04  0.40966269893E+04  0.38147330818E+04 0.  0.
        1    1    3    3  502    0  0.96044503838E+03  0.43293940037E+03  0.96082697380E+03  0.14258610275E+04  0.50400001928E-02 0.  1.
       -1    1    3    3    0  502 -0.96044503838E+03 -0.43293940037E+03 -0.24542004047E+04  0.26707659618E+04  0.50400001928E-02 0. -1.
</event>
<event>
 5   0  0.3377396E-07  0.3860475E+04  0.7818609E-02  0.8033300E-01
       -2   -1    0    0    0  501  0.00000000000E+00  0.00000000000E+00  0.15293326565E+04  0.15293326565E+04  0.25500000920E-02 0. -1.
        2   -1    0    0  501    0  0.00000000000E+00  0.00000000000E+00 -0.24362374814E+04  0.24362374814E+04  0.25500000920E-02 0.  1.
    10030    2    1    2    0    0  0.00000000000E+00  0.00000000000E+00 -0.90690482490E+03  0.39655701378E+04  0.38604753796E+04 0.  0.
        5    1    3    3  502    0  0.18353506983E+04 -0.14519695321E+03  0.14216093108E+03  0.18465714612E+04  0.46999998093E+01 0. -1.
       -5    1    3    3    0  502 -0.18353506983E+04  0.14519695321E+03 -0.10490657560E+04  0.21189986766E+04  0.46999998093E+01 0.  1.
</event>
<event>
 5   0  0.3509843E-07  0.3706728E+04  0.7818609E-02  0.8066472E-01
        2   -1    0    0  501    0  0.00000000000E+00  0.00000000000E+00  0.22151106944E+04  0.22151106944E+04  0.25500000920E-02 0. -1.
       -2   -1    0    0    0  501  0.00000000000E+00  0.00000000000E+00 -0.15506938906E+04  0.15506938906E+04  0.25500000920E-02 0.  1.
    10030    2    1    2    0    0  0.00000000000E+00  0.00000000000E+00  0.66441680379E+03  0.37658045849E+04  0.37067282720E+04 0.  0.
        4    1    3    3  502    0 -0.17234139441E+04  0.44030696834E+03  0.86101456310E+03  0.19762017963E+04  0.12699999809E+01 0. -1.
       -4    1    3    3    0  502  0.17234139441E+04 -0.44030696834E+03 -0.19659775931E+03  0.17896027886E+04  0.12699999809E+01 0.  1.
</event>
<event>
 5   0  0.1070988E-07  0.3500672E+04  0.7818609E-02  0.8113631E-01
        1   -1    0    0  501    0  0.00000000000E+00  0.00000000000E+00  0.20124510343E+04  0.20124510343E+04  0.50400001928E-02 0. -1.
       -1   -1    0    0    0  501  0.00000000000E+00  0.00000000000E+00 -0.15223603308E+04  0.15223603308E+04  0.50400001928E-02 0.  1.
    10030    2    1    2    0    0  0.00000000000E+00  0.00000000000E+00  0.49009070350E+03  0.35348113652E+04  0.35006717198E+04 0.  0.
        3    1    3    3  502    0 -0.13348940165E+04  0.58395555432E+03 -0.73432563740E+03  0.16316189128E+04  0.10100000352E+00 0.  1.
       -3    1    3    3    0  502  0.13348940165E+04 -0.58395555432E+03  0.12244163409E+04  0.19031924524E+04  0.10100000352E+00 0. -1.
</event>
<event>
 5   0  0.1070988E-07  0.3765841E+04  0.7818609E-02  0.8053525E-01
        1   -1    0    0  501    0  0.00000000000E+00  0.00000000000E+00  0.21097339570E+04  0.21097339570E+04  0.50400001928E-02 0.  1.
       -1   -1    0    0    0  501  0.00000000000E+00  0.00000000000E+00 -0.16804908977E+04  0.16804908977E+04  0.50400001928E-02 0. -1.
    10030    2    1    2    0    0  0.00000000000E+00  0.00000000000E+00  0.42924305926E+03  0.37902248548E+04  0.37658405231E+04 0.  0.
        3    1    3    3  502    0 -0.15253220203E+04  0.53330604022E+03  0.11875067103E+04  0.20052916983E+04  0.10100000352E+00 0.  1.
       -3    1    3    3    0  502  0.15253220203E+04 -0.53330604022E+03 -0.75826365106E+03  0.17849331564E+04  0.10100000352E+00 0. -1.
</event>
<event>
 5   0  0.3327241E-07  0.3795608E+04  0.7818609E-02  0.8047098E-01
        2   -1    0    0  501    0  0.00000000000E+00  0.00000000000E+00  0.15477113747E+04  0.15477113747E+04  0.25500000920E-02 0. -1.
       -2   -1    0    0    0  501  0.00000000000E+00  0.00000000000E+00 -0.23270882539E+04  0.23270882539E+04  0.25500000920E-02 0.  1.
    10030    2    1    2    0    0  0.00000000000E+00  0.00000000000E+00 -0.77937687920E+03  0.38747996286E+04  0.37956084943E+04 0.  0.
        3    1    3    3  502    0  0.17306150671E+04 -0.35995214747E+03  0.31542254144E+03  0.17955738494E+04  0.10100000352E+00 0. -1.
       -3    1    3    3    0  502 -0.17306150671E+04  0.35995214747E+03 -0.10947994206E+04  0.20792257791E+04  0.10100000352E+00 0.  1.
</event>
<event>
 5   0  0.3509843E-07  0.3744617E+04  0.7818609E-02  0.8058145E-01
       -2   -1    0    0    0  501  0.00000000000E+00  0.00000000000E+00  0.13202209104E+04  0.13202209104E+04  0.25500000920E-02 0. -1.
        2   -1    0    0  501    0  0.00000000000E+00  0.00000000000E+00 -0.26552671648E+04  0.26552671648E+04  0.25500000920E-02 0.  1.
    10030    2    1    2    0    0  0.00000000000E+00  0.00000000000E+00 -0.13350462544E+04  0.39754880752E+04  0.37446170612E+04 0.  0.
        4    1    3    3  502    0 -0.14355523267E+04  0.10127087520E+04  0.19809255557E+02  0.17569244487E+04  0.12699999809E+01 0.  1.
       -4    1    3    3    0  502  0.14355523267E+04 -0.10127087520E+04 -0.13548555100E+04  0.22185636265E+04  0.12699999809E+01 0. -1.
</event>
<event>
 5   0  0.1084315E-07  0.3762614E+04  0.7818609E-02  0.8054226E-01
       -1   -1    0    0    0  501  0.00000000000E+00  0.00000000000E+00  0.14095114059E+04  0.14095114059E+04  0.50400001928E-02 0.  1.
        1   -1    0    0  501    0  0.00000000000E+00  0.00000000000E+00 -0.25110229956E+04  0.25110229956E+04  0.50400001928E-02 0. -1.
    10030    2    1    2    0    0  0.00000000000E+00  0.00000000000E+00 -0.11015115897E+04  0.39205344015E+04  0.37626137472E+04 0.  0.
        4    1    3    3  502    0  0.17146266103E+04 -0.58489630366E+03 -0.22253723357E+02  0.18117794954E+04  0.12699999809E+01 0.  1.
       -4    1    3    3    0  502 -0.17146266103E+04  0.58489630366E+03 -0.10792578663E+04  0.21087549061E+04  0.12699999809E+01 0. -1.
</event>
<event>
 5   0  0.1085771E-07  0.3821964E+04  0.7818609E-02  0.8041458E-01
       -1   -1    0    0    0  501  0.00000000000E+00  0.00000000000E+00  0.15476109010E+04  0.15476109010E+04  0.50400001928E-02 0. -1.
        1   -1    0    0  501    0  0.00000000000E+00  0.00000000000E+00 -0.23596707360E+04  0.23596707360E+04  0.50400001928E-02 0.  1.
    10030    2    1    2    0    0  0.00000000000E+00  0.00000000000E+00 -0.81205983501E+03  0.39072816371E+04  0.38219639736E+04 0.  0.
        1    1    3    3  502    0 -0.85808148071E+03 -0.13942714918E+04  0.60164836190E+03  0.17442125937E+04  0.50400001928E-02 0. -1.
       -1    1    3    3    0  502  0.85808148071E+03  0.13942714918E+04 -0.14137081969E+04  0.21630690434E+04  0.50400001928E-02 0.  1.
</event>
<event>
 5   0  0.1070988E-07  0.3760681E+04  0.7818609E-02  0.8054646E-01
       -1   -1    0    0    0  501  0.00000000000E+00  0.00000000000E+00  0.16646301537E+04  0.16646301537E+04  0.50400001928E-02 0.  1.
        1   -1    0    0  501    0  0.00000000000E+00  0.00000000000E+00 -0.21240038220E+04  0.21240038220E+04  0.50400001928E-02 0. -1.
    10030    2    1    2    0    0  0.00000000000E+00  0.00000000000E+00 -0.45937366827E+03  0.37886339756E+04  0.37606812194E+04 0.  0.
        2    1    3    3  502    0  0.12084114852E+04  0.10478363776E+04  0.76632830605E+03  0.17735496792E+04  0.25500000920E-02 0.  1.
       -2    1    3    3    0  502 -0.12084114852E+04 -0.10478363776E+04 -0.12257019743E+04  0.20150842964E+04  0.25500000920E-02 0. -1.
</event>
<event>
 5   0  0.3509843E-07  0.3786400E+04  0.7818609E-02  0.8049080E-01
       -2   -1    0    0    0  501  0.00000000000E+00  0.00000000000E+00  0.15517783741E+04  0.15517783741E+04  0.25500000920E-02 0. -1.
        2   -1    0    0  501    0  0.00000000000E+00  0.00000000000E+00 -0.23097410140E+04  0.23097410140E+04  0.25500000920E-02 0.  1.
    10030    2    1    2    0    0  0.00000000000E+00  0.00000000000E+00 -0.75796263986E+03  0.38615193881E+04  0.37863999553E+04 0.  0.
        4    1    3    3  502    0 -0.83607919606E+03  0.27175882789E+03  0.13309833062E+04  0.15951173803E+04  0.12699999809E+01 0. -1.
       -4    1    3    3    0  502  0.83607919606E+03 -0.27175882789E+03 -0.20889459461E+04  0.22664020078E+04  0.12699999809E+01 0.  1.
</event>
<event>
 5   0  0.3509843E-07  0.3812368E+04  0.7818609E-02  0.8043506E-01
        2   -1    0    0  501    0  0.00000000000E+00  0.00000000000E+00  0.19625844129E+04  0.19625844129E+04  0.25500000920E-02 0. -1.
       -2   -1    0    0    0  501  0.00000000000E+00  0.00000000000E+00 -0.18514044486E+04  0.18514044486E+04  0.25500000920E-02 0.  1.
    10030    2    1    2    0    0  0.00000000000E+00  0.00000000000E+00  0.11117996427E+03  0.38139888615E+04  0.38123680373E+04 0.  0.
        4    1    3    3  502    0 -0.13346267411E+04 -0.36189704119E+03  0.13681454494E+04  0.19452561760E+04  0.12699999809E+01 0. -1.
       -4    1    3    3    0  502  0.13346267411E+04  0.36189704119E+03 -0.12569654852E+04  0.18687326856E+04  0.12699999809E+01 0.  1.
</event>
<event>
 5   0  0.3377396E-07  0.3776353E+04  0.7818609E-02  0.8051249E-01
        2   -1    0    0  501    0  0.00000000000E+00  0.00000000000E+00  0.21782590545E+04  0.21782590545E+04  0.25500000920E-02 0.  1.
       -2   -1    0    0    0  501  0.00000000000E+00  0.00000000000E+00 -0.16367248039E+04  0.16367248039E+04  0.25500000920E-02 0. -1.
    10030    2    1    2    0    0  0.00000000000E+00  0.00000000000E+00  0.54153425064E+03  0.38149838584E+04  0.37763530681E+04 0.  0.
        5    1    3    3  502    0  0.16804460845E+04 -0.12828287682E+03  0.11308476032E+04  0.20295797425E+04  0.46999998093E+01 0.  1.
       -5    1    3    3    0  502 -0.16804460845E+04  0.12828287682E+03 -0.58931335254E+03  0.17854041159E+04  0.46999998093E+01 0. -1.
</event>
<event>
 5   0  0.1070988E-07  0.3806542E+04  0.7818609E-02  0.8044753E-01
       -1   -1    0    0    0  501  0.00000000000E+00  0.00000000000E+00  0.18821183063E+04  0.18821183063E+04  0.50400001928E-02 0.  1.
        1   -1    0    0  501    0  0.00000000000E+00  0.00000000000E+00 -0.19246611462E+04  0.19246611462E+04  0.50400001928E-02 0. -1.
    10030    2    1    2    0    0  0.00000000000E+00  0.00000000000E+00 -0.42542839850E+02  0.38067794525E+04  0.38065417253E+04 0.  0.
        5    1    3    3  502    0  0.74575199129E+03  0.11552314766E+04  0.12947560855E+04  0.18886824000E+04  0.46999998093E+01 0.  1.
       -5    1    3    3    0  502 -0.74575199129E+03 -0.11552314766E+04 -0.13372989254E+04  0.19180970525E+04  0.46999998093E+01 0. -1.
</event>
<event>
 5   0  0.1070988E-07  0.3772150E+04  0.7818609E-02  0.8052158E-01
       -1   -1    0    0    0  501  0.00000000000E+00  0.00000000000E+00  0.15456969840E+04  0.15456969840E+04  0.50400001928E-02 0. -1.
        1   -1    0    0  501    0  0.00000000000E+00  0.00000000000E+00 -0.23014075058E+04  0.23014075058E+04  0.50400001928E-02 0.  1.
    10030    2    1    2    0    0  0.00000000000E+00  0.00000000000E+00 -0.75571052185E+03  0.38471044898E+04  0.37721498595E+04 0.  0.
        2    1    3    3  502    0 -0.21318408790E+03  0.17941589996E+04  0.17403010077E+03  0.18151419909E+04  0.25500000920E-02 0.  1.
       -2    1    3    3    0  502  0.21318408790E+03 -0.17941589996E+04 -0.92974062262E+03  0.20319624988E+04  0.25500000920E-02 0. -1.
</event>
<event>
 5   0  0.3539010E-07  0.3722039E+04  0.7818609E-02  0.8063095E-01
       -2   -1    0    0    0  501  0.00000000000E+00  0.00000000000E+00  0.16308599679E+04  0.16308599679E+04  0.25500000920E-02 0.  1.
        2   -1    0    0  501    0  0.00000000000E+00  0.00000000000E+00 -0.21236604848E+04  0.21236604848E+04  0.25500000920E-02 0. -1.
    10030    2    1    2    0    0  0.00000000000E+00  0.00000000000E+00 -0.49280051696E+03  0.37545204527E+04  0.37220386189E+04 0.  0.
        1    1    3    3  502    0  0.15844428545E+04 -0.62941575169E+03 -0.99908190536E+03  0.19760536434E+04  0.50400001928E-02 0. -1.
       -1    1    3    3    0  502 -0.15844428545E+04  0.62941575169E+03  0.50628138840E+03  0.17784668094E+04  0.50400001928E-02 0.  1.
</event>
<event>
 5   0  0.1084315E-07  0.3780256E+04  0.7818609E-02  0.8050405E-01
        1   -1    0    0  501    0  0.00000000000E+00  0.00000000000E+00  0.17747947254E+04  0.17747947254E+04  0.50400001928E-02 0. -1.
       -1   -1    0    0    0  501  0.00000000000E+00  0.00000000000E+00 -0.20129558531E+04  0.20129558531E+04  0.50400001928E-02 0.  1.
    10030    2    1    2    0    0  0.00000000000E+00  0.00000000000E+00 -0.23816112770E+03  0.37877505785E+04  0.37802557747E+04 0.  0.
        4    1    3    3  502    0 -0.16550319252E+04  0.88784453672E+03 -0.33206545225E+03  0.19072670689E+04  0.12699999809E+01 0. -1.
       -4    1    3    3    0  502  0.16550319252E+04 -0.88784453672E+03  0.93904324555E+02  0.18804835096E+04  0.12699999809E+01 0.  1.
</event>
<event>
 5   0  0.3539010E-07  0.3870819E+04  0.7818609E-02  0.8031126E-01
       -2   -1    0    0    0  501  0.00000000000E+00  0.00000000000E+00  0.19765676825E+04  0.19765676825E+04  0.25500000920E-02 0.  1.
        2   -1    0    0  501    0  0.00000000000E+00  0.00000000000E+00 -0.18951081155E+04  0.18951081155E+04  0.25500000920E-02 0. -1.
    10030    2    1    2    0    0  0.00000000000E+00  0.00000000000E+00  0.81459566999E+02  0.38716757981E+04  0.38708187538E+04 0.  0.
        1    1    3    3  502    0 -0.36679356989E+02 -0.96196125943E+02 -0.18923673707E+04  0.18951657805E+04  0.50400001928E-02 0. -1.
       -1    1    3    3    0  502  0.36679356989E+02  0.96196125943E+02  0.19738269377E+04  0.19765100176E+04  0.50400001928E-02 0.  1.
</event>
<event>
 5   0  0.3442126E-07  0.3789557E+04  0.7818609E-02  0.8048400E-01
       -2   -1    0    0    0  501  0.00000000000E+00  0.00000000000E+00  0.15664740728E+04  0.15664740728E+04  0.25500000920E-02 0. -1.
        2   -1    0    0  501    0  0.00000000000E+00  0.00000000000E+00 -0.22918892680E+04  0.22918892680E+04  0.25500000920E-02 0.  1.
    10030    2    1    2    0    0  0.00000000000E+00  0.00000000000E+00 -0.72541519519E+03  0.38583633407E+04  0.37895567635E+04 0.  0.
        2    1    3    3  502    0 -0.12375621939E+04  0.14225328780E+04 -0.55325571584E+03  0.19650068346E+04  0.25500000920E-02 0. -1.
       -2    1    3    3    0  502  0.12375621939E+04 -0.14225328780E+04 -0.17215947936E+03  0.18933565061E+04  0.25500000920E-02 0.  1.
</event>
<event>
 5   0  0.1085771E-07  0.3791402E+04  0.7818609E-02  0.8048003E-01
       -1   -1    0    0    0  501  0.00000000000E+00  0.00000000000E+00  0.17105502517E+04  0.17105502517E+04  0.50400001928E-02 0. -1.
        1   -1    0    0  501    0  0.00000000000E+00  0.00000000000E+00 -0.21008920060E+04  0.21008920060E+04  0.50400001928E-02 0.  1.
    10030    2    1    2    0    0  0.00000000000E+00  0.00000000000E+00 -0.39034175431E+03  0.38114422577E+04  0.37914015085E+04 0.  0.
        1    1    3    3  502    0  0.15115356522E+04  0.11433540586E+04 -0.23640988379E+03  0.19099445449E+04  0.50400001928E-02 0. -1.
       -1    1    3    3    0  502 -0.15115356522E+04 -0.11433540586E+04 -0.15393187052E+03  0.19014977129E+04  0.50400001928E-02 0.  1.
</event>
<event>
 5   0  0.3509843E-07  0.3806548E+04  0.7818609E-02  0.8044751E-01
       -2   -1    0    0    0  501  0.00000000000E+00  0.00000000000E+00  0.21898633731E+04  0.21898633731E+04  0.25500000920E-02 0. -1.
        2   -1    0    0  501    0  0.00000000000E+00  0.00000000000E+00 -0.16541910373E+04  0.16541910373E+04  0.25500000920E-02 0.  1.
    10030    2    1    2    0    0  0.00000000000E+00  0.00000000000E+00  0.53567233579E+03  0.38440544105E+04  0.38065482342E+04 0.  0.
        4    1    3    3  502    0 -0.14958742541E+04 -0.79525583879E+03 -0.60810826318E+03  0.17999635846E+04  0.12699999809E+01 0.  1.
       -4    1    3    3    0  502  0.14958742541E+04  0.79525583879E+03  0.11437805990E+04  0.20440908259E+04  0.12699999809E+01 0. -1.
</event>
<event>
 5   0  0.1070988E-07  0.3746866E+04  0.7818609E-02  0.8057654E-01
       -1   -1    0    0    0  501  0.00000000000E+00  0.00000000000E+00  0.24889373290E+04  0.24889373290E+04  0.50400001928E-02 0.  1.
        1   -1    0    0  501    0  0.00000000000E+00  0.00000000000E+00 -0.14101407067E+04  0.14101407067E+04  0.50400001928E-02 0. -1.
    10030    2    1    2    0    0  0.00000000000E+00  0.00000000000E+00  0.10787966224E+04  0.38990780357E+04  0.37468663408E+04 0.  0.
        5    1    3    3  502    0 -0.45243270139E+03  0.39092063217E+02 -0.13519925671E+04  0.14262291296E+04  0.46999998093E+01 0. -1.
       -5    1    3    3    0  502  0.45243270139E+03 -0.39092063217E+02  0.24307891895E+04  0.24728489061E+04  0.46999998093E+01 0.  1.
</event>
<event>
 5   0  0.3377396E-07  0.3828003E+04  0.7818609E-02  0.8040172E-01
        2   -1    0    0  501    0  0.00000000000E+00  0.00000000000E+00  0.16818181018E+04  0.16818181018E+04  0.25500000920E-02 0.  1.
       -2   -1    0    0    0  501  0.00000000000E+00  0.00000000000E+00 -0.21782390164E+04  0.21782390164E+04  0.25500000920E-02 0. -1.
    10030    2    1    2    0    0  0.00000000000E+00  0.00000000000E+00 -0.49642091466E+03  0.38600571182E+04  0.38280030344E+04 0.  0.
        5    1    3    3  502    0 -0.15998017185E+04  0.92135638553E+03 -0.75753054908E+03  0.19955294411E+04  0.46999998093E+01 0. -1.
       -5    1    3    3    0  502  0.15998017185E+04 -0.92135638553E+03  0.26110963442E+03  0.18645276771E+04  0.46999998093E+01 0.  1.
</event>
<event>
 5   0  0.3377396E-07  0.3804408E+04  0.7818609E-02  0.8045210E-01
       -2   -1    0    0    0  501  0.00000000000E+00  0.00000000000E+00  0.16681948950E+04  0.16681948950E+04  0.25500000920E-02 0. -1.
        2   -1    0    0  501    0  0.00000000000E+00  0.00000000000E+00 -0.21690389482E+04  0.21690389483E+04  0.25500000920E-02 0.  1.
    10030    2    1    2    0    0  0.00000000000E+00  0.00000000000E+00 -0.50084405326E+03  0.38372338432E+04  0.38044078123E+04 0.  0.
        5    1    3    3  502    0  0.33165841748E+03  0.59404660076E+02 -0.21386949528E+04  0.21650783844E+04  0.46999998093E+01 0.  1.
       -5    1    3    3    0  502 -0.33165841748E+03 -0.59404660076E+02  0.16378508995E+04  0.16721554589E+04  0.46999998093E+01 0. -1.
</event>
<event>
 5   0  0.3539010E-07  0.3886247E+04  0.7818609E-02  0.8027896E-01
        2   -1    0    0  501    0  0.00000000000E+00  0.00000000000E+00  0.13167293580E+04  0.13167293580E+04  0.25500000920E-02 0. -1.
       -2   -1    0    0    0  501  0.00000000000E+00  0.00000000000E+00 -0.28675064006E+04  0.28675064006E+04  0.25500000920E-02 0.  1.
    10030    2    1    2    0    0  0.00000000000E+00  0.00000000000E+00 -0.15507770426E+04  0.41842357586E+04  0.38862474764E+04 0.  0.
        1    1    3    3  502    0 -0.28892183573E+03  0.16879172223E+04  0.21327448658E+03  0.17256959127E+04  0.50400001928E-02 0.  1.
       -1    1    3    3    0  502  0.28892183573E+03 -0.16879172223E+04 -0.17640515292E+04  0.24585398459E+04  0.50400001928E-02 0. -1.
</event>
<event>
 5   0  0.1084315E-07  0.3816420E+04  0.7818609E-02  0.8042640E-01
       -1   -1    0    0    0  501  0.00000000000E+00  0.00000000000E+00  0.23640781253E+04  0.23640781253E+04  0.50400001928E-02 0.  1.
        1   -1    0    0  501    0  0.00000000000E+00  0.00000000000E+00 -0.15402477539E+04  0.15402477539E+04  0.50400001928E-02 0. -1.
    10030    2    1    2    0    0  0.00000000000E+00  0.00000000000E+00  0.82383037141E+03  0.39043258792E+04  0.38164203241E+04 0.  0.
        4    1    3    3  502    0  0.12406325423E+04 -0.23318321899E+03 -0.10520314297E+04  0.16432636004E+04  0.12699999809E+01 0. -1.
       -4    1    3    3    0  502 -0.12406325423E+04  0.23318321899E+03  0.18758618011E+04  0.22610622787E+04  0.12699999809E+01 0.  1.
</event>
<event>
 5   0  0.1070988E-07  0.3823887E+04  0.7818609E-02  0.8041048E-01
       -1   -1    0    0    0  501  0.00000000000E+00  0.00000000000E+00  0.12304973523E+04  0.12304973523E+04  0.50400001928E-02 0.  1.
        1   -1    0    0  501    0  0.00000000000E+00  0.00000000000E+00 -0.29707727321E+04  0.29707727322E+04  0.50400001928E-02 0. -1.
    10030    2    1    2    0    0  0.00000000000E+00  0.00000000000E+00 -0.17402753798E+04  0.42012700845E+04  0.38238870178E+04 0.  0.
        3    1    3    3  502    0 -0.89015846999E+03  0.81294486565E+01 -0.27291928449E+04  0.28707040573E+04  0.10100000352E+00 0. -1.
       -3    1    3    3    0  502  0.89015846999E+03 -0.81294486565E+01  0.98891746512E+03  0.13305660272E+04  0.10100000352E+00 0.  1.
</event>
<event>
 5   0  0.1070988E-07  0.3069152E+04  0.7818609E-02  0.8224255E-01
       -1   -1    0    0    0  501  0.00000000000E+00  0.00000000000E+00  0.78875278299E+03  0.78875278300E+03  0.50400001928E-02 0. -1.
        1   -1    0    0  501    0  0.00000000000E+00  0.00000000000E+00 -0.29856293546E+04  0.29856293546E+04  0.50400001928E-02 0.  1.
    10030    2    1    2    0    0  0.00000000000E+00  0.00000000000E+00 -0.21968765716E+04  0.37743821376E+04  0.30691519757E+04 0.  0.
        3    1    3    3  502    0  0.13070802190E+04 -0.61431782525E+03 -0.46051733924E+03  0.15158896131E+04  0.10100000352E+00 0. -1.
       -3    1    3    3    0  502 -0.13070802190E+04  0.61431782525E+03 -0.17363592324E+04  0.22584925245E+04  0.10100000352E+00 0.  1.
</event>
<event>
 5   0  0.3509843E-07  0.3801516E+04  0.7818609E-02  0.8045830E-01
       -2   -1    0    0    0  501  0.00000000000E+00  0.00000000000E+00  0.20459276069E+04  0.20459276069E+04  0.25500000920E-02 0. -1.
        2   -1    0    0  501    0  0.00000000000E+00  0.00000000000E+00 -0.17658889533E+04  0.17658889533E+04  0.25500000920E-02 0.  1.
    10030    2    1    2    0    0  0.00000000000E+00  0.00000000000E+00  0.28003865361E+03  0.38118165602E+04  0.38015159925E+04 0.  0.
        4    1    3    3  502    0  0.81984903463E+03 -0.13804998549E+04 -0.88006068532E+03  0.18309671520E+04  0.12699999809E+01 0. -1.
       -4    1    3    3    0  502 -0.81984903463E+03  0.13804998549E+04  0.11600993389E+04  0.19808494082E+04  0.12699999809E+01 0.  1.
</event>
<event>
 5   0  0.1070988E-07  0.3571169E+04  0.7818609E-02  0.8097128E-01
       -3   -1    0    0    0  501  0.00000000000E+00  0.00000000000E+00  0.17450684444E+04  0.17450684473E+04  0.10100000352E+00 0.  1.
        3   -1    0    0  501    0  0.00000000000E+00  0.00000000000E+00 -0.18270407259E+04  0.18270407287E+04  0.10100000352E+00 0. -1.
    10030    2    1    2    0    0  0.00000000000E+00  0.00000000000E+00 -0.81972281554E+02  0.35721091760E+04  0.35711685077E+04 0.  0.
        4    1    3    3  502    0 -0.15087595370E+04 -0.94068588373E+03  0.12356932742E+03  0.17822783912E+04  0.12699999809E+01 0. -1.
       -4    1    3    3    0  502  0.15087595370E+04  0.94068588373E+03 -0.20554160898E+03  0.17898307848E+04  0.12699999809E+01 0.  1.
</event>
<event>
 5   0  0.1085771E-07  0.3818552E+04  0.7818609E-02  0.8042185E-01
       -1   -1    0    0    0  501  0.00000000000E+00  0.00000000000E+00  0.24282345358E+04  0.24282345358E+04  0.50400001928E-02 0. -1.
        1   -1    0    0  501    0  0.00000000000E+00  0.00000000000E+00 -0.15012285344E+04  0.15012285344E+04  0.50400001928E-02 0.  1.
    10030    2    1    2    0    0  0.00000000000E+00  0.00000000000E+00  0.92700600137E+03  0.39294630702E+04  0.38185520676E+04 0.  0.
        1    1    3    3  502    0 -0.17880279241E+04 -0.32501642610E+03  0.10658729662E+04  0.21068376099E+04  0.50400001928E-02 0. -1.
       -1    1    3    3    0  502  0.17880279241E+04  0.32501642610E+03 -0.13886696479E+03  0.18226254603E+04  0.50400001928E-02 0.  1.
</event>
<event>
 5   0  0.1070988E-07  0.3823990E+04  0.7818609E-02  0.8041026E-01
       -1   -1    0    0    0  501  0.00000000000E+00  0.00000000000E+00  0.16446290893E+04  0.16446290893E+04  0.50400001928E-02 0.  1.
        1   -1    0    0  501    0  0.00000000000E+00  0.00000000000E+00 -0.22228264668E+04  0.22228264669E+04  0.50400001928E-02 0. -1.
    10030    2    1    2    0    0  0.00000000000E+00  0.00000000000E+00 -0.57819737755E+03  0.38674555562E+04  0.38239900982E+04 0.  0.
        2    1    3    3  502    0 -0.70432605083E+02 -0.18967221885E+04 -0.52239193400E+03  0.19686058887E+04  0.25500000920E-02 0. -1.
       -2    1    3    3    0  502  0.70432605083E+02  0.18967221885E+04 -0.55805443548E+02  0.18988496675E+04  0.25500000920E-02 0.  1.
</event>
<event>
 5   0  0.3327241E-07  0.3712451E+04  0.7818609E-02  0.8065208E-01
        2   -1    0    0  501    0  0.00000000000E+00  0.00000000000E+00  0.25108834328E+04  0.25108834328E+04  0.25500000920E-02 0.  1.
       -2   -1    0    0    0  501  0.00000000000E+00  0.00000000000E+00 -0.13722549475E+04  0.13722549475E+04  0.25500000920E-02 0. -1.
    10030    2    1    2    0    0  0.00000000000E+00  0.00000000000E+00  0.11386284853E+04  0.38831383803E+04  0.37124505186E+04 0.  0.
        3    1    3    3  502    0 -0.17230902662E+04  0.69020581025E+03  0.55658606773E+03  0.19378369867E+04  0.10100000352E+00 0. -1.
       -3    1    3    3    0  502  0.17230902662E+04 -0.69020581025E+03  0.58204241754E+03  0.19453013936E+04  0.10100000352E+00 0.  1.
</event>
<event>
 5   0  0.3509843E-07  0.3856457E+04  0.7818609E-02  0.8034147E-01
        2   -1    0    0  501    0  0.00000000000E+00  0.00000000000E+00  0.24578610411E+04  0.24578610411E+04  0.25500000920E-02 0.  1.
       -2   -1    0    0    0  501  0.00000000000E+00  0.00000000000E+00 -0.15127238815E+04  0.15127238815E+04  0.25500000920E-02 0. -1.
    10030    2    1    2    0    0  0.00000000000E+00  0.00000000000E+00  0.94513715960E+03  0.39705849225E+04  0.38564569720E+04 0.  0.
        4    1    3    3  502    0 -0.11982422469E+04  0.15051665820E+04  0.33930650177E+03  0.19535714568E+04  0.12699999809E+01 0. -1.
       -4    1    3    3    0  502  0.11982422469E+04 -0.15051665820E+04  0.60583065783E+03  0.20170134657E+04  0.12699999809E+01 0.  1.
</event>
<event>
 5   0  0.3327241E-07  0.3675652E+04  0.7818609E-02  0.8073379E-01
        2   -1    0    0  501    0  0.00000000000E+00  0.00000000000E+00  0.18888226880E+04  0.18888226880E+04  0.25500000920E-02 0.  1.
       -2   -1    0    0    0  501  0.00000000000E+00  0.00000000000E+00 -0.17882059047E+04  0.17882059047E+04  0.25500000920E-02 0. -1.
    10030    2    1    2    0    0  0.00000000000E+00  0.00000000000E+00  0.10061678331E+03  0.36770285928E+04  0.36756517157E+04 0.  0.
        3    1    3    3  502    0  0.69552386884E+03 -0.11417794986E+03 -0.16476234364E+04  0.17920527488E+04  0.10100000352E+00 0. -1.
       -3    1    3    3    0  502 -0.69552386884E+03  0.11417794986E+03  0.17482402197E+04  0.18849758439E+04  0.10100000352E+00 0.  1.
</event>
<event>
 5   0  0.3327241E-07  0.3336781E+04  0.7818609E-02  0.8153599E-01
        2   -1    0    0  501    0  0.00000000000E+00  0.00000000000E+00  0.23145932775E+04  0.23145932775E+04  0.25500000920E-02 0.  1.
       -2   -1    0    0    0  501  0.00000000000E+00  0.00000000000E+00 -0.12025988382E+04  0.12025988382E+04  0.25500000920E-02 0. -1.
    10030    2    1    2    0    0  0.00000000000E+00  0.00000000000E+00  0.11119944393E+04  0.35171921157E+04  0.33367811953E+04 0.  0.
        3    1    3    3  502    0 -0.15196473573E+04 -0.40991749821E+02  0.12805631184E+04  0.19876746023E+04  0.10100000352E+00 0.  1.
       -3    1    3    3    0  502  0.15196473573E+04  0.40991749821E+02 -0.16856867907E+03  0.15295175134E+04  0.10100000352E+00 0. -1.
</event>
<event>
 5   0  0.1070988E-07  0.3900011E+04  0.7818609E-02  0.8025027E-01
        1   -1    0    0  501    0  0.00000000000E+00  0.00000000000E+00  0.26727823386E+04  0.26727823386E+04  0.50400001928E-02 0.  1.
       -1   -1    0    0    0  501  0.00000000000E+00  0.00000000000E+00 -0.14226828696E+04  0.14226828696E+04  0.50400001928E-02 0. -1.
    10030    2    1    2    0    0  0.00000000000E+00  0.00000000000E+00  0.12500994690E+04  0.40954652082E+04  0.39000111012E+04 0.  0.
        5    1    3    3  502    0  0.13170367835E+04  0.71745169721E+02  0.21332618020E+04  0.25080991336E+04  0.46999998093E+01 0.  1.
       -5    1    3    3    0  502 -0.13170367835E+04 -0.71745169721E+02 -0.88316233298E+03  0.15873660746E+04  0.46999998093E+01 0. -1.
</event>
<event>
 5   0  0.1084315E-07  0.3802973E+04  0.7818609E-02  0.8045517E-01
        1   -1    0    0  501    0  0.00000000000E+00  0.00000000000E+00  0.18192348740E+04  0.18192348740E+04  0.50400001928E-02 0.  1.
       -1   -1    0    0    0  501  0.00000000000E+00  0.00000000000E+00 -0.19874571844E+04  0.19874571844E+04  0.50400001928E-02 0. -1.
    10030    2    1    2    0    0  0.00000000000E+00  0.00000000000E+00 -0.16822231037E+03  0.38066920584E+04  0.38029732686E+04 0.  0.
        4    1    3    3  502    0 -0.25524878747E+03 -0.12287271877E+04  0.13458260533E+04  0.18401553804E+04  0.12699999809E+01 0. -1.
       -4    1    3    3    0  502  0.25524878747E+03  0.12287271877E+04 -0.15140483637E+04  0.19665366780E+04  0.12699999809E+01 0.  1.
</event>
<event>
 5   0  0.1070988E-07  0.3734089E+04  0.7818609E-02  0.8060449E-01
        1   -1    0    0  501    0  0.00000000000E+00  0.00000000000E+00  0.23852272468E+04  0.23852272468E+04  0.50400001928E-02 0.  1.
       -1   -1    0    0    0  501  0.00000000000E+00  0.00000000000E+00 -0.14614351853E+04  0.14614351853E+04  0.50400001928E-02 0. -1.
    10030    2    1    2    0    0  0.00000000000E+00  0.00000000000E+00  0.92379206153E+03  0.38466624321E+04  0.37340889241E+04 0.  0.
        5    1    3    3  502    0 -0.62985727739E+02  0.63079960769E+03 -0.13471666649E+04  0.14888772481E+04  0.46999998093E+01 0. -1.
       -5    1    3    3    0  502  0.62985727739E+02 -0.63079960769E+03  0.22709587264E+04  0.23577851840E+04  0.46999998093E+01 0.  1.
</event>
<event>
 5   0  0.1070988E-07  0.3790622E+04  0.7818609E-02  0.8048170E-01
       -1   -1    0    0    0  501  0.00000000000E+00  0.00000000000E+00  0.14667533998E+04  0.14667533998E+04  0.50400001928E-02 0.  1.
        1   -1    0    0  501    0  0.00000000000E+00  0.00000000000E+00 -0.24490856040E+04  0.24490856040E+04  0.50400001928E-02 0. -1.
    10030    2    1    2    0    0  0.00000000000E+00  0.00000000000E+00 -0.98233220415E+03  0.39158390038E+04  0.37906224481E+04 0.  0.
        3    1    3    3  502    0 -0.35239536640E+03  0.51036450538E+03 -0.23412909202E+04  0.24220440966E+04  0.10100000352E+00 0. -1.
       -3    1    3    3    0  502  0.35239536640E+03 -0.51036450538E+03  0.13589587161E+04  0.14937949072E+04  0.10100000352E+00 0.  1.
</event>
<event>
 5   0  0.3509843E-07  0.3804039E+04  0.7818609E-02  0.8045289E-01
       -2   -1    0    0    0  501  0.00000000000E+00  0.00000000000E+00  0.12801101025E+04  0.12801101025E+04  0.25500000920E-02 0. -1.
        2   -1    0    0  501    0  0.00000000000E+00  0.00000000000E+00 -0.28260672858E+04  0.28260672858E+04  0.25500000920E-02 0.  1.
    10030    2    1    2    0    0  0.00000000000E+00  0.00000000000E+00 -0.15459571833E+04  0.41061773883E+04  0.38040385292E+04 0.  0.
        4    1    3    3  502    0 -0.50140516288E+03 -0.17917212979E+04 -0.11993221694E+04  0.22136051196E+04  0.12699999809E+01 0.  1.
       -4    1    3    3    0  502  0.50140516288E+03  0.17917212979E+04 -0.34663501388E+03  0.18925722687E+04  0.12699999809E+01 0. -1.
</event>
<event>
 5   0  0.3539010E-07  0.3774148E+04  0.7818609E-02  0.8051726E-01
        2   -1    0    0  501    0  0.00000000000E+00  0.00000000000E+00  0.30329156460E+04  0.30329156460E+04  0.25500000920E-02 0. -1.
       -2   -1    0    0    0  501  0.00000000000E+00  0.00000000000E+00 -0.11741333815E+04  0.11741333815E+04  0.25500000920E-02 0.  1.
    10030    2    1    2    0    0  0.00000000000E+00  0.00000000000E+00  0.18587822645E+04  0.42070490276E+04  0.37741475877E+04 0.  0.
        1    1    3    3  502    0 -0.33076409563E+03 -0.18567578651E+04  0.85807768505E+03  0.20720164020E+04  0.50400001928E-02 0.  1.
       -1    1    3    3    0  502  0.33076409563E+03  0.18567578651E+04  0.10007045794E+04  0.21350326255E+04  0.50400001928E-02 0. -1.
</event>
<event>
 5   0  0.3442126E-07  0.3802771E+04  0.7818609E-02  0.8045560E-01
       -2   -1    0    0    0  501  0.00000000000E+00  0.00000000000E+00  0.11334575395E+04  0.11334575395E+04  0.25500000920E-02 0.  1.
        2   -1    0    0  501    0  0.00000000000E+00  0.00000000000E+00 -0.31895922709E+04  0.31895922709E+04  0.25500000920E-02 0. -1.
    10030    2    1    2    0    0  0.00000000000E+00  0.00000000000E+00 -0.20561347315E+04  0.43230498104E+04  0.38027713091E+04 0.  0.
        2    1    3    3  502    0  0.98939972675E+03  0.12698537973E+04  0.12221193168E+03  0.16144275276E+04  0.25500000920E-02 0.  1.
       -2    1    3    3    0  502 -0.98939972675E+03 -0.12698537973E+04 -0.21783466631E+04  0.27086222827E+04  0.25500000920E-02 0. -1.
</event>
<event>
 5   0  0.1070988E-07  0.3794834E+04  0.7818609E-02  0.8047264E-01
       -1   -1    0    0    0  501  0.00000000000E+00  0.00000000000E+00  0.19659774257E+04  0.19659774257E+04  0.50400001928E-02 0.  1.
        1   -1    0    0  501    0  0.00000000000E+00  0.00000000000E+00 -0.18312472498E+04  0.18312472498E+04  0.50400001928E-02 0. -1.
    10030    2    1    2    0    0  0.00000000000E+00  0.00000000000E+00  0.13473017588E+03  0.37972246755E+04  0.37948337271E+04 0.  0.
        3    1    3    3  502    0 -0.51395204721E+03  0.12704300097E+04  0.13804615355E+04  0.19452026058E+04  0.10100000352E+00 0.  1.
       -3    1    3    3    0  502  0.51395204721E+03 -0.12704300097E+04 -0.12457313596E+04  0.18520220698E+04  0.10100000352E+00 0. -1.
</event>
<event>
 5   0  0.3327241E-07  0.3628473E+04  0.7818609E-02  0.8084001E-01
       -2   -1    0    0    0  501  0.00000000000E+00  0.00000000000E+00  0.13801117583E+04  0.13801117583E+04  0.25500000920E-02 0. -1.
        2   -1    0    0  501    0  0.00000000000E+00  0.00000000000E+00 -0.23849184676E+04  0.23849184676E+04  0.25500000920E-02 0.  1.
    10030    2    1    2    0    0  0.00000000000E+00  0.00000000000E+00 -0.10048067092E+04  0.37650302259E+04  0.36284729679E+04 0.  0.
        3    1    3    3  502    0  0.30068521013E+03  0.50756257542E+03 -0.22826119295E+04  0.23576150225E+04  0.10100000352E+00 0.  1.
       -3    1    3    3    0  502 -0.30068521013E+03 -0.50756257542E+03  0.12778052203E+04  0.14074152034E+04  0.10100000352E+00 0. -1.
</event>
<event>
 5   0  0.3377396E-07  0.3819882E+04  0.7818609E-02  0.8041902E-01
       -2   -1    0    0    0  501  0.00000000000E+00  0.00000000000E+00  0.14431929784E+04  0.14431929784E+04  0.25500000920E-02 0. -1.
        2   -1    0    0  501    0  0.00000000000E+00  0.00000000000E+00 -0.25276422691E+04  0.25276422691E+04  0.25500000920E-02 0.  1.
    10030    2    1    2    0    0  0.00000000000E+00  0.00000000000E+00 -0.10844492907E+04  0.39708352475E+04  0.38198824980E+04 0.  0.
        5    1    3    3  502    0  0.14689322445E+04 -0.10580346783E+04 -0.11750972648E+04  0.21582573968E+04  0.46999998093E+01 0.  1.
       -5    1    3    3    0  502 -0.14689322445E+04  0.10580346783E+04  0.90647974038E+02  0.18125778506E+04  0.46999998093E+01 0. -1.
</event>
<event>
 5   0  0.3539010E-07  0.3809985E+04  0.7818609E-02  0.8044016E-01
       -2   -1    0    0    0  501  0.00000000000E+00  0.00000000000E+00  0.16006758160E+04  0.16006758160E+04  0.25500000920E-02 0.  1.
        2   -1    0    0  501    0  0.00000000000E+00  0.00000000000E+00 -0.22671648387E+04  0.22671648387E+04  0.25500000920E-02 0. -1.
    10030    2    1    2    0    0  0.00000000000E+00  0.00000000000E+00 -0.66648902273E+03  0.38678406547E+04  0.38099847391E+04 0.  0.
        1    1    3    3  502    0  0.80261946347E+02 -0.12570447465E+04  0.11175801739E+04  0.16839206989E+04  0.50400001928E-02 0.  1.
       -1    1    3    3    0  502 -0.80261946347E+02  0.12570447465E+04 -0.17840691967E+04  0.21839199558E+04  0.50400001928E-02 0. -1.
</event>
<event>
 5   0  0.1070988E-07  0.3733928E+04  0.7818609E-02  0.8060484E-01
        1   -1    0    0  501    0  0.00000000000E+00  0.00000000000E+00  0.20506291093E+04  0.20506291093E+04  0.50400001928E-02 0.  1.
       -1   -1    0    0    0  501  0.00000000000E+00  0.00000000000E+00 -0.16997484546E+04  0.16997484546E+04  0.50400001928E-02 0. -1.
    10030    2    1    2    0    0  0.00000000000E+00  0.00000000000E+00  0.35088065466E+03  0.37503775639E+04  0.37339275084E+04 0.  0.
        3    1    3    3  502    0  0.17500447515E+03 -0.11570933736E+04  0.16365180016E+04  0.20118853897E+04  0.10100000352E+00 0.  1.
       -3    1    3    3    0  502 -0.17500447515E+03  0.11570933736E+04 -0.12856373469E+04  0.17384921742E+04  0.10100000352E+00 0. -1.
</event>
<event>
 5   0  0.1084315E-07  0.3682451E+04  0.7818609E-02  0.8071862E-01
       -1   -1    0    0    0  501  0.00000000000E+00  0.00000000000E+00  0.21132136675E+04  0.21132136675E+04  0.50400001928E-02 0.  1.
        1   -1    0    0  501    0  0.00000000000E+00  0.00000000000E+00 -0.16042448204E+04  0.16042448204E+04  0.50400001928E-02 0. -1.
    10030    2    1    2    0    0  0.00000000000E+00  0.00000000000E+00  0.50896884711E+03  0.37174584880E+04  0.36824514012E+04 0.  0.
        4    1    3    3  502    0  0.12869845291E+04  0.11873215428E+04  0.82914888675E+03  0.19374083497E+04  0.12699999809E+01 0.  1.
       -4    1    3    3    0  502 -0.12869845291E+04 -0.11873215428E+04 -0.32018003965E+03  0.17800501383E+04  0.12699999809E+01 0. -1.
</event>
<event>
 5   0  0.1070988E-07  0.3664038E+04  0.7818609E-02  0.8075978E-01
       -1   -1    0    0    0  501  0.00000000000E+00  0.00000000000E+00  0.29200550072E+04  0.29200550072E+04  0.50400001928E-02 0.  1.
        1   -1    0    0  501    0  0.00000000000E+00  0.00000000000E+00 -0.11493940375E+04  0.11493940375E+04  0.50400001928E-02 0. -1.
    10030    2    1    2    0    0  0.00000000000E+00  0.00000000000E+00  0.17706609697E+04  0.40694490447E+04  0.36640381082E+04 0.  0.
        5    1    3    3  502    0  0.12816215443E+04 -0.12496716929E+04  0.13183949668E+04  0.22231555279E+04  0.46999998093E+01 0. -1.
       -5    1    3    3    0  502 -0.12816215443E+04  0.12496716929E+04  0.45226600291E+03  0.18462935168E+04  0.46999998093E+01 0.  1.
</event>
<event>
 5   0  0.3539010E-07  0.3797956E+04  0.7818609E-02  0.8046594E-01
        2   -1    0    0  501    0  0.00000000000E+00  0.00000000000E+00  0.24326859218E+04  0.24326859218E+04  0.25500000920E-02 0. -1.
       -2   -1    0    0    0  501  0.00000000000E+00  0.00000000000E+00 -0.14823607427E+04  0.14823607427E+04  0.25500000920E-02 0.  1.
    10030    2    1    2    0    0  0.00000000000E+00  0.00000000000E+00  0.95032517916E+03  0.39150466645E+04  0.37979563503E+04 0.  0.
        1    1    3    3  502    0 -0.26725000525E+03  0.24985131351E+03  0.23960137284E+04  0.24237842377E+04  0.50400001928E-02 0. -1.
       -1    1    3    3    0  502  0.26725000525E+03 -0.24985131351E+03 -0.14456885492E+04  0.14912624268E+04  0.50400001928E-02 0.  1.
</event>
<event>
 5   0  0.3377396E-07  0.3787385E+04  0.7818609E-02  0.8048867E-01
       -2   -1    0    0    0  501  0.00000000000E+00  0.00000000000E+00  0.19538649548E+04  0.19538649548E+04  0.25500000920E-02 0. -1.
        2   -1    0    0  501    0  0.00000000000E+00  0.00000000000E+00 -0.18353731613E+04  0.18353731613E+04  0.25500000920E-02 0.  1.
    10030    2    1    2    0    0  0.00000000000E+00  0.00000000000E+00  0.11849179348E+03  0.37892381160E+04  0.37873850075E+04 0.  0.
        5    1    3    3  502    0  0.25806874218E+03 -0.18720822207E+04 -0.62295607514E+02  0.18908183808E+04  0.46999998093E+01 0.  1.
       -5    1    3    3    0  502 -0.25806874218E+03  0.18720822207E+04  0.18078740099E+03  0.18984197352E+04  0.46999998093E+01 0. -1.
</event>
<event>
 5   0  0.3442126E-07  0.3793931E+04  0.7818609E-02  0.8047458E-01
       -2   -1    0    0    0  501  0.00000000000E+00  0.00000000000E+00  0.20553175948E+04  0.20553175948E+04  0.25500000920E-02 0.  1.
        2   -1    0    0  501    0  0.00000000000E+00  0.00000000000E+00 -0.17508138186E+04  0.17508138186E+04  0.25500000920E-02 0. -1.
    10030    2    1    2    0    0  0.00000000000E+00  0.00000000000E+00  0.30450377620E+03  0.38061314133E+04  0.37939311783E+04 0.  0.
        2    1    3    3  502    0  0.62323507048E+03 -0.11618035421E+04 -0.12160508864E+04  0.17935967166E+04  0.25500000920E-02 0. -1.
       -2    1    3    3    0  502 -0.62323507048E+03  0.11618035421E+04  0.15205546626E+04  0.20125346967E+04  0.25500000920E-02 0.  1.
</event>
<event>
 5   0  0.3327241E-07  0.3564694E+04  0.7818609E-02  0.8098627E-01
        2   -1    0    0  501    0  0.00000000000E+00  0.00000000000E+00  0.20454201594E+04  0.20454201594E+04  0.25500000920E-02 0.  1.
       -2   -1    0    0    0  501  0.00000000000E+00  0.00000000000E+00 -0.15531092384E+04  0.15531092384E+04  0.25500000920E-02 0. -1.
    10030    2    1    2    0    0  0.00000000000E+00  0.00000000000E+00  0.49231092098E+03  0.35985293978E+04  0.35646940660E+04 0.  0.
        3    1    3    3  502    0 -0.20392893934E+03  0.86191001955E+03  0.18075377688E+04  0.20128757264E+04  0.10100000352E+00 0.  1.
       -3    1    3    3    0  502  0.20392893934E+03 -0.86191001955E+03 -0.13152268479E+04  0.15856536714E+04  0.10100000352E+00 0. -1.
</event>
<event>
 5   0  0.3442126E-07  0.4245931E+04  0.7818609E-02  0.7956692E-01
        2   -1    0    0  501    0  0.00000000000E+00  0.00000000000E+00  0.21121043095E+04  0.21121043095E+04  0.25500000920E-02 0. -1.
       -2   -1    0    0    0  501  0.00000000000E+00  0.00000000000E+00 -0.21338830030E+04  0.21338830030E+04  0.25500000920E-02 0.  1.
    10030    2    1    2    0    0  0.00000000000E+00  0.00000000000E+00 -0.21778693499E+02  0.42459873124E+04  0.42459314580E+04 0.  0.
        2    1    3    3  502    0 -0.18958681467E+04  0.78470270381E+02 -0.96300999224E+03  0.21278773127E+04  0.25500000920E-02 0.  1.
       -2    1    3    3    0  502  0.18958681467E+04 -0.78470270381E+02  0.94123129874E+03  0.21181099997E+04  0.25500000920E-02 0. -1.
</event>
<event>
 5   0  0.3327241E-07  0.3630527E+04  0.7818609E-02  0.8083535E-01
        2   -1    0    0  501    0  0.00000000000E+00  0.00000000000E+00  0.20508338591E+04  0.20508338591E+04  0.25500000920E-02 0. -1.
       -2   -1    0    0    0  501  0.00000000000E+00  0.00000000000E+00 -0.16067519405E+04  0.16067519405E+04  0.25500000920E-02 0.  1.
    10030    2    1    2    0    0  0.00000000000E+00  0.00000000000E+00  0.44408191862E+03  0.36575857995E+04  0.36305268392E+04 0.  0.
        3    1    3    3  502    0 -0.41676656949E+03 -0.18997115436E+03  0.19916627515E+04  0.20436496615E+04  0.10100000352E+00 0. -1.
       -3    1    3    3    0  502  0.41676656949E+03  0.18997115436E+03 -0.15475808329E+04  0.16139361380E+04  0.10100000352E+00 0.  1.
</event>
<event>
 5   0  0.3327241E-07  0.3690927E+04  0.7818609E-02  0.8069975E-01
       -2   -1    0    0    0  501  0.00000000000E+00  0.00000000000E+00  0.11638980937E+04  0.11638980937E+04  0.25500000920E-02 0.  1.
        2   -1    0    0  501    0  0.00000000000E+00  0.00000000000E+00 -0.29261459358E+04  0.29261459358E+04  0.25500000920E-02 0. -1.
    10030    2    1    2    0    0  0.00000000000E+00  0.00000000000E+00 -0.17622478421E+04  0.40900440296E+04  0.36909270796E+04 0.  0.
        3    1    3    3  502    0 -0.27151480683E+03 -0.24451813350E+03 -0.28856614008E+04  0.29087026555E+04  0.10100000352E+00 0. -1.
       -3    1    3    3    0  502  0.27151480683E+03  0.24451813350E+03  0.11234135587E+04  0.11813413740E+04  0.10100000352E+00 0.  1.
</event>
<event>
 5   0  0.3509843E-07  0.3654269E+04  0.7818609E-02  0.8078173E-01
        2   -1    0    0  501    0  0.00000000000E+00  0.00000000000E+00  0.18994404796E+04  0.18994404796E+04  0.25500000920E-02 0. -1.
       -2   -1    0    0    0  501  0.00000000000E+00  0.00000000000E+00 -0.17575807131E+04  0.17575807131E+04  0.25500000920E-02 0.  1.
    10030    2    1    2    0    0  0.00000000000E+00  0.00000000000E+00  0.14185976657E+03  0.36570211927E+04  0.36542687108E+04 0.  0.
        4    1    3    3  502    0 -0.16233260786E+04  0.79855375367E+03  0.32713577416E+03  0.18384490971E+04  0.12699999809E+01 0. -1.
       -4    1    3    3    0  502  0.16233260786E+04 -0.79855375367E+03 -0.18527600759E+03  0.18185720956E+04  0.12699999809E+01 0.  1.
</event>
<event>
 5   0  0.1070988E-07  0.3542231E+04  0.7818609E-02  0.8103854E-01
       -1   -1    0    0    0  501  0.00000000000E+00  0.00000000000E+00  0.13726497292E+04  0.13726497292E+04  0.50400001928E-02 0.  1.
        1   -1    0    0  501    0  0.00000000000E+00  0.00000000000E+00 -0.22852514370E+04  0.22852514370E+04  0.50400001928E-02 0. -1.
    10030    2    1    2    0    0  0.00000000000E+00  0.00000000000E+00 -0.91260170780E+03  0.36579011661E+04  0.35422308033E+04 0.  0.
        5    1    3    3  502    0  0.77451913473E+03  0.14531807032E+04  0.21707679972E+03  0.16609510749E+04  0.46999998093E+01 0.  1.
       -5    1    3    3    0  502 -0.77451913473E+03 -0.14531807032E+04 -0.11296785075E+04  0.19969500912E+04  0.46999998093E+01 0. -1.
</event>
<event>
 5   0  0.1084315E-07  0.3788189E+04  0.7818609E-02  0.8048694E-01
       -1   -1    0    0    0  501  0.00000000000E+00  0.00000000000E+00  0.18981689111E+04  0.18981689111E+04  0.50400001928E-02 0. -1.
        1   -1    0    0  501    0  0.00000000000E+00  0.00000000000E+00 -0.18900285657E+04  0.18900285657E+04  0.50400001928E-02 0.  1.
    10030    2    1    2    0    0  0.00000000000E+00  0.00000000000E+00  0.81403454017E+01  0.37881974768E+04  0.37881887305E+04 0.  0.
        4    1    3    3  502    0  0.10162513794E+04  0.15827598217E+04 -0.21885708380E+03  0.18936196966E+04  0.12699999809E+01 0.  1.
       -4    1    3    3    0  502 -0.10162513794E+04 -0.15827598217E+04  0.22699742920E+03  0.18945777802E+04  0.12699999809E+01 0. -1.
</event>
<event>
 5   0  0.1070988E-07  0.3788971E+04  0.7818609E-02  0.8048526E-01
        1   -1    0    0  501    0  0.00000000000E+00  0.00000000000E+00  0.21654141221E+04  0.21654141221E+04  0.50400001928E-02 0.  1.
       -1   -1    0    0    0  501  0.00000000000E+00  0.00000000000E+00 -0.16574544665E+04  0.16574544665E+04  0.50400001928E-02 0. -1.
    10030    2    1    2    0    0  0.00000000000E+00  0.00000000000E+00  0.50795965556E+03  0.38228685886E+04  0.37889709994E+04 0.  0.
        2    1    3    3  502    0 -0.15887912729E+03  0.18780430671E+04  0.60464622124E+02  0.18857211643E+04  0.25500000920E-02 0. -1.
       -2    1    3    3    0  502  0.15887912729E+03 -0.18780430671E+04  0.44749503343E+03  0.19371474244E+04  0.25500000920E-02 0.  1.
</event>
<event>
 5   0  0.1070988E-07  0.3084386E+04  0.7818609E-02  0.8220036E-01
        1   -1    0    0  501    0  0.00000000000E+00  0.00000000000E+00  0.19055314307E+04  0.19055314308E+04  0.50400001928E-02 0.  1.
       -1   -1    0    0    0  501  0.00000000000E+00  0.00000000000E+00 -0.12481341986E+04  0.12481341986E+04  0.50400001928E-02 0. -1.
    10030    2    1    2    0    0  0.00000000000E+00  0.00000000000E+00  0.65739723215E+03  0.31536656294E+04  0.30843858029E+04 0.  0.
        3    1    3    3  502    0  0.13008717509E+04 -0.82089359188E+03  0.44175037092E+03  0.16003990133E+04  0.10100000352E+00 0. -1.
       -3    1    3    3    0  502 -0.13008717509E+04  0.82089359188E+03  0.21564686124E+03  0.15532666160E+04  0.10100000352E+00 0.  1.
</event>
<event>
 5   0  0.3539010E-07  0.3759513E+04  0.7818609E-02  0.8054900E-01
        2   -1    0    0  501    0  0.00000000000E+00  0.00000000000E+00  0.19832077145E+04  0.19832077145E+04  0.25500000920E-02 0. -1.
       -2   -1    0    0    0  501  0.00000000000E+00  0.00000000000E+00 -0.17817014457E+04  0.17817014457E+04  0.25500000920E-02 0.  1.
    10030    2    1    2    0    0  0.00000000000E+00  0.00000000000E+00  0.20150626881E+03  0.37649091602E+04  0.37595127620E+04 0.  0.
        1    1    3    3  502    0  0.13967445169E+04  0.10188084025E+04 -0.63828871542E+03  0.18428994250E+04  0.50400001928E-02 0.  1.
       -1    1    3    3    0  502 -0.13967445169E+04 -0.10188084025E+04  0.83979498423E+03  0.19220097351E+04  0.50400001928E-02 0. -1.
</event>
<event>
 5   0  0.1070988E-07  0.3786221E+04  0.7818609E-02  0.8049118E-01
       -1   -1    0    0    0  501  0.00000000000E+00  0.00000000000E+00  0.12931699831E+04  0.12931699831E+04  0.50400001928E-02 0. -1.
        1   -1    0    0  501    0  0.00000000000E+00  0.00000000000E+00 -0.27713810512E+04  0.27713810512E+04  0.50400001928E-02 0.  1.
    10030    2    1    2    0    0  0.00000000000E+00  0.00000000000E+00 -0.14782110681E+04  0.40645510343E+04  0.37862206947E+04 0.  0.
        3    1    3    3  502    0  0.11035704742E+04  0.10476019348E+04 -0.19481906791E+04  0.24720001088E+04  0.10100000352E+00 0.  1.
       -3    1    3    3    0  502 -0.11035704742E+04 -0.10476019348E+04  0.46997961105E+03  0.15925509255E+04  0.10100000352E+00 0. -1.
</event>
<event>
 5   0  0.3327241E-07  0.3809160E+04  0.7818609E-02  0.8044192E-01
        2   -1    0    0  501    0  0.00000000000E+00  0.00000000000E+00  0.14556631155E+04  0.14556631155E+04  0.25500000920E-02 0. -1.
       -2   -1    0    0    0  501  0.00000000000E+00  0.00000000000E+00 -0.24919395439E+04  0.24919395439E+04  0.25500000920E-02 0.  1.
    10030    2    1    2    0    0  0.00000000000E+00  0.00000000000E+00 -0.10362764284E+04  0.39476026594E+04  0.38091597394E+04 0.  0.
        3    1    3    3  502    0 -0.14359545797E+04  0.23077899345E+03  0.75627087481E+03  0.16392590231E+04  0.10100000352E+00 0. -1.
       -3    1    3    3    0  502  0.14359545797E+04 -0.23077899345E+03 -0.17925473032E+04  0.23083436362E+04  0.10100000352E+00 0.  1.
</event>
<event>
 5   0  0.1085771E-07  0.3815494E+04  0.7818609E-02  0.8042838E-01
        1   -1    0    0  501    0  0.00000000000E+00  0.00000000000E+00  0.17536430988E+04  0.17536430988E+04  0.50400001928E-02 0.  1.
       -1   -1    0    0    0  501  0.00000000000E+00  0.00000000000E+00 -0.20753931018E+04  0.20753931018E+04  0.50400001928E-02 0. -1.
    10030    2    1    2    0    0  0.00000000000E+00  0.00000000000E+00 -0.32175000295E+03  0.38290362006E+04  0.38154940914E+04 0.  0.
        1    1    3    3  502    0 -0.13487757420E+04 -0.68131088428E+03  0.10077830889E+04  0.18163169540E+04  0.50400001928E-02 0.  1.
       -1    1    3    3    0  502  0.13487757420E+04  0.68131088428E+03 -0.13295330918E+04  0.20127192466E+04  0.50400001928E-02 0. -1.
</event>
<event>
 5   0  0.3509843E-07  0.3596322E+04  0.7818609E-02  0.8091335E-01
        2   -1    0    0  501    0  0.00000000000E+00  0.00000000000E+00  0.18630925796E+04  0.18630925796E+04  0.25500000920E-02 0.  1.
       -2   -1    0    0    0  501  0.00000000000E+00  0.00000000000E+00 -0.17354924246E+04  0.17354924246E+04  0.25500000920E-02 0. -1.
    10030    2    1    2    0    0  0.00000000000E+00  0.00000000000E+00  0.12760015508E+03  0.35985850042E+04  0.35963220424E+04 0.  0.
        4    1    3    3  502    0  0.14204743692E+03 -0.49290118665E+03  0.17883265605E+04  0.18604414944E+04  0.12699999809E+01 0.  1.
       -4    1    3    3    0  502 -0.14204743692E+03  0.49290118665E+03 -0.16607264054E+04  0.17381435098E+04  0.12699999809E+01 0. -1.
</event>
<event>
 5   0  0.3509843E-07  0.3803543E+04  0.7818609E-02  0.8045395E-01
       -2   -1    0    0    0  501  0.00000000000E+00  0.00000000000E+00  0.23240493410E+04  0.23240493410E+04  0.25500000920E-02 0. -1.
        2   -1    0    0  501    0  0.00000000000E+00  0.00000000000E+00 -0.15562214326E+04  0.15562214326E+04  0.25500000920E-02 0.  1.
    10030    2    1    2    0    0  0.00000000000E+00  0.00000000000E+00  0.76782790837E+03  0.38802707736E+04  0.38035432927E+04 0.  0.
        4    1    3    3  502    0  0.14060258462E+04  0.83501372920E+03  0.13743629773E+04  0.21361254210E+04  0.12699999809E+01 0. -1.
       -4    1    3    3    0  502 -0.14060258462E+04 -0.83501372920E+03 -0.60653506896E+03  0.17441453525E+04  0.12699999809E+01 0.  1.
</event>
<event>
 5   0  0.1070988E-07  0.3790764E+04  0.7818609E-02  0.8048140E-01
       -1   -1    0    0    0  501  0.00000000000E+00  0.00000000000E+00  0.22168671646E+04  0.22168671646E+04  0.50400001928E-02 0. -1.
        1   -1    0    0  501    0  0.00000000000E+00  0.00000000000E+00 -0.16205182406E+04  0.16205182406E+04  0.50400001928E-02 0.  1.
    10030    2    1    2    0    0  0.00000000000E+00  0.00000000000E+00  0.59634892399E+03  0.38373854052E+04  0.37907643963E+04 0.  0.
        5    1    3    3  502    0 -0.86929392310E+03  0.76512399790E+03  0.18170828304E+04  0.21547386754E+04  0.46999998093E+01 0. -1.
       -5    1    3    3    0  502  0.86929392310E+03 -0.76512399790E+03 -0.12207339064E+04  0.16826467297E+04  0.46999998093E+01 0.  1.
</event>
<event>
 5   0  0.1070988E-07  0.3855530E+04  0.7818609E-02  0.8034342E-01
       -1   -1    0    0    0  501  0.00000000000E+00  0.00000000000E+00  0.17898157091E+04  0.17898157091E+04  0.50400001928E-02 0.  1.
        1   -1    0    0  501    0  0.00000000000E+00  0.00000000000E+00 -0.20763466129E+04  0.20763466129E+04  0.50400001928E-02 0. -1.
    10030    2    1    2    0    0  0.00000000000E+00  0.00000000000E+00 -0.28653090377E+03  0.38661623220E+04  0.38555299430E+04 0.  0.
        3    1    3    3  502    0  0.18227470800E+04  0.49247331546E+02  0.48411601916E+03  0.18865843601E+04  0.10100000352E+00 0. -1.
       -3    1    3    3    0  502 -0.18227470800E+04 -0.49247331546E+02 -0.77064692294E+03  0.19795779620E+04  0.10100000352E+00 0.  1.
</event>
<event>
 5   0  0.1070988E-07  0.3684740E+04  0.7818609E-02  0.8071352E-01
        1   -1    0    0  501    0  0.00000000000E+00  0.00000000000E+00  0.12007238431E+04  0.12007238431E+04  0.50400001928E-02 0.  1.
       -1   -1    0    0    0  501  0.00000000000E+00  0.00000000000E+00 -0.28269003773E+04  0.28269003773E+04  0.50400001928E-02 0. -1.
    10030    2    1    2    0    0  0.00000000000E+00  0.00000000000E+00 -0.16261765342E+04  0.40276242204E+04  0.36847397114E+04 0.  0.
        2    1    3    3  502    0 -0.11681326061E+04 -0.65249596641E+03  0.57127473846E+03  0.14548675535E+04  0.25500000920E-02 0.  1.
       -2    1    3    3    0  502  0.11681326061E+04  0.65249596641E+03 -0.21974512726E+04  0.25727566669E+04  0.25500000920E-02 0. -1.
</event>
<event>
 5   0  0.3509843E-07  0.3742787E+04  0.7818609E-02  0.8058545E-01
        2   -1    0    0  501    0  0.00000000000E+00  0.00000000000E+00  0.22734176627E+04  0.22734176627E+04  0.25500000920E-02 0. -1.
       -2   -1    0    0    0  501  0.00000000000E+00  0.00000000000E+00 -0.15404624492E+04  0.15404624492E+04  0.25500000920E-02 0.  1.
    10030    2    1    2    0    0  0.00000000000E+00  0.00000000000E+00  0.73295521354E+03  0.38138801119E+04  0.37427874857E+04 0.  0.
        4    1    3    3  502    0  0.90669801689E+03 -0.35814875263E+03 -0.12612816474E+04  0.15941156890E+04  0.12699999809E+01 0.  1.
       -4    1    3    3    0  502 -0.90669801689E+03  0.35814875263E+03  0.19942368610E+04  0.22197644230E+04  0.12699999809E+01 0. -1.
</event>
<event>
 5   0  0.1070988E-07  0.3844207E+04  0.7818609E-02  0.8036734E-01
       -1   -1    0    0    0  501  0.00000000000E+00  0.00000000000E+00  0.20237165666E+04  0.20237165666E+04  0.50400001928E-02 0. -1.
        1   -1    0    0  501    0  0.00000000000E+00  0.00000000000E+00 -0.18255928980E+04  0.18255928980E+04  0.50400001928E-02 0.  1.
    10030    2    1    2    0    0  0.00000000000E+00  0.00000000000E+00  0.19812366858E+03  0.38493094646E+04  0.38442073781E+04 0.  0.
        3    1    3    3  502    0 -0.20128756558E+03 -0.98072531541E+03 -0.15438911771E+04  0.18400920644E+04  0.10100000352E+00 0.  1.
       -3    1    3    3    0  502  0.20128756558E+03  0.98072531541E+03  0.17420148457E+04  0.20092174002E+04  0.10100000352E+00 0. -1.
</event>
<event>
 5   0  0.3442126E-07  0.3805208E+04  0.7818609E-02  0.8045038E-01
        2   -1    0    0  501    0  0.00000000000E+00  0.00000000000E+00  0.21471791125E+04  0.21471791125E+04  0.25500000920E-02 0.  1.
       -2   -1    0    0    0  501  0.00000000000E+00  0.00000000000E+00 -0.16858876993E+04  0.16858876993E+04  0.25500000920E-02 0. -1.
    10030    2    1    2    0    0  0.00000000000E+00  0.00000000000E+00  0.46129141317E+03  0.38330668118E+04  0.38052084589E+04 0.  0.
        2    1    3    3  502    0  0.16683965087E+03  0.15794805554E+04  0.12858397217E+04  0.20435210015E+04  0.25500000920E-02 0.  1.
       -2    1    3    3    0  502 -0.16683965087E+03 -0.15794805554E+04 -0.82454830849E+03  0.17895458102E+04  0.25500000920E-02 0. -1.
</event>
<event>
 5   0  0.3509843E-07  0.3514922E+04  0.7818609E-02  0.8110263E-01
       -2   -1    0    0    0  501  0.00000000000E+00  0.00000000000E+00  0.13760144060E+04  0.13760144060E+04  0.25500000920E-02 0.  1.
        2   -1    0    0  501    0  0.00000000000E+00  0.00000000000E+00 -0.22446494557E+04  0.22446494557E+04  0.25500000920E-02 0. -1.
    10030    2    1    2    0    0  0.00000000000E+00  0.00000000000E+00 -0.86863504970E+03  0.36206638617E+04  0.35149224671E+04 0.  0.
        4    1    3    3  502    0 -0.53534783530E+03 -0.88002585630E+03 -0.19011021074E+04  0.21622288612E+04  0.12699999809E+01 0. -1.
       -4    1    3    3    0  502  0.53534783530E+03  0.88002585630E+03  0.10324670577E+04  0.14584350005E+04  0.12699999809E+01 0.  1.
</event>
<event>
 5   0  0.1070988E-07  0.3804459E+04  0.7818609E-02  0.8045199E-01
        1   -1    0    0  501    0  0.00000000000E+00  0.00000000000E+00  0.28338744864E+04  0.28338744864E+04  0.50400001928E-02 0.  1.
       -1   -1    0    0    0  501  0.00000000000E+00  0.00000000000E+00 -0.12768655063E+04  0.12768655063E+04  0.50400001928E-02 0. -1.
    10030    2    1    2    0    0  0.00000000000E+00  0.00000000000E+00  0.15570089802E+04  0.41107399927E+04  0.38044587425E+04 0.  0.
        5    1    3    3  502    0  0.18522287975E+03 -0.16414452549E+04 -0.24073071556E+03  0.16693182463E+04  0.46999998093E+01 0. -1.
       -5    1    3    3    0  502 -0.18522287975E+03  0.16414452549E+04  0.17977396957E+04  0.24414217464E+04  0.46999998093E+01 0.  1.
</event>
<event>
 5   0  0.1070988E-07  0.3820412E+04  0.7818609E-02  0.8041789E-01
       -1   -1    0    0    0  501  0.00000000000E+00  0.00000000000E+00  0.14417618822E+04  0.14417618822E+04  0.50400001928E-02 0. -1.
        1   -1    0    0  501    0  0.00000000000E+00  0.00000000000E+00 -0.25308530400E+04  0.25308530400E+04  0.50400001928E-02 0.  1.
    10030    2    1    2    0    0  0.00000000000E+00  0.00000000000E+00 -0.10890911578E+04  0.39726149222E+04  0.38204122513E+04 0.  0.
        2    1    3    3  502    0  0.10302134448E+04 -0.23937739335E+03  0.11095005914E+04  0.15328512128E+04  0.25500000920E-02 0. -1.
       -2    1    3    3    0  502 -0.10302134448E+04  0.23937739335E+03 -0.21985917492E+04  0.24397637094E+04  0.25500000920E-02 0.  1.
</event>
<event>
 5   0  0.3442126E-07  0.3763908E+04  0.7818609E-02  0.8053945E-01
        2   -1    0    0  501    0  0.00000000000E+00  0.00000000000E+00  0.30028311992E+04  0.30028311992E+04  0.25500000920E-02 0.  1.
       -2   -1    0    0    0  501  0.00000000000E+00  0.00000000000E+00 -0.11794706976E+04  0.11794706976E+04  0.25500000920E-02 0. -1.
    10030    2    1    2    0    0  0.00000000000E+00  0.00000000000E+00  0.18233605016E+04  0.41823018969E+04  0.37639082930E+04 0.  0.
        2    1    3    3  502    0  0.99681878819E+03 -0.10801734285E+04 -0.39426485598E+03  0.15217973284E+04  0.25500000920E-02 0. -1.
       -2    1    3    3    0  502 -0.99681878819E+03  0.10801734285E+04  0.22176253575E+04  0.26605045684E+04  0.25500000920E-02 0.  1.
</event>
<event>
 5   0  0.3327241E-07  0.3795918E+04  0.7818609E-02  0.8047032E-01
       -2   -1    0    0    0  501  0.00000000000E+00  0.00000000000E+00  0.15877133708E+04  0.15877133708E+04  0.25500000920E-02 0. -1.
        2   -1    0    0  501    0  0.00000000000E+00  0.00000000000E+00 -0.22688274053E+04  0.22688274053E+04  0.25500000920E-02 0.  1.
    10030    2    1    2    0    0  0.00000000000E+00  0.00000000000E+00 -0.68111403454E+03  0.38565407760E+04  0.37959176004E+04 0.  0.
        3    1    3    3  502    0  0.15165407267E+04 -0.11366649536E+04 -0.44388979437E+03  0.19465202676E+04  0.10100000352E+00 0. -1.
       -3    1    3    3    0  502 -0.15165407267E+04  0.11366649536E+04 -0.23722424018E+03  0.19100205085E+04  0.10100000352E+00 0.  1.
</event>
<event>
 5   0  0.3377396E-07  0.3917581E+04  0.7818609E-02  0.8021383E-01
        2   -1    0    0  501    0  0.00000000000E+00  0.00000000000E+00  0.35903822075E+04  0.35903822075E+04  0.25500000920E-02 0. -1.
       -2   -1    0    0    0  501  0.00000000000E+00  0.00000000000E+00 -0.10686494071E+04  0.10686494071E+04  0.25500000920E-02 0.  1.
    10030    2    1    2    0    0  0.00000000000E+00  0.00000000000E+00  0.25217328004E+04  0.46590316147E+04  0.39175807931E+04 0.  0.
        5    1    3    3  502    0  0.10406291557E+04  0.13509897315E+04  0.11475091763E+03  0.17091729455E+04  0.46999998093E+01 0. -1.
       -5    1    3    3    0  502 -0.10406291557E+04 -0.13509897315E+04  0.24069818828E+04  0.29498586692E+04  0.46999998093E+01 0.  1.
</event>
<event>
 5   0  0.1070988E-07  0.3829718E+04  0.7818609E-02  0.8039807E-01
       -1   -1    0    0    0  501  0.00000000000E+00  0.00000000000E+00  0.16830022692E+04  0.16830022692E+04  0.50400001928E-02 0.  1.
        1   -1    0    0  501    0  0.00000000000E+00  0.00000000000E+00 -0.21786566691E+04  0.21786566691E+04  0.50400001928E-02 0. -1.
    10030    2    1    2    0    0  0.00000000000E+00  0.00000000000E+00 -0.49565439984E+03  0.38616589383E+04  0.38297175446E+04 0.  0.
        2    1    3    3  502    0  0.15045583294E+04  0.11280503759E+04 -0.61207501189E+03  0.19775816639E+04  0.25500000920E-02 0.  1.
       -2    1    3    3    0  502 -0.15045583294E+04 -0.11280503759E+04  0.11642061206E+03  0.18840772744E+04  0.25500000920E-02 0. -1.
</event>
<event>
 5   0  0.3442126E-07  0.3820565E+04  0.7818609E-02  0.8041756E-01
       -2   -1    0    0    0  501  0.00000000000E+00  0.00000000000E+00  0.16644900356E+04  0.16644900356E+04  0.25500000920E-02 0. -1.
        2   -1    0    0  501    0  0.00000000000E+00  0.00000000000E+00 -0.21923711124E+04  0.21923711124E+04  0.25500000920E-02 0.  1.
    10030    2    1    2    0    0  0.00000000000E+00  0.00000000000E+00 -0.52788107680E+03  0.38568611480E+04  0.38205653356E+04 0.  0.
        2    1    3    3  502    0  0.17473559357E+04 -0.52671160869E+03  0.30578074715E+03  0.18504539308E+04  0.25500000920E-02 0. -1.
       -2    1    3    3    0  502 -0.17473559357E+04  0.52671160869E+03 -0.83366182395E+03  0.20064072172E+04  0.25500000920E-02 0.  1.
</event>
<event>
 5   0  0.1070988E-07  0.3700023E+04  0.7818609E-02  0.8067957E-01
        1   -1    0    0  501    0  0.00000000000E+00  0.00000000000E+00  0.24619637275E+04  0.24619637275E+04  0.50400001928E-02 0. -1.
       -1   -1    0    0    0  501  0.00000000000E+00  0.00000000000E+00 -0.13901679060E+04  0.13901679060E+04  0.50400001928E-02 0.  1.
    10030    2    1    2    0    0  0.00000000000E+00  0.00000000000E+00  0.10717958215E+04  0.38521316336E+04  0.37000232215E+04 0.  0.
        2    1    3    3  502    0  0.12541047941E+04 -0.11023714939E+04  0.13652264053E+04  0.21568135948E+04  0.25500000920E-02 0. -1.
       -2    1    3    3    0  502 -0.12541047941E+04  0.11023714939E+04 -0.29343058384E+03  0.16953180388E+04  0.25500000920E-02 0.  1.
</event>
<event>
 5   0  0.3377396E-07  0.3822815E+04  0.7818609E-02  0.8041276E-01
       -2   -1    0    0    0  501  0.00000000000E+00  0.00000000000E+00  0.12847908083E+04  0.12847908083E+04  0.25500000920E-02 0. -1.
        2   -1    0    0  501    0  0.00000000000E+00  0.00000000000E+00 -0.28436376283E+04  0.28436376283E+04  0.25500000920E-02 0.  1.
    10030    2    1    2    0    0  0.00000000000E+00  0.00000000000E+00 -0.15588468200E+04  0.41284284367E+04  0.38228154478E+04 0.  0.
        5    1    3    3  502    0  0.52795944515E+03 -0.12871997331E+04 -0.21948648549E+04  0.25986685341E+04  0.46999998093E+01 0.  1.
       -5    1    3    3    0  502 -0.52795944515E+03  0.12871997331E+04  0.63601803490E+03  0.15297599026E+04  0.46999998093E+01 0. -1.
</event>
<event>
 5   0  0.1085771E-07  0.3606480E+04  0.7818609E-02  0.8089009E-01
        1   -1    0    0  501    0  0.00000000000E+00  0.00000000000E+00  0.27410914162E+04  0.27410914162E+04  0.50400001928E-02 0.  1.
       -1   -1    0    0    0  501  0.00000000000E+00  0.00000000000E+00 -0.11862697586E+04  0.11862697586E+04  0.50400001928E-02 0. -1.
    10030    2    1    2    0    0  0.00000000000E+00  0.00000000000E+00  0.15548216576E+04  0.39273611748E+04  0.36064796423E+04 0.  0.
        1    1    3    3  502    0  0.88303639607E+03 -0.41967194025E+03  0.24274110729E+04  0.26169070162E+04  0.50400001928E-02 0.  1.
       -1    1    3    3    0  502 -0.88303639607E+03  0.41967194025E+03 -0.87258941530E+03  0.13104541587E+04  0.50400001928E-02 0. -1.
</event>
<event>
 5   0  0.1084315E-07  0.3833527E+04  0.7818609E-02  0.8038998E-01
       -1   -1    0    0    0  501  0.00000000000E+00  0.00000000000E+00  0.30214420270E+04  0.30214420270E+04  0.50400001928E-02 0. -1.
        1   -1    0    0  501    0  0.00000000000E+00  0.00000000000E+00 -0.12159695417E+04  0.12159695417E+04  0.50400001928E-02 0.  1.
    10030    2    1    2    0    0  0.00000000000E+00  0.00000000000E+00  0.18054724853E+04  0.42374115687E+04  0.38335265627E+04 0.  0.
        4    1    3    3  502    0  0.49139865573E+03 -0.55311318067E+03 -0.10517672914E+04  0.12859326879E+04  0.12699999809E+01 0.  1.
       -4    1    3    3    0  502 -0.49139865573E+03  0.55311318067E+03  0.28572397767E+04  0.29514788808E+04  0.12699999809E+01 0. -1.
</event>
<event>
 5   0  0.1085771E-07  0.3769788E+04  0.7818609E-02  0.8052669E-01
        1   -1    0    0  501    0  0.00000000000E+00  0.00000000000E+00  0.31308968555E+04  0.31308968555E+04  0.50400001928E-02 0.  1.
       -1   -1    0    0    0  501  0.00000000000E+00  0.00000000000E+00 -0.11347630602E+04  0.11347630602E+04  0.50400001928E-02 0. -1.
    10030    2    1    2    0    0  0.00000000000E+00  0.00000000000E+00  0.19961337953E+04  0.42656599158E+04  0.37697883745E+04 0.  0.
        1    1    3    3  502    0 -0.16958731651E+04 -0.48910218726E+03  0.24952257953E+03  0.17825454438E+04  0.50400001928E-02 0.  1.
       -1    1    3    3    0  502  0.16958731651E+04  0.48910218726E+03  0.17466112158E+04  0.24831144719E+04  0.50400001928E-02 0. -1.
</event>
<event>
 5   0  0.3377396E-07  0.3207628E+04  0.7818609E-02  0.8186806E-01
        2   -1    0    0  501    0  0.00000000000E+00  0.00000000000E+00  0.97665500453E+03  0.97665500454E+03  0.25500000920E-02 0. -1.
       -2   -1    0    0    0  501  0.00000000000E+00  0.00000000000E+00 -0.26337023291E+04  0.26337023291E+04  0.25500000920E-02 0.  1.
    10030    2    1    2    0    0  0.00000000000E+00  0.00000000000E+00 -0.16570473246E+04  0.36103573337E+04  0.32076275097E+04 0.  0.
        5    1    3    3  502    0  0.28994886679E+03 -0.10540376219E+04  0.49232742203E+03  0.11989470523E+04  0.46999998093E+01 0. -1.
       -5    1    3    3    0  502 -0.28994886679E+03  0.10540376219E+04 -0.21493747466E+04  0.24114102814E+04  0.46999998093E+01 0.  1.
</event>
<event>
 5   0  0.1070988E-07  0.3769890E+04  0.7818609E-02  0.8052647E-01
       -1   -1    0    0    0  501  0.00000000000E+00  0.00000000000E+00  0.17592427265E+04  0.17592427265E+04  0.50400001928E-02 0.  1.
        1   -1    0    0  501    0  0.00000000000E+00  0.00000000000E+00 -0.20196294970E+04  0.20196294970E+04  0.50400001928E-02 0. -1.
    10030    2    1    2    0    0  0.00000000000E+00  0.00000000000E+00 -0.26038677051E+03  0.37788722236E+04  0.37698904509E+04 0.  0.
        5    1    3    3  502    0 -0.29595026729E+03 -0.17027284367E+04 -0.88439927766E+03  0.19414053833E+04  0.46999998093E+01 0. -1.
       -5    1    3    3    0  502  0.29595026729E+03  0.17027284367E+04  0.62401250715E+03  0.18374668403E+04  0.46999998093E+01 0.  1.
</event>
<event>
 5   0  0.1070988E-07  0.3819340E+04  0.7818609E-02  0.8042017E-01
       -1   -1    0    0    0  501  0.00000000000E+00  0.00000000000E+00  0.20885970868E+04  0.20885970869E+04  0.50400001928E-02 0. -1.
        1   -1    0    0  501    0  0.00000000000E+00  0.00000000000E+00 -0.17460710486E+04  0.17460710486E+04  0.50400001928E-02 0.  1.
    10030    2    1    2    0    0  0.00000000000E+00  0.00000000000E+00  0.34252603826E+03  0.38346681354E+04  0.38193396840E+04 0.  0.
        3    1    3    3  502    0  0.16753991880E+04 -0.73753018470E+03 -0.37491073739E+03  0.18685479078E+04  0.10100000352E+00 0.  1.
       -3    1    3    3    0  502 -0.16753991880E+04  0.73753018470E+03  0.71743677565E+03  0.19661202277E+04  0.10100000352E+00 0. -1.
</event>
<event>
 5   0  0.3539010E-07  0.3774837E+04  0.7818609E-02  0.8051576E-01
        2   -1    0    0  501    0  0.00000000000E+00  0.00000000000E+00  0.23718988695E+04  0.23718988695E+04  0.25500000920E-02 0. -1.
       -2   -1    0    0    0  501  0.00000000000E+00  0.00000000000E+00 -0.15018975821E+04  0.15018975821E+04  0.25500000920E-02 0.  1.
    10030    2    1    2    0    0  0.00000000000E+00  0.00000000000E+00  0.87000128734E+03  0.38737964516E+04  0.37748373089E+04 0.  0.
        1    1    3    3  502    0 -0.23001307950E+03 -0.12916348888E+04 -0.95745028108E+03  0.16241729414E+04  0.50400001928E-02 0.  1.
       -1    1    3    3    0  502  0.23001307950E+03  0.12916348888E+04  0.18274515684E+04  0.22496235102E+04  0.50400001928E-02 0. -1.
</event>
<event>
 5   0  0.1070988E-07  0.3137787E+04  0.7818609E-02  0.8205443E-01
        1   -1    0    0  501    0  0.00000000000E+00  0.00000000000E+00  0.17817331494E+04  0.17817331494E+04  0.50400001928E-02 0.  1.
       -1   -1    0    0    0  501  0.00000000000E+00  0.00000000000E+00 -0.13814792815E+04  0.13814792815E+04  0.50400001928E-02 0. -1.
    10030    2    1    2    0    0  0.00000000000E+00  0.00000000000E+00  0.40025386793E+03  0.31632124309E+04  0.31377873931E+04 0.  0.
        3    1    3    3  502    0  0.12862491042E+04  0.89663310338E+03  0.14454634788E+03  0.15745733825E+04  0.10100000352E+00 0.  1.
       -3    1    3    3    0  502 -0.12862491042E+04 -0.89663310338E+03  0.25570752005E+03  0.15886390484E+04  0.10100000352E+00 0. -1.
</event>
<event>
 5   0  0.3327241E-07  0.3842270E+04  0.7818609E-02  0.8037144E-01
       -2   -1    0    0    0  501  0.00000000000E+00  0.00000000000E+00  0.28282870599E+04  0.28282870599E+04  0.25500000920E-02 0.  1.
        2   -1    0    0  501    0  0.00000000000E+00  0.00000000000E+00 -0.13049451720E+04  0.13049451720E+04  0.25500000920E-02 0. -1.
    10030    2    1    2    0    0  0.00000000000E+00  0.00000000000E+00  0.15233418879E+04  0.41332322319E+04  0.38422699249E+04 0.  0.
        3    1    3    3  502    0  0.94197264443E+03  0.66286193425E+03 -0.89231299102E+03  0.14570246706E+04  0.10100000352E+00 0. -1.
       -3    1    3    3    0  502 -0.94197264443E+03 -0.66286193425E+03  0.24156548790E+04  0.26762075613E+04  0.10100000352E+00 0.  1.
</event>
<event>
 5   0  0.1070988E-07  0.3473743E+04  0.7818609E-02  0.8120041E-01
       -1   -1    0    0    0  501  0.00000000000E+00  0.00000000000E+00  0.19526711671E+04  0.19526711671E+04  0.50400001928E-02 0.  1.
        1   -1    0    0  501    0  0.00000000000E+00  0.00000000000E+00 -0.15449208443E+04  0.15449208443E+04  0.50400001928E-02 0. -1.
    10030    2    1    2    0    0  0.00000000000E+00  0.00000000000E+00  0.40775032276E+03  0.34975920114E+04  0.34737428737E+04 0.  0.
        3    1    3    3  502    0  0.58867451619E+02 -0.90583693142E+01  0.19516426376E+04  0.19525512608E+04  0.10100000352E+00 0.  1.
       -3    1    3    3    0  502 -0.58867451619E+02  0.90583693142E+01 -0.15438923149E+04  0.15450407506E+04  0.10100000352E+00 0. -1.
</event>
<event>
 5   0  0.1085771E-07  0.3793362E+04  0.7818609E-02  0.8047581E-01
        1   -1    0    0  501    0  0.00000000000E+00  0.00000000000E+00  0.22024419256E+04  0.22024419256E+04  0.50400001928E-02 0. -1.
       -1   -1    0    0    0  501  0.00000000000E+00  0.00000000000E+00 -0.16333682309E+04  0.16333682309E+04  0.50400001928E-02 0.  1.
    10030    2    1    2    0    0  0.00000000000E+00  0.00000000000E+00  0.56907369464E+03  0.38358101565E+04  0.37933619241E+04 0.  0.
        1    1    3    3  502    0 -0.69660535902E+03 -0.15740680571E+04  0.10899733694E+04  0.20373981498E+04  0.50400001928E-02 0.  1.
       -1    1    3    3    0  502  0.69660535902E+03  0.15740680571E+04 -0.52089967477E+03  0.17984120067E+04  0.50400001928E-02 0. -1.
</event>
<event>
 5   0  0.3539010E-07  0.3601293E+04  0.7818609E-02  0.8090196E-01
        2   -1    0    0  501    0  0.00000000000E+00  0.00000000000E+00  0.14956846679E+04  0.14956846679E+04  0.25500000920E-02 0.  1.
       -2   -1    0    0    0  501  0.00000000000E+00  0.00000000000E+00 -0.21677882534E+04  0.21677882534E+04  0.25500000920E-02 0. -1.
    10030    2    1    2    0    0  0.00000000000E+00  0.00000000000E+00 -0.67210358546E+03  0.36634729213E+04  0.36012929089E+04 0.  0.
        1    1    3    3  502    0 -0.85304766217E+03 -0.79181898082E+03 -0.17336953640E+04  0.20881492350E+04  0.50400001928E-02 0. -1.
       -1    1    3    3    0  502  0.85304766217E+03  0.79181898082E+03  0.10615917786E+04  0.15753236863E+04  0.50400001928E-02 0.  1.
</event>
<event>
 5   0  0.1070988E-07  0.3823326E+04  0.7818609E-02  0.8041168E-01
       -1   -1    0    0    0  501  0.00000000000E+00  0.00000000000E+00  0.24574693774E+04  0.24574693774E+04  0.50400001928E-02 0. -1.
        1   -1    0    0  501    0  0.00000000000E+00  0.00000000000E+00 -0.14870807989E+04  0.14870807989E+04  0.50400001928E-02 0.  1.
    10030    2    1    2    0    0  0.00000000000E+00  0.00000000000E+00  0.97038857846E+03  0.39445501763E+04  0.38233260520E+04 0.  0.
        3    1    3    3  502    0  0.12080280246E+04 -0.46170352668E+03  0.19376499943E+04  0.23295899565E+04  0.10100000352E+00 0. -1.
       -3    1    3    3    0  502 -0.12080280246E+04  0.46170352668E+03 -0.96726141580E+03  0.16149602198E+04  0.10100000352E+00 0.  1.
</event>
<event>
 5   0  0.1070988E-07  0.3717885E+04  0.7818609E-02  0.8064010E-01
       -1   -1    0    0    0  501  0.00000000000E+00  0.00000000000E+00  0.19015408639E+04  0.19015408639E+04  0.50400001928E-02 0. -1.
        1   -1    0    0  501    0  0.00000000000E+00  0.00000000000E+00 -0.18172980274E+04  0.18172980274E+04  0.50400001928E-02 0.  1.
    10030    2    1    2    0    0  0.00000000000E+00  0.00000000000E+00  0.84242836502E+02  0.37188388913E+04  0.37178845926E+04 0.  0.
        3    1    3    3  502    0 -0.10567334417E+03 -0.17808041312E+03  0.18899685873E+04  0.19012787172E+04  0.10100000352E+00 0. -1.
       -3    1    3    3    0  502  0.10567334417E+03  0.17808041312E+03 -0.18057257508E+04  0.18175601741E+04  0.10100000352E+00 0.  1.
</event>
<event>
 5   0  0.3327241E-07  0.3997609E+04  0.7818609E-02  0.8005029E-01
        2   -1    0    0  501    0  0.00000000000E+00  0.00000000000E+00  0.12639841411E+04  0.12639841411E+04  0.25500000920E-02 0.  1.
       -2   -1    0    0    0  501  0.00000000000E+00  0.00000000000E+00 -0.31608145026E+04  0.31608145026E+04  0.25500000920E-02 0. -1.
    10030    2    1    2    0    0  0.00000000000E+00  0.00000000000E+00 -0.18968303615E+04  0.44247986437E+04  0.39976089876E+04 0.  0.
        3    1    3    3  502    0  0.36979556774E+02 -0.42577994944E+02  0.12631033786E+04  0.12643617079E+04  0.10100000352E+00 0.  1.
       -3    1    3    3    0  502 -0.36979556774E+02  0.42577994944E+02 -0.31599337401E+04  0.31604369358E+04  0.10100000352E+00 0. -1.
</event>
<event>
 5   0  0.3377396E-07  0.3750317E+04  0.7818609E-02  0.8056902E-01
       -2   -1    0    0    0  501  0.00000000000E+00  0.00000000000E+00  0.11754458188E+04  0.11754458188E+04  0.25500000920E-02 0.  1.
        2   -1    0    0  501    0  0.00000000000E+00  0.00000000000E+00 -0.29913924822E+04  0.29913924822E+04  0.25500000920E-02 0. -1.
    10030    2    1    2    0    0  0.00000000000E+00  0.00000000000E+00 -0.18159466634E+04  0.41668383011E+04  0.37503172056E+04 0.  0.
        5    1    3    3  502    0  0.76939711909E+03 -0.15435557311E+04 -0.90257099947E+02  0.17270508551E+04  0.46999998093E+01 0.  1.
       -5    1    3    3    0  502 -0.76939711909E+03  0.15435557311E+04 -0.17256895635E+04  0.24397874460E+04  0.46999998093E+01 0. -1.
</event>
<event>
 5   0  0.3442126E-07  0.3808506E+04  0.7818609E-02  0.8044332E-01
        2   -1    0    0  501    0  0.00000000000E+00  0.00000000000E+00  0.20230351849E+04  0.20230351849E+04  0.25500000920E-02 0.  1.
       -2   -1    0    0    0  501  0.00000000000E+00  0.00000000000E+00 -0.17924450403E+04  0.17924450403E+04  0.25500000920E-02 0. -1.
    10030    2    1    2    0    0  0.00000000000E+00  0.00000000000E+00  0.23059014458E+03  0.38154802252E+04  0.38085059452E+04 0.  0.
        2    1    3    3  502    0  0.72894796656E+03 -0.49085591873E+03 -0.15771400164E+04  0.18054570896E+04  0.25500000920E-02 0. -1.
       -2    1    3    3    0  502 -0.72894796656E+03  0.49085591873E+03  0.18077301610E+04  0.20100231357E+04  0.25500000920E-02 0.  1.
</event>
<event>
 5   0  0.3442126E-07  0.3740014E+04  0.7818609E-02  0.8059152E-01
       -2   -1    0    0    0  501  0.00000000000E+00  0.00000000000E+00  0.28962018826E+04  0.28962018826E+04  0.25500000920E-02 0. -1.
        2   -1    0    0  501    0  0.00000000000E+00  0.00000000000E+00 -0.12074179286E+04  0.12074179286E+04  0.25500000920E-02 0.  1.
    10030    2    1    2    0    0  0.00000000000E+00  0.00000000000E+00  0.16887839540E+04  0.41036198112E+04  0.37400139453E+04 0.  0.
        2    1    3    3  502    0  0.18504089518E+03  0.12916474851E+04  0.23141484599E+04  0.26566664174E+04  0.25500000920E-02 0. -1.
       -2    1    3    3    0  502 -0.18504089518E+03 -0.12916474851E+04 -0.62536450589E+03  0.14469533938E+04  0.25500000920E-02 0.  1.
</event>
<event>
 5   0  0.3327241E-07  0.3492592E+04  0.7818609E-02  0.8115548E-01
       -2   -1    0    0    0  501  0.00000000000E+00  0.00000000000E+00  0.13169966154E+04  0.13169966154E+04  0.25500000920E-02 0. -1.
        2   -1    0    0  501    0  0.00000000000E+00  0.00000000000E+00 -0.23155328210E+04  0.23155328211E+04  0.25500000920E-02 0.  1.
    10030    2    1    2    0    0  0.00000000000E+00  0.00000000000E+00 -0.99853620568E+03  0.36325294364E+04  0.34925915238E+04 0.  0.
        3    1    3    3  502    0 -0.61334315024E+03 -0.85528886014E+03  0.95006452977E+03  0.14178615853E+04  0.10100000352E+00 0. -1.
       -3    1    3    3    0  502  0.61334315024E+03  0.85528886014E+03 -0.19486007355E+04  0.22146678511E+04  0.10100000352E+00 0.  1.
</event>
<event>
 5   0  0.1070988E-07  0.3710993E+04  0.7818609E-02  0.8065530E-01
       -1   -1    0    0    0  501  0.00000000000E+00  0.00000000000E+00  0.16280003316E+04  0.16280003316E+04  0.50400001928E-02 0.  1.
        1   -1    0    0  501    0  0.00000000000E+00  0.00000000000E+00 -0.21147824386E+04  0.21147824386E+04  0.50400001928E-02 0. -1.
    10030    2    1    2    0    0  0.00000000000E+00  0.00000000000E+00 -0.48678210697E+03  0.37427827702E+04  0.37109925956E+04 0.  0.
        2    1    3    3  502    0 -0.34557528082E+03  0.17601564475E+04 -0.72210808717E+03  0.19336527827E+04  0.25500000920E-02 0. -1.
       -2    1    3    3    0  502  0.34557528082E+03 -0.17601564475E+04  0.23532598020E+03  0.18091299874E+04  0.25500000920E-02 0.  1.
</event>
<event>
 5   0  0.3539010E-07  0.3797396E+04  0.7818609E-02  0.8046714E-01
       -2   -1    0    0    0  501  0.00000000000E+00  0.00000000000E+00  0.24042852889E+04  0.24042852889E+04  0.25500000920E-02 0.  1.
        2   -1    0    0  501    0  0.00000000000E+00  0.00000000000E+00 -0.14994282629E+04  0.14994282629E+04  0.25500000920E-02 0. -1.
    10030    2    1    2    0    0  0.00000000000E+00  0.00000000000E+00  0.90485702605E+03  0.39037135518E+04  0.37973955887E+04 0.  0.
        1    1    3    3  502    0 -0.36221507505E+03  0.42361680768E+03  0.23182943823E+04  0.23843531205E+04  0.50400001928E-02 0.  1.
       -1    1    3    3    0  502  0.36221507505E+03 -0.42361680768E+03 -0.14134373562E+04  0.15193604313E+04  0.50400001928E-02 0. -1.
</event>
<event>
 5   0  0.1070988E-07  0.3651430E+04  0.7818609E-02  0.8078811E-01
        1   -1    0    0  501    0  0.00000000000E+00  0.00000000000E+00  0.21509944963E+04  0.21509944963E+04  0.50400001928E-02 0.  1.
       -1   -1    0    0    0  501  0.00000000000E+00  0.00000000000E+00 -0.15496254795E+04  0.15496254795E+04  0.50400001928E-02 0. -1.
    10030    2    1    2    0    0  0.00000000000E+00  0.00000000000E+00  0.60136901682E+03  0.37006199758E+04  0.36514303377E+04 0.  0.
        3    1    3    3  502    0 -0.18145610427E+04  0.19237245579E+03  0.23990217638E+03  0.18404325589E+04  0.10100000352E+00 0.  1.
       -3    1    3    3    0  502  0.18145610427E+04 -0.19237245579E+03  0.36146684044E+03  0.18601874170E+04  0.10100000352E+00 0. -1.
</event>
<event>
 5   0  0.1070988E-07  0.3507713E+04  0.7818609E-02  0.8111965E-01
        1   -1    0    0  501    0  0.00000000000E+00  0.00000000000E+00  0.10790336237E+04  0.10790336237E+04  0.50400001928E-02 0.  1.
       -1   -1    0    0    0  501  0.00000000000E+00  0.00000000000E+00 -0.28507101313E+04  0.28507101313E+04  0.50400001928E-02 0. -1.
    10030    2    1    2    0    0  0.00000000000E+00  0.00000000000E+00 -0.17716765076E+04  0.39297437550E+04  0.35077126925E+04 0.  0.
        3    1    3    3  502    0 -0.13633298906E+04 -0.46085158420E+03 -0.20089280931E+04  0.24712030808E+04  0.10100000352E+00 0. -1.
       -3    1    3    3    0  502  0.13633298906E+04  0.46085158420E+03  0.23725158552E+03  0.14585406742E+04  0.10100000352E+00 0.  1.
</event>
<event>
 5   0  0.1084315E-07  0.3813033E+04  0.7818609E-02  0.8043364E-01
        1   -1    0    0  501    0  0.00000000000E+00  0.00000000000E+00  0.24188735062E+04  0.24188735062E+04  0.50400001928E-02 0.  1.
       -1   -1    0    0    0  501  0.00000000000E+00  0.00000000000E+00 -0.15026847394E+04  0.15026847394E+04  0.50400001928E-02 0. -1.
    10030    2    1    2    0    0  0.00000000000E+00  0.00000000000E+00  0.91618876686E+03  0.39215582456E+04  0.38130325486E+04 0.  0.
        4    1    3    3  502    0 -0.62470742203E+03 -0.15193479241E+03  0.23040211677E+04  0.23920406975E+04  0.12699999809E+01 0.  1.
       -4    1    3    3    0  502  0.62470742203E+03  0.15193479241E+03 -0.13878324008E+04  0.15295175481E+04  0.12699999809E+01 0. -1.
</event>
<event>
 5   0  0.3509843E-07  0.3814614E+04  0.7818609E-02  0.8043026E-01
       -2   -1    0    0    0  501  0.00000000000E+00  0.00000000000E+00  0.12719079302E+04  0.12719079302E+04  0.25500000920E-02 0.  1.
        2   -1    0    0  501    0  0.00000000000E+00  0.00000000000E+00 -0.28601281839E+04  0.28601281839E+04  0.25500000920E-02 0. -1.
    10030    2    1    2    0    0  0.00000000000E+00  0.00000000000E+00 -0.15882202537E+04  0.41320361141E+04  0.38146138564E+04 0.  0.
        4    1    3    3  502    0 -0.70782437193E+03 -0.85660805475E+03  0.88505229930E+03  0.14206026490E+04  0.12699999809E+01 0.  1.
       -4    1    3    3    0  502  0.70782437193E+03  0.85660805475E+03 -0.24732725530E+04  0.27114334651E+04  0.12699999809E+01 0. -1.
</event>
<event>
 5   0  0.1070988E-07  0.3115051E+04  0.7818609E-02  0.8211619E-01
       -1   -1    0    0    0  501  0.00000000000E+00  0.00000000000E+00  0.11147437979E+04  0.11147437979E+04  0.50400001928E-02 0.  1.
        1   -1    0    0  501    0  0.00000000000E+00  0.00000000000E+00 -0.21761829214E+04  0.21761829214E+04  0.50400001928E-02 0. -1.
    10030    2    1    2    0    0  0.00000000000E+00  0.00000000000E+00 -0.10614391235E+04  0.32909267193E+04  0.31150514697E+04 0.  0.
        3    1    3    3  502    0  0.13800978062E+04  0.67477475326E+03 -0.80191401660E+03  0.17329330692E+04  0.10100000352E+00 0.  1.
       -3    1    3    3    0  502 -0.13800978062E+04 -0.67477475326E+03 -0.25952510690E+03  0.15579936501E+04  0.10100000352E+00 0. -1.
</event>
<event>
 5   0  0.3377396E-07  0.3867347E+04  0.7818609E-02  0.8031855E-01
        2   -1    0    0  501    0  0.00000000000E+00  0.00000000000E+00  0.18496641091E+04  0.18496641091E+04  0.25500000920E-02 0. -1.
       -2   -1    0    0    0  501  0.00000000000E+00  0.00000000000E+00 -0.20214989771E+04  0.20214989771E+04  0.25500000920E-02 0.  1.
    10030    2    1    2    0    0  0.00000000000E+00  0.00000000000E+00 -0.17183486795E+03  0.38711630862E+04  0.38673474654E+04 0.  0.
        5    1    3    3  502    0 -0.95764672256E+03 -0.15485835219E+04  0.56578086004E+03  0.19066536763E+04  0.46999998093E+01 0. -1.
       -5    1    3    3    0  502  0.95764672256E+03  0.15485835219E+04 -0.73761572799E+03  0.19645094100E+04  0.46999998093E+01 0.  1.
</event>
<event>
 5   0  0.1070988E-07  0.3831768E+04  0.7818609E-02  0.8039372E-01
       -1   -1    0    0    0  501  0.00000000000E+00  0.00000000000E+00  0.19458661403E+04  0.19458661403E+04  0.50400001928E-02 0. -1.
        1   -1    0    0  501    0  0.00000000000E+00  0.00000000000E+00 -0.18863637695E+04  0.18863637695E+04  0.50400001928E-02 0.  1.
    10030    2    1    2    0    0  0.00000000000E+00  0.00000000000E+00  0.59502370787E+02  0.38322299098E+04  0.38317679404E+04 0.  0.
        3    1    3    3  502    0  0.12111267849E+04 -0.20044238941E+03 -0.14413463197E+04  0.18932734784E+04  0.10100000352E+00 0.  1.
       -3    1    3    3    0  502 -0.12111267849E+04  0.20044238941E+03  0.15008486905E+04  0.19389564313E+04  0.10100000352E+00 0. -1.
</event>
<event>
 5   0  0.3539010E-07  0.3792675E+04  0.7818609E-02  0.8047729E-01
       -2   -1    0    0    0  501  0.00000000000E+00  0.00000000000E+00  0.15121055806E+04  0.15121055806E+04  0.25500000920E-02 0. -1.
        2   -1    0    0  501    0  0.00000000000E+00  0.00000000000E+00 -0.23782045881E+04  0.23782045881E+04  0.25500000920E-02 0.  1.
    10030    2    1    2    0    0  0.00000000000E+00  0.00000000000E+00 -0.86609900754E+03  0.38903101687E+04  0.37926752719E+04 0.  0.
        1    1    3    3  502    0  0.77341095177E+03 -0.15896261191E+04  0.27092767263E+03  0.17884287804E+04  0.50400001928E-02 0. -1.
       -1    1    3    3    0  502 -0.77341095177E+03  0.15896261191E+04 -0.11370266802E+04  0.21018813883E+04  0.50400001928E-02 0.  1.
</event>
<event>
 5   0  0.1070988E-07  0.3822292E+04  0.7818609E-02  0.8041388E-01
        1   -1    0    0  501    0  0.00000000000E+00  0.00000000000E+00  0.26864940320E+04  0.26864940320E+04  0.50400001928E-02 0.  1.
       -1   -1    0    0    0  501  0.00000000000E+00  0.00000000000E+00 -0.13595707562E+04  0.13595707562E+04  0.50400001928E-02 0. -1.
    10030    2    1    2    0    0  0.00000000000E+00  0.00000000000E+00  0.13269232757E+04  0.40460647882E+04  0.38222918375E+04 0.  0.
        3    1    3    3  502    0 -0.79913346872E+03  0.20527276727E+03 -0.11613308378E+04  0.14245843375E+04  0.10100000352E+00 0. -1.
       -3    1    3    3    0  502  0.79913346872E+03 -0.20527276727E+03  0.24882541135E+04  0.26214804507E+04  0.10100000352E+00 0.  1.
</event>
<event>
 5   0  0.3377396E-07  0.3648487E+04  0.7818609E-02  0.8079475E-01
        2   -1    0    0  501    0  0.00000000000E+00  0.00000000000E+00  0.22595495555E+04  0.22595495555E+04  0.25500000920E-02 0. -1.
       -2   -1    0    0    0  501  0.00000000000E+00  0.00000000000E+00 -0.14728000796E+04  0.14728000796E+04  0.25500000920E-02 0.  1.
    10030    2    1    2    0    0  0.00000000000E+00  0.00000000000E+00  0.78674947589E+03  0.37323496352E+04  0.36484872292E+04 0.  0.
        5    1    3    3  502    0  0.85400651516E+03  0.60772749545E+03 -0.11339885073E+04  0.15442188515E+04  0.46999998093E+01 0.  1.
       -5    1    3    3    0  502 -0.85400651516E+03 -0.60772749545E+03  0.19207379832E+04  0.21881307837E+04  0.46999998093E+01 0. -1.
</event>
<event>
 5   0  0.3327241E-07  0.3833523E+04  0.7818609E-02  0.8038999E-01
        2   -1    0    0  501    0  0.00000000000E+00  0.00000000000E+00  0.18522758472E+04  0.18522758472E+04  0.25500000920E-02 0.  1.
       -2   -1    0    0    0  501  0.00000000000E+00  0.00000000000E+00 -0.19834923470E+04  0.19834923470E+04  0.25500000920E-02 0. -1.
    10030    2    1    2    0    0  0.00000000000E+00  0.00000000000E+00 -0.13121649981E+03  0.38357681942E+04  0.38335231667E+04 0.  0.
        3    1    3    3  502    0 -0.65384636470E+03  0.14701563500E+04  0.97668321725E+03  0.18822287000E+04  0.10100000352E+00 0.  1.
       -3    1    3    3    0  502  0.65384636470E+03 -0.14701563500E+04 -0.11078997171E+04  0.19535394942E+04  0.10100000352E+00 0. -1.
</event>
<event>
 5   0  0.3327241E-07  0.3792080E+04  0.7818609E-02  0.8047857E-01
        2   -1    0    0  501    0  0.00000000000E+00  0.00000000000E+00  0.13354510951E+04  0.13354510951E+04  0.25500000920E-02 0. -1.
       -2   -1    0    0    0  501  0.00000000000E+00  0.00000000000E+00 -0.26919505628E+04  0.26919505628E+04  0.25500000920E-02 0.  1.
    10030    2    1    2    0    0  0.00000000000E+00  0.00000000000E+00 -0.13564994677E+04  0.40274016578E+04  0.37920803404E+04 0.  0.
        3    1    3    3  502    0 -0.12999995234E+04  0.76039149094E+03 -0.19015862680E+04  0.24257420154E+04  0.10100000352E+00 0.  1.
       -3    1    3    3    0  502  0.12999995234E+04 -0.76039149094E+03  0.54508680030E+03  0.16016596425E+04  0.10100000352E+00 0. -1.
</event>
<event>
 5   0  0.1085771E-07  0.3809647E+04  0.7818609E-02  0.8044088E-01
        1   -1    0    0  501    0  0.00000000000E+00  0.00000000000E+00  0.19520546161E+04  0.19520546162E+04  0.50400001928E-02 0. -1.
       -1   -1    0    0    0  501  0.00000000000E+00  0.00000000000E+00 -0.18587355098E+04  0.18587355098E+04  0.50400001928E-02 0.  1.
    10030    2    1    2    0    0  0.00000000000E+00  0.00000000000E+00  0.93319106345E+02  0.38107901260E+04  0.38096473496E+04 0.  0.
        1    1    3    3  502    0 -0.18781333620E+04  0.28745438881E+03  0.18211908435E+03  0.19087122130E+04  0.50400001928E-02 0. -1.
       -1    1    3    3    0  502  0.18781333620E+04 -0.28745438881E+03 -0.88799978002E+02  0.19020779130E+04  0.50400001928E-02 0.  1.
</event>
<event>
 5   0  0.1084315E-07  0.3477873E+04  0.7818609E-02  0.8119054E-01
        1   -1    0    0  501    0  0.00000000000E+00  0.00000000000E+00  0.11689190163E+04  0.11689190163E+04  0.50400001928E-02 0.  1.
       -1   -1    0    0    0  501  0.00000000000E+00  0.00000000000E+00 -0.25869200857E+04  0.25869200857E+04  0.50400001928E-02 0. -1.
    10030    2    1    2    0    0  0.00000000000E+00  0.00000000000E+00 -0.14180010695E+04  0.37558391020E+04  0.34778729602E+04 0.  0.
        4    1    3    3  502    0  0.43199040150E+03  0.41756791261E+02  0.11094901790E+04  0.11913561209E+04  0.12699999809E+01 0.  1.
       -4    1    3    3    0  502 -0.43199040150E+03 -0.41756791261E+02 -0.25274912485E+04  0.25644829811E+04  0.12699999809E+01 0. -1.
</event>
<event>
 5   0  0.1085771E-07  0.3837310E+04  0.7818609E-02  0.8038195E-01
       -1   -1    0    0    0  501  0.00000000000E+00  0.00000000000E+00  0.26352485894E+04  0.26352485894E+04  0.50400001928E-02 0. -1.
        1   -1    0    0  501    0  0.00000000000E+00  0.00000000000E+00 -0.13969217531E+04  0.13969217532E+04  0.50400001928E-02 0.  1.
    10030    2    1    2    0    0  0.00000000000E+00  0.00000000000E+00  0.12383268362E+04  0.40321703425E+04  0.38373095155E+04 0.  0.
        1    1    3    3  502    0  0.25423908840E+03 -0.50463701145E+03  0.25458320334E+04  0.26077877156E+04  0.50400001928E-02 0. -1.
       -1    1    3    3    0  502 -0.25423908840E+03  0.50463701145E+03 -0.13075051971E+04  0.14243826270E+04  0.50400001928E-02 0.  1.
</event>
<event>
 5   0  0.1070988E-07  0.3736658E+04  0.7818609E-02  0.8059886E-01
        1   -1    0    0  501    0  0.00000000000E+00  0.00000000000E+00  0.21904406944E+04  0.21904406944E+04  0.50400001928E-02 0.  1.
       -1   -1    0    0    0  501  0.00000000000E+00  0.00000000000E+00 -0.15935847567E+04  0.15935847567E+04  0.50400001928E-02 0. -1.
    10030    2    1    2    0    0  0.00000000000E+00  0.00000000000E+00  0.59685593771E+03  0.37840254510E+04  0.37366578120E+04 0.  0.
        5    1    3    3  502    0  0.61946238978E+03 -0.16238648893E+04 -0.39579848442E+03  0.17825120929E+04  0.46999998093E+01 0. -1.
       -5    1    3    3    0  502 -0.61946238978E+03  0.16238648893E+04  0.99265442213E+03  0.20015133581E+04  0.46999998093E+01 0.  1.
</event>
<event>
 5   0  0.1084315E-07  0.3775067E+04  0.7818609E-02  0.8051527E-01
       -1   -1    0    0    0  501  0.00000000000E+00  0.00000000000E+00  0.14295577501E+04  0.14295577501E+04  0.50400001928E-02 0. -1.
        1   -1    0    0  501    0  0.00000000000E+00  0.00000000000E+00 -0.24922267580E+04  0.24922267580E+04  0.50400001928E-02 0.  1.
    10030    2    1    2    0    0  0.00000000000E+00  0.00000000000E+00 -0.10626690079E+04  0.39217845081E+04  0.37750666627E+04 0.  0.
        4    1    3    3  502    0  0.53049126029E+03 -0.64592623232E+03  0.12268163302E+04  0.14844937170E+04  0.12699999809E+01 0. -1.
       -4    1    3    3    0  502 -0.53049126029E+03  0.64592623232E+03 -0.22894853380E+04  0.24372907912E+04  0.12699999809E+01 0.  1.
</event>
<event>
 5   0  0.1070988E-07  0.3790276E+04  0.7818609E-02  0.8048245E-01
       -1   -1    0    0    0  501  0.00000000000E+00  0.00000000000E+00  0.13950497641E+04  0.13950497641E+04  0.50400001928E-02 0. -1.
        1   -1    0    0  501    0  0.00000000000E+00  0.00000000000E+00 -0.25744948719E+04  0.25744948719E+04  0.50400001928E-02 0.  1.
    10030    2    1    2    0    0  0.00000000000E+00  0.00000000000E+00 -0.11794451078E+04  0.39695446361E+04  0.37902762242E+04 0.  0.
        2    1    3    3  502    0  0.13266130797E+04 -0.10046958008E+04  0.35993529237E+03  0.17026066281E+04  0.25500000920E-02 0. -1.
       -2    1    3    3    0  502 -0.13266130797E+04  0.10046958008E+04 -0.15393804002E+04  0.22669380079E+04  0.25500000920E-02 0.  1.
</event>
<event>
 5   0  0.3442126E-07  0.3792479E+04  0.7818609E-02  0.8047771E-01
        2   -1    0    0  501    0  0.00000000000E+00  0.00000000000E+00  0.19890159822E+04  0.19890159822E+04  0.25500000920E-02 0.  1.
       -2   -1    0    0    0  501  0.00000000000E+00  0.00000000000E+00 -0.18077908281E+04  0.18077908281E+04  0.25500000920E-02 0. -1.
    10030    2    1    2    0    0  0.00000000000E+00  0.00000000000E+00  0.18122515412E+03  0.37968068103E+04  0.37924793207E+04 0.  0.
        2    1    3    3  502    0  0.85425307358E+03  0.66280055945E+03  0.16501680027E+04  0.19728424500E+04  0.25500000920E-02 0.  1.
       -2    1    3    3    0  502 -0.85425307358E+03 -0.66280055945E+03 -0.14689428485E+04  0.18239643603E+04  0.25500000920E-02 0. -1.
</event>
<event>
 5   0  0.1070988E-07  0.3844970E+04  0.7818609E-02  0.8036573E-01
       -1   -1    0    0    0  501  0.00000000000E+00  0.00000000000E+00  0.17662832421E+04  0.17662832421E+04  0.50400001928E-02 0.  1.
        1   -1    0    0  501    0  0.00000000000E+00  0.00000000000E+00 -0.20925009867E+04  0.20925009867E+04  0.50400001928E-02 0. -1.
    10030    2    1    2    0    0  0.00000000000E+00  0.00000000000E+00 -0.32621774457E+03  0.38587842289E+04  0.38449704431E+04 0.  0.
        5    1    3    3  502    0  0.15567628027E+04 -0.85387514569E+03 -0.90285550455E+03  0.19919295520E+04  0.46999998093E+01 0.  1.
       -5    1    3    3    0  502 -0.15567628027E+04  0.85387514569E+03  0.57663775998E+03  0.18668546768E+04  0.46999998093E+01 0. -1.
</event>
<event>
 5   0  0.1070988E-07  0.3792304E+04  0.7818609E-02  0.8047808E-01
        1   -1    0    0  501    0  0.00000000000E+00  0.00000000000E+00  0.30128172647E+04  0.30128172647E+04  0.50400001928E-02 0. -1.
       -1   -1    0    0    0  501  0.00000000000E+00  0.00000000000E+00 -0.11933655517E+04  0.11933655517E+04  0.50400001928E-02 0.  1.
    10030    2    1    2    0    0  0.00000000000E+00  0.00000000000E+00  0.18194517131E+04  0.42061828164E+04  0.37923039631E+04 0.  0.
        3    1    3    3  502    0  0.15373206356E+04 -0.45428138012E+03 -0.21355404525E+03  0.16171987043E+04  0.10100000352E+00 0.  1.
       -3    1    3    3    0  502 -0.15373206356E+04  0.45428138012E+03  0.20330057583E+04  0.25889841120E+04  0.10100000352E+00 0. -1.
</event>
<event>
 5   0  0.3442126E-07  0.3769636E+04  0.7818609E-02  0.8052703E-01
        2   -1    0    0  501    0  0.00000000000E+00  0.00000000000E+00  0.21157421684E+04  0.21157421684E+04  0.25500000920E-02 0.  1.
       -2   -1    0    0    0  501  0.00000000000E+00  0.00000000000E+00 -0.16790979704E+04  0.16790979704E+04  0.25500000920E-02 0. -1.
    10030    2    1    2    0    0  0.00000000000E+00  0.00000000000E+00  0.43664419800E+03  0.37948401389E+04  0.37696357283E+04 0.  0.
        2    1    3    3  502    0 -0.17369197253E+04  0.65640605455E+03 -0.10753855916E+03  0.18599256927E+04  0.25500000920E-02 0. -1.
       -2    1    3    3    0  502  0.17369197253E+04 -0.65640605455E+03  0.54418275716E+03  0.19349144461E+04  0.25500000920E-02 0.  1.
</event>
<event>
 5   0  0.1070988E-07  0.3789077E+04  0.7818609E-02  0.8048503E-01
        1   -1    0    0  501    0  0.00000000000E+00  0.00000000000E+00  0.13189406278E+04  0.13189406278E+04  0.50400001928E-02 0.  1.
       -1   -1    0    0    0  501  0.00000000000E+00  0.00000000000E+00 -0.27213324692E+04  0.27213324692E+04  0.50400001928E-02 0. -1.
    10030    2    1    2    0    0  0.00000000000E+00  0.00000000000E+00 -0.14023918414E+04  0.40402730970E+04  0.37890769089E+04 0.  0.
        2    1    3    3  502    0 -0.33013550873E+03  0.72211959911E+03  0.11329643928E+04  0.13834935797E+04  0.25500000920E-02 0.  1.
       -2    1    3    3    0  502  0.33013550873E+03 -0.72211959911E+03 -0.25353562342E+04  0.26567795174E+04  0.25500000920E-02 0. -1.
</event>
<event>
 5   0  0.1070988E-07  0.3855762E+04  0.7818609E-02  0.8034293E-01
       -1   -1    0    0    0  501  0.00000000000E+00  0.00000000000E+00  0.16262028987E+04  0.16262028987E+04  0.50400001928E-02 0.  1.
        1   -1    0    0  501    0  0.00000000000E+00  0.00000000000E+00 -0.22855235282E+04  0.22855235282E+04  0.50400001928E-02 0. -1.
    10030    2    1    2    0    0  0.00000000000E+00  0.00000000000E+00 -0.65932062950E+03  0.39117264268E+04  0.38557619151E+04 0.  0.
        5    1    3    3  502    0 -0.54106683883E+03  0.46967294668E+03  0.14861100699E+04  0.16498155142E+04  0.46999998093E+01 0.  1.
       -5    1    3    3    0  502  0.54106683883E+03 -0.46967294668E+03 -0.21454306994E+04  0.22619109127E+04  0.46999998093E+01 0. -1.
</event>
<event>
 5   0  0.3539010E-07  0.3824354E+04  0.7818609E-02  0.8040949E-01
        2   -1    0    0  501    0  0.00000000000E+00  0.00000000000E+00  0.26128895007E+04  0.26128895007E+04  0.25500000920E-02 0.  1.
       -2   -1    0    0    0  501  0.00000000000E+00  0.00000000000E+00 -0.13993784337E+04  0.13993784337E+04  0.25500000920E-02 0. -1.
    10030    2    1    2    0    0  0.00000000000E+00  0.00000000000E+00  0.12135110671E+04  0.40122679344E+04  0.38243541765E+04 0.  0.
        1    1    3    3  502    0  0.15309874966E+04  0.84555339378E+03  0.14177438011E+04  0.22514174961E+04  0.50400001928E-02 0.  1.
       -1    1    3    3    0  502 -0.15309874966E+04 -0.84555339378E+03 -0.20423273400E+03  0.17608504383E+04  0.50400001928E-02 0. -1.
</event>
<event>
 5   0  0.3442126E-07  0.3794737E+04  0.7818609E-02  0.8047285E-01
       -2   -1    0    0    0  501  0.00000000000E+00  0.00000000000E+00  0.13881331135E+04  0.13881331135E+04  0.25500000920E-02 0.  1.
        2   -1    0    0  501    0  0.00000000000E+00  0.00000000000E+00 -0.25934167659E+04  0.25934167659E+04  0.25500000920E-02 0. -1.
    10030    2    1    2    0    0  0.00000000000E+00  0.00000000000E+00 -0.12052836524E+04  0.39815498793E+04  0.37947372450E+04 0.  0.
        2    1    3    3  502    0  0.12060837383E+04 -0.67872238151E+03 -0.19645018293E+04  0.24030333939E+04  0.25500000920E-02 0. -1.
       -2    1    3    3    0  502 -0.12060837383E+04  0.67872238151E+03  0.75921817686E+03  0.15785164855E+04  0.25500000920E-02 0.  1.
</event>
<event>
 5   0  0.3509843E-07  0.3443851E+04  0.7818609E-02  0.8127227E-01
       -2   -1    0    0    0  501  0.00000000000E+00  0.00000000000E+00  0.24296020035E+04  0.24296020035E+04  0.25500000920E-02 0.  1.
        2   -1    0    0  501    0  0.00000000000E+00  0.00000000000E+00 -0.12203755731E+04  0.12203755731E+04  0.25500000920E-02 0. -1.
    10030    2    1    2    0    0  0.00000000000E+00  0.00000000000E+00  0.12092264305E+04  0.36499775766E+04  0.34438507153E+04 0.  0.
        4    1    3    3  502    0 -0.20677814120E+03  0.68489870364E+03  0.22646234058E+04  0.23749450976E+04  0.12699999809E+01 0.  1.
       -4    1    3    3    0  502  0.20677814120E+03 -0.68489870364E+03 -0.10553969753E+04  0.12750324789E+04  0.12699999809E+01 0. -1.
</event>
<event>
 5   0  0.3377396E-07  0.3787922E+04  0.7818609E-02  0.8048752E-01
        2   -1    0    0  501    0  0.00000000000E+00  0.00000000000E+00  0.10237047652E+04  0.10237047652E+04  0.25500000920E-02 0.  1.
       -2   -1    0    0    0  501  0.00000000000E+00  0.00000000000E+00 -0.35040266000E+04  0.35040266000E+04  0.25500000920E-02 0. -1.
    10030    2    1    2    0    0  0.00000000000E+00  0.00000000000E+00 -0.24803218347E+04  0.45277313652E+04  0.37879222420E+04 0.  0.
        5    1    3    3  502    0  0.19451727132E+03  0.89705097967E+03  0.74005945925E+03  0.11790875804E+04  0.46999998093E+01 0.  1.
       -5    1    3    3    0  502 -0.19451727132E+03 -0.89705097967E+03 -0.32203812940E+04  0.33486437848E+04  0.46999998093E+01 0. -1.
</event>
<event>
 5   0  0.3509843E-07  0.3820149E+04  0.7818609E-02  0.8041845E-01
       -2   -1    0    0    0  501  0.00000000000E+00  0.00000000000E+00  0.16599050879E+04  0.16599050879E+04  0.25500000920E-02 0. -1.
        2   -1    0    0  501    0  0.00000000000E+00  0.00000000000E+00 -0.21979477781E+04  0.21979477781E+04  0.25500000920E-02 0.  1.
    10030    2    1    2    0    0  0.00000000000E+00  0.00000000000E+00 -0.53804269024E+03  0.38578528660E+04  0.38201490545E+04 0.  0.
        4    1    3    3  502    0  0.48319891015E+03  0.65282793481E+03  0.14768321281E+04  0.16854377018E+04  0.12699999809E+01 0. -1.
       -4    1    3    3    0  502 -0.48319891015E+03 -0.65282793481E+03 -0.20148748183E+04  0.21724151642E+04  0.12699999809E+01 0.  1.
</event>
<event>
 5   0  0.3539010E-07  0.3714001E+04  0.7818609E-02  0.8064866E-01
        2   -1    0    0  501    0  0.00000000000E+00  0.00000000000E+00  0.24547726669E+04  0.24547726669E+04  0.25500000920E-02 0.  1.
       -2   -1    0    0    0  501  0.00000000000E+00  0.00000000000E+00 -0.14047943949E+04  0.14047943949E+04  0.25500000920E-02 0. -1.
    10030    2    1    2    0    0  0.00000000000E+00  0.00000000000E+00  0.10499782720E+04  0.38595670618E+04  0.37140010142E+04 0.  0.
        1    1    3    3  502    0 -0.96666852543E+03  0.11956792115E+02  0.21726472708E+04  0.23780216917E+04  0.50400001928E-02 0.  1.
       -1    1    3    3    0  502  0.96666852543E+03 -0.11956792115E+02 -0.11226689988E+04  0.14815453702E+04  0.50400001928E-02 0. -1.
</event>
<event>
 5   0  0.1084315E-07  0.3783566E+04  0.7818609E-02  0.8049691E-01
       -1   -1    0    0    0  501  0.00000000000E+00  0.00000000000E+00  0.14678096034E+04  0.14678096034E+04  0.50400001928E-02 0.  1.
        1   -1    0    0  501    0  0.00000000000E+00  0.00000000000E+00 -0.24382199155E+04  0.24382199155E+04  0.50400001928E-02 0. -1.
    10030    2    1    2    0    0  0.00000000000E+00  0.00000000000E+00 -0.97041031214E+03  0.39060295189E+04  0.37835658351E+04 0.  0.
        4    1    3    3  502    0 -0.56958492953E+03 -0.17982709370E+04 -0.33690445895E+03  0.19161710733E+04  0.12699999809E+01 0. -1.
       -4    1    3    3    0  502  0.56958492953E+03  0.17982709370E+04 -0.63350585319E+03  0.19898584456E+04  0.12699999809E+01 0.  1.
</event>
<event>
 5   0  0.3442126E-07  0.3401601E+04  0.7818609E-02  0.8137513E-01
       -2   -1    0    0    0  501  0.00000000000E+00  0.00000000000E+00  0.18782775888E+04  0.18782775888E+04  0.25500000920E-02 0.  1.
        2   -1    0    0  501    0  0.00000000000E+00  0.00000000000E+00 -0.15400933081E+04  0.15400933081E+04  0.25500000920E-02 0. -1.
    10030    2    1    2    0    0  0.00000000000E+00  0.00000000000E+00  0.33818428074E+03  0.34183708969E+04  0.34016012378E+04 0.  0.
        2    1    3    3  502    0 -0.89445306075E+03 -0.10664899179E+04  0.11512926424E+04  0.18063559371E+04  0.25500000920E-02 0.  1.
       -2    1    3    3    0  502  0.89445306075E+03  0.10664899179E+04 -0.81310836166E+03  0.16120149598E+04  0.25500000920E-02 0. -1.
</event>
<event>
 5   0  0.3327241E-07  0.3784536E+04  0.7818609E-02  0.8049482E-01
       -2   -1    0    0    0  501  0.00000000000E+00  0.00000000000E+00  0.19919126532E+04  0.19919126532E+04  0.25500000920E-02 0. -1.
        2   -1    0    0  501    0  0.00000000000E+00  0.00000000000E+00 -0.17976078589E+04  0.17976078589E+04  0.25500000920E-02 0.  1.
    10030    2    1    2    0    0  0.00000000000E+00  0.00000000000E+00  0.19430479429E+03  0.37895205121E+04  0.37845358181E+04 0.  0.
        3    1    3    3  502    0 -0.82411958801E+03 -0.13026213127E+04 -0.10018735199E+04  0.18384085345E+04  0.10100000352E+00 0.  1.
       -3    1    3    3    0  502  0.82411958801E+03  0.13026213127E+04  0.11961783141E+04  0.19511119776E+04  0.10100000352E+00 0. -1.
</event>
<event>
 5   0  0.1070988E-07  0.3785037E+04  0.7818609E-02  0.8049373E-01
       -1   -1    0    0    0  501  0.00000000000E+00  0.00000000000E+00  0.16182479464E+04  0.16182479464E+04  0.50400001928E-02 0.  1.
        1   -1    0    0  501    0  0.00000000000E+00  0.00000000000E+00 -0.22132744683E+04  0.22132744683E+04  0.50400001928E-02 0. -1.
    10030    2    1    2    0    0  0.00000000000E+00  0.00000000000E+00 -0.59502652195E+03  0.38315224147E+04  0.37850373119E+04 0.  0.
        2    1    3    3  502    0  0.14717833823E+03  0.54952393305E+03 -0.21246708335E+04  0.21995145299E+04  0.25500000920E-02 0. -1.
       -2    1    3    3    0  502 -0.14717833823E+03 -0.54952393305E+03  0.15296443116E+04  0.16320078849E+04  0.25500000920E-02 0.  1.
</event>
<event>
 5   0  0.3539010E-07  0.3806527E+04  0.7818609E-02  0.8044756E-01
        2   -1    0    0  501    0  0.00000000000E+00  0.00000000000E+00  0.27714977247E+04  0.27714977247E+04  0.25500000920E-02 0. -1.
       -2   -1    0    0    0  501  0.00000000000E+00  0.00000000000E+00 -0.13070232862E+04  0.13070232862E+04  0.25500000920E-02 0.  1.
    10030    2    1    2    0    0  0.00000000000E+00  0.00000000000E+00  0.14644744384E+04  0.40785210109E+04  0.38065270596E+04 0.  0.
        1    1    3    3  502    0  0.17120968311E+03 -0.14599506260E+04  0.20276092302E+04  0.25043897014E+04  0.50400001928E-02 0. -1.
       -1    1    3    3    0  502 -0.17120968311E+03  0.14599506260E+04 -0.56313479177E+03  0.15741313095E+04  0.50400001928E-02 0.  1.
</event>
<event>
 5   0  0.1085771E-07  0.3803193E+04  0.7818609E-02  0.8045470E-01
       -1   -1    0    0    0  501  0.00000000000E+00  0.00000000000E+00  0.12340102949E+04  0.12340102949E+04  0.50400001928E-02 0.  1.
        1   -1    0    0  501    0  0.00000000000E+00  0.00000000000E+00 -0.29303391598E+04  0.29303391598E+04  0.50400001928E-02 0. -1.
    10030    2    1    2    0    0  0.00000000000E+00  0.00000000000E+00 -0.16963288649E+04  0.41643494547E+04  0.38031927065E+04 0.  0.
        1    1    3    3  502    0  0.77023567832E+03 -0.17551674817E+03 -0.27421627888E+04  0.28536863685E+04  0.50400001928E-02 0. -1.
       -1    1    3    3    0  502 -0.77023567832E+03  0.17551674817E+03  0.10458339239E+04  0.13106630862E+04  0.50400001928E-02 0.  1.
</event>
<event>
 5   0  0.3442126E-07  0.3806654E+04  0.7818609E-02  0.8044728E-01
       -2   -1    0    0    0  501  0.00000000000E+00  0.00000000000E+00  0.20980728155E+04  0.20980728155E+04  0.25500000920E-02 0.  1.
        2   -1    0    0  501    0  0.00000000000E+00  0.00000000000E+00 -0.17266579334E+04  0.17266579334E+04  0.25500000920E-02 0. -1.
    10030    2    1    2    0    0  0.00000000000E+00  0.00000000000E+00  0.37141488216E+03  0.38247307489E+04  0.38066542116E+04 0.  0.
        2    1    3    3  502    0  0.11417624912E+04  0.57415800343E+03 -0.12314424085E+04  0.17747477017E+04  0.25500000920E-02 0. -1.
       -2    1    3    3    0  502 -0.11417624912E+04 -0.57415800343E+03  0.16028572907E+04  0.20499830472E+04  0.25500000920E-02 0.  1.
</event>
<event>
 5   0  0.1070988E-07  0.3798712E+04  0.7818609E-02  0.8046431E-01
       -1   -1    0    0    0  501  0.00000000000E+00  0.00000000000E+00  0.23799411168E+04  0.23799411168E+04  0.50400001928E-02 0. -1.
        1   -1    0    0  501    0  0.00000000000E+00  0.00000000000E+00 -0.15158158509E+04  0.15158158509E+04  0.50400001928E-02 0.  1.
    10030    2    1    2    0    0  0.00000000000E+00  0.00000000000E+00  0.86412526584E+03  0.38957569677E+04  0.37987116074E+04 0.  0.
        5    1    3    3  502    0  0.16254452542E+03  0.12707658708E+04  0.18701206893E+04  0.22668568777E+04  0.46999998093E+01 0. -1.
       -5    1    3    3    0  502 -0.16254452542E+03 -0.12707658708E+04 -0.10059954235E+04  0.16289000900E+04  0.46999998093E+01 0.  1.
</event>
<event>
 5   0  0.3377396E-07  0.3776790E+04  0.7818609E-02  0.8051154E-01
        2   -1    0    0  501    0  0.00000000000E+00  0.00000000000E+00  0.23634935221E+04  0.23634935221E+04  0.25500000920E-02 0.  1.
       -2   -1    0    0    0  501  0.00000000000E+00  0.00000000000E+00 -0.15087984207E+04  0.15087984207E+04  0.25500000920E-02 0. -1.
    10030    2    1    2    0    0  0.00000000000E+00  0.00000000000E+00  0.85469510138E+03  0.38722919428E+04  0.37767897974E+04 0.  0.
        5    1    3    3  502    0 -0.14293394934E+03  0.72049338237E+03  0.22110139675E+04  0.23298381236E+04  0.46999998093E+01 0.  1.
       -5    1    3    3    0  502  0.14293394934E+03 -0.72049338237E+03 -0.13563188661E+04  0.15424538192E+04  0.46999998093E+01 0. -1.
</event>
<event>
 5   0  0.1084315E-07  0.3508669E+04  0.7818609E-02  0.8111739E-01
        1   -1    0    0  501    0  0.00000000000E+00  0.00000000000E+00  0.16481231860E+04  0.16481231860E+04  0.50400001928E-02 0.  1.
       -1   -1    0    0    0  501  0.00000000000E+00  0.00000000000E+00 -0.18673900027E+04  0.18673900027E+04  0.50400001928E-02 0. -1.
    10030    2    1    2    0    0  0.00000000000E+00  0.00000000000E+00 -0.21926681664E+03  0.35155131887E+04  0.35086685570E+04 0.  0.
        4    1    3    3  502    0 -0.39776990586E+03 -0.13720569973E+04  0.91064861899E+03  0.16941203682E+04  0.12699999809E+01 0.  1.
       -4    1    3    3    0  502  0.39776990586E+03  0.13720569973E+04 -0.11299154356E+04  0.18213928205E+04  0.12699999809E+01 0. -1.
</event>
<event>
 5   0  0.3509843E-07  0.3840509E+04  0.7818609E-02  0.8037517E-01
        2   -1    0    0  501    0  0.00000000000E+00  0.00000000000E+00  0.21396294033E+04  0.21396294033E+04  0.25500000920E-02 0. -1.
       -2   -1    0    0    0  501  0.00000000000E+00  0.00000000000E+00 -0.17233723854E+04  0.17233723854E+04  0.25500000920E-02 0.  1.
    10030    2    1    2    0    0  0.00000000000E+00  0.00000000000E+00  0.41625701788E+03  0.38630017888E+04  0.38405094603E+04 0.  0.
        4    1    3    3  502    0 -0.19136205386E+04  0.59647250184E+02  0.59359442053E+02  0.19154703121E+04  0.12699999809E+01 0.  1.
       -4    1    3    3    0  502  0.19136205386E+04 -0.59647250184E+02  0.35689757582E+03  0.19475314767E+04  0.12699999809E+01 0. -1.
</event>
<event>
 5   0  0.1085771E-07  0.3852823E+04  0.7818609E-02  0.8034913E-01
       -1   -1    0    0    0  501  0.00000000000E+00  0.00000000000E+00  0.25674819351E+04  0.25674819351E+04  0.50400001928E-02 0.  1.
        1   -1    0    0  501    0  0.00000000000E+00  0.00000000000E+00 -0.14454089594E+04  0.14454089594E+04  0.50400001928E-02 0. -1.
    10030    2    1    2    0    0  0.00000000000E+00  0.00000000000E+00  0.11220729757E+04  0.40128908946E+04  0.38528230648E+04 0.  0.
        1    1    3    3  502    0  0.18273780483E+03  0.19121010587E+04  0.71389134414E+03  0.20491862813E+04  0.50400001928E-02 0.  1.
       -1    1    3    3    0  502 -0.18273780483E+03 -0.19121010587E+04  0.40818163154E+03  0.19637046133E+04  0.50400001928E-02 0. -1.
</event>
<event>
 5   0  0.3539010E-07  0.3772883E+04  0.7818609E-02  0.8051999E-01
       -2   -1    0    0    0  501  0.00000000000E+00  0.00000000000E+00  0.17660882829E+04  0.17660882829E+04  0.25500000920E-02 0.  1.
        2   -1    0    0  501    0  0.00000000000E+00  0.00000000000E+00 -0.20149964957E+04  0.20149964957E+04  0.25500000920E-02 0. -1.
    10030    2    1    2    0    0  0.00000000000E+00  0.00000000000E+00 -0.24890821275E+03  0.37810847786E+04  0.37728830892E+04 0.  0.
        1    1    3    3  502    0  0.57046494145E+03  0.12043349662E+04 -0.14625752857E+04  0.19786306948E+04  0.50400001928E-02 0. -1.
       -1    1    3    3    0  502 -0.57046494145E+03 -0.12043349662E+04  0.12136670729E+04  0.18024540838E+04  0.50400001928E-02 0.  1.
</event>
<event>
 5   0  0.1084315E-07  0.3781329E+04  0.7818609E-02  0.8050173E-01
        1   -1    0    0  501    0  0.00000000000E+00  0.00000000000E+00  0.22247963165E+04  0.22247963165E+04  0.50400001928E-02 0.  1.
       -1   -1    0    0    0  501  0.00000000000E+00  0.00000000000E+00 -0.16067146024E+04  0.16067146024E+04  0.50400001928E-02 0. -1.
    10030    2    1    2    0    0  0.00000000000E+00  0.00000000000E+00  0.61808171414E+03  0.38315109189E+04  0.37813292525E+04 0.  0.
        4    1    3    3  502    0  0.99167590608E+03 -0.14692595965E+04 -0.35730804135E+03  0.18082631208E+04  0.12699999809E+01 0. -1.
       -4    1    3    3    0  502 -0.99167590608E+03  0.14692595965E+04  0.97538975549E+03  0.20232477981E+04  0.12699999809E+01 0.  1.
</event>
<event>
 5   0  0.3327241E-07  0.3783504E+04  0.7818609E-02  0.8049704E-01
       -2   -1    0    0    0  501  0.00000000000E+00  0.00000000000E+00  0.21543117982E+04  0.21543117982E+04  0.25500000920E-02 0.  1.
        2   -1    0    0  501    0  0.00000000000E+00  0.00000000000E+00 -0.16611923784E+04  0.16611923784E+04  0.25500000920E-02 0. -1.
    10030    2    1    2    0    0  0.00000000000E+00  0.00000000000E+00  0.49311941983E+03  0.38155041767E+04  0.37835043756E+04 0.  0.
        3    1    3    3  502    0  0.73526552793E+03  0.42970703704E+03  0.19500662292E+04  0.21279149050E+04  0.10100000352E+00 0.  1.
       -3    1    3    3    0  502 -0.73526552793E+03 -0.42970703704E+03 -0.14569468094E+04  0.16875892717E+04  0.10100000352E+00 0. -1.
</event>
<event>
 5   0  0.1070988E-07  0.3789397E+04  0.7818609E-02  0.8048434E-01
       -1   -1    0    0    0  501  0.00000000000E+00  0.00000000000E+00  0.21902567688E+04  0.21902567688E+04  0.50400001928E-02 0. -1.
        1   -1    0    0  501    0  0.00000000000E+00  0.00000000000E+00 -0.16390232625E+04  0.16390232625E+04  0.50400001928E-02 0.  1.
    10030    2    1    2    0    0  0.00000000000E+00  0.00000000000E+00  0.55123350634E+03  0.38292800313E+04  0.37893966776E+04 0.  0.
        3    1    3    3  502    0  0.93834082598E+03 -0.46801159934E+03  0.18703146500E+04  0.21442003785E+04  0.10100000352E+00 0. -1.
       -3    1    3    3    0  502 -0.93834082598E+03  0.46801159934E+03 -0.13190811436E+04  0.16850796529E+04  0.10100000352E+00 0.  1.
</event>
<event>
 5   0  0.3539010E-07  0.3864938E+04  0.7818609E-02  0.8032361E-01
        2   -1    0    0  501    0  0.00000000000E+00  0.00000000000E+00  0.12396399260E+04  0.12396399260E+04  0.25500000920E-02 0. -1.
       -2   -1    0    0    0  501  0.00000000000E+00  0.00000000000E+00 -0.30125164096E+04  0.30125164096E+04  0.25500000920E-02 0.  1.
    10030    2    1    2    0    0  0.00000000000E+00  0.00000000000E+00 -0.17728764836E+04  0.42521563356E+04  0.38649375772E+04 0.  0.
        1    1    3    3  502    0  0.16910611119E+04 -0.74794102149E+03 -0.15042424674E+04  0.23836629075E+04  0.50400001928E-02 0.  1.
       -1    1    3    3    0  502 -0.16910611119E+04  0.74794102149E+03 -0.26863401621E+03  0.18684934280E+04  0.50400001928E-02 0. -1.
</event>
<event>
 5   0  0.1084315E-07  0.3748178E+04  0.7818609E-02  0.8057368E-01
       -1   -1    0    0    0  501  0.00000000000E+00  0.00000000000E+00  0.27410702283E+04  0.27410702283E+04  0.50400001928E-02 0. -1.
        1   -1    0    0  501    0  0.00000000000E+00  0.00000000000E+00 -0.12813279323E+04  0.12813279323E+04  0.50400001928E-02 0.  1.
    10030    2    1    2    0    0  0.00000000000E+00  0.00000000000E+00  0.14597422960E+04  0.40223981606E+04  0.37481781430E+04 0.  0.
        4    1    3    3  502    0  0.11171330450E+04 -0.14903643693E+04  0.95249976688E+03  0.20919917811E+04  0.12699999809E+01 0. -1.
       -4    1    3    3    0  502 -0.11171330450E+04  0.14903643693E+04  0.50724252910E+03  0.19304063794E+04  0.12699999809E+01 0.  1.
</event>
<event>
 5   0  0.3327241E-07  0.3093777E+04  0.7818609E-02  0.8217448E-01
       -2   -1    0    0    0  501  0.00000000000E+00  0.00000000000E+00  0.14351645357E+04  0.14351645357E+04  0.25500000920E-02 0. -1.
        2   -1    0    0  501    0  0.00000000000E+00  0.00000000000E+00 -0.16673099137E+04  0.16673099137E+04  0.25500000920E-02 0.  1.
    10030    2    1    2    0    0  0.00000000000E+00  0.00000000000E+00 -0.23214537793E+03  0.31024744494E+04  0.30937770173E+04 0.  0.
        3    1    3    3  502    0  0.10838224026E+04  0.11021996305E+04 -0.58039263743E+02  0.15468948226E+04  0.10100000352E+00 0. -1.
       -3    1    3    3    0  502 -0.10838224026E+04 -0.11021996305E+04 -0.17410611419E+03  0.15555796268E+04  0.10100000352E+00 0.  1.
</event>
<event>
 5   0  0.1084315E-07  0.3818220E+04  0.7818609E-02  0.8042256E-01
        1   -1    0    0  501    0  0.00000000000E+00  0.00000000000E+00  0.13411570699E+04  0.13411570699E+04  0.50400001928E-02 0.  1.
       -1   -1    0    0    0  501  0.00000000000E+00  0.00000000000E+00 -0.27175792714E+04  0.27175792714E+04  0.50400001928E-02 0. -1.
    10030    2    1    2    0    0  0.00000000000E+00  0.00000000000E+00 -0.13764222015E+04  0.40587363413E+04  0.38182198223E+04 0.  0.
        4    1    3    3  502    0 -0.83435355924E+02  0.89610891623E+03 -0.24779327259E+04  0.26363089454E+04  0.12699999809E+01 0. -1.
       -4    1    3    3    0  502  0.83435355924E+02 -0.89610891623E+03  0.11015105244E+04  0.14224273959E+04  0.12699999809E+01 0.  1.
</event>
<event>
 5   0  0.1084315E-07  0.3810515E+04  0.7818609E-02  0.8043902E-01
       -1   -1    0    0    0  501  0.00000000000E+00  0.00000000000E+00  0.16120562062E+04  0.16120562062E+04  0.50400001928E-02 0.  1.
        1   -1    0    0  501    0  0.00000000000E+00  0.00000000000E+00 -0.22517859614E+04  0.22517859614E+04  0.50400001928E-02 0. -1.
    10030    2    1    2    0    0  0.00000000000E+00  0.00000000000E+00 -0.63972975519E+03  0.38638421675E+04  0.38105146812E+04 0.  0.
        4    1    3    3  502    0  0.57092194444E+02 -0.79584820723E+03 -0.20742136685E+04  0.22223856198E+04  0.12699999809E+01 0. -1.
       -4    1    3    3    0  502 -0.57092194444E+02  0.79584820723E+03  0.14344839133E+04  0.16414565477E+04  0.12699999809E+01 0.  1.
</event>
<event>
 5   0  0.1070988E-07  0.3740549E+04  0.7818609E-02  0.8059035E-01
       -1   -1    0    0    0  501  0.00000000000E+00  0.00000000000E+00  0.13211510327E+04  0.13211510327E+04  0.50400001928E-02 0. -1.
        1   -1    0    0  501    0  0.00000000000E+00  0.00000000000E+00 -0.26476359793E+04  0.26476359793E+04  0.50400001928E-02 0.  1.
    10030    2    1    2    0    0  0.00000000000E+00  0.00000000000E+00 -0.13264849466E+04  0.39687870120E+04  0.37405491620E+04 0.  0.
        5    1    3    3  502    0  0.16157183351E+04  0.17085035830E+03 -0.16461415377E+04  0.23129071826E+04  0.46999998093E+01 0.  1.
       -5    1    3    3    0  502 -0.16157183351E+04 -0.17085035830E+03  0.31965659106E+03  0.16558798294E+04  0.46999998093E+01 0. -1.
</event>
<event>
 5   0  0.3442126E-07  0.3815631E+04  0.7818609E-02  0.8042809E-01
       -2   -1    0    0    0  501  0.00000000000E+00  0.00000000000E+00  0.17599337064E+04  0.17599337064E+04  0.25500000920E-02 0.  1.
        2   -1    0    0  501    0  0.00000000000E+00  0.00000000000E+00 -0.20681236829E+04  0.20681236829E+04  0.25500000920E-02 0. -1.
    10030    2    1    2    0    0  0.00000000000E+00  0.00000000000E+00 -0.30818997659E+03  0.38280573893E+04  0.38156313127E+04 0.  0.
        2    1    3    3  502    0  0.18741815826E+04  0.16758412293E+03 -0.46995283164E+03  0.19394578383E+04  0.25500000920E-02 0.  1.
       -2    1    3    3    0  502 -0.18741815826E+04 -0.16758412293E+03  0.16176285505E+03  0.18885995510E+04  0.25500000920E-02 0. -1.
</event>
<event>
 5   0  0.3509843E-07  0.3787164E+04  0.7818609E-02  0.8048915E-01
        2   -1    0    0  501    0  0.00000000000E+00  0.00000000000E+00  0.18542117838E+04  0.18542117838E+04  0.25500000920E-02 0. -1.
       -2   -1    0    0    0  501  0.00000000000E+00  0.00000000000E+00 -0.19337877236E+04  0.19337877236E+04  0.25500000920E-02 0.  1.
    10030    2    1    2    0    0  0.00000000000E+00  0.00000000000E+00 -0.79575939837E+02  0.37879995074E+04  0.37871635742E+04 0.  0.
        4    1    3    3  502    0  0.97022547934E+03  0.73317306587E+03  0.14120041280E+04  0.18635014074E+04  0.12699999809E+01 0. -1.
       -4    1    3    3    0  502 -0.97022547934E+03 -0.73317306587E+03 -0.14915800678E+04  0.19244981000E+04  0.12699999809E+01 0.  1.
</event>
<event>
 5   0  0.3377396E-07  0.3790309E+04  0.7818609E-02  0.8048238E-01
        2   -1    0    0  501    0  0.00000000000E+00  0.00000000000E+00  0.23500000075E+04  0.23500000075E+04  0.25500000920E-02 0. -1.
       -2   -1    0    0    0  501  0.00000000000E+00  0.00000000000E+00 -0.15283453156E+04  0.15283453157E+04  0.25500000920E-02 0.  1.
    10030    2    1    2    0    0  0.00000000000E+00  0.00000000000E+00  0.82165469188E+03  0.38783453232E+04  0.37903094878E+04 0.  0.
        5    1    3    3  502    0 -0.84415832960E+03  0.15629720452E+04  0.10865478445E+04  0.20823287944E+04  0.46999998093E+01 0. -1.
       -5    1    3    3    0  502  0.84415832960E+03 -0.15629720452E+04 -0.26489315267E+03  0.17960165288E+04  0.46999998093E+01 0.  1.
</event>
<event>
 5   0  0.3377396E-07  0.3790203E+04  0.7818609E-02  0.8048260E-01
       -2   -1    0    0    0  501  0.00000000000E+00  0.00000000000E+00  0.27410823735E+04  0.27410823735E+04  0.25500000920E-02 0. -1.
        2   -1    0    0  501    0  0.00000000000E+00  0.00000000000E+00 -0.13102161350E+04  0.13102161350E+04  0.25500000920E-02 0.  1.
    10030    2    1    2    0    0  0.00000000000E+00  0.00000000000E+00  0.14308662385E+04  0.40512985085E+04  0.37902033471E+04 0.  0.
        5    1    3    3  502    0  0.12418268894E+04  0.28795819456E+03 -0.78342461336E+03  0.14962720875E+04  0.46999998093E+01 0.  1.
       -5    1    3    3    0  502 -0.12418268894E+04 -0.28795819456E+03  0.22142908518E+04  0.25550264209E+04  0.46999998093E+01 0. -1.
</event>
<event>
 5   0  0.1084315E-07  0.3807449E+04  0.7818609E-02  0.8044558E-01
       -1   -1    0    0    0  501  0.00000000000E+00  0.00000000000E+00  0.18193438099E+04  0.18193438099E+04  0.50400001928E-02 0. -1.
        1   -1    0    0  501    0  0.00000000000E+00  0.00000000000E+00 -0.19920184986E+04  0.19920184986E+04  0.50400001928E-02 0.  1.
    10030    2    1    2    0    0  0.00000000000E+00  0.00000000000E+00 -0.17267468875E+03  0.38113623085E+04  0.38074487651E+04 0.  0.
        4    1    3    3  502    0  0.62938161893E+03  0.10788104601E+04 -0.15245505844E+04  0.19708397520E+04  0.12699999809E+01 0.  1.
       -4    1    3    3    0  502 -0.62938161893E+03 -0.10788104601E+04  0.13518758956E+04  0.18405225565E+04  0.12699999809E+01 0. -1.
</event>
<event>
 5   0  0.1085771E-07  0.3669734E+04  0.7818609E-02  0.8074702E-01
       -1   -1    0    0    0  501  0.00000000000E+00  0.00000000000E+00  0.17692392819E+04  0.17692392819E+04  0.50400001928E-02 0. -1.
        1   -1    0    0  501    0  0.00000000000E+00  0.00000000000E+00 -0.19029292693E+04  0.19029292693E+04  0.50400001928E-02 0.  1.
    10030    2    1    2    0    0  0.00000000000E+00  0.00000000000E+00 -0.13368998742E+03  0.36721685513E+04  0.36697341670E+04 0.  0.
        1    1    3    3  502    0 -0.11339204418E+04  0.12123999045E+04 -0.84905921356E+03  0.18645617836E+04  0.50400001928E-02 0.  1.
       -1    1    3    3    0  502  0.11339204418E+04 -0.12123999045E+04  0.71536922614E+03  0.18076067677E+04  0.50400001928E-02 0. -1.
</event>
<event>
 5   0  0.3327241E-07  0.3839895E+04  0.7818609E-02  0.8037647E-01
        2   -1    0    0  501    0  0.00000000000E+00  0.00000000000E+00  0.26843382031E+04  0.26843382031E+04  0.25500000920E-02 0.  1.
       -2   -1    0    0    0  501  0.00000000000E+00  0.00000000000E+00 -0.13732239699E+04  0.13732239699E+04  0.25500000920E-02 0. -1.
    10030    2    1    2    0    0  0.00000000000E+00  0.00000000000E+00  0.13111142332E+04  0.40575621731E+04  0.38398945631E+04 0.  0.
        3    1    3    3  502    0  0.10218010053E+03 -0.14795000519E+03  0.26754218448E+04  0.26814570731E+04  0.10100000352E+00 0.  1.
       -3    1    3    3    0  502 -0.10218010053E+03  0.14795000519E+03 -0.13643076116E+04  0.13761051000E+04  0.10100000352E+00 0. -1.
</event>
<event>
 5   0  0.3539010E-07  0.3842967E+04  0.7818609E-02  0.8036997E-01
        2   -1    0    0  501    0  0.00000000000E+00  0.00000000000E+00  0.16614630682E+04  0.16614630682E+04  0.25500000920E-02 0. -1.
       -2   -1    0    0    0  501  0.00000000000E+00  0.00000000000E+00 -0.22221977391E+04  0.22221977391E+04  0.25500000920E-02 0.  1.
    10030    2    1    2    0    0  0.00000000000E+00  0.00000000000E+00 -0.56073467096E+03  0.38836608073E+04  0.38429673294E+04 0.  0.
        1    1    3    3  502    0 -0.43012052724E+03 -0.16629822564E+04  0.58990526133E+03  0.18161778190E+04  0.50400001928E-02 0. -1.
       -1    1    3    3    0  502  0.43012052724E+03  0.16629822564E+04 -0.11506399323E+04  0.20674829883E+04  0.50400001928E-02 0.  1.
</event>
<event>
 5   0  0.3377396E-07  0.3426913E+04  0.7818609E-02  0.8131333E-01
        2   -1    0    0  501    0  0.00000000000E+00  0.00000000000E+00  0.12170756858E+04  0.12170756858E+04  0.25500000920E-02 0. -1.
       -2   -1    0    0    0  501  0.00000000000E+00  0.00000000000E+00 -0.24122841653E+04  0.24122841653E+04  0.25500000920E-02 0.  1.
    10030    2    1    2    0    0  0.00000000000E+00  0.00000000000E+00 -0.11952084796E+04  0.36293598511E+04  0.34269125491E+04 0.  0.
        5    1    3    3  502    0  0.14541298351E+04 -0.19164267159E+03  0.34055383102E+03  0.15057288908E+04  0.46999998093E+01 0. -1.
       -5    1    3    3    0  502 -0.14541298351E+04  0.19164267159E+03 -0.15357623106E+04  0.21236309603E+04  0.46999998093E+01 0.  1.
</event>
<event>
 5   0  0.1070988E-07  0.3821359E+04  0.7818609E-02  0.8041587E-01
       -1   -1    0    0    0  501  0.00000000000E+00  0.00000000000E+00  0.25720082442E+04  0.25720082442E+04  0.50400001928E-02 0.  1.
        1   -1    0    0  501    0  0.00000000000E+00  0.00000000000E+00 -0.14193949785E+04  0.14193949785E+04  0.50400001928E-02 0. -1.
    10030    2    1    2    0    0  0.00000000000E+00  0.00000000000E+00  0.11526132658E+04  0.39914032227E+04  0.38213587042E+04 0.  0.
        5    1    3    3  502    0  0.13359476671E+04  0.11632094395E+04  0.13243171235E+04  0.22117075537E+04  0.46999998093E+01 0.  1.
       -5    1    3    3    0  502 -0.13359476671E+04 -0.11632094395E+04 -0.17170385774E+03  0.17796956690E+04  0.46999998093E+01 0. -1.
</event>
<event>
 5   0  0.3442126E-07  0.3437101E+04  0.7818609E-02  0.8128860E-01
       -2   -1    0    0    0  501  0.00000000000E+00  0.00000000000E+00  0.92676024279E+03  0.92676024279E+03  0.25500000920E-02 0.  1.
        2   -1    0    0  501    0  0.00000000000E+00  0.00000000000E+00 -0.31868168245E+04  0.31868168245E+04  0.25500000920E-02 0. -1.
    10030    2    1    2    0    0  0.00000000000E+00  0.00000000000E+00 -0.22600565817E+04  0.41135770673E+04  0.34371006002E+04 0.  0.
        2    1    3    3  502    0  0.55710686437E+03  0.32865098624E+03 -0.30355742430E+04  0.31037220420E+04  0.25500000920E-02 0. -1.
       -2    1    3    3    0  502 -0.55710686437E+03 -0.32865098624E+03  0.77551766131E+03  0.10098550253E+04  0.25500000920E-02 0.  1.
</event>
<event>
 5   0  0.1085771E-07  0.3862866E+04  0.7818609E-02  0.8032797E-01
       -1   -1    0    0    0  501  0.00000000000E+00  0.00000000000E+00  0.18588687099E+04  0.18588687099E+04  0.50400001928E-02 0.  1.
        1   -1    0    0  501    0  0.00000000000E+00  0.00000000000E+00 -0.20068302304E+04  0.20068302304E+04  0.50400001928E-02 0. -1.
    10030    2    1    2    0    0  0.00000000000E+00  0.00000000000E+00 -0.14796152049E+03  0.38656989403E+04  0.38628662526E+04 0.  0.
        1    1    3    3  502    0 -0.14865426219E+04 -0.78943140296E+03 -0.10219995787E+04  0.19691353548E+04  0.50400001928E-02 0.  1.
       -1    1    3    3    0  502  0.14865426219E+04  0.78943140296E+03  0.87403805816E+03  0.18965635855E+04  0.50400001928E-02 0. -1.
</event>
<event>
 5   0  0.3327241E-07  0.3793580E+04  0.7818609E-02  0.8047534E-01
        2   -1    0    0  501    0  0.00000000000E+00  0.00000000000E+00  0.19381318511E+04  0.19381318511E+04  0.25500000920E-02 0.  1.
       -2   -1    0    0    0  501  0.00000000000E+00  0.00000000000E+00 -0.18563300863E+04  0.18563300863E+04  0.25500000920E-02 0. -1.
    10030    2    1    2    0    0  0.00000000000E+00  0.00000000000E+00  0.81801764816E+02  0.37944619374E+04  0.37935800856E+04 0.  0.
        3    1    3    3  502    0  0.79365147557E+03 -0.70647191545E+01  0.17640549273E+04  0.19343790662E+04  0.10100000352E+00 0.  1.
       -3    1    3    3    0  502 -0.79365147557E+03  0.70647191545E+01 -0.16822531625E+04  0.18600828712E+04  0.10100000352E+00 0. -1.
</event>
<event>
 5   0  0.3442126E-07  0.3820530E+04  0.7818609E-02  0.8041763E-01
        2   -1    0    0  501    0  0.00000000000E+00  0.00000000000E+00  0.17622254502E+04  0.17622254502E+04  0.25500000920E-02 0. -1.
       -2   -1    0    0    0  501  0.00000000000E+00  0.00000000000E+00 -0.20707410771E+04  0.20707410771E+04  0.25500000920E-02 0.  1.
    10030    2    1    2    0    0  0.00000000000E+00  0.00000000000E+00 -0.30851562693E+03  0.38329665274E+04  0.38205301344E+04 0.  0.
        2    1    3    3  502    0  0.12589938912E+04 -0.30867041308E+03 -0.15619537042E+04  0.20297887614E+04  0.25500000920E-02 0.  1.
       -2    1    3    3    0  502 -0.12589938912E+04  0.30867041308E+03  0.12534380773E+04  0.18031777659E+04  0.25500000920E-02 0. -1.
</event>
<event>
 5   0  0.1070988E-07  0.3632621E+04  0.7818609E-02  0.8083060E-01
       -1   -1    0    0    0  501  0.00000000000E+00  0.00000000000E+00  0.12218944721E+04  0.12218944721E+04  0.50400001928E-02 0. -1.
        1   -1    0    0  501    0  0.00000000000E+00  0.00000000000E+00 -0.26998924956E+04  0.26998924956E+04  0.50400001928E-02 0.  1.
    10030    2    1    2    0    0  0.00000000000E+00  0.00000000000E+00 -0.14779980235E+04  0.39217869677E+04  0.36326209357E+04 0.  0.
        3    1    3    3  502    0  0.13257462881E+04 -0.12317363842E+04 -0.90696645702E+03  0.20241951252E+04  0.10100000352E+00 0.  1.
       -3    1    3    3    0  502 -0.13257462881E+04  0.12317363842E+04 -0.57103156650E+03  0.18975918425E+04  0.10100000352E+00 0. -1.
</event>
<event>
 5   0  0.3377396E-07  0.3771771E+04  0.7818609E-02  0.8052240E-01
       -2   -1    0    0    0  501  0.00000000000E+00  0.00000000000E+00  0.24599347834E+04  0.24599347834E+04  0.25500000920E-02 0.  1.
        2   -1    0    0  501    0  0.00000000000E+00  0.00000000000E+00 -0.14457959690E+04  0.14457959690E+04  0.25500000920E-02 0. -1.
    10030    2    1    2    0    0  0.00000000000E+00  0.00000000000E+00  0.10141388145E+04  0.39057307524E+04  0.37717708275E+04 0.  0.
        5    1    3    3  502    0  0.17956564021E+03 -0.14944200250E+04 -0.66951001265E+03  0.16473617628E+04  0.46999998093E+01 0. -1.
       -5    1    3    3    0  502 -0.17956564021E+03  0.14944200250E+04  0.16836488271E+04  0.22583689897E+04  0.46999998093E+01 0.  1.
</event>
<event>
 5   0  0.3442126E-07  0.3857380E+04  0.7818609E-02  0.8033952E-01
        2   -1    0    0  501    0  0.00000000000E+00  0.00000000000E+00  0.22043934334E+04  0.22043934334E+04  0.25500000920E-02 0.  1.
       -2   -1    0    0    0  501  0.00000000000E+00  0.00000000000E+00 -0.16874689927E+04  0.16874689927E+04  0.25500000920E-02 0. -1.
    10030    2    1    2    0    0  0.00000000000E+00  0.00000000000E+00  0.51692444071E+03  0.38918624260E+04  0.38573802335E+04 0.  0.
        2    1    3    3  502    0 -0.89390453332E+03  0.88269373338E+03 -0.12180513929E+04  0.17498179155E+04  0.25500000920E-02 0. -1.
       -2    1    3    3    0  502  0.89390453332E+03 -0.88269373338E+03  0.17349758337E+04  0.21420445105E+04  0.25500000920E-02 0.  1.
</event>
<event>
 5   0  0.3377396E-07  0.3763214E+04  0.7818609E-02  0.8054095E-01
        2   -1    0    0  501    0  0.00000000000E+00  0.00000000000E+00  0.19902749055E+04  0.19902749055E+04  0.25500000920E-02 0. -1.
       -2   -1    0    0    0  501  0.00000000000E+00  0.00000000000E+00 -0.17788722180E+04  0.17788722180E+04  0.25500000920E-02 0.  1.
    10030    2    1    2    0    0  0.00000000000E+00  0.00000000000E+00  0.21140268751E+03  0.37691471235E+04  0.37632139113E+04 0.  0.
        5    1    3    3  502    0  0.37555835653E+03 -0.58974444355E+03  0.18553327606E+04  0.19827063147E+04  0.46999998093E+01 0. -1.
       -5    1    3    3    0  502 -0.37555835653E+03  0.58974444355E+03 -0.16439300731E+04  0.17864408087E+04  0.46999998093E+01 0.  1.
</event>
<event>
 5   0  0.1085771E-07  0.3811062E+04  0.7818609E-02  0.8043785E-01
       -1   -1    0    0    0  501  0.00000000000E+00  0.00000000000E+00  0.28516944621E+04  0.28516944621E+04  0.50400001928E-02 0.  1.
        1   -1    0    0  501    0  0.00000000000E+00  0.00000000000E+00 -0.12732949417E+04  0.12732949418E+04  0.50400001928E-02 0. -1.
    10030    2    1    2    0    0  0.00000000000E+00  0.00000000000E+00  0.15783995204E+04  0.41249894039E+04  0.38110618647E+04 0.  0.
        1    1    3    3  502    0  0.68654335020E+03  0.15807707514E+04  0.16691030088E+04  0.23991837767E+04  0.50400001928E-02 0.  1.
       -1    1    3    3    0  502 -0.68654335020E+03 -0.15807707514E+04 -0.90703488468E+02  0.17258056272E+04  0.50400001928E-02 0. -1.
</event>
<event>
 5   0  0.3509843E-07  0.3752723E+04  0.7818609E-02  0.8056377E-01
        2   -1    0    0  501    0  0.00000000000E+00  0.00000000000E+00  0.28445970025E+04  0.28445970025E+04  0.25500000920E-02 0. -1.
       -2   -1    0    0    0  501  0.00000000000E+00  0.00000000000E+00 -0.12376911391E+04  0.12376911391E+04  0.25500000920E-02 0.  1.
    10030    2    1    2    0    0  0.00000000000E+00  0.00000000000E+00  0.16069058634E+04  0.40822881416E+04  0.37527230136E+04 0.  0.
        4    1    3    3  502    0  0.91894464645E+02 -0.28489881184E+03 -0.12115469875E+04  0.12479822280E+04  0.12699999809E+01 0.  1.
       -4    1    3    3    0  502 -0.91894464645E+02  0.28489881184E+03  0.28184528510E+04  0.28343059135E+04  0.12699999809E+01 0. -1.
</event>
<event>
 5   0  0.3327241E-07  0.3808799E+04  0.7818609E-02  0.8044269E-01
       -2   -1    0    0    0  501  0.00000000000E+00  0.00000000000E+00  0.11424632502E+04  0.11424632502E+04  0.25500000920E-02 0. -1.
        2   -1    0    0  501    0  0.00000000000E+00  0.00000000000E+00 -0.31744885478E+04  0.31744885478E+04  0.25500000920E-02 0.  1.
    10030    2    1    2    0    0  0.00000000000E+00  0.00000000000E+00 -0.20320252976E+04  0.43169517981E+04  0.38087985004E+04 0.  0.
        3    1    3    3  502    0 -0.34945933449E+03  0.14901543585E+04  0.26833015544E+03  0.15539250050E+04  0.10100000352E+00 0. -1.
       -3    1    3    3    0  502  0.34945933449E+03 -0.14901543585E+04 -0.23003554530E+04  0.27630267931E+04  0.10100000352E+00 0.  1.
</event>
<event>
 5   0  0.3377396E-07  0.3702624E+04  0.7818609E-02  0.8067381E-01
       -2   -1    0    0    0  501  0.00000000000E+00  0.00000000000E+00  0.25532303901E+04  0.25532303901E+04  0.25500000920E-02 0. -1.
        2   -1    0    0  501    0  0.00000000000E+00  0.00000000000E+00 -0.13423606888E+04  0.13423606888E+04  0.25500000920E-02 0.  1.
    10030    2    1    2    0    0  0.00000000000E+00  0.00000000000E+00  0.12108697013E+04  0.38955910790E+04  0.37026239913E+04 0.  0.
        5    1    3    3  502    0  0.17135452137E+04  0.32763485163E+03  0.12571971001E+04  0.21503833225E+04  0.46999998093E+01 0. -1.
       -5    1    3    3    0  502 -0.17135452137E+04 -0.32763485163E+03 -0.46327398845E+02  0.17452077564E+04  0.46999998093E+01 0.  1.
</event>
<event>
 5   0  0.3327241E-07  0.3788517E+04  0.7818609E-02  0.8048624E-01
       -2   -1    0    0    0  501  0.00000000000E+00  0.00000000000E+00  0.34794247175E+04  0.34794247175E+04  0.25500000920E-02 0. -1.
        2   -1    0    0  501    0  0.00000000000E+00  0.00000000000E+00 -0.10312670152E+04  0.10312670152E+04  0.25500000920E-02 0.  1.
    10030    2    1    2    0    0  0.00000000000E+00  0.00000000000E+00  0.24481577023E+04  0.45106917327E+04  0.37885173580E+04 0.  0.
        3    1    3    3  502    0 -0.13112243543E+04  0.78797998439E+03  0.25541661446E+04  0.29772447779E+04  0.10100000352E+00 0. -1.
       -3    1    3    3    0  502  0.13112243543E+04 -0.78797998439E+03 -0.10600844230E+03  0.15334469548E+04  0.10100000352E+00 0.  1.
</event>
<event>
 5   0  0.1070988E-07  0.3801398E+04  0.7818609E-02  0.8045855E-01
        1   -1    0    0  501    0  0.00000000000E+00  0.00000000000E+00  0.26659758598E+04  0.26659758598E+04  0.50400001928E-02 0. -1.
       -1   -1    0    0    0  501  0.00000000000E+00  0.00000000000E+00 -0.13550975524E+04  0.13550975524E+04  0.50400001928E-02 0.  1.
    10030    2    1    2    0    0  0.00000000000E+00  0.00000000000E+00  0.13108783075E+04  0.40210734122E+04  0.38013983545E+04 0.  0.
        3    1    3    3  502    0  0.25376699153E+03 -0.16176813079E+04 -0.36540397111E+03  0.16777397212E+04  0.10100000352E+00 0.  1.
       -3    1    3    3    0  502 -0.25376699153E+03  0.16176813079E+04  0.16762822786E+04  0.23433336910E+04  0.10100000352E+00 0. -1.
</event>
<event>
 5   0  0.1070988E-07  0.3776186E+04  0.7818609E-02  0.8051285E-01
       -1   -1    0    0    0  501  0.00000000000E+00  0.00000000000E+00  0.18460837904E+04  0.18460837904E+04  0.50400001928E-02 0.  1.
        1   -1    0    0  501    0  0.00000000000E+00  0.00000000000E+00 -0.19310581085E+04  0.19310581085E+04  0.50400001928E-02 0. -1.
    10030    2    1    2    0    0  0.00000000000E+00  0.00000000000E+00 -0.84974318114E+02  0.37771418989E+04  0.37761859448E+04 0.  0.
        5    1    3    3  502    0  0.64626659679E+03  0.26369853505E+03  0.17122874692E+04  0.18490938047E+04  0.46999998093E+01 0.  1.
       -5    1    3    3    0  502 -0.64626659679E+03 -0.26369853505E+03 -0.17972617873E+04  0.19280480942E+04  0.46999998093E+01 0. -1.
</event>
<event>
 5   0  0.3509843E-07  0.3650930E+04  0.7818609E-02  0.8078924E-01
       -2   -1    0    0    0  501  0.00000000000E+00  0.00000000000E+00  0.11149679924E+04  0.11149679924E+04  0.25500000920E-02 0. -1.
        2   -1    0    0  501    0  0.00000000000E+00  0.00000000000E+00 -0.29887160920E+04  0.29887160920E+04  0.25500000920E-02 0.  1.
    10030    2    1    2    0    0  0.00000000000E+00  0.00000000000E+00 -0.18737480996E+04  0.41036840844E+04  0.36509301725E+04 0.  0.
        4    1    3    3  502    0 -0.58295238251E+03  0.34914723281E+03 -0.28412623969E+04  0.29213885212E+04  0.12699999809E+01 0.  1.
       -4    1    3    3    0  502  0.58295238251E+03 -0.34914723281E+03  0.96751429735E+03  0.11822955633E+04  0.12699999809E+01 0. -1.
</event>
<event>
 5   0  0.1070988E-07  0.3802210E+04  0.7818609E-02  0.8045681E-01
        1   -1    0    0  501    0  0.00000000000E+00  0.00000000000E+00  0.19686997771E+04  0.19686997771E+04  0.50400001928E-02 0.  1.
       -1   -1    0    0    0  501  0.00000000000E+00  0.00000000000E+00 -0.18358310665E+04  0.18358310665E+04  0.50400001928E-02 0. -1.
    10030    2    1    2    0    0  0.00000000000E+00  0.00000000000E+00  0.13286871057E+03  0.38045308436E+04  0.38022099949E+04 0.  0.
        5    1    3    3  502    0  0.86317381359E+03  0.40595820421E+03 -0.15790471615E+04  0.18447989387E+04  0.46999998093E+01 0. -1.
       -5    1    3    3    0  502 -0.86317381359E+03 -0.40595820421E+03  0.17119158721E+04  0.19597319049E+04  0.46999998093E+01 0.  1.
</event>
<event>
 5   0  0.1070988E-07  0.3789181E+04  0.7818609E-02  0.8048481E-01
       -1   -1    0    0    0  501  0.00000000000E+00  0.00000000000E+00  0.18622818344E+04  0.18622818344E+04  0.50400001928E-02 0. -1.
        1   -1    0    0  501    0  0.00000000000E+00  0.00000000000E+00 -0.19274592399E+04  0.19274592399E+04  0.50400001928E-02 0.  1.
    10030    2    1    2    0    0  0.00000000000E+00  0.00000000000E+00 -0.65177405509E+02  0.37897410743E+04  0.37891805599E+04 0.  0.
        5    1    3    3  502    0  0.41257746185E+03  0.18295418827E+04 -0.30096880830E+03  0.18994862401E+04  0.46999998093E+01 0.  1.
       -5    1    3    3    0  502 -0.41257746185E+03 -0.18295418827E+04  0.23579140279E+03  0.18902548342E+04  0.46999998093E+01 0. -1.
</event>
<event>
 5   0  0.1070988E-07  0.3677293E+04  0.7818609E-02  0.8073013E-01
        1   -1    0    0  501    0  0.00000000000E+00  0.00000000000E+00  0.24033133257E+04  0.24033133257E+04  0.50400001928E-02 0.  1.
       -1   -1    0    0    0  501  0.00000000000E+00  0.00000000000E+00 -0.14066498614E+04  0.14066498614E+04  0.50400001928E-02 0. -1.
    10030    2    1    2    0    0  0.00000000000E+00  0.00000000000E+00  0.99666346431E+03  0.38099631872E+04  0.36772926762E+04 0.  0.
        3    1    3    3  502    0 -0.16247294792E+04  0.19561010076E+03  0.13667922970E+04  0.21321656562E+04  0.10100000352E+00 0.  1.
       -3    1    3    3    0  502  0.16247294792E+04 -0.19561010076E+03 -0.37012883265E+03  0.16777975310E+04  0.10100000352E+00 0. -1.
</event>
<event>
 5   0  0.3327241E-07  0.3793625E+04  0.7818609E-02  0.8047524E-01
       -2   -1    0    0    0  501  0.00000000000E+00  0.00000000000E+00  0.15283000518E+04  0.15283000518E+04  0.25500000920E-02 0. -1.
        2   -1    0    0  501    0  0.00000000000E+00  0.00000000000E+00 -0.23541832617E+04  0.23541832617E+04  0.25500000920E-02 0.  1.
    10030    2    1    2    0    0  0.00000000000E+00  0.00000000000E+00 -0.82588320994E+03  0.38824833136E+04  0.37936253905E+04 0.  0.
        3    1    3    3  502    0 -0.98017135961E+03 -0.21197589118E+03  0.12348102656E+04  0.15907313019E+04  0.10100000352E+00 0. -1.
       -3    1    3    3    0  502  0.98017135961E+03  0.21197589118E+03 -0.20606934755E+04  0.22917520117E+04  0.10100000352E+00 0.  1.
</event>
<event>
 5   0  0.1070988E-07  0.3771323E+04  0.7818609E-02  0.8052337E-01
       -1   -1    0    0    0  501  0.00000000000E+00  0.00000000000E+00  0.10717283050E+04  0.10717283050E+04  0.50400001928E-02 0.  1.
        1   -1    0    0  501    0  0.00000000000E+00  0.00000000000E+00 -0.33177431127E+04  0.33177431127E+04  0.50400001928E-02 0. -1.
    10030    2    1    2    0    0  0.00000000000E+00  0.00000000000E+00 -0.22460148078E+04  0.43894714177E+04  0.37713229523E+04 0.  0.
        2    1    3    3  502    0 -0.16764450145E+04  0.59372356801E+03 -0.18524197031E+04  0.25679630680E+04  0.25500000920E-02 0. -1.
       -2    1    3    3    0  502  0.16764450145E+04 -0.59372356801E+03 -0.39359510464E+03  0.18215083498E+04  0.25500000920E-02 0.  1.
</event>
<event>
 5   0  0.1070988E-07  0.3806865E+04  0.7818609E-02  0.8044683E-01
       -1   -1    0    0    0  501  0.00000000000E+00  0.00000000000E+00  0.17491899220E+04  0.17491899220E+04  0.50400001928E-02 0. -1.
        1   -1    0    0  501    0  0.00000000000E+00  0.00000000000E+00 -0.20712760248E+04  0.20712760248E+04  0.50400001928E-02 0.  1.
    10030    2    1    2    0    0  0.00000000000E+00  0.00000000000E+00 -0.32208610283E+03  0.38204659467E+04  0.38068649297E+04 0.  0.
        3    1    3    3  502    0  0.10812413650E+04  0.18280293188E+03  0.14003288978E+04  0.17786008078E+04  0.10100000352E+00 0. -1.
       -3    1    3    3    0  502 -0.10812413650E+04 -0.18280293188E+03 -0.17224150006E+04  0.20418651390E+04  0.10100000352E+00 0.  1.
</event>
<event>
 5   0  0.1070988E-07  0.3794669E+04  0.7818609E-02  0.8047300E-01
        1   -1    0    0  501    0  0.00000000000E+00  0.00000000000E+00  0.17937638582E+04  0.17937638582E+04  0.50400001928E-02 0. -1.
       -1   -1    0    0    0  501  0.00000000000E+00  0.00000000000E+00 -0.20068852395E+04  0.20068852395E+04  0.50400001928E-02 0.  1.
    10030    2    1    2    0    0  0.00000000000E+00  0.00000000000E+00 -0.21312138133E+03  0.38006490977E+04  0.37946690028E+04 0.  0.
        2    1    3    3  502    0 -0.13390075839E+04  0.72543019068E+03  0.10268975764E+04  0.18367658815E+04  0.25500000920E-02 0. -1.
       -2    1    3    3    0  502  0.13390075839E+04 -0.72543019068E+03 -0.12400189577E+04  0.19638832161E+04  0.25500000920E-02 0.  1.
</event>
<event>
 5   0  0.1070988E-07  0.3808215E+04  0.7818609E-02  0.8044394E-01
       -1   -1    0    0    0  501  0.00000000000E+00  0.00000000000E+00  0.24206133632E+04  0.24206133632E+04  0.50400001928E-02 0.  1.
        1   -1    0    0  501    0  0.00000000000E+00  0.00000000000E+00 -0.14978123107E+04  0.14978123108E+04  0.50400001928E-02 0. -1.
    10030    2    1    2    0    0  0.00000000000E+00  0.00000000000E+00  0.92280105241E+03  0.39184256739E+04  0.38082145396E+04 0.  0.
        3    1    3    3  502    0  0.12928541419E+04  0.11790815398E+04 -0.31127777203E+03  0.17772447696E+04  0.10100000352E+00 0. -1.
       -3    1    3    3    0  502 -0.12928541419E+04 -0.11790815398E+04  0.12340788244E+04  0.21411809043E+04  0.10100000352E+00 0.  1.
</event>
<event>
 5   0  0.3377396E-07  0.3800105E+04  0.7818609E-02  0.8046132E-01
       -2   -1    0    0    0  501  0.00000000000E+00  0.00000000000E+00  0.15760569026E+04  0.15760569026E+04  0.25500000920E-02 0. -1.
        2   -1    0    0  501    0  0.00000000000E+00  0.00000000000E+00 -0.22906530610E+04  0.22906530610E+04  0.25500000920E-02 0.  1.
    10030    2    1    2    0    0  0.00000000000E+00  0.00000000000E+00 -0.71459615842E+03  0.38667099637E+04  0.38001050345E+04 0.  0.
        5    1    3    3  502    0 -0.11485295198E+04  0.11810524385E+04  0.60595813051E+03  0.17553382199E+04  0.46999998093E+01 0. -1.
       -5    1    3    3    0  502  0.11485295198E+04 -0.11810524385E+04 -0.13205542889E+04  0.21113717438E+04  0.46999998093E+01 0.  1.
</event>
<event>
 5   0  0.3539010E-07  0.3857829E+04  0.7818609E-02  0.8033858E-01
       -2   -1    0    0    0  501  0.00000000000E+00  0.00000000000E+00  0.20394453036E+04  0.20394453036E+04  0.25500000920E-02 0. -1.
        2   -1    0    0  501    0  0.00000000000E+00  0.00000000000E+00 -0.18243739890E+04  0.18243739891E+04  0.25500000920E-02 0.  1.
    10030    2    1    2    0    0  0.00000000000E+00  0.00000000000E+00  0.21507131451E+03  0.38638192926E+04  0.38578289044E+04 0.  0.
        1    1    3    3  502    0  0.11840698145E+03  0.45865260356E+02 -0.18201834440E+04  0.18246072469E+04  0.50400001928E-02 0.  1.
       -1    1    3    3    0  502 -0.11840698145E+03 -0.45865260356E+02  0.20352547585E+04  0.20392120458E+04  0.50400001928E-02 0. -1.
</event>
<event>
 5   0  0.1085771E-07  0.3673023E+04  0.7818609E-02  0.8073967E-01
       -1   -1    0    0    0  501  0.00000000000E+00  0.00000000000E+00  0.15060953412E+04  0.15060953413E+04  0.50400001928E-02 0. -1.
        1   -1    0    0  501    0  0.00000000000E+00  0.00000000000E+00 -0.22394161937E+04  0.22394161937E+04  0.50400001928E-02 0.  1.
    10030    2    1    2    0    0  0.00000000000E+00  0.00000000000E+00 -0.73332085245E+03  0.37455115350E+04  0.36730228948E+04 0.  0.
        1    1    3    3  502    0  0.61151478282E+03  0.54212240452E+03 -0.20437849106E+04  0.22011142160E+04  0.50400001928E-02 0.  1.
       -1    1    3    3    0  502 -0.61151478282E+03 -0.54212240452E+03  0.13104640581E+04  0.15443973190E+04  0.50400001928E-02 0. -1.
</event>
<event>
 5   0  0.3442126E-07  0.3769926E+04  0.7818609E-02  0.8052640E-01
        2   -1    0    0  501    0  0.00000000000E+00  0.00000000000E+00  0.22449482870E+04  0.22449482870E+04  0.25500000920E-02 0. -1.
       -2   -1    0    0    0  501  0.00000000000E+00  0.00000000000E+00 -0.15827028578E+04  0.15827028578E+04  0.25500000920E-02 0.  1.
    10030    2    1    2    0    0  0.00000000000E+00  0.00000000000E+00  0.66224542923E+03  0.38276511448E+04  0.37699262960E+04 0.  0.
        2    1    3    3  502    0  0.37529198162E+03 -0.87483841665E+01  0.22066117557E+04  0.22383154483E+04  0.25500000920E-02 0. -1.
       -2    1    3    3    0  502 -0.37529198162E+03  0.87483841665E+01 -0.15443663265E+04  0.15893356965E+04  0.25500000920E-02 0.  1.
</event>
<event>
 5   0  0.3377396E-07  0.3795707E+04  0.7818609E-02  0.8047077E-01
       -2   -1    0    0    0  501  0.00000000000E+00  0.00000000000E+00  0.15666536863E+04  0.15666536863E+04  0.25500000920E-02 0.  1.
        2   -1    0    0  501    0  0.00000000000E+00  0.00000000000E+00 -0.22990713735E+04  0.22990713735E+04  0.25500000920E-02 0. -1.
    10030    2    1    2    0    0  0.00000000000E+00  0.00000000000E+00 -0.73241768719E+03  0.38657250598E+04  0.37957073873E+04 0.  0.
        5    1    3    3  502    0  0.78336667370E+03 -0.10566270883E+04 -0.17595473407E+04  0.21968507194E+04  0.46999998093E+01 0. -1.
       -5    1    3    3    0  502 -0.78336667370E+03  0.10566270883E+04  0.10271296535E+04  0.16688743405E+04  0.46999998093E+01 0.  1.
</event>
<event>
 5   0  0.1070988E-07  0.3782113E+04  0.7818609E-02  0.8050004E-01
       -1   -1    0    0    0  501  0.00000000000E+00  0.00000000000E+00  0.11030909409E+04  0.11030909409E+04  0.50400001928E-02 0. -1.
        1   -1    0    0  501    0  0.00000000000E+00  0.00000000000E+00 -0.32418862183E+04  0.32418862183E+04  0.50400001928E-02 0.  1.
    10030    2    1    2    0    0  0.00000000000E+00  0.00000000000E+00 -0.21387952774E+04  0.43449771592E+04  0.37821133345E+04 0.  0.
        2    1    3    3  502    0  0.15729186062E+04 -0.85444600312E+03 -0.36876240387E+03  0.18276040666E+04  0.25500000920E-02 0. -1.
       -2    1    3    3    0  502 -0.15729186062E+04  0.85444600312E+03 -0.17700328735E+04  0.25173730926E+04  0.25500000920E-02 0.  1.
</event>
<event>
 5   0  0.3442126E-07  0.3822281E+04  0.7818609E-02  0.8041390E-01
        2   -1    0    0  501    0  0.00000000000E+00  0.00000000000E+00  0.22417208863E+04  0.22417208863E+04  0.25500000920E-02 0.  1.
       -2   -1    0    0    0  501  0.00000000000E+00  0.00000000000E+00 -0.16293100195E+04  0.16293100195E+04  0.25500000920E-02 0. -1.
    10030    2    1    2    0    0  0.00000000000E+00  0.00000000000E+00  0.61241086681E+03  0.38710309059E+04  0.38222811519E+04 0.  0.
        2    1    3    3  502    0  0.12663777498E+04 -0.12443753951E+04 -0.41011717476E+03  0.18221906668E+04  0.25500000920E-02 0. -1.
       -2    1    3    3    0  502 -0.12663777498E+04  0.12443753951E+04  0.10225280416E+04  0.20488402390E+04  0.25500000920E-02 0.  1.
</event>
<event>
 5   0  0.3327241E-07  0.3793152E+04  0.7818609E-02  0.8047626E-01
       -2   -1    0    0    0  501  0.00000000000E+00  0.00000000000E+00  0.17391075332E+04  0.17391075332E+04  0.25500000920E-02 0.  1.
        2   -1    0    0  501    0  0.00000000000E+00  0.00000000000E+00 -0.20683027796E+04  0.20683027796E+04  0.25500000920E-02 0. -1.
    10030    2    1    2    0    0  0.00000000000E+00  0.00000000000E+00 -0.32919524637E+03  0.38074103128E+04  0.37931522221E+04 0.  0.
        3    1    3    3  502    0  0.11489718891E+04  0.79027060112E+03 -0.14548620163E+04  0.20152636358E+04  0.10100000352E+00 0. -1.
       -3    1    3    3    0  502 -0.11489718891E+04 -0.79027060112E+03  0.11256667699E+04  0.17921466771E+04  0.10100000352E+00 0.  1.
</event>
<event>
 5   0  0.1070988E-07  0.3776306E+04  0.7818609E-02  0.8051259E-01
       -1   -1    0    0    0  501  0.00000000000E+00  0.00000000000E+00  0.17902099176E+04  0.17902099177E+04  0.50400001928E-02 0.  1.
        1   -1    0    0  501    0  0.00000000000E+00  0.00000000000E+00 -0.19914546415E+04  0.19914546415E+04  0.50400001928E-02 0. -1.
    10030    2    1    2    0    0  0.00000000000E+00  0.00000000000E+00 -0.20124472385E+03  0.37816645592E+04  0.37763060521E+04 0.  0.
        5    1    3    3  502    0  0.10252587215E+03 -0.17970520500E+04 -0.67168774582E+03  0.19212220441E+04  0.46999998093E+01 0. -1.
       -5    1    3    3    0  502 -0.10252587215E+03  0.17970520500E+04  0.47044302197E+03  0.18604425150E+04  0.46999998093E+01 0.  1.
</event>
<event>
 5   0  0.3539010E-07  0.3771447E+04  0.7818609E-02  0.8052310E-01
       -2   -1    0    0    0  501  0.00000000000E+00  0.00000000000E+00  0.15187778595E+04  0.15187778595E+04  0.25500000920E-02 0. -1.
        2   -1    0    0  501    0  0.00000000000E+00  0.00000000000E+00 -0.23413250449E+04  0.23413250449E+04  0.25500000920E-02 0.  1.
    10030    2    1    2    0    0  0.00000000000E+00  0.00000000000E+00 -0.82254718541E+03  0.38601029045E+04  0.37714467464E+04 0.  0.
        1    1    3    3  502    0  0.44509822944E+03  0.18035976437E+04 -0.74273153849E+03  0.20006816419E+04  0.50400001928E-02 0. -1.
       -1    1    3    3    0  502 -0.44509822944E+03 -0.18035976437E+04 -0.79815646923E+02  0.18594212625E+04  0.50400001928E-02 0.  1.
</event>
<event>
 5   0  0.1084315E-07  0.3809989E+04  0.7818609E-02  0.8044015E-01
       -1   -1    0    0    0  501  0.00000000000E+00  0.00000000000E+00  0.15948766137E+04  0.15948766137E+04  0.50400001928E-02 0.  1.
        1   -1    0    0  501    0  0.00000000000E+00  0.00000000000E+00 -0.22754134898E+04  0.22754134898E+04  0.50400001928E-02 0. -1.
    10030    2    1    2    0    0  0.00000000000E+00  0.00000000000E+00 -0.68053687609E+03  0.38702901035E+04  0.38099888511E+04 0.  0.
        4    1    3    3  502    0 -0.11447571088E+04 -0.11887920637E+04  0.62626679828E+03  0.17651932257E+04  0.12699999809E+01 0. -1.
       -4    1    3    3    0  502  0.11447571088E+04  0.11887920637E+04 -0.13068036744E+04  0.21050968778E+04  0.12699999809E+01 0.  1.
</event>
<event>
 5   0  0.1070988E-07  0.3759512E+04  0.7818609E-02  0.8054900E-01
        1   -1    0    0  501    0  0.00000000000E+00  0.00000000000E+00  0.17648270795E+04  0.17648270796E+04  0.50400001928E-02 0. -1.
       -1   -1    0    0    0  501  0.00000000000E+00  0.00000000000E+00 -0.20021691809E+04  0.20021691809E+04  0.50400001928E-02 0.  1.
    10030    2    1    2    0    0  0.00000000000E+00  0.00000000000E+00 -0.23734210138E+03  0.37669962605E+04  0.37595118770E+04 0.  0.
        2    1    3    3  502    0  0.17013943231E+04 -0.79404493666E+03 -0.27757934988E+02  0.18777700890E+04  0.25500000920E-02 0.  1.
       -2    1    3    3    0  502 -0.17013943231E+04  0.79404493666E+03 -0.20958416639E+03  0.18892261715E+04  0.25500000920E-02 0. -1.
</event>
<event>
 5   0  0.3509843E-07  0.3787520E+04  0.7818609E-02  0.8048838E-01
        2   -1    0    0  501    0  0.00000000000E+00  0.00000000000E+00  0.18944093796E+04  0.18944093796E+04  0.25500000920E-02 0. -1.
       -2   -1    0    0    0  501  0.00000000000E+00  0.00000000000E+00 -0.18931109017E+04  0.18931109017E+04  0.25500000920E-02 0.  1.
    10030    2    1    2    0    0  0.00000000000E+00  0.00000000000E+00  0.12984779618E+01  0.37875202813E+04  0.37875200587E+04 0.  0.
        4    1    3    3  502    0  0.39183561344E+03 -0.16802115988E+04  0.78146889983E+03  0.18940278295E+04  0.12699999809E+01 0. -1.
       -4    1    3    3    0  502 -0.39183561344E+03  0.16802115988E+04 -0.78017042187E+03  0.18934924517E+04  0.12699999809E+01 0.  1.
</event>
<event>
 5   0  0.3442126E-07  0.3971897E+04  0.7818609E-02  0.8010240E-01
       -2   -1    0    0    0  501  0.00000000000E+00  0.00000000000E+00  0.14179681748E+04  0.14179681748E+04  0.25500000920E-02 0.  1.
        2   -1    0    0  501    0  0.00000000000E+00  0.00000000000E+00 -0.27814388080E+04  0.27814388080E+04  0.25500000920E-02 0. -1.
    10030    2    1    2    0    0  0.00000000000E+00  0.00000000000E+00 -0.13634706332E+04  0.41994069828E+04  0.39718971335E+04 0.  0.
        2    1    3    3  502    0 -0.15051187431E+04  0.12848933854E+04 -0.85756915466E+03  0.21567935223E+04  0.25500000920E-02 0.  1.
       -2    1    3    3    0  502  0.15051187431E+04 -0.12848933854E+04 -0.50590147858E+03  0.20426134605E+04  0.25500000920E-02 0. -1.
</event>
<event>
 5   0  0.3377396E-07  0.3845532E+04  0.7818609E-02  0.8036454E-01
        2   -1    0    0  501    0  0.00000000000E+00  0.00000000000E+00  0.16099228042E+04  0.16099228042E+04  0.25500000920E-02 0.  1.
       -2   -1    0    0    0  501  0.00000000000E+00  0.00000000000E+00 -0.22964020622E+04  0.22964020622E+04  0.25500000920E-02 0. -1.
    10030    2    1    2    0    0  0.00000000000E+00  0.00000000000E+00 -0.68647925792E+03  0.39063248664E+04  0.38455324976E+04 0.  0.
        5    1    3    3  502    0 -0.10124396357E+04  0.29697849739E+03  0.12895846385E+04  0.16662175349E+04  0.46999998093E+01 0.  1.
       -5    1    3    3    0  502  0.10124396357E+04 -0.29697849739E+03 -0.19760638964E+04  0.22401073315E+04  0.46999998093E+01 0. -1.
</event>
<event>
 5   0  0.1070988E-07  0.3750038E+04  0.7818609E-02  0.8056962E-01
        1   -1    0    0  501    0  0.00000000000E+00  0.00000000000E+00  0.28390745283E+04  0.28390745283E+04  0.50400001928E-02 0. -1.
       -1   -1    0    0    0  501  0.00000000000E+00  0.00000000000E+00 -0.12383247777E+04  0.12383247777E+04  0.50400001928E-02 0.  1.
    10030    2    1    2    0    0  0.00000000000E+00  0.00000000000E+00  0.16007497506E+04  0.40773993061E+04  0.37500380447E+04 0.  0.
        2    1    3    3  502    0 -0.45324858706E+03  0.11790116791E+04  0.23070515679E+04  0.26302071702E+04  0.25500000920E-02 0. -1.
       -2    1    3    3    0  502  0.45324858706E+03 -0.11790116791E+04 -0.70630181730E+03  0.14471921359E+04  0.25500000920E-02 0.  1.
</event>
<event>
 5   0  0.3509843E-07  0.3770253E+04  0.7818609E-02  0.8052569E-01
        2   -1    0    0  501    0  0.00000000000E+00  0.00000000000E+00  0.29146682546E+04  0.29146682546E+04  0.25500000920E-02 0. -1.
       -2   -1    0    0    0  501  0.00000000000E+00  0.00000000000E+00 -0.12192475104E+04  0.12192475104E+04  0.25500000920E-02 0.  1.
    10030    2    1    2    0    0  0.00000000000E+00  0.00000000000E+00  0.16954207442E+04  0.41339157650E+04  0.37702530488E+04 0.  0.
        4    1    3    3  502    0  0.15536683061E+04 -0.10501662278E+04  0.10585211806E+04  0.21534165909E+04  0.12699999809E+01 0.  1.
       -4    1    3    3    0  502 -0.15536683061E+04  0.10501662278E+04  0.63689956361E+03  0.19804991741E+04  0.12699999809E+01 0. -1.
</event>
<event>
 5   0  0.3327241E-07  0.3799015E+04  0.7818609E-02  0.8046366E-01
        2   -1    0    0  501    0  0.00000000000E+00  0.00000000000E+00  0.25575264782E+04  0.25575264782E+04  0.25500000920E-02 0. -1.
       -2   -1    0    0    0  501  0.00000000000E+00  0.00000000000E+00 -0.14107884684E+04  0.14107884684E+04  0.25500000920E-02 0.  1.
    10030    2    1    2    0    0  0.00000000000E+00  0.00000000000E+00  0.11467380098E+04  0.39683149467E+04  0.37990150635E+04 0.  0.
        3    1    3    3  502    0  0.12144356810E+04 -0.13164204092E+04 -0.87529082990E+02  0.17931754147E+04  0.10100000352E+00 0.  1.
       -3    1    3    3    0  502 -0.12144356810E+04  0.13164204092E+04  0.12342670928E+04  0.21751395320E+04  0.10100000352E+00 0. -1.
</event>
<event>
 5   0  0.1070988E-07  0.3235283E+04  0.7818609E-02  0.8179561E-01
        1   -1    0    0  501    0  0.00000000000E+00  0.00000000000E+00  0.23061892730E+04  0.23061892730E+04  0.50400001928E-02 0. -1.
       -1   -1    0    0    0  501  0.00000000000E+00  0.00000000000E+00 -0.11346703067E+04  0.11346703067E+04  0.50400001928E-02 0.  1.
    10030    2    1    2    0    0  0.00000000000E+00  0.00000000000E+00  0.11715189663E+04  0.34408595797E+04  0.32352832888E+04 0.  0.
        5    1    3    3  502    0 -0.95883213990E+03 -0.97247534868E+03  0.15078418032E+04  0.20343737046E+04  0.46999998093E+01 0. -1.
       -5    1    3    3    0  502  0.95883213990E+03  0.97247534868E+03 -0.33632283696E+03  0.14064858751E+04  0.46999998093E+01 0.  1.
</event>
<event>
 5   0  0.3327241E-07  0.3811824E+04  0.7818609E-02  0.8043622E-01
        2   -1    0    0  501    0  0.00000000000E+00  0.00000000000E+00  0.26415653016E+04  0.26415653016E+04  0.25500000920E-02 0.  1.
       -2   -1    0    0    0  501  0.00000000000E+00  0.00000000000E+00 -0.13751318060E+04  0.13751318060E+04  0.25500000920E-02 0. -1.
    10030    2    1    2    0    0  0.00000000000E+00  0.00000000000E+00  0.12664334956E+04  0.40166971077E+04  0.38118239539E+04 0.  0.
        3    1    3    3  502    0  0.35653591519E+03 -0.39251120323E+03 -0.12958357157E+04  0.14001332493E+04  0.10100000352E+00 0. -1.
       -3    1    3    3    0  502 -0.35653591519E+03  0.39251120323E+03  0.25622692113E+04  0.26165638584E+04  0.10100000352E+00 0.  1.
</event>
<event>
 5   0  0.1070988E-07  0.3505486E+04  0.7818609E-02  0.8112491E-01
        1   -1    0    0  501    0  0.00000000000E+00  0.00000000000E+00  0.10621284945E+04  0.10621284945E+04  0.50400001928E-02 0. -1.
       -1   -1    0    0    0  501  0.00000000000E+00  0.00000000000E+00 -0.28924079267E+04  0.28924079267E+04  0.50400001928E-02 0.  1.
    10030    2    1    2    0    0  0.00000000000E+00  0.00000000000E+00 -0.18302794322E+04  0.39545364212E+04  0.35054864864E+04 0.  0.
        2    1    3    3  502    0 -0.26081475452E+03 -0.10801755871E+04 -0.24442469380E+04  0.26849854244E+04  0.25500000920E-02 0.  1.
       -2    1    3    3    0  502  0.26081475452E+03  0.10801755871E+04  0.61396750580E+03  0.12695509968E+04  0.25500000920E-02 0. -1.
</event>
<event>
 5   0  0.1085771E-07  0.3795837E+04  0.7818609E-02  0.8047049E-01
        1   -1    0    0  501    0  0.00000000000E+00  0.00000000000E+00  0.14782351906E+04  0.14782351906E+04  0.50400001928E-02 0.  1.
       -1   -1    0    0    0  501  0.00000000000E+00  0.00000000000E+00 -0.24367533328E+04  0.24367533328E+04  0.50400001928E-02 0. -1.
    10030    2    1    2    0    0  0.00000000000E+00  0.00000000000E+00 -0.95851814217E+03  0.39149885234E+04  0.37958369445E+04 0.  0.
        1    1    3    3  502    0 -0.17078022680E+04 -0.80218592525E+03 -0.26787774111E+03  0.19057411496E+04  0.50400001928E-02 0. -1.
       -1    1    3    3    0  502  0.17078022680E+04  0.80218592525E+03 -0.69064040106E+03  0.20092473737E+04  0.50400001928E-02 0.  1.
</event>
<event>
 5   0  0.3509843E-07  0.3793344E+04  0.7818609E-02  0.8047585E-01
        2   -1    0    0  501    0  0.00000000000E+00  0.00000000000E+00  0.14951790239E+04  0.14951790239E+04  0.25500000920E-02 0. -1.
       -2   -1    0    0    0  501  0.00000000000E+00  0.00000000000E+00 -0.24059757406E+04  0.24059757406E+04  0.25500000920E-02 0.  1.
    10030    2    1    2    0    0  0.00000000000E+00  0.00000000000E+00 -0.91079671669E+03  0.39011547644E+04  0.37933438859E+04 0.  0.
        4    1    3    3  502    0 -0.14018506664E+04  0.12296036014E+04 -0.98768179532E+02  0.18673154725E+04  0.12699999809E+01 0.  1.
       -4    1    3    3    0  502  0.14018506664E+04 -0.12296036014E+04 -0.81202853715E+03  0.20338392920E+04  0.12699999809E+01 0. -1.
</event>
<event>
 5   0  0.3509843E-07  0.3762339E+04  0.7818609E-02  0.8054286E-01
       -2   -1    0    0    0  501  0.00000000000E+00  0.00000000000E+00  0.18635326839E+04  0.18635326839E+04  0.25500000920E-02 0. -1.
        2   -1    0    0  501    0  0.00000000000E+00  0.00000000000E+00 -0.18989727323E+04  0.18989727323E+04  0.25500000920E-02 0.  1.
    10030    2    1    2    0    0  0.00000000000E+00  0.00000000000E+00 -0.35440048360E+02  0.37625054162E+04  0.37623385028E+04 0.  0.
        4    1    3    3  502    0 -0.94703556323E+03 -0.13195675625E+04  0.93135381152E+03  0.18723131269E+04  0.12699999809E+01 0. -1.
       -4    1    3    3    0  502  0.94703556323E+03  0.13195675625E+04 -0.96679385988E+03  0.18901922893E+04  0.12699999809E+01 0.  1.
</event>
<event>
 5   0  0.3509843E-07  0.3782829E+04  0.7818609E-02  0.8049850E-01
        2   -1    0    0  501    0  0.00000000000E+00  0.00000000000E+00  0.26290179136E+04  0.26290179136E+04  0.25500000920E-02 0.  1.
       -2   -1    0    0    0  501  0.00000000000E+00  0.00000000000E+00 -0.13607547695E+04  0.13607547695E+04  0.25500000920E-02 0. -1.
    10030    2    1    2    0    0  0.00000000000E+00  0.00000000000E+00  0.12682631442E+04  0.39897726831E+04  0.37828289229E+04 0.  0.
        4    1    3    3  502    0 -0.36641863547E+03 -0.91212085432E+03 -0.10701964393E+04  0.14531170293E+04  0.12699999809E+01 0. -1.
       -4    1    3    3    0  502  0.36641863547E+03  0.91212085432E+03  0.23384595835E+04  0.25366556538E+04  0.12699999809E+01 0.  1.
</event>
<event>
 5   0  0.1070988E-07  0.3368873E+04  0.7818609E-02  0.8145588E-01
        1   -1    0    0  501    0  0.00000000000E+00  0.00000000000E+00  0.25252842357E+04  0.25252842357E+04  0.50400001928E-02 0. -1.
       -1   -1    0    0    0  501  0.00000000000E+00  0.00000000000E+00 -0.11235671990E+04  0.11235671990E+04  0.50400001928E-02 0.  1.
    10030    2    1    2    0    0  0.00000000000E+00  0.00000000000E+00  0.14017170367E+04  0.36488514347E+04  0.33688731263E+04 0.  0.
        3    1    3    3  502    0 -0.77485419184E+03 -0.44371963936E+03  0.22478606368E+04  0.24187111422E+04  0.10100000352E+00 0. -1.
       -3    1    3    3    0  502  0.77485419184E+03  0.44371963936E+03 -0.84614360008E+03  0.12301402925E+04  0.10100000352E+00 0.  1.
</event>
<event>
 5   0  0.3327241E-07  0.3799118E+04  0.7818609E-02  0.8046344E-01
       -2   -1    0    0    0  501  0.00000000000E+00  0.00000000000E+00  0.27777880922E+04  0.27777880922E+04  0.25500000920E-02 0.  1.
        2   -1    0    0  501    0  0.00000000000E+00  0.00000000000E+00 -0.12989921547E+04  0.12989921547E+04  0.25500000920E-02 0. -1.
    10030    2    1    2    0    0  0.00000000000E+00  0.00000000000E+00  0.14787959376E+04  0.40767802469E+04  0.37991182868E+04 0.  0.
        3    1    3    3  502    0 -0.16507275818E+04 -0.63942917712E+03  0.17207407639E+00  0.17702461020E+04  0.10100000352E+00 0. -1.
       -3    1    3    3    0  502  0.16507275818E+04  0.63942917712E+03  0.14786238635E+04  0.23065341449E+04  0.10100000352E+00 0.  1.
</event>
<event>
 5   0  0.3327241E-07  0.3849356E+04  0.7818609E-02  0.8035645E-01
        2   -1    0    0  501    0  0.00000000000E+00  0.00000000000E+00  0.26588228682E+04  0.26588228682E+04  0.25500000920E-02 0.  1.
       -2   -1    0    0    0  501  0.00000000000E+00  0.00000000000E+00 -0.13932426645E+04  0.13932426645E+04  0.25500000920E-02 0. -1.
    10030    2    1    2    0    0  0.00000000000E+00  0.00000000000E+00  0.12655802037E+04  0.40520655327E+04  0.38493560278E+04 0.  0.
        3    1    3    3  502    0  0.94960168910E+03  0.11328814718E+04 -0.66468475283E+03  0.16207929010E+04  0.10100000352E+00 0. -1.
       -3    1    3    3    0  502 -0.94960168910E+03 -0.11328814718E+04  0.19302649565E+04  0.24312726317E+04  0.10100000352E+00 0.  1.
</event>
<event>
 5   0  0.1070988E-07  0.3408655E+04  0.7818609E-02  0.8135785E-01
       -1   -1    0    0    0  501  0.00000000000E+00  0.00000000000E+00  0.11921673831E+04  0.11921673831E+04  0.50400001928E-02 0. -1.
        1   -1    0    0  501    0  0.00000000000E+00  0.00000000000E+00 -0.24365132166E+04  0.24365132166E+04  0.50400001928E-02 0.  1.
    10030    2    1    2    0    0  0.00000000000E+00  0.00000000000E+00 -0.12443458335E+04  0.36286805997E+04  0.34086546234E+04 0.  0.
        2    1    3    3  502    0 -0.65397210455E+03 -0.15704837664E+04 -0.51240136739E+03  0.17766974800E+04  0.25500000920E-02 0. -1.
       -2    1    3    3    0  502  0.65397210455E+03  0.15704837664E+04 -0.73194446611E+03  0.18519831197E+04  0.25500000920E-02 0.  1.
</event>
<event>
 5   0  0.1085771E-07  0.3803713E+04  0.7818609E-02  0.8045359E-01
       -1   -1    0    0    0  501  0.00000000000E+00  0.00000000000E+00  0.14413083031E+04  0.14413083031E+04  0.50400001928E-02 0.  1.
        1   -1    0    0  501    0  0.00000000000E+00  0.00000000000E+00 -0.25095660971E+04  0.25095660971E+04  0.50400001928E-02 0. -1.
    10030    2    1    2    0    0  0.00000000000E+00  0.00000000000E+00 -0.10682577940E+04  0.39508744003E+04  0.38037131611E+04 0.  0.
        1    1    3    3  502    0 -0.10956692193E+04 -0.12932995990E+04 -0.14300204858E+04  0.22176729878E+04  0.50400001928E-02 0. -1.
       -1    1    3    3    0  502  0.10956692193E+04  0.12932995990E+04  0.36176269180E+03  0.17332014125E+04  0.50400001928E-02 0.  1.
</event>
<event>
 5   0  0.1070988E-07  0.3653657E+04  0.7818609E-02  0.8078310E-01
       -1   -1    0    0    0  501  0.00000000000E+00  0.00000000000E+00  0.11304855947E+04  0.11304855947E+04  0.50400001928E-02 0. -1.
        1   -1    0    0  501    0  0.00000000000E+00  0.00000000000E+00 -0.29520966729E+04  0.29520966729E+04  0.50400001928E-02 0.  1.
    10030    2    1    2    0    0  0.00000000000E+00  0.00000000000E+00 -0.18216110782E+04  0.40825822676E+04  0.36536572160E+04 0.  0.
        2    1    3    3  502    0  0.13649800572E+04 -0.74146984337E+02 -0.22649468835E+04  0.26454966862E+04  0.25500000920E-02 0.  1.
       -2    1    3    3    0  502 -0.13649800572E+04  0.74146984337E+02  0.44333580529E+03  0.14370855814E+04  0.25500000920E-02 0. -1.
</event>
<event>
 5   0  0.3327241E-07  0.3814244E+04  0.7818609E-02  0.8043105E-01
       -2   -1    0    0    0  501  0.00000000000E+00  0.00000000000E+00  0.16366350330E+04  0.16366350330E+04  0.25500000920E-02 0.  1.
        2   -1    0    0  501    0  0.00000000000E+00  0.00000000000E+00 -0.22223125312E+04  0.22223125312E+04  0.25500000920E-02 0. -1.
    10030    2    1    2    0    0  0.00000000000E+00  0.00000000000E+00 -0.58567749819E+03  0.38589475642E+04  0.38142441153E+04 0.  0.
        3    1    3    3  502    0  0.42441094313E+03  0.32825381161E+03 -0.21443803871E+04  0.22104846682E+04  0.10100000352E+00 0. -1.
       -3    1    3    3    0  502 -0.42441094313E+03 -0.32825381161E+03  0.15587028889E+04  0.16484628960E+04  0.10100000352E+00 0.  1.
</event>
<event>
 5   0  0.1070988E-07  0.3776617E+04  0.7818609E-02  0.8051191E-01
        1   -1    0    0  501    0  0.00000000000E+00  0.00000000000E+00  0.17840920438E+04  0.17840920438E+04  0.50400001928E-02 0.  1.
       -1   -1    0    0    0  501  0.00000000000E+00  0.00000000000E+00 -0.19986127012E+04  0.19986127012E+04  0.50400001928E-02 0. -1.
    10030    2    1    2    0    0  0.00000000000E+00  0.00000000000E+00 -0.21452065734E+03  0.37827047450E+04  0.37766170146E+04 0.  0.
        2    1    3    3  502    0 -0.17485120841E+04 -0.68908279706E+03 -0.29080256747E+03  0.19017612213E+04  0.25500000920E-02 0. -1.
       -2    1    3    3    0  502  0.17485120841E+04  0.68908279706E+03  0.76281910123E+02  0.18809435237E+04  0.25500000920E-02 0.  1.
</event>
<event>
 5   0  0.3509843E-07  0.3779099E+04  0.7818609E-02  0.8050655E-01
       -2   -1    0    0    0  501  0.00000000000E+00  0.00000000000E+00  0.20249573224E+04  0.20249573224E+04  0.25500000920E-02 0. -1.
        2   -1    0    0  501    0  0.00000000000E+00  0.00000000000E+00 -0.17631966418E+04  0.17631966418E+04  0.25500000920E-02 0.  1.
    10030    2    1    2    0    0  0.00000000000E+00  0.00000000000E+00  0.26176068066E+03  0.37881539642E+04  0.37790993375E+04 0.  0.
        4    1    3    3  502    0  0.87038972980E+03  0.16613281467E+04  0.36122832881E+03  0.19099939820E+04  0.12699999809E+01 0.  1.
       -4    1    3    3    0  502 -0.87038972980E+03 -0.16613281467E+04 -0.99467648144E+02  0.18781599822E+04  0.12699999809E+01 0. -1.
</event>
<event>
 5   0  0.1070988E-07  0.3703033E+04  0.7818609E-02  0.8067290E-01
        1   -1    0    0  501    0  0.00000000000E+00  0.00000000000E+00  0.15491809938E+04  0.15491809938E+04  0.50400001928E-02 0. -1.
       -1   -1    0    0    0  501  0.00000000000E+00  0.00000000000E+00 -0.22128552645E+04  0.22128552645E+04  0.50400001928E-02 0.  1.
    10030    2    1    2    0    0  0.00000000000E+00  0.00000000000E+00 -0.66367427069E+03  0.37620362583E+04  0.37030329828E+04 0.  0.
        3    1    3    3  502    0  0.14765729425E+04  0.86437331371E+03  0.38704238682E+03  0.17541980217E+04  0.10100000352E+00 0. -1.
       -3    1    3    3    0  502 -0.14765729425E+04 -0.86437331371E+03 -0.10507166575E+04  0.20078382366E+04  0.10100000352E+00 0.  1.
</event>
<event>
 5   0  0.1085771E-07  0.3730752E+04  0.7818609E-02  0.8061181E-01
       -1   -1    0    0    0  501  0.00000000000E+00  0.00000000000E+00  0.19012122218E+04  0.19012122218E+04  0.50400001928E-02 0.  1.
        1   -1    0    0  501    0  0.00000000000E+00  0.00000000000E+00 -0.18302155700E+04  0.18302155700E+04  0.50400001928E-02 0. -1.
    10030    2    1    2    0    0  0.00000000000E+00  0.00000000000E+00  0.70996651805E+02  0.37314277918E+04  0.37307523157E+04 0.  0.
        1    1    3    3  502    0 -0.92597645516E+02  0.26944711142E+03 -0.18083245707E+04  0.18306320829E+04  0.50400001928E-02 0. -1.
       -1    1    3    3    0  502  0.92597645516E+02 -0.26944711142E+03  0.18793212225E+04  0.19007957090E+04  0.50400001928E-02 0.  1.
</event>
<event>
 5   0  0.3509843E-07  0.3775773E+04  0.7818609E-02  0.8051374E-01
       -2   -1    0    0    0  501  0.00000000000E+00  0.00000000000E+00  0.27913557916E+04  0.27913557916E+04  0.25500000920E-02 0.  1.
        2   -1    0    0  501    0  0.00000000000E+00  0.00000000000E+00 -0.12768399451E+04  0.12768399451E+04  0.25500000920E-02 0. -1.
    10030    2    1    2    0    0  0.00000000000E+00  0.00000000000E+00  0.15145158465E+04  0.40681957368E+04  0.37757725439E+04 0.  0.
        4    1    3    3  502    0 -0.16408070163E+04 -0.50945750026E+03  0.16003687278E+04  0.23479728037E+04  0.12699999809E+01 0.  1.
       -4    1    3    3    0  502  0.16408070163E+04  0.50945750026E+03 -0.85852881336E+02  0.17202229330E+04  0.12699999809E+01 0. -1.
</event>
<event>
 5   0  0.3377396E-07  0.3777617E+04  0.7818609E-02  0.8050975E-01
       -2   -1    0    0    0  501  0.00000000000E+00  0.00000000000E+00  0.27914848461E+04  0.27914848461E+04  0.25500000920E-02 0.  1.
        2   -1    0    0  501    0  0.00000000000E+00  0.00000000000E+00 -0.12780287623E+04  0.12780287623E+04  0.25500000920E-02 0. -1.
    10030    2    1    2    0    0  0.00000000000E+00  0.00000000000E+00  0.15134560838E+04  0.40695136084E+04  0.37776171976E+04 0.  0.
        5    1    3    3  502    0 -0.53308953515E+03 -0.16848420452E+04  0.38342686857E+02  0.17675885894E+04  0.46999998093E+01 0.  1.
       -5    1    3    3    0  502  0.53308953515E+03  0.16848420452E+04  0.14751133969E+04  0.23019250191E+04  0.46999998093E+01 0. -1.
</event>
<event>
 5   0  0.1070988E-07  0.3699388E+04  0.7818609E-02  0.8068098E-01
       -1   -1    0    0    0  501  0.00000000000E+00  0.00000000000E+00  0.14215803514E+04  0.14215803514E+04  0.50400001928E-02 0. -1.
        1   -1    0    0  501    0  0.00000000000E+00  0.00000000000E+00 -0.24067350435E+04  0.24067350435E+04  0.50400001928E-02 0.  1.
    10030    2    1    2    0    0  0.00000000000E+00  0.00000000000E+00 -0.98515469204E+03  0.38283153949E+04  0.36993876514E+04 0.  0.
        2    1    3    3  502    0  0.65212806185E+03  0.38979881945E+03  0.12526594227E+04  0.14650494046E+04  0.25500000920E-02 0. -1.
       -2    1    3    3    0  502 -0.65212806185E+03 -0.38979881945E+03 -0.22378141147E+04  0.23632659903E+04  0.25500000920E-02 0.  1.
</event>
<event>
 5   0  0.1084315E-07  0.3812971E+04  0.7818609E-02  0.8043377E-01
        1   -1    0    0  501    0  0.00000000000E+00  0.00000000000E+00  0.19748067494E+04  0.19748067494E+04  0.50400001928E-02 0.  1.
       -1   -1    0    0    0  501  0.00000000000E+00  0.00000000000E+00 -0.18405281636E+04  0.18405281636E+04  0.50400001928E-02 0. -1.
    10030    2    1    2    0    0  0.00000000000E+00  0.00000000000E+00  0.13427858579E+03  0.38153349129E+04  0.38129712508E+04 0.  0.
        4    1    3    3  502    0 -0.75949800586E+02  0.13919735144E+04 -0.12341772514E+04  0.18618683460E+04  0.12699999809E+01 0. -1.
       -4    1    3    3    0  502  0.75949800586E+02 -0.13919735144E+04  0.13684558372E+04  0.19534665670E+04  0.12699999809E+01 0.  1.
</event>
<event>
 5   0  0.1085771E-07  0.3619307E+04  0.7818609E-02  0.8086084E-01
       -1   -1    0    0    0  501  0.00000000000E+00  0.00000000000E+00  0.20885355273E+04  0.20885355273E+04  0.50400001928E-02 0. -1.
        1   -1    0    0  501    0  0.00000000000E+00  0.00000000000E+00 -0.15680104105E+04  0.15680104105E+04  0.50400001928E-02 0.  1.
    10030    2    1    2    0    0  0.00000000000E+00  0.00000000000E+00  0.52052511678E+03  0.36565459377E+04  0.36193068118E+04 0.  0.
        1    1    3    3  502    0  0.16204470788E+04 -0.80523629644E+03  0.28482777483E+03  0.18317699336E+04  0.50400001928E-02 0. -1.
       -1    1    3    3    0  502 -0.16204470788E+04  0.80523629644E+03  0.23569734195E+03  0.18247760041E+04  0.50400001928E-02 0.  1.
</event>
<event>
 5   0  0.1070988E-07  0.4037102E+04  0.7818609E-02  0.7997103E-01
        1   -1    0    0  501    0  0.00000000000E+00  0.00000000000E+00  0.22865306923E+04  0.22865306923E+04  0.50400001928E-02 0.  1.
       -1   -1    0    0    0  501  0.00000000000E+00  0.00000000000E+00 -0.17819782339E+04  0.17819782339E+04  0.50400001928E-02 0. -1.
    10030    2    1    2    0    0  0.00000000000E+00  0.00000000000E+00  0.50455245838E+03  0.40685089262E+04  0.40371018936E+04 0.  0.
        5    1    3    3  502    0  0.19982942878E+04  0.24396591855E+02  0.53865339638E+03  0.20697692687E+04  0.46999998093E+01 0.  1.
       -5    1    3    3    0  502 -0.19982942878E+04 -0.24396591855E+02 -0.34100938007E+02  0.19987396575E+04  0.46999998093E+01 0. -1.
</event>
<event>
 5   0  0.1070988E-07  0.3818370E+04  0.7818609E-02  0.8042224E-01
       -1   -1    0    0    0  501  0.00000000000E+00  0.00000000000E+00  0.15056819703E+04  0.15056819703E+04  0.50400001928E-02 0. -1.
        1   -1    0    0  501    0  0.00000000000E+00  0.00000000000E+00 -0.24208213566E+04  0.24208213566E+04  0.50400001928E-02 0.  1.
    10030    2    1    2    0    0  0.00000000000E+00  0.00000000000E+00 -0.91513938630E+03  0.39265033269E+04  0.38183698459E+04 0.  0.
        3    1    3    3  502    0  0.11426301049E+04 -0.14948311739E+04 -0.79056619031E+03  0.20408622459E+04  0.10100000352E+00 0.  1.
       -3    1    3    3    0  502 -0.11426301049E+04  0.14948311739E+04 -0.12457319599E+03  0.18856410810E+04  0.10100000352E+00 0. -1.
</event>
<event>
 5   0  0.3539010E-07  0.3858053E+04  0.7818609E-02  0.8033810E-01
       -2   -1    0    0    0  501  0.00000000000E+00  0.00000000000E+00  0.20092014048E+04  0.20092014048E+04  0.25500000920E-02 0. -1.
        2   -1    0    0  501    0  0.00000000000E+00  0.00000000000E+00 -0.18520507405E+04  0.18520507405E+04  0.25500000920E-02 0.  1.
    10030    2    1    2    0    0  0.00000000000E+00  0.00000000000E+00  0.15715066423E+03  0.38612521453E+04  0.38580528507E+04 0.  0.
        1    1    3    3  502    0 -0.14347569627E+04  0.10574860649E+04 -0.65982956447E+03  0.19005734328E+04  0.50400001928E-02 0.  1.
       -1    1    3    3    0  502  0.14347569627E+04 -0.10574860649E+04  0.81698022870E+03  0.19606787125E+04  0.50400001928E-02 0. -1.
</event>
<event>
 5   0  0.1070988E-07  0.3780377E+04  0.7818609E-02  0.8050379E-01
        1   -1    0    0  501    0  0.00000000000E+00  0.00000000000E+00  0.24355115518E+04  0.24355115518E+04  0.50400001928E-02 0.  1.
       -1   -1    0    0    0  501  0.00000000000E+00  0.00000000000E+00 -0.14669658836E+04  0.14669658836E+04  0.50400001928E-02 0. -1.
    10030    2    1    2    0    0  0.00000000000E+00  0.00000000000E+00  0.96854566827E+03  0.39024774354E+04  0.37803768889E+04 0.  0.
        5    1    3    3  502    0  0.43799855637E+03 -0.18303365376E+04  0.66548662475E+03  0.19962136945E+04  0.46999998093E+01 0.  1.
       -5    1    3    3    0  502 -0.43799855637E+03  0.18303365376E+04  0.30305904352E+03  0.19062637410E+04  0.46999998093E+01 0. -1.
</event>
<event>
 5   0  0.1085771E-07  0.3748091E+04  0.7818609E-02  0.8057387E-01
       -1   -1    0    0    0  501  0.00000000000E+00  0.00000000000E+00  0.26630303926E+04  0.26630303926E+04  0.50400001928E-02 0. -1.
        1   -1    0    0  501    0  0.00000000000E+00  0.00000000000E+00 -0.13188158711E+04  0.13188158711E+04  0.50400001928E-02 0.  1.
    10030    2    1    2    0    0  0.00000000000E+00  0.00000000000E+00  0.13442145215E+04  0.39818462637E+04  0.37480911125E+04 0.  0.
        1    1    3    3  502    0 -0.12521211411E+03 -0.43980806069E+03  0.26028505291E+04  0.26427145288E+04  0.50400001928E-02 0. -1.
       -1    1    3    3    0  502  0.12521211411E+03  0.43980806069E+03 -0.12586360076E+04  0.13391317349E+04  0.50400001928E-02 0.  1.
</event>
<event>
 5   0  0.1070988E-07  0.3780426E+04  0.7818609E-02  0.8050369E-01
       -1   -1    0    0    0  501  0.00000000000E+00  0.00000000000E+00  0.35277074032E+04  0.35277074033E+04  0.50400001928E-02 0. -1.
        1   -1    0    0  501    0  0.00000000000E+00  0.00000000000E+00 -0.10128121009E+04  0.10128121009E+04  0.50400001928E-02 0.  1.
    10030    2    1    2    0    0  0.00000000000E+00  0.00000000000E+00  0.25148953023E+04  0.45405195042E+04  0.37804257679E+04 0.  0.
        3    1    3    3  502    0  0.25753500057E+03  0.17741566701E+04  0.19770307336E+04  0.26688212189E+04  0.10100000352E+00 0. -1.
       -3    1    3    3    0  502 -0.25753500057E+03 -0.17741566701E+04  0.53786456872E+03  0.18716982853E+04  0.10100000352E+00 0.  1.
</event>
<event>
 5   0  0.1084315E-07  0.3778605E+04  0.7818609E-02  0.8050762E-01
        1   -1    0    0  501    0  0.00000000000E+00  0.00000000000E+00  0.21524622604E+04  0.21524622604E+04  0.50400001928E-02 0. -1.
       -1   -1    0    0    0  501  0.00000000000E+00  0.00000000000E+00 -0.16583165568E+04  0.16583165568E+04  0.50400001928E-02 0.  1.
    10030    2    1    2    0    0  0.00000000000E+00  0.00000000000E+00  0.49414570357E+03  0.38107788172E+04  0.37786049300E+04 0.  0.
        4    1    3    3  502    0 -0.16547274692E+04  0.83229124324E+03  0.62257430298E+03  0.19540808803E+04  0.12699999809E+01 0. -1.
       -4    1    3    3    0  502  0.16547274692E+04 -0.83229124324E+03 -0.12842859941E+03  0.18566979369E+04  0.12699999809E+01 0.  1.
</event>
<event>
 5   0  0.1070988E-07  0.4045399E+04  0.7818609E-02  0.7995450E-01
        1   -1    0    0  501    0  0.00000000000E+00  0.00000000000E+00  0.19946258444E+04  0.19946258444E+04  0.50400001928E-02 0. -1.
       -1   -1    0    0    0  501  0.00000000000E+00  0.00000000000E+00 -0.20511683176E+04  0.20511683176E+04  0.50400001928E-02 0.  1.
    10030    2    1    2    0    0  0.00000000000E+00  0.00000000000E+00 -0.56542473260E+02  0.40457941620E+04  0.40453990347E+04 0.  0.
        5    1    3    3  502    0 -0.16281024485E+04  0.21137124408E+03 -0.12098670046E+04  0.20394106120E+04  0.46999998093E+01 0.  1.
       -5    1    3    3    0  502  0.16281024485E+04 -0.21137124408E+03  0.11533245313E+04  0.20063835501E+04  0.46999998093E+01 0. -1.
</event>
<event>
 5   0  0.3539010E-07  0.3823443E+04  0.7818609E-02  0.8041143E-01
        2   -1    0    0  501    0  0.00000000000E+00  0.00000000000E+00  0.16677757388E+04  0.16677757388E+04  0.25500000920E-02 0. -1.
       -2   -1    0    0    0  501  0.00000000000E+00  0.00000000000E+00 -0.21913489939E+04  0.21913489939E+04  0.25500000920E-02 0.  1.
    10030    2    1    2    0    0  0.00000000000E+00  0.00000000000E+00 -0.52357325511E+03  0.38591247326E+04  0.38234427874E+04 0.  0.
        1    1    3    3  502    0  0.38536981612E+03 -0.18188711407E+04 -0.71077118267E+03  0.19904767760E+04  0.50400001928E-02 0.  1.
       -1    1    3    3    0  502 -0.38536981612E+03  0.18188711407E+04  0.18719792756E+03  0.18686479566E+04  0.50400001928E-02 0. -1.
</event>
<event>
 5   0  0.3327241E-07  0.3817533E+04  0.7818609E-02  0.8042403E-01
        2   -1    0    0  501    0  0.00000000000E+00  0.00000000000E+00  0.29317146308E+04  0.29317146308E+04  0.25500000920E-02 0. -1.
       -2   -1    0    0    0  501  0.00000000000E+00  0.00000000000E+00 -0.12427502677E+04  0.12427502677E+04  0.25500000920E-02 0.  1.
    10030    2    1    2    0    0  0.00000000000E+00  0.00000000000E+00  0.16889643631E+04  0.41744648985E+04  0.38175327855E+04 0.  0.
        3    1    3    3  502    0  0.26007212722E+03 -0.12830106274E+04 -0.67451042996E+03  0.14726568207E+04  0.10100000352E+00 0.  1.
       -3    1    3    3    0  502 -0.26007212722E+03  0.12830106274E+04  0.23634747931E+04  0.27018080778E+04  0.10100000352E+00 0. -1.
</event>
<event>
 5   0  0.1070988E-07  0.3808125E+04  0.7818609E-02  0.8044413E-01
       -1   -1    0    0    0  501  0.00000000000E+00  0.00000000000E+00  0.23123030716E+04  0.23123030716E+04  0.50400001928E-02 0. -1.
        1   -1    0    0  501    0  0.00000000000E+00  0.00000000000E+00 -0.15678976214E+04  0.15678976214E+04  0.50400001928E-02 0.  1.
    10030    2    1    2    0    0  0.00000000000E+00  0.00000000000E+00  0.74440545017E+03  0.38802006931E+04  0.38081252532E+04 0.  0.
        3    1    3    3  502    0  0.38327577086E+03 -0.76183415810E+03 -0.13624173130E+04  0.16073184333E+04  0.10100000352E+00 0.  1.
       -3    1    3    3    0  502 -0.38327577086E+03  0.76183415810E+03  0.21068227632E+04  0.22728822598E+04  0.10100000352E+00 0. -1.
</event>
<event>
 5   0  0.1070988E-07  0.3233387E+04  0.7818609E-02  0.8180055E-01
        1   -1    0    0  501    0  0.00000000000E+00  0.00000000000E+00  0.15894983287E+04  0.15894983287E+04  0.50400001928E-02 0.  1.
       -1   -1    0    0    0  501  0.00000000000E+00  0.00000000000E+00 -0.16443543219E+04  0.16443543219E+04  0.50400001928E-02 0. -1.
    10030    2    1    2    0    0  0.00000000000E+00  0.00000000000E+00 -0.54855993267E+02  0.32338526506E+04  0.32333873547E+04 0.  0.
        2    1    3    3  502    0 -0.82412081986E+02 -0.13922138390E+04 -0.84525424765E+03  0.16307991501E+04  0.25500000920E-02 0. -1.
       -2    1    3    3    0  502  0.82412081986E+02  0.13922138390E+04  0.79039825438E+03  0.16030535005E+04  0.25500000920E-02 0.  1.
</event>
<event>
 5   0  0.1084315E-07  0.3784468E+04  0.7818609E-02  0.8049496E-01
        1   -1    0    0  501    0  0.00000000000E+00  0.00000000000E+00  0.15602312784E+04  0.15602312784E+04  0.50400001928E-02 0.  1.
       -1   -1    0    0    0  501  0.00000000000E+00  0.00000000000E+00 -0.22948835977E+04  0.22948835977E+04  0.50400001928E-02 0. -1.
    10030    2    1    2    0    0  0.00000000000E+00  0.00000000000E+00 -0.73465231931E+03  0.38551148762E+04  0.37844678197E+04 0.  0.
        4    1    3    3  502    0 -0.17606365864E+03 -0.10330122342E+04  0.12376605429E+04  0.16217021675E+04  0.12699999809E+01 0.  1.
       -4    1    3    3    0  502  0.17606365864E+03  0.10330122342E+04 -0.19723128622E+04  0.22334127086E+04  0.12699999809E+01 0. -1.
</event>
<event>
 5   0  0.1070988E-07  0.3775693E+04  0.7818609E-02  0.8051391E-01
       -1   -1    0    0    0  501  0.00000000000E+00  0.00000000000E+00  0.13484387286E+04  0.13484387286E+04  0.50400001928E-02 0. -1.
        1   -1    0    0  501    0  0.00000000000E+00  0.00000000000E+00 -0.26430304736E+04  0.26430304736E+04  0.50400001928E-02 0.  1.
    10030    2    1    2    0    0  0.00000000000E+00  0.00000000000E+00 -0.12945917450E+04  0.39914692022E+04  0.37756931292E+04 0.  0.
        2    1    3    3  502    0  0.52060132180E+03  0.11007392904E+04  0.87782645743E+03  0.15010769504E+04  0.25500000920E-02 0. -1.
       -2    1    3    3    0  502 -0.52060132180E+03 -0.11007392904E+04 -0.21724182024E+04  0.24903922518E+04  0.25500000920E-02 0.  1.
</event>
<event>
 5   0  0.1085771E-07  0.3773092E+04  0.7818609E-02  0.8051954E-01
       -1   -1    0    0    0  501  0.00000000000E+00  0.00000000000E+00  0.27589434681E+04  0.27589434681E+04  0.50400001928E-02 0. -1.
        1   -1    0    0  501    0  0.00000000000E+00  0.00000000000E+00 -0.12900069063E+04  0.12900069063E+04  0.50400001928E-02 0.  1.
    10030    2    1    2    0    0  0.00000000000E+00  0.00000000000E+00  0.14689365618E+04  0.40489503744E+04  0.37730921685E+04 0.  0.
        1    1    3    3  502    0 -0.71915828065E+03 -0.87706482324E+03  0.23522089728E+04  0.26113824669E+04  0.50400001928E-02 0. -1.
       -1    1    3    3    0  502  0.71915828065E+03  0.87706482324E+03 -0.88327241093E+03  0.14375679075E+04  0.50400001928E-02 0.  1.
</event>
<event>
 5   0  0.1070988E-07  0.3804295E+04  0.7818609E-02  0.8045234E-01
       -1   -1    0    0    0  501  0.00000000000E+00  0.00000000000E+00  0.27376211899E+04  0.27376211899E+04  0.50400001928E-02 0.  1.
        1   -1    0    0  501    0  0.00000000000E+00  0.00000000000E+00 -0.13216459746E+04  0.13216459746E+04  0.50400001928E-02 0. -1.
    10030    2    1    2    0    0  0.00000000000E+00  0.00000000000E+00  0.14159752152E+04  0.40592671645E+04  0.38042954805E+04 0.  0.
        5    1    3    3  502    0  0.46347670383E+03 -0.18171731236E+04  0.10474534574E+04  0.21480478699E+04  0.46999998093E+01 0. -1.
       -5    1    3    3    0  502 -0.46347670383E+03  0.18171731236E+04  0.36852175778E+03  0.19112192946E+04  0.46999998093E+01 0.  1.
</event>
<event>
 5   0  0.3377396E-07  0.3776174E+04  0.7818609E-02  0.8051287E-01
        2   -1    0    0  501    0  0.00000000000E+00  0.00000000000E+00  0.25414882363E+04  0.25414882363E+04  0.25500000920E-02 0. -1.
       -2   -1    0    0    0  501  0.00000000000E+00  0.00000000000E+00 -0.14026716275E+04  0.14026716275E+04  0.25500000920E-02 0.  1.
    10030    2    1    2    0    0  0.00000000000E+00  0.00000000000E+00  0.11388166088E+04  0.39441598638E+04  0.37761744879E+04 0.  0.
        5    1    3    3  502    0  0.15095120408E+04  0.24470295307E+03 -0.58725997563E+03  0.16381094303E+04  0.46999998093E+01 0.  1.
       -5    1    3    3    0  502 -0.15095120408E+04 -0.24470295307E+03  0.17260765844E+04  0.23060504335E+04  0.46999998093E+01 0. -1.
</event>
<event>
 5   0  0.3509843E-07  0.3862563E+04  0.7818609E-02  0.8032861E-01
       -2   -1    0    0    0  501  0.00000000000E+00  0.00000000000E+00  0.17706521374E+04  0.17706521374E+04  0.25500000920E-02 0.  1.
        2   -1    0    0  501    0  0.00000000000E+00  0.00000000000E+00 -0.21064826789E+04  0.21064826789E+04  0.25500000920E-02 0. -1.
    10030    2    1    2    0    0  0.00000000000E+00  0.00000000000E+00 -0.33583054147E+03  0.38771348164E+04  0.38625629097E+04 0.  0.
        4    1    3    3  502    0  0.11414194885E+04 -0.15042842875E+04 -0.57458166953E+03  0.19737921304E+04  0.12699999809E+01 0. -1.
       -4    1    3    3    0  502 -0.11414194885E+04  0.15042842875E+04  0.23875112806E+03  0.19033426860E+04  0.12699999809E+01 0.  1.
</event>
<event>
 5   0  0.1070988E-07  0.3792833E+04  0.7818609E-02  0.8047695E-01
       -1   -1    0    0    0  501  0.00000000000E+00  0.00000000000E+00  0.15131843237E+04  0.15131843237E+04  0.50400001928E-02 0. -1.
        1   -1    0    0  501    0  0.00000000000E+00  0.00000000000E+00 -0.23767073921E+04  0.23767073921E+04  0.50400001928E-02 0.  1.
    10030    2    1    2    0    0  0.00000000000E+00  0.00000000000E+00 -0.86352306844E+03  0.38898917158E+04  0.37928334357E+04 0.  0.
        5    1    3    3  502    0 -0.24751931001E+03 -0.76248016391E+03 -0.21943840744E+04  0.23362331573E+04  0.46999998093E+01 0.  1.
       -5    1    3    3    0  502  0.24751931001E+03  0.76248016391E+03  0.13308610060E+04  0.15536585585E+04  0.46999998093E+01 0. -1.
</event>
<event>
 5   0  0.3327241E-07  0.3835088E+04  0.7818609E-02  0.8038667E-01
       -2   -1    0    0    0  501  0.00000000000E+00  0.00000000000E+00  0.15195088531E+04  0.15195088531E+04  0.25500000920E-02 0.  1.
        2   -1    0    0  501    0  0.00000000000E+00  0.00000000000E+00 -0.24198442007E+04  0.24198442007E+04  0.25500000920E-02 0. -1.
    10030    2    1    2    0    0  0.00000000000E+00  0.00000000000E+00 -0.90033534767E+03  0.39393530538E+04  0.38350878405E+04 0.  0.
        3    1    3    3  502    0  0.17774209042E+04  0.71953535365E+03 -0.44575194079E+03  0.19686673154E+04  0.10100000352E+00 0. -1.
       -3    1    3    3    0  502 -0.17774209042E+04 -0.71953535365E+03 -0.45458340688E+03  0.19706857384E+04  0.10100000352E+00 0.  1.
</event>
<event>
 5   0  0.3509843E-07  0.3843268E+04  0.7818609E-02  0.8036933E-01
        2   -1    0    0  501    0  0.00000000000E+00  0.00000000000E+00  0.28227145195E+04  0.28227145196E+04  0.25500000920E-02 0. -1.
       -2   -1    0    0    0  501  0.00000000000E+00  0.00000000000E+00 -0.13082008735E+04  0.13082008735E+04  0.25500000920E-02 0.  1.
    10030    2    1    2    0    0  0.00000000000E+00  0.00000000000E+00  0.15145136461E+04  0.41309153930E+04  0.38432681926E+04 0.  0.
        4    1    3    3  502    0 -0.65466777110E+03 -0.16371514373E+04  0.15785260769E+04  0.23665588747E+04  0.12699999809E+01 0. -1.
       -4    1    3    3    0  502  0.65466777110E+03  0.16371514373E+04 -0.64012430795E+02  0.17643565183E+04  0.12699999809E+01 0.  1.
</event>
<event>
 5   0  0.3509843E-07  0.3773172E+04  0.7818609E-02  0.8051937E-01
        2   -1    0    0  501    0  0.00000000000E+00  0.00000000000E+00  0.17430004927E+04  0.17430004927E+04  0.25500000920E-02 0. -1.
       -2   -1    0    0    0  501  0.00000000000E+00  0.00000000000E+00 -0.20419997016E+04  0.20419997016E+04  0.25500000920E-02 0.  1.
    10030    2    1    2    0    0  0.00000000000E+00  0.00000000000E+00 -0.29899920892E+03  0.37850001943E+04  0.37731718678E+04 0.  0.
        4    1    3    3  502    0 -0.77340283519E+03 -0.77882211077E+03 -0.16887442646E+04  0.20140939973E+04  0.12699999809E+01 0.  1.
       -4    1    3    3    0  502  0.77340283519E+03  0.77882211077E+03  0.13897450557E+04  0.17709061970E+04  0.12699999809E+01 0. -1.
</event>
<event>
 5   0  0.1085771E-07  0.3801283E+04  0.7818609E-02  0.8045880E-01
       -1   -1    0    0    0  501  0.00000000000E+00  0.00000000000E+00  0.17652707190E+04  0.17652707190E+04  0.50400001928E-02 0.  1.
        1   -1    0    0  501    0  0.00000000000E+00  0.00000000000E+00 -0.20463931118E+04  0.20463931118E+04  0.50400001928E-02 0. -1.
    10030    2    1    2    0    0  0.00000000000E+00  0.00000000000E+00 -0.28112239279E+03  0.38116638308E+04  0.38012828571E+04 0.  0.
        1    1    3    3  502    0  0.16105258141E+04 -0.91001294255E+03  0.29711779457E+03  0.18735516906E+04  0.50400001928E-02 0.  1.
       -1    1    3    3    0  502 -0.16105258141E+04  0.91001294255E+03 -0.57824018735E+03  0.19381121402E+04  0.50400001928E-02 0. -1.
</event>
<event>
 5   0  0.1070988E-07  0.3795394E+04  0.7818609E-02  0.8047144E-01
        1   -1    0    0  501    0  0.00000000000E+00  0.00000000000E+00  0.21684451160E+04  0.21684451161E+04  0.50400001928E-02 0.  1.
       -1   -1    0    0    0  501  0.00000000000E+00  0.00000000000E+00 -0.16607542615E+04  0.16607542615E+04  0.50400001928E-02 0. -1.
    10030    2    1    2    0    0  0.00000000000E+00  0.00000000000E+00  0.50769085452E+03  0.38291993776E+04  0.37953942970E+04 0.  0.
        5    1    3    3  502    0 -0.72894236673E+03 -0.13145329386E+04 -0.91486706294E+03  0.17596470252E+04  0.46999998093E+01 0. -1.
       -5    1    3    3    0  502  0.72894236673E+03  0.13145329386E+04  0.14225579175E+04  0.20695523523E+04  0.46999998093E+01 0.  1.
</event>
<event>
 5   0  0.1070988E-07  0.3818138E+04  0.7818609E-02  0.8042274E-01
       -1   -1    0    0    0  501  0.00000000000E+00  0.00000000000E+00  0.11798774159E+04  0.11798774159E+04  0.50400001928E-02 0.  1.
        1   -1    0    0  501    0  0.00000000000E+00  0.00000000000E+00 -0.30889176857E+04  0.30889176857E+04  0.50400001928E-02 0. -1.
    10030    2    1    2    0    0  0.00000000000E+00  0.00000000000E+00 -0.19090402698E+04  0.42687951015E+04  0.38181378795E+04 0.  0.
        3    1    3    3  502    0 -0.62436606969E+03 -0.16071903315E+04 -0.38246143883E+02  0.17246322879E+04  0.10100000352E+00 0.  1.
       -3    1    3    3    0  502  0.62436606969E+03  0.16071903315E+04 -0.18707941259E+04  0.25441628137E+04  0.10100000352E+00 0. -1.
</event>
<event>
 5   0  0.3539010E-07  0.3774040E+04  0.7818609E-02  0.8051749E-01
       -2   -1    0    0    0  501  0.00000000000E+00  0.00000000000E+00  0.18548369093E+04  0.18548369093E+04  0.25500000920E-02 0.  1.
        2   -1    0    0  501    0  0.00000000000E+00  0.00000000000E+00 -0.19197615282E+04  0.19197615282E+04  0.25500000920E-02 0. -1.
    10030    2    1    2    0    0  0.00000000000E+00  0.00000000000E+00 -0.64924618921E+02  0.37745984375E+04  0.37740400314E+04 0.  0.
        1    1    3    3  502    0 -0.72542752485E+03 -0.17041367978E+04 -0.39378743410E+03  0.18935141570E+04  0.50400001928E-02 0.  1.
       -1    1    3    3    0  502  0.72542752485E+03  0.17041367978E+04  0.32886281518E+03  0.18810842806E+04  0.50400001928E-02 0. -1.
</event>
<event>
 5   0  0.1085771E-07  0.3770145E+04  0.7818609E-02  0.8052592E-01
       -1   -1    0    0    0  501  0.00000000000E+00  0.00000000000E+00  0.14740077655E+04  0.14740077655E+04  0.50400001928E-02 0.  1.
        1   -1    0    0  501    0  0.00000000000E+00  0.00000000000E+00 -0.24107732149E+04  0.24107732149E+04  0.50400001928E-02 0. -1.
    10030    2    1    2    0    0  0.00000000000E+00  0.00000000000E+00 -0.93676544941E+03  0.38847809804E+04  0.37701450581E+04 0.  0.
        1    1    3    3  502    0  0.14904099268E+04 -0.18200568384E+03 -0.16427975258E+04  0.22255856599E+04  0.50400001928E-02 0. -1.
       -1    1    3    3    0  502 -0.14904099268E+04  0.18200568384E+03  0.70603207636E+03  0.16591953205E+04  0.50400001928E-02 0.  1.
</event>
<event>
 5   0  0.3327241E-07  0.3819703E+04  0.7818609E-02  0.8041940E-01
       -2   -1    0    0    0  501  0.00000000000E+00  0.00000000000E+00  0.12372119855E+04  0.12372119855E+04  0.25500000920E-02 0.  1.
        2   -1    0    0  501    0  0.00000000000E+00  0.00000000000E+00 -0.29481879635E+04  0.29481879635E+04  0.25500000920E-02 0. -1.
    10030    2    1    2    0    0  0.00000000000E+00  0.00000000000E+00 -0.17109759780E+04  0.41853999490E+04  0.38197033832E+04 0.  0.
        3    1    3    3  502    0 -0.18300305651E+04  0.53279129495E+03 -0.72283994914E+03  0.20384739477E+04  0.10100000352E+00 0.  1.
       -3    1    3    3    0  502  0.18300305651E+04 -0.53279129495E+03 -0.98813602888E+03  0.21469260013E+04  0.10100000352E+00 0. -1.
</event>
<event>
 5   0  0.1070988E-07  0.3722700E+04  0.7818609E-02  0.8062950E-01
       -1   -1    0    0    0  501  0.00000000000E+00  0.00000000000E+00  0.15208239051E+04  0.15208239051E+04  0.50400001928E-02 0.  1.
        1   -1    0    0  501    0  0.00000000000E+00  0.00000000000E+00 -0.22781227399E+04  0.22781227399E+04  0.50400001928E-02 0. -1.
    10030    2    1    2    0    0  0.00000000000E+00  0.00000000000E+00 -0.75729883483E+03  0.37989466450E+04  0.37226998383E+04 0.  0.
        5    1    3    3  502    0  0.51631102833E+03  0.13690577456E+04 -0.15527378738E+04  0.21335213108E+04  0.46999998093E+01 0. -1.
       -5    1    3    3    0  502 -0.51631102833E+03 -0.13690577456E+04  0.79543903900E+03  0.16654253342E+04  0.46999998093E+01 0.  1.
</event>
<event>
 5   0  0.3327241E-07  0.3691563E+04  0.7818609E-02  0.8069834E-01
       -2   -1    0    0    0  501  0.00000000000E+00  0.00000000000E+00  0.13075899679E+04  0.13075899679E+04  0.25500000920E-02 0.  1.
        2   -1    0    0  501    0  0.00000000000E+00  0.00000000000E+00 -0.26054882250E+04  0.26054882250E+04  0.25500000920E-02 0. -1.
    10030    2    1    2    0    0  0.00000000000E+00  0.00000000000E+00 -0.12978982570E+04  0.39130781929E+04  0.36915634978E+04 0.  0.
        3    1    3    3  502    0  0.64526832548E+03  0.16671755441E+04 -0.11359346333E+04  0.21180635043E+04  0.10100000352E+00 0.  1.
       -3    1    3    3    0  502 -0.64526832548E+03 -0.16671755441E+04 -0.16196362372E+03  0.17950146886E+04  0.10100000352E+00 0. -1.
</event>
<event>
 5   0  0.3539010E-07  0.3813501E+04  0.7818609E-02  0.8043264E-01
        2   -1    0    0  501    0  0.00000000000E+00  0.00000000000E+00  0.17063006898E+04  0.17063006898E+04  0.25500000920E-02 0.  1.
       -2   -1    0    0    0  501  0.00000000000E+00  0.00000000000E+00 -0.21307483222E+04  0.21307483222E+04  0.25500000920E-02 0. -1.
    10030    2    1    2    0    0  0.00000000000E+00  0.00000000000E+00 -0.42444763236E+03  0.38370490120E+04  0.38135009280E+04 0.  0.
        1    1    3    3  502    0 -0.14491817289E+04  0.58703173582E+03 -0.13102752818E+04  0.20399890334E+04  0.50400001928E-02 0.  1.
       -1    1    3    3    0  502  0.14491817289E+04 -0.58703173582E+03  0.88582764947E+03  0.17970599786E+04  0.50400001928E-02 0. -1.
</event>
<event>
 5   0  0.1070988E-07  0.3799492E+04  0.7818609E-02  0.8046264E-01
        1   -1    0    0  501    0  0.00000000000E+00  0.00000000000E+00  0.12041334128E+04  0.12041334128E+04  0.50400001928E-02 0. -1.
       -1   -1    0    0    0  501  0.00000000000E+00  0.00000000000E+00 -0.29972047609E+04  0.29972047609E+04  0.50400001928E-02 0.  1.
    10030    2    1    2    0    0  0.00000000000E+00  0.00000000000E+00 -0.17930713481E+04  0.42013381737E+04  0.37994917542E+04 0.  0.
        5    1    3    3  502    0 -0.94083357417E+03  0.11561425267E+04  0.40581631887E+03  0.15448437886E+04  0.46999998093E+01 0. -1.
       -5    1    3    3    0  502  0.94083357417E+03 -0.11561425267E+04 -0.21988876670E+04  0.26564943852E+04  0.46999998093E+01 0.  1.
</event>
<event>
 5   0  0.1070988E-07  0.3510400E+04  0.7818609E-02  0.8111330E-01
        1   -1    0    0  501    0  0.00000000000E+00  0.00000000000E+00  0.11474813513E+04  0.11474813513E+04  0.50400001928E-02 0. -1.
       -1   -1    0    0    0  501  0.00000000000E+00  0.00000000000E+00 -0.26847736667E+04  0.26847736667E+04  0.50400001928E-02 0.  1.
    10030    2    1    2    0    0  0.00000000000E+00  0.00000000000E+00 -0.15372923154E+04  0.38322550179E+04  0.35104003845E+04 0.  0.
        2    1    3    3  502    0 -0.16315334569E+04  0.11009190045E+03 -0.14648526577E+04  0.21954076971E+04  0.25500000920E-02 0. -1.
       -2    1    3    3    0  502  0.16315334569E+04 -0.11009190045E+03 -0.72439657688E+02  0.16368473208E+04  0.25500000920E-02 0.  1.
</event>
<event>
 5   0  0.3442126E-07  0.3740212E+04  0.7818609E-02  0.8059108E-01
       -2   -1    0    0    0  501  0.00000000000E+00  0.00000000000E+00  0.14332511480E+04  0.14332511480E+04  0.25500000920E-02 0.  1.
        2   -1    0    0  501    0  0.00000000000E+00  0.00000000000E+00 -0.24401141892E+04  0.24401141892E+04  0.25500000920E-02 0. -1.
    10030    2    1    2    0    0  0.00000000000E+00  0.00000000000E+00 -0.10068630411E+04  0.38733653372E+04  0.37402120062E+04 0.  0.
        2    1    3    3  502    0  0.17438128468E+04 -0.53934156021E+03 -0.82101313802E+02  0.18271598696E+04  0.25500000920E-02 0.  1.
       -2    1    3    3    0  502 -0.17438128468E+04  0.53934156021E+03 -0.92476172734E+03  0.20462054676E+04  0.25500000920E-02 0. -1.
</event>
<event>
 5   0  0.3442126E-07  0.3742560E+04  0.7818609E-02  0.8058595E-01
        2   -1    0    0  501    0  0.00000000000E+00  0.00000000000E+00  0.27294541004E+04  0.27294541004E+04  0.25500000920E-02 0. -1.
       -2   -1    0    0    0  501  0.00000000000E+00  0.00000000000E+00 -0.12829262265E+04  0.12829262265E+04  0.25500000920E-02 0.  1.
    10030    2    1    2    0    0  0.00000000000E+00  0.00000000000E+00  0.14465278739E+04  0.40123803269E+04  0.37425596853E+04 0.  0.
        2    1    3    3  502    0  0.15268353050E+04 -0.10687546560E+04  0.90338131211E+03  0.20711253846E+04  0.25500000920E-02 0. -1.
       -2    1    3    3    0  502 -0.15268353050E+04  0.10687546560E+04  0.54314656178E+03  0.19412549423E+04  0.25500000920E-02 0.  1.
</event>
<event>
 5   0  0.1070988E-07  0.3828959E+04  0.7818609E-02  0.8039969E-01
       -1   -1    0    0    0  501  0.00000000000E+00  0.00000000000E+00  0.25845091450E+04  0.25845091450E+04  0.50400001928E-02 0. -1.
        1   -1    0    0  501    0  0.00000000000E+00  0.00000000000E+00 -0.14181537601E+04  0.14181537601E+04  0.50400001928E-02 0.  1.
    10030    2    1    2    0    0  0.00000000000E+00  0.00000000000E+00  0.11663553849E+04  0.40026629052E+04  0.38289587943E+04 0.  0.
        3    1    3    3  502    0 -0.14270145556E+03  0.36933259021E+03 -0.13748852832E+04  0.14307619718E+04  0.10100000352E+00 0.  1.
       -3    1    3    3    0  502  0.14270145556E+03 -0.36933259021E+03  0.25412406681E+04  0.25719009334E+04  0.10100000352E+00 0. -1.
</event>
<event>
 5   0  0.1070988E-07  0.3714620E+04  0.7818609E-02  0.8064730E-01
       -1   -1    0    0    0  501  0.00000000000E+00  0.00000000000E+00  0.18433054944E+04  0.18433054944E+04  0.50400001928E-02 0.  1.
        1   -1    0    0  501    0  0.00000000000E+00  0.00000000000E+00 -0.18714207572E+04  0.18714207572E+04  0.50400001928E-02 0. -1.
    10030    2    1    2    0    0  0.00000000000E+00  0.00000000000E+00 -0.28115262844E+02  0.37147262516E+04  0.37146198536E+04 0.  0.
        2    1    3    3  502    0  0.27784082733E+03  0.54033855453E+03  0.17411105526E+04  0.18440789666E+04  0.25500000920E-02 0.  1.
       -2    1    3    3    0  502 -0.27784082733E+03 -0.54033855453E+03 -0.17692258154E+04  0.18706472850E+04  0.25500000920E-02 0. -1.
</event>
<event>
 5   0  0.3539010E-07  0.3790400E+04  0.7818609E-02  0.8048218E-01
       -2   -1    0    0    0  501  0.00000000000E+00  0.00000000000E+00  0.22693368040E+04  0.22693368040E+04  0.25500000920E-02 0.  1.
        2   -1    0    0  501    0  0.00000000000E+00  0.00000000000E+00 -0.15827460550E+04  0.15827460550E+04  0.25500000920E-02 0. -1.
    10030    2    1    2    0    0  0.00000000000E+00  0.00000000000E+00  0.68659074902E+03  0.38520828590E+04  0.37904004401E+04 0.  0.
        1    1    3    3  502    0  0.18470430759E+04 -0.35534306777E+03  0.57934015063E+03  0.19681137747E+04  0.50400001928E-02 0. -1.
       -1    1    3    3    0  502 -0.18470430759E+04  0.35534306777E+03  0.10725059839E+03  0.18839690843E+04  0.50400001928E-02 0.  1.
</event>
<event>
 5   0  0.1084315E-07  0.3822080E+04  0.7818609E-02  0.8041433E-01
        1   -1    0    0  501    0  0.00000000000E+00  0.00000000000E+00  0.32786066401E+04  0.32786066401E+04  0.50400001928E-02 0. -1.
       -1   -1    0    0    0  501  0.00000000000E+00  0.00000000000E+00 -0.11139102929E+04  0.11139102929E+04  0.50400001928E-02 0.  1.
    10030    2    1    2    0    0  0.00000000000E+00  0.00000000000E+00  0.21646963472E+04  0.43925169331E+04  0.38220798960E+04 0.  0.
        4    1    3    3  502    0  0.25457054847E+03  0.17151793637E+04  0.15906101424E+03  0.17412491014E+04  0.12699999809E+01 0. -1.
       -4    1    3    3    0  502 -0.25457054847E+03 -0.17151793637E+04  0.20056353330E+04  0.26512678317E+04  0.12699999809E+01 0.  1.
</event>
<event>
 5   0  0.3539010E-07  0.3792424E+04  0.7818609E-02  0.8047783E-01
       -2   -1    0    0    0  501  0.00000000000E+00  0.00000000000E+00  0.22745054228E+04  0.22745054228E+04  0.25500000920E-02 0. -1.
        2   -1    0    0  501    0  0.00000000000E+00  0.00000000000E+00 -0.15808361288E+04  0.15808361288E+04  0.25500000920E-02 0.  1.
    10030    2    1    2    0    0  0.00000000000E+00  0.00000000000E+00  0.69366929400E+03  0.38553415516E+04  0.37924242102E+04 0.  0.
        1    1    3    3  502    0  0.18220276249E+04 -0.35981075393E+03  0.73576765995E+03  0.19976492420E+04  0.50400001928E-02 0.  1.
       -1    1    3    3    0  502 -0.18220276249E+04  0.35981075393E+03 -0.42098365948E+02  0.18576923096E+04  0.50400001928E-02 0. -1.
</event>
<event>
 5   0  0.1085771E-07  0.3788243E+04  0.7818609E-02  0.8048683E-01
       -1   -1    0    0    0  501  0.00000000000E+00  0.00000000000E+00  0.15417755890E+04  0.15417755890E+04  0.50400001928E-02 0. -1.
        1   -1    0    0  501    0  0.00000000000E+00  0.00000000000E+00 -0.23269905329E+04  0.23269905329E+04  0.50400001928E-02 0.  1.
    10030    2    1    2    0    0  0.00000000000E+00  0.00000000000E+00 -0.78521494392E+03  0.38687661219E+04  0.37882434977E+04 0.  0.
        1    1    3    3  502    0 -0.10850619922E+04  0.86878671352E+03  0.92142285582E+03  0.16676840107E+04  0.50400001928E-02 0. -1.
       -1    1    3    3    0  502  0.10850619922E+04 -0.86878671352E+03 -0.17066377997E+04  0.22010821111E+04  0.50400001928E-02 0.  1.
</event>
<event>
 5   0  0.3509843E-07  0.3805039E+04  0.7818609E-02  0.8045074E-01
       -2   -1    0    0    0  501  0.00000000000E+00  0.00000000000E+00  0.29392504237E+04  0.29392504237E+04  0.25500000920E-02 0.  1.
        2   -1    0    0  501    0  0.00000000000E+00  0.00000000000E+00 -0.12314641048E+04  0.12314641048E+04  0.25500000920E-02 0. -1.
    10030    2    1    2    0    0  0.00000000000E+00  0.00000000000E+00  0.17077863189E+04  0.41707145286E+04  0.38050394962E+04 0.  0.
        4    1    3    3  502    0  0.61350027277E+03 -0.72953807008E+03 -0.95084318173E+03  0.13463702127E+04  0.12699999809E+01 0. -1.
       -4    1    3    3    0  502 -0.61350027277E+03  0.72953807008E+03  0.26586295006E+04  0.28243443159E+04  0.12699999809E+01 0.  1.
</event>
<event>
 5   0  0.3327241E-07  0.3811748E+04  0.7818609E-02  0.8043638E-01
       -2   -1    0    0    0  501  0.00000000000E+00  0.00000000000E+00  0.17593533511E+04  0.17593533511E+04  0.25500000920E-02 0.  1.
        2   -1    0    0  501    0  0.00000000000E+00  0.00000000000E+00 -0.20645970182E+04  0.20645970183E+04  0.25500000920E-02 0. -1.
    10030    2    1    2    0    0  0.00000000000E+00  0.00000000000E+00 -0.30524366713E+03  0.38239503694E+04  0.38117479889E+04 0.  0.
        3    1    3    3  502    0  0.10008879003E+04  0.11952558554E+04 -0.12524628640E+04  0.19997690829E+04  0.10100000352E+00 0. -1.
       -3    1    3    3    0  502 -0.10008879003E+04 -0.11952558554E+04  0.94721919690E+03  0.18241812865E+04  0.10100000352E+00 0.  1.
</event>
<event>
 5   0  0.3442126E-07  0.3714098E+04  0.7818609E-02  0.8064845E-01
       -2   -1    0    0    0  501  0.00000000000E+00  0.00000000000E+00  0.14511737984E+04  0.14511737984E+04  0.25500000920E-02 0.  1.
        2   -1    0    0  501    0  0.00000000000E+00  0.00000000000E+00 -0.23764422637E+04  0.23764422637E+04  0.25500000920E-02 0. -1.
    10030    2    1    2    0    0  0.00000000000E+00  0.00000000000E+00 -0.92526846537E+03  0.38276160621E+04  0.37140978697E+04 0.  0.
        2    1    3    3  502    0  0.52857006372E+03 -0.13712812421E+04 -0.16326001543E+04  0.21966296504E+04  0.25500000920E-02 0. -1.
       -2    1    3    3    0  502 -0.52857006372E+03  0.13712812421E+04  0.70733168892E+03  0.16309864117E+04  0.25500000920E-02 0.  1.
</event>
<event>
 5   0  0.3539010E-07  0.3820159E+04  0.7818609E-02  0.8041843E-01
       -2   -1    0    0    0  501  0.00000000000E+00  0.00000000000E+00  0.15122428394E+04  0.15122428394E+04  0.25500000920E-02 0. -1.
        2   -1    0    0  501    0  0.00000000000E+00  0.00000000000E+00 -0.24125775243E+04  0.24125775243E+04  0.25500000920E-02 0.  1.
    10030    2    1    2    0    0  0.00000000000E+00  0.00000000000E+00 -0.90033468490E+03  0.39248203637E+04  0.38201586803E+04 0.  0.
        1    1    3    3  502    0 -0.81482789829E+03  0.17257357956E+04 -0.53167915973E+03  0.19811085959E+04  0.50400001928E-02 0. -1.
       -1    1    3    3    0  502  0.81482789829E+03 -0.17257357956E+04 -0.36865552517E+03  0.19437117678E+04  0.50400001928E-02 0.  1.
</event>
<event>
 5   0  0.1084315E-07  0.3840983E+04  0.7818609E-02  0.8037417E-01
        1   -1    0    0  501    0  0.00000000000E+00  0.00000000000E+00  0.15633913559E+04  0.15633913559E+04  0.50400001928E-02 0.  1.
       -1   -1    0    0    0  501  0.00000000000E+00  0.00000000000E+00 -0.23591587031E+04  0.23591587031E+04  0.50400001928E-02 0. -1.
    10030    2    1    2    0    0  0.00000000000E+00  0.00000000000E+00 -0.79576734718E+03  0.39225500589E+04  0.38409833759E+04 0.  0.
        4    1    3    3  502    0 -0.12438428600E+04  0.56295642347E+02  0.10953477462E+04  0.16583433172E+04  0.12699999809E+01 0.  1.
       -4    1    3    3    0  502  0.12438428600E+04 -0.56295642347E+02 -0.18911150934E+04  0.22642067417E+04  0.12699999809E+01 0. -1.
</event>
<event>
 5   0  0.3442126E-07  0.3822984E+04  0.7818609E-02  0.8041240E-01
        2   -1    0    0  501    0  0.00000000000E+00  0.00000000000E+00  0.27519311229E+04  0.27519311229E+04  0.25500000920E-02 0. -1.
       -2   -1    0    0    0  501  0.00000000000E+00  0.00000000000E+00 -0.13277228121E+04  0.13277228121E+04  0.25500000920E-02 0.  1.
    10030    2    1    2    0    0  0.00000000000E+00  0.00000000000E+00  0.14242083109E+04  0.40796539350E+04  0.38229840330E+04 0.  0.
        2    1    3    3  502    0  0.89822043084E+03 -0.14985697575E+04 -0.11538631386E+03  0.17509498171E+04  0.25500000920E-02 0. -1.
       -2    1    3    3    0  502 -0.89822043084E+03  0.14985697575E+04  0.15395946247E+04  0.23287041179E+04  0.25500000920E-02 0.  1.
</event>
<event>
 5   0  0.1070988E-07  0.3462343E+04  0.7818609E-02  0.8122772E-01
        1   -1    0    0  501    0  0.00000000000E+00  0.00000000000E+00  0.27074345964E+04  0.27074345964E+04  0.50400001928E-02 0.  1.
       -1   -1    0    0    0  501  0.00000000000E+00  0.00000000000E+00 -0.11069355184E+04  0.11069355185E+04  0.50400001928E-02 0. -1.
    10030    2    1    2    0    0  0.00000000000E+00  0.00000000000E+00  0.16004990780E+04  0.38143701149E+04  0.34623434369E+04 0.  0.
        5    1    3    3  502    0  0.17277142149E+04 -0.88573071107E+02  0.87072072146E+03  0.19367545694E+04  0.46999998093E+01 0.  1.
       -5    1    3    3    0  502 -0.17277142149E+04  0.88573071107E+02  0.72977835652E+03  0.18776155455E+04  0.46999998093E+01 0. -1.
</event>
<event>
 5   0  0.1084315E-07  0.3840634E+04  0.7818609E-02  0.8037491E-01
        1   -1    0    0  501    0  0.00000000000E+00  0.00000000000E+00  0.19872334831E+04  0.19872334831E+04  0.50400001928E-02 0.  1.
       -1   -1    0    0    0  501  0.00000000000E+00  0.00000000000E+00 -0.18556537653E+04  0.18556537653E+04  0.50400001928E-02 0. -1.
    10030    2    1    2    0    0  0.00000000000E+00  0.00000000000E+00  0.13157971783E+03  0.38428872485E+04  0.38406339558E+04 0.  0.
        4    1    3    3  502    0  0.16146695508E+04 -0.51233578293E+03 -0.83915768340E+03  0.18904583950E+04  0.12699999809E+01 0. -1.
       -4    1    3    3    0  502 -0.16146695508E+04  0.51233578293E+03  0.97073740123E+03  0.19524288535E+04  0.12699999809E+01 0.  1.
</event>
<event>
 5   0  0.1084315E-07  0.3811619E+04  0.7818609E-02  0.8043666E-01
       -1   -1    0    0    0  501  0.00000000000E+00  0.00000000000E+00  0.17491601839E+04  0.17491601839E+04  0.50400001928E-02 0.  1.
        1   -1    0    0  501    0  0.00000000000E+00  0.00000000000E+00 -0.20764878582E+04  0.20764878582E+04  0.50400001928E-02 0. -1.
    10030    2    1    2    0    0  0.00000000000E+00  0.00000000000E+00 -0.32732767434E+03  0.38256480421E+04  0.38116190177E+04 0.  0.
        4    1    3    3  502    0 -0.10731368327E+04  0.79009309182E+03  0.12037891912E+04  0.17958228713E+04  0.12699999809E+01 0.  1.
       -4    1    3    3    0  502  0.10731368327E+04 -0.79009309182E+03 -0.15311168655E+04  0.20298251708E+04  0.12699999809E+01 0. -1.
</event>
<event>
 5   0  0.1070988E-07  0.3848695E+04  0.7818609E-02  0.8035785E-01
       -1   -1    0    0    0  501  0.00000000000E+00  0.00000000000E+00  0.20197723766E+04  0.20197723766E+04  0.50400001928E-02 0. -1.
        1   -1    0    0  501    0  0.00000000000E+00  0.00000000000E+00 -0.18334309098E+04  0.18334309098E+04  0.50400001928E-02 0.  1.
    10030    2    1    2    0    0  0.00000000000E+00  0.00000000000E+00  0.18634146675E+03  0.38532032864E+04  0.38486948988E+04 0.  0.
        5    1    3    3  502    0 -0.16855810009E+04  0.75542360594E+03  0.63347213854E+03  0.19527306971E+04  0.46999998093E+01 0.  1.
       -5    1    3    3    0  502  0.16855810009E+04 -0.75542360594E+03 -0.44713067179E+03  0.19004725893E+04  0.46999998093E+01 0. -1.
</event>
<event>
 5   0  0.3327241E-07  0.3844330E+04  0.7818609E-02  0.8036708E-01
       -2   -1    0    0    0  501  0.00000000000E+00  0.00000000000E+00  0.20679162820E+04  0.20679162820E+04  0.25500000920E-02 0.  1.
        2   -1    0    0  501    0  0.00000000000E+00  0.00000000000E+00 -0.17866862013E+04  0.17866862013E+04  0.25500000920E-02 0. -1.
    10030    2    1    2    0    0  0.00000000000E+00  0.00000000000E+00  0.28123008068E+03  0.38546024833E+04  0.38443295835E+04 0.  0.
        3    1    3    3  502    0 -0.37880430314E+03 -0.18739082945E+04 -0.59147062142E+02  0.19127266876E+04  0.10100000352E+00 0.  1.
       -3    1    3    3    0  502  0.37880430314E+03  0.18739082945E+04  0.34037714282E+03  0.19418757957E+04  0.10100000352E+00 0. -1.
</event>
<event>
 5   0  0.3509843E-07  0.3799833E+04  0.7818609E-02  0.8046191E-01
        2   -1    0    0  501    0  0.00000000000E+00  0.00000000000E+00  0.15784768156E+04  0.15784768156E+04  0.25500000920E-02 0.  1.
       -2   -1    0    0    0  501  0.00000000000E+00  0.00000000000E+00 -0.22868137055E+04  0.22868137055E+04  0.25500000920E-02 0. -1.
    10030    2    1    2    0    0  0.00000000000E+00  0.00000000000E+00 -0.70833688996E+03  0.38652905211E+04  0.37998328467E+04 0.  0.
        4    1    3    3  502    0  0.57213195981E+03  0.18112592045E+04 -0.31240120062E+03  0.19249911710E+04  0.12699999809E+01 0. -1.
       -4    1    3    3    0  502 -0.57213195981E+03 -0.18112592045E+04 -0.39593568934E+03  0.19402993501E+04  0.12699999809E+01 0.  1.
</event>
<event>
 5   0  0.3377396E-07  0.3825935E+04  0.7818609E-02  0.8040612E-01
        2   -1    0    0  501    0  0.00000000000E+00  0.00000000000E+00  0.19990687986E+04  0.19990687986E+04  0.25500000920E-02 0.  1.
       -2   -1    0    0    0  501  0.00000000000E+00  0.00000000000E+00 -0.18305750501E+04  0.18305750501E+04  0.25500000920E-02 0. -1.
    10030    2    1    2    0    0  0.00000000000E+00  0.00000000000E+00  0.16849374847E+03  0.38296438487E+04  0.38259354235E+04 0.  0.
        5    1    3    3  502    0  0.10405963212E+04  0.14210063050E+04  0.83151167955E+03  0.19476995112E+04  0.46999998093E+01 0.  1.
       -5    1    3    3    0  502 -0.10405963212E+04 -0.14210063050E+04 -0.66301793108E+03  0.18819443375E+04  0.46999998093E+01 0. -1.
</event>
<event>
 5   0  0.1070988E-07  0.3782122E+04  0.7818609E-02  0.8050002E-01
       -1   -1    0    0    0  501  0.00000000000E+00  0.00000000000E+00  0.18603285226E+04  0.18603285226E+04  0.50400001928E-02 0.  1.
        1   -1    0    0  501    0  0.00000000000E+00  0.00000000000E+00 -0.19223009029E+04  0.19223009029E+04  0.50400001928E-02 0. -1.
    10030    2    1    2    0    0  0.00000000000E+00  0.00000000000E+00 -0.61972380351E+02  0.37826294255E+04  0.37821217319E+04 0.  0.
        2    1    3    3  502    0  0.49451557503E+03  0.15666290686E+04 -0.96772224391E+03  0.19066616464E+04  0.25500000920E-02 0. -1.
       -2    1    3    3    0  502 -0.49451557503E+03 -0.15666290686E+04  0.90574986356E+03  0.18759677790E+04  0.25500000920E-02 0.  1.
</event>
<event>
 5   0  0.1070988E-07  0.3826850E+04  0.7818609E-02  0.8040417E-01
       -1   -1    0    0    0  501  0.00000000000E+00  0.00000000000E+00  0.18038020772E+04  0.18038020772E+04  0.50400001928E-02 0. -1.
        1   -1    0    0  501    0  0.00000000000E+00  0.00000000000E+00 -0.20297096473E+04  0.20297096473E+04  0.50400001928E-02 0.  1.
    10030    2    1    2    0    0  0.00000000000E+00  0.00000000000E+00 -0.22590757010E+03  0.38335117245E+04  0.38268496066E+04 0.  0.
        2    1    3    3  502    0  0.22177525205E+03  0.16646952726E+04  0.80559392216E+03  0.18626261516E+04  0.25500000920E-02 0. -1.
       -2    1    3    3    0  502 -0.22177525205E+03 -0.16646952726E+04 -0.10315014923E+04  0.19708855729E+04  0.25500000920E-02 0.  1.
</event>
<event>
 5   0  0.1084315E-07  0.3753630E+04  0.7818609E-02  0.8056180E-01
        1   -1    0    0  501    0  0.00000000000E+00  0.00000000000E+00  0.19012927140E+04  0.19012927140E+04  0.50400001928E-02 0.  1.
       -1   -1    0    0    0  501  0.00000000000E+00  0.00000000000E+00 -0.18526527927E+04  0.18526527927E+04  0.50400001928E-02 0. -1.
    10030    2    1    2    0    0  0.00000000000E+00  0.00000000000E+00  0.48639921329E+02  0.37539455067E+04  0.37536303794E+04 0.  0.
        4    1    3    3  502    0  0.46812924635E+03 -0.16969447442E+04  0.67527182236E+03  0.18854071452E+04  0.12699999809E+01 0.  1.
       -4    1    3    3    0  502 -0.46812924635E+03  0.16969447442E+04 -0.62663190103E+03  0.18685383615E+04  0.12699999809E+01 0. -1.
</event>
<event>
 5   0  0.1070988E-07  0.3814571E+04  0.7818609E-02  0.8043035E-01
       -1   -1    0    0    0  501  0.00000000000E+00  0.00000000000E+00  0.35370886169E+04  0.35370886169E+04  0.50400001928E-02 0.  1.
        1   -1    0    0  501    0  0.00000000000E+00  0.00000000000E+00 -0.10284551843E+04  0.10284551843E+04  0.50400001928E-02 0. -1.
    10030    2    1    2    0    0  0.00000000000E+00  0.00000000000E+00  0.25086334326E+04  0.45655438011E+04  0.38145705526E+04 0.  0.
        3    1    3    3  502    0  0.91401162749E+03  0.10074397659E+03  0.32542606917E+04  0.33816829041E+04  0.10100000352E+00 0.  1.
       -3    1    3    3    0  502 -0.91401162749E+03 -0.10074397659E+03 -0.74562725907E+03  0.11838608971E+04  0.10100000352E+00 0. -1.
</event>
<event>
 5   0  0.3509843E-07  0.3793385E+04  0.7818609E-02  0.8047576E-01
       -2   -1    0    0    0  501  0.00000000000E+00  0.00000000000E+00  0.16862377058E+04  0.16862377058E+04  0.25500000920E-02 0.  1.
        2   -1    0    0  501    0  0.00000000000E+00  0.00000000000E+00 -0.21334136794E+04  0.21334136794E+04  0.25500000920E-02 0. -1.
    10030    2    1    2    0    0  0.00000000000E+00  0.00000000000E+00 -0.44717597365E+03  0.38196513852E+04  0.37933850784E+04 0.  0.
        4    1    3    3  502    0  0.26110222097E+03 -0.16187482970E+04 -0.11835626229E+04  0.20222122822E+04  0.12699999809E+01 0. -1.
       -4    1    3    3    0  502 -0.26110222097E+03  0.16187482970E+04  0.73638664929E+03  0.17974391030E+04  0.12699999809E+01 0.  1.
</event>
<event>
 5   0  0.3377396E-07  0.3856845E+04  0.7818609E-02  0.8034065E-01
        2   -1    0    0  501    0  0.00000000000E+00  0.00000000000E+00  0.24176073521E+04  0.24176073521E+04  0.25500000920E-02 0. -1.
       -2   -1    0    0    0  501  0.00000000000E+00  0.00000000000E+00 -0.15382204690E+04  0.15382204690E+04  0.25500000920E-02 0.  1.
    10030    2    1    2    0    0  0.00000000000E+00  0.00000000000E+00  0.87938688312E+03  0.39558278211E+04  0.38568448841E+04 0.  0.
        5    1    3    3  502    0  0.12524473859E+02 -0.96802081698E+03 -0.12709133574E+04  0.15976432695E+04  0.46999998093E+01 0.  1.
       -5    1    3    3    0  502 -0.12524473859E+02  0.96802081698E+03  0.21503002406E+04  0.23581845515E+04  0.46999998093E+01 0. -1.
</event>
<event>
 5   0  0.1070988E-07  0.3743666E+04  0.7818609E-02  0.8058353E-01
        1   -1    0    0  501    0  0.00000000000E+00  0.00000000000E+00  0.18098496270E+04  0.18098496270E+04  0.50400001928E-02 0. -1.
       -1   -1    0    0    0  501  0.00000000000E+00  0.00000000000E+00 -0.19359392985E+04  0.19359392985E+04  0.50400001928E-02 0.  1.
    10030    2    1    2    0    0  0.00000000000E+00  0.00000000000E+00 -0.12608967149E+03  0.37457889255E+04  0.37436661268E+04 0.  0.
        5    1    3    3  502    0 -0.26176992795E+03  0.12114896557E+04  0.13404287757E+04  0.18256511369E+04  0.46999998093E+01 0. -1.
       -5    1    3    3    0  502  0.26176992795E+03 -0.12114896557E+04 -0.14665184472E+04  0.19201377886E+04  0.46999998093E+01 0.  1.
</event>
<event>
 5   0  0.3539010E-07  0.3750837E+04  0.7818609E-02  0.8056788E-01
        2   -1    0    0  501    0  0.00000000000E+00  0.00000000000E+00  0.13393530097E+04  0.13393530097E+04  0.25500000920E-02 0.  1.
       -2   -1    0    0    0  501  0.00000000000E+00  0.00000000000E+00 -0.26260406240E+04  0.26260406240E+04  0.25500000920E-02 0. -1.
    10030    2    1    2    0    0  0.00000000000E+00  0.00000000000E+00 -0.12866876143E+04  0.39653936337E+04  0.37508374603E+04 0.  0.
        1    1    3    3  502    0  0.12452493200E+03  0.89024190215E+03 -0.23834479950E+04  0.25473243704E+04  0.50400001928E-02 0. -1.
       -1    1    3    3    0  502 -0.12452493200E+03 -0.89024190215E+03  0.10967603807E+04  0.14180692634E+04  0.50400001928E-02 0.  1.
</event>
<event>
 5   0  0.3442126E-07  0.3792657E+04  0.7818609E-02  0.8047733E-01
        2   -1    0    0  501    0  0.00000000000E+00  0.00000000000E+00  0.17686182312E+04  0.17686182312E+04  0.25500000920E-02 0. -1.
       -2   -1    0    0    0  501  0.00000000000E+00  0.00000000000E+00 -0.20332602182E+04  0.20332602182E+04  0.25500000920E-02 0.  1.
    10030    2    1    2    0    0  0.00000000000E+00  0.00000000000E+00 -0.26464198699E+03  0.38018784494E+04  0.37926566366E+04 0.  0.
        2    1    3    3  502    0  0.80738643711E+03 -0.11317641059E+04 -0.14251460650E+04  0.19909304752E+04  0.25500000920E-02 0.  1.
       -2    1    3    3    0  502 -0.80738643711E+03  0.11317641059E+04  0.11605040781E+04  0.18109479743E+04  0.25500000920E-02 0. -1.
</event>
<event>
 5   0  0.3442126E-07  0.3735210E+04  0.7818609E-02  0.8060203E-01
        2   -1    0    0  501    0  0.00000000000E+00  0.00000000000E+00  0.18542988064E+04  0.18542988064E+04  0.25500000920E-02 0.  1.
       -2   -1    0    0    0  501  0.00000000000E+00  0.00000000000E+00 -0.18810071429E+04  0.18810071429E+04  0.25500000920E-02 0. -1.
    10030    2    1    2    0    0  0.00000000000E+00  0.00000000000E+00 -0.26708336583E+02  0.37353059493E+04  0.37352104626E+04 0.  0.
        2    1    3    3  502    0  0.12178244039E+04 -0.47848698017E+03 -0.13460184284E+04  0.18771818449E+04  0.25500000920E-02 0. -1.
       -2    1    3    3    0  502 -0.12178244039E+04  0.47848698017E+03  0.13193100919E+04  0.18581241044E+04  0.25500000920E-02 0.  1.
</event>
<event>
 5   0  0.1084315E-07  0.3880451E+04  0.7818609E-02  0.8029107E-01
        1   -1    0    0  501    0  0.00000000000E+00  0.00000000000E+00  0.11469224849E+04  0.11469224849E+04  0.50400001928E-02 0.  1.
       -1   -1    0    0    0  501  0.00000000000E+00  0.00000000000E+00 -0.32822395743E+04  0.32822395743E+04  0.50400001928E-02 0. -1.
    10030    2    1    2    0    0  0.00000000000E+00  0.00000000000E+00 -0.21353170893E+04  0.44291620592E+04  0.38804506793E+04 0.  0.
        4    1    3    3  502    0  0.12870083322E+04  0.85387197538E+03  0.27269438403E+03  0.15683914172E+04  0.12699999809E+01 0.  1.
       -4    1    3    3    0  502 -0.12870083322E+04 -0.85387197538E+03 -0.24080114733E+04  0.28607706420E+04  0.12699999809E+01 0. -1.
</event>
<event>
 5   0  0.1085771E-07  0.3806213E+04  0.7818609E-02  0.8044823E-01
        1   -1    0    0  501    0  0.00000000000E+00  0.00000000000E+00  0.18752504296E+04  0.18752504296E+04  0.50400001928E-02 0.  1.
       -1   -1    0    0    0  501  0.00000000000E+00  0.00000000000E+00 -0.19313768503E+04  0.19313768503E+04  0.50400001928E-02 0. -1.
    10030    2    1    2    0    0  0.00000000000E+00  0.00000000000E+00 -0.56126420688E+02  0.38066272800E+04  0.38062134824E+04 0.  0.
        1    1    3    3  502    0 -0.13234617186E+04  0.10239361900E+04  0.87857769244E+03  0.18899457673E+04  0.50400001928E-02 0. -1.
       -1    1    3    3    0  502  0.13234617186E+04 -0.10239361900E+04 -0.93470411313E+03  0.19166815126E+04  0.50400001928E-02 0.  1.
</event>
<event>
 5   0  0.3377396E-07  0.3784724E+04  0.7818609E-02  0.8049441E-01
        2   -1    0    0  501    0  0.00000000000E+00  0.00000000000E+00  0.18355967541E+04  0.18355967541E+04  0.25500000920E-02 0.  1.
       -2   -1    0    0    0  501  0.00000000000E+00  0.00000000000E+00 -0.19508831655E+04  0.19508831655E+04  0.25500000920E-02 0. -1.
    10030    2    1    2    0    0  0.00000000000E+00  0.00000000000E+00 -0.11528641135E+03  0.37864799196E+04  0.37847244583E+04 0.  0.
        5    1    3    3  502    0 -0.16102818435E+04 -0.47472104025E+03 -0.93134376708E+03  0.19198413956E+04  0.46999998093E+01 0. -1.
       -5    1    3    3    0  502  0.16102818435E+04  0.47472104025E+03  0.81605735573E+03  0.18666385241E+04  0.46999998093E+01 0.  1.
</event>
<event>
 5   0  0.1070988E-07  0.3783876E+04  0.7818609E-02  0.8049624E-01
       -1   -1    0    0    0  501  0.00000000000E+00  0.00000000000E+00  0.18845964746E+04  0.18845964746E+04  0.50400001928E-02 0. -1.
        1   -1    0    0  501    0  0.00000000000E+00  0.00000000000E+00 -0.18993079382E+04  0.18993079382E+04  0.50400001928E-02 0.  1.
    10030    2    1    2    0    0  0.00000000000E+00  0.00000000000E+00 -0.14711463532E+02  0.37839044128E+04  0.37838758143E+04 0.  0.
        5    1    3    3  502    0 -0.46364779807E+03  0.61819102146E+03  0.17195845148E+04  0.18852380256E+04  0.46999998093E+01 0. -1.
       -5    1    3    3    0  502  0.46364779807E+03 -0.61819102146E+03 -0.17342959783E+04  0.18986663872E+04  0.46999998093E+01 0.  1.
</event>
<event>
 5   0  0.3442126E-07  0.3764876E+04  0.7818609E-02  0.8053735E-01
       -2   -1    0    0    0  501  0.00000000000E+00  0.00000000000E+00  0.10500396489E+04  0.10500396489E+04  0.25500000920E-02 0.  1.
        2   -1    0    0  501    0  0.00000000000E+00  0.00000000000E+00 -0.33747040032E+04  0.33747040032E+04  0.25500000920E-02 0. -1.
    10030    2    1    2    0    0  0.00000000000E+00  0.00000000000E+00 -0.23246643543E+04  0.44247436520E+04  0.37648760970E+04 0.  0.
        2    1    3    3  502    0 -0.13919132314E+04  0.72306415040E+03  0.60924431424E+02  0.15696993329E+04  0.25500000920E-02 0.  1.
       -2    1    3    3    0  502  0.13919132314E+04 -0.72306415040E+03 -0.23855887857E+04  0.28550443191E+04  0.25500000920E-02 0. -1.
</event>
<event>
 5   0  0.3509843E-07  0.3668130E+04  0.7818609E-02  0.8075062E-01
        2   -1    0    0  501    0  0.00000000000E+00  0.00000000000E+00  0.13204776249E+04  0.13204776249E+04  0.25500000920E-02 0.  1.
       -2   -1    0    0    0  501  0.00000000000E+00  0.00000000000E+00 -0.25474068068E+04  0.25474068068E+04  0.25500000920E-02 0. -1.
    10030    2    1    2    0    0  0.00000000000E+00  0.00000000000E+00 -0.12269291819E+04  0.38678844317E+04  0.36681295997E+04 0.  0.
        4    1    3    3  502    0 -0.13936075904E+04 -0.11821211571E+04 -0.44929567746E+03  0.18818662983E+04  0.12699999809E+01 0.  1.
       -4    1    3    3    0  502  0.13936075904E+04  0.11821211571E+04 -0.77763350445E+03  0.19860181334E+04  0.12699999809E+01 0. -1.
</event>
<event>
 5   0  0.1084315E-07  0.4008676E+04  0.7818609E-02  0.8002799E-01
        1   -1    0    0  501    0  0.00000000000E+00  0.00000000000E+00  0.28534237626E+04  0.28534237626E+04  0.50400001928E-02 0.  1.
       -1   -1    0    0    0  501  0.00000000000E+00  0.00000000000E+00 -0.14079122152E+04  0.14079122152E+04  0.50400001928E-02 0. -1.
    10030    2    1    2    0    0  0.00000000000E+00  0.00000000000E+00  0.14455115474E+04  0.42613359778E+04  0.40086756768E+04 0.  0.
        4    1    3    3  502    0  0.23145180516E+03  0.12744850499E+04 -0.90318651039E+03  0.15791230370E+04  0.12699999809E+01 0. -1.
       -4    1    3    3    0  502 -0.23145180516E+03 -0.12744850499E+04  0.23486980578E+04  0.26822129408E+04  0.12699999809E+01 0.  1.
</event>
<event>
 5   0  0.3377396E-07  0.3795528E+04  0.7818609E-02  0.8047115E-01
       -2   -1    0    0    0  501  0.00000000000E+00  0.00000000000E+00  0.15731626480E+04  0.15731626480E+04  0.25500000920E-02 0.  1.
        2   -1    0    0  501    0  0.00000000000E+00  0.00000000000E+00 -0.22893426598E+04  0.22893426598E+04  0.25500000920E-02 0. -1.
    10030    2    1    2    0    0  0.00000000000E+00  0.00000000000E+00 -0.71618001184E+03  0.38625053078E+04  0.37955280849E+04 0.  0.
        5    1    3    3  502    0 -0.69654828811E+03 -0.16456837180E+04 -0.10081357419E+04  0.20517831712E+04  0.46999998093E+01 0. -1.
       -5    1    3    3    0  502  0.69654828811E+03  0.16456837180E+04  0.29195573006E+03  0.18107221366E+04  0.46999998093E+01 0.  1.
</event>
<event>
 5   0  0.3327241E-07  0.3802036E+04  0.7818609E-02  0.8045718E-01
       -2   -1    0    0    0  501  0.00000000000E+00  0.00000000000E+00  0.17133054881E+04  0.17133054881E+04  0.25500000920E-02 0.  1.
        2   -1    0    0  501    0  0.00000000000E+00  0.00000000000E+00 -0.21092964071E+04  0.21092964071E+04  0.25500000920E-02 0. -1.
    10030    2    1    2    0    0  0.00000000000E+00  0.00000000000E+00 -0.39599091902E+03  0.38226018953E+04  0.38020358286E+04 0.  0.
        3    1    3    3  502    0 -0.47767963733E+03  0.18322343500E+04 -0.27939914491E+02  0.18936845561E+04  0.10100000352E+00 0.  1.
       -3    1    3    3    0  502  0.47767963733E+03 -0.18322343500E+04 -0.36805100453E+03  0.19289173391E+04  0.10100000352E+00 0. -1.
</event>
<event>
 5   0  0.3509843E-07  0.3773748E+04  0.7818609E-02  0.8051812E-01
       -2   -1    0    0    0  501  0.00000000000E+00  0.00000000000E+00  0.17494823477E+04  0.17494823477E+04  0.25500000920E-02 0. -1.
        2   -1    0    0  501    0  0.00000000000E+00  0.00000000000E+00 -0.20350553385E+04  0.20350553385E+04  0.25500000920E-02 0.  1.
    10030    2    1    2    0    0  0.00000000000E+00  0.00000000000E+00 -0.28557299082E+03  0.37845376862E+04  0.37737479467E+04 0.  0.
        4    1    3    3  502    0 -0.33271844774E+03  0.70874040390E+03 -0.18644585912E+04  0.20221824786E+04  0.12699999809E+01 0.  1.
       -4    1    3    3    0  502  0.33271844774E+03 -0.70874040390E+03  0.15788856004E+04  0.17623552076E+04  0.12699999809E+01 0. -1.
</event>
<event>
 5   0  0.1070988E-07  0.3815157E+04  0.7818609E-02  0.8042910E-01
        1   -1    0    0  501    0  0.00000000000E+00  0.00000000000E+00  0.22506668025E+04  0.22506668025E+04  0.50400001928E-02 0.  1.
       -1   -1    0    0    0  501  0.00000000000E+00  0.00000000000E+00 -0.16167904858E+04  0.16167904858E+04  0.50400001928E-02 0. -1.
    10030    2    1    2    0    0  0.00000000000E+00  0.00000000000E+00  0.63387631667E+03  0.38674572883E+04  0.38151574924E+04 0.  0.
        2    1    3    3  502    0  0.14233396551E+04  0.52134642019E+03  0.14908977776E+04  0.21261406461E+04  0.25500000920E-02 0. -1.
       -2    1    3    3    0  502 -0.14233396551E+04 -0.52134642019E+03 -0.85702146097E+03  0.17413166422E+04  0.25500000920E-02 0.  1.
</event>
<event>
 5   0  0.3377396E-07  0.3799990E+04  0.7818609E-02  0.8046157E-01
       -2   -1    0    0    0  501  0.00000000000E+00  0.00000000000E+00  0.21356430091E+04  0.21356430091E+04  0.25500000920E-02 0. -1.
        2   -1    0    0  501    0  0.00000000000E+00  0.00000000000E+00 -0.16903488884E+04  0.16903488884E+04  0.25500000920E-02 0.  1.
    10030    2    1    2    0    0  0.00000000000E+00  0.00000000000E+00  0.44529412066E+03  0.38259918975E+04  0.37999904139E+04 0.  0.
        5    1    3    3  502    0 -0.67462324493E+03 -0.16128764569E+04 -0.52640094252E+03  0.18258168117E+04  0.46999998093E+01 0.  1.
       -5    1    3    3    0  502  0.67462324493E+03  0.16128764569E+04  0.97169506318E+03  0.20001750857E+04  0.46999998093E+01 0. -1.
</event>
<event>
 5   0  0.1070988E-07  0.3823757E+04  0.7818609E-02  0.8041076E-01
       -1   -1    0    0    0  501  0.00000000000E+00  0.00000000000E+00  0.15626272544E+04  0.15626272544E+04  0.50400001928E-02 0. -1.
        1   -1    0    0  501    0  0.00000000000E+00  0.00000000000E+00 -0.23391878084E+04  0.23391878084E+04  0.50400001928E-02 0.  1.
    10030    2    1    2    0    0  0.00000000000E+00  0.00000000000E+00 -0.77656055398E+03  0.39018150628E+04  0.38237565940E+04 0.  0.
        5    1    3    3  502    0  0.35267901907E+03  0.37765681961E+03  0.14900161185E+04  0.15770787194E+04  0.46999998093E+01 0. -1.
       -5    1    3    3    0  502 -0.35267901907E+03 -0.37765681961E+03 -0.22665766725E+04  0.23247363433E+04  0.46999998093E+01 0.  1.
</event>
<event>
 5   0  0.3509843E-07  0.3793615E+04  0.7818609E-02  0.8047526E-01
       -2   -1    0    0    0  501  0.00000000000E+00  0.00000000000E+00  0.14348740724E+04  0.14348740724E+04  0.25500000920E-02 0.  1.
        2   -1    0    0  501    0  0.00000000000E+00  0.00000000000E+00 -0.25074528909E+04  0.25074528909E+04  0.25500000920E-02 0. -1.
    10030    2    1    2    0    0  0.00000000000E+00  0.00000000000E+00 -0.10725788185E+04  0.39423269633E+04  0.37936152367E+04 0.  0.
        4    1    3    3  502    0  0.78674129600E+03 -0.12935769852E+04  0.65111907158E+03  0.16481082919E+04  0.12699999809E+01 0.  1.
       -4    1    3    3    0  502 -0.78674129600E+03  0.12935769852E+04 -0.17236978901E+04  0.22942186715E+04  0.12699999809E+01 0. -1.
</event>
<event>
 5   0  0.1085771E-07  0.3780585E+04  0.7818609E-02  0.8050334E-01
        1   -1    0    0  501    0  0.00000000000E+00  0.00000000000E+00  0.20759551038E+04  0.20759551038E+04  0.50400001928E-02 0. -1.
       -1   -1    0    0    0  501  0.00000000000E+00  0.00000000000E+00 -0.17212349771E+04  0.17212349771E+04  0.50400001928E-02 0.  1.
    10030    2    1    2    0    0  0.00000000000E+00  0.00000000000E+00  0.35472012671E+03  0.37971900808E+04  0.37805854232E+04 0.  0.
        1    1    3    3  502    0 -0.18648348306E+04  0.30879162977E+03  0.19309153341E+03  0.19000646190E+04  0.50400001928E-02 0. -1.
       -1    1    3    3    0  502  0.18648348306E+04 -0.30879162977E+03  0.16162859330E+03  0.18971254619E+04  0.50400001928E-02 0.  1.
</event>
<event>
 5   0  0.3377396E-07  0.3855087E+04  0.7818609E-02  0.8034436E-01
        2   -1    0    0  501    0  0.00000000000E+00  0.00000000000E+00  0.20691957502E+04  0.20691957502E+04  0.25500000920E-02 0. -1.
       -2   -1    0    0    0  501  0.00000000000E+00  0.00000000000E+00 -0.17955888717E+04  0.17955888717E+04  0.25500000920E-02 0.  1.
    10030    2    1    2    0    0  0.00000000000E+00  0.00000000000E+00  0.27360687847E+03  0.38647846219E+04  0.38550874763E+04 0.  0.
        5    1    3    3  502    0  0.50881966017E+03  0.55325225533E+03  0.19162096370E+04  0.20583651200E+04  0.46999998093E+01 0. -1.
       -5    1    3    3    0  502 -0.50881966017E+03 -0.55325225533E+03 -0.16426027585E+04  0.18064195019E+04  0.46999998093E+01 0.  1.
</event>
<event>
 5   0  0.1070988E-07  0.3742052E+04  0.7818609E-02  0.8058706E-01
       -1   -1    0    0    0  501  0.00000000000E+00  0.00000000000E+00  0.15297118224E+04  0.15297118225E+04  0.50400001928E-02 0. -1.
        1   -1    0    0  501    0  0.00000000000E+00  0.00000000000E+00 -0.22884955990E+04  0.22884955990E+04  0.50400001928E-02 0.  1.
    10030    2    1    2    0    0  0.00000000000E+00  0.00000000000E+00 -0.75878377652E+03  0.38182074214E+04  0.37420522569E+04 0.  0.
        5    1    3    3  502    0 -0.65419493999E+03 -0.10764074292E+04 -0.17910552852E+04  0.21896404038E+04  0.46999998093E+01 0.  1.
       -5    1    3    3    0  502  0.65419493999E+03  0.10764074292E+04  0.10322715087E+04  0.16285670176E+04  0.46999998093E+01 0. -1.
</event>
<event>
 5   0  0.1070988E-07  0.3311807E+04  0.7818609E-02  0.8159898E-01
        1   -1    0    0  501    0  0.00000000000E+00  0.00000000000E+00  0.23110207525E+04  0.23110207525E+04  0.50400001928E-02 0.  1.
       -1   -1    0    0    0  501  0.00000000000E+00  0.00000000000E+00 -0.11864956359E+04  0.11864956359E+04  0.50400001928E-02 0. -1.
    10030    2    1    2    0    0  0.00000000000E+00  0.00000000000E+00  0.11245251166E+04  0.34975163885E+04  0.33118067803E+04 0.  0.
        5    1    3    3  502    0 -0.13336468361E+04 -0.90631536710E+03  0.96018360648E+03  0.18766981846E+04  0.46999998093E+01 0.  1.
       -5    1    3    3    0  502  0.13336468361E+04  0.90631536710E+03  0.16434151008E+03  0.16208182038E+04  0.46999998093E+01 0. -1.
</event>
<event>
 5   0  0.3377396E-07  0.3796612E+04  0.7818609E-02  0.8046882E-01
        2   -1    0    0  501    0  0.00000000000E+00  0.00000000000E+00  0.16189585958E+04  0.16189585958E+04  0.25500000920E-02 0. -1.
       -2   -1    0    0    0  501  0.00000000000E+00  0.00000000000E+00 -0.22258539914E+04  0.22258539914E+04  0.25500000920E-02 0.  1.
    10030    2    1    2    0    0  0.00000000000E+00  0.00000000000E+00 -0.60689539561E+03  0.38448125872E+04  0.37966118855E+04 0.  0.
        5    1    3    3  502    0  0.65698376343E+03  0.14012995268E+04 -0.14166188087E+04  0.20981179587E+04  0.46999998093E+01 0.  1.
       -5    1    3    3    0  502 -0.65698376343E+03 -0.14012995268E+04  0.80972341314E+03  0.17466946285E+04  0.46999998093E+01 0. -1.
</event>
<event>
 5   0  0.1085771E-07  0.3750434E+04  0.7818609E-02  0.8056876E-01
        1   -1    0    0  501    0  0.00000000000E+00  0.00000000000E+00  0.21007055651E+04  0.21007055651E+04  0.50400001928E-02 0. -1.
       -1   -1    0    0    0  501  0.00000000000E+00  0.00000000000E+00 -0.16739320000E+04  0.16739320000E+04  0.50400001928E-02 0.  1.
    10030    2    1    2    0    0  0.00000000000E+00  0.00000000000E+00  0.42677356510E+03  0.37746375651E+04  0.37504337178E+04 0.  0.
        1    1    3    3  502    0  0.13312315435E+04 -0.49311785710E+03  0.14464857745E+04  0.20267372151E+04  0.50400001928E-02 0. -1.
       -1    1    3    3    0  502 -0.13312315435E+04  0.49311785710E+03 -0.10197122094E+04  0.17479003499E+04  0.50400001928E-02 0.  1.
</event>
<event>
 5   0  0.1084315E-07  0.3785796E+04  0.7818609E-02  0.8049210E-01
        1   -1    0    0  501    0  0.00000000000E+00  0.00000000000E+00  0.21000905206E+04  0.21000905206E+04  0.50400001928E-02 0. -1.
       -1   -1    0    0    0  501  0.00000000000E+00  0.00000000000E+00 -0.17061465280E+04  0.17061465280E+04  0.50400001928E-02 0.  1.
    10030    2    1    2    0    0  0.00000000000E+00  0.00000000000E+00  0.39394399258E+03  0.38062370486E+04  0.37857956364E+04 0.  0.
        4    1    3    3  502    0 -0.14896701712E+04  0.11570665331E+04  0.37558760049E+02  0.18866193189E+04  0.12699999809E+01 0. -1.
       -4    1    3    3    0  502  0.14896701712E+04 -0.11570665331E+04  0.35638523253E+03  0.19196177297E+04  0.12699999809E+01 0.  1.
</event>
<event>
 5   0  0.1070988E-07  0.3821824E+04  0.7818609E-02  0.8041488E-01
       -1   -1    0    0    0  501  0.00000000000E+00  0.00000000000E+00  0.15441172460E+04  0.15441172460E+04  0.50400001928E-02 0.  1.
        1   -1    0    0  501    0  0.00000000000E+00  0.00000000000E+00 -0.23648360427E+04  0.23648360427E+04  0.50400001928E-02 0. -1.
    10030    2    1    2    0    0  0.00000000000E+00  0.00000000000E+00 -0.82071879671E+03  0.39089532887E+04  0.38218237100E+04 0.  0.
        5    1    3    3  502    0 -0.84179046019E+03 -0.90744434989E+03 -0.18993984579E+04  0.22671133670E+04  0.46999998093E+01 0. -1.
       -5    1    3    3    0  502  0.84179046019E+03  0.90744434989E+03  0.10786796612E+04  0.16418399217E+04  0.46999998093E+01 0.  1.
</event>
<event>
 5   0  0.1084315E-07  0.3733492E+04  0.7818609E-02  0.8060580E-01
       -1   -1    0    0    0  501  0.00000000000E+00  0.00000000000E+00  0.16190935678E+04  0.16190935678E+04  0.50400001928E-02 0. -1.
        1   -1    0    0  501    0  0.00000000000E+00  0.00000000000E+00 -0.21522791106E+04  0.21522791106E+04  0.50400001928E-02 0.  1.
    10030    2    1    2    0    0  0.00000000000E+00  0.00000000000E+00 -0.53318554283E+03  0.37713726784E+04  0.37334923404E+04 0.  0.
        4    1    3    3  502    0 -0.82337293049E+03 -0.82615340472E+03 -0.17388671680E+04  0.20938321498E+04  0.12699999809E+01 0.  1.
       -4    1    3    3    0  502  0.82337293049E+03  0.82615340472E+03  0.12056816252E+04  0.16775405285E+04  0.12699999809E+01 0. -1.
</event>
<event>
 5   0  0.1084315E-07  0.3786983E+04  0.7818609E-02  0.8048954E-01
       -1   -1    0    0    0  501  0.00000000000E+00  0.00000000000E+00  0.16070412560E+04  0.16070412560E+04  0.50400001928E-02 0. -1.
        1   -1    0    0  501    0  0.00000000000E+00  0.00000000000E+00 -0.22310009207E+04  0.22310009207E+04  0.50400001928E-02 0.  1.
    10030    2    1    2    0    0  0.00000000000E+00  0.00000000000E+00 -0.62395966471E+03  0.38380421767E+04  0.37869832435E+04 0.  0.
        4    1    3    3  502    0 -0.14060662197E+04 -0.12805168468E+03  0.96673238073E+03  0.17111377960E+04  0.12699999809E+01 0. -1.
       -4    1    3    3    0  502  0.14060662197E+04  0.12805168468E+03 -0.15906920454E+04  0.21269043807E+04  0.12699999809E+01 0.  1.
</event>
<event>
 5   0  0.1084315E-07  0.3839841E+04  0.7818609E-02  0.8037659E-01
        1   -1    0    0  501    0  0.00000000000E+00  0.00000000000E+00  0.21292884522E+04  0.21292884522E+04  0.50400001928E-02 0.  1.
       -1   -1    0    0    0  501  0.00000000000E+00  0.00000000000E+00 -0.17311392281E+04  0.17311392281E+04  0.50400001928E-02 0. -1.
    10030    2    1    2    0    0  0.00000000000E+00  0.00000000000E+00  0.39814922408E+03  0.38604276802E+04  0.38398410214E+04 0.  0.
        4    1    3    3  502    0 -0.70946187340E+03 -0.41058915486E+03 -0.15463709340E+04  0.17501954983E+04  0.12699999809E+01 0. -1.
       -4    1    3    3    0  502  0.70946187340E+03  0.41058915486E+03  0.19445201580E+04  0.21102321820E+04  0.12699999809E+01 0.  1.
</event>
<event>
 5   0  0.1070988E-07  0.3655443E+04  0.7818609E-02  0.8077909E-01
       -1   -1    0    0    0  501  0.00000000000E+00  0.00000000000E+00  0.16345522762E+04  0.16345522762E+04  0.50400001928E-02 0.  1.
        1   -1    0    0  501    0  0.00000000000E+00  0.00000000000E+00 -0.20437188261E+04  0.20437188261E+04  0.50400001928E-02 0. -1.
    10030    2    1    2    0    0  0.00000000000E+00  0.00000000000E+00 -0.40916654991E+03  0.36782711022E+04  0.36554426594E+04 0.  0.
        3    1    3    3  502    0  0.75464754871E+03 -0.37726266546E+02  0.14700361738E+04  0.16528528538E+04  0.10100000352E+00 0.  1.
       -3    1    3    3    0  502 -0.75464754871E+03  0.37726266546E+02 -0.18792027237E+04  0.20254182484E+04  0.10100000352E+00 0. -1.
</event>
<event>
 5   0  0.3442126E-07  0.3814005E+04  0.7818609E-02  0.8043156E-01
       -2   -1    0    0    0  501  0.00000000000E+00  0.00000000000E+00  0.17740304951E+04  0.17740304951E+04  0.25500000920E-02 0.  1.
        2   -1    0    0  501    0  0.00000000000E+00  0.00000000000E+00 -0.20499409713E+04  0.20499409713E+04  0.25500000920E-02 0. -1.
    10030    2    1    2    0    0  0.00000000000E+00  0.00000000000E+00 -0.27591047626E+03  0.38239714664E+04  0.38140046126E+04 0.  0.
        2    1    3    3  502    0 -0.12635126741E+04 -0.12867802536E+04  0.48365695488E+03  0.18671346359E+04  0.25500000920E-02 0.  1.
       -2    1    3    3    0  502  0.12635126741E+04  0.12867802536E+04 -0.75956743114E+03  0.19568368305E+04  0.25500000920E-02 0. -1.
</event>
<event>
 5   0  0.1070988E-07  0.3632289E+04  0.7818609E-02  0.8083135E-01
        1   -1    0    0  501    0  0.00000000000E+00  0.00000000000E+00  0.22218396338E+04  0.22218396338E+04  0.50400001928E-02 0.  1.
       -1   -1    0    0    0  501  0.00000000000E+00  0.00000000000E+00 -0.14845272352E+04  0.14845272352E+04  0.50400001928E-02 0. -1.
    10030    2    1    2    0    0  0.00000000000E+00  0.00000000000E+00  0.73731239860E+03  0.37063668689E+04  0.36322893324E+04 0.  0.
        3    1    3    3  502    0 -0.17055947866E+04  0.55655798123E+03  0.80819885056E+02  0.17959237808E+04  0.10100000352E+00 0. -1.
       -3    1    3    3    0  502  0.17055947866E+04 -0.55655798123E+03  0.65649251355E+03  0.19104430881E+04  0.10100000352E+00 0.  1.
</event>
<event>
 5   0  0.1085771E-07  0.3803605E+04  0.7818609E-02  0.8045382E-01
       -1   -1    0    0    0  501  0.00000000000E+00  0.00000000000E+00  0.13355486056E+04  0.13355486056E+04  0.50400001928E-02 0. -1.
        1   -1    0    0  501    0  0.00000000000E+00  0.00000000000E+00 -0.27081396840E+04  0.27081396840E+04  0.50400001928E-02 0.  1.
    10030    2    1    2    0    0  0.00000000000E+00  0.00000000000E+00 -0.13725910785E+04  0.40436882896E+04  0.38036047001E+04 0.  0.
        1    1    3    3  502    0 -0.12326055106E+04 -0.14376967036E+04 -0.50043484741E+03  0.19587555215E+04  0.50400001928E-02 0.  1.
       -1    1    3    3    0  502  0.12326055106E+04  0.14376967036E+04 -0.87215623107E+03  0.20849327682E+04  0.50400001928E-02 0. -1.
</event>
<event>
 5   0  0.3377396E-07  0.3847152E+04  0.7818609E-02  0.8036111E-01
        2   -1    0    0  501    0  0.00000000000E+00  0.00000000000E+00  0.15719720146E+04  0.15719720146E+04  0.25500000920E-02 0.  1.
       -2   -1    0    0    0  501  0.00000000000E+00  0.00000000000E+00 -0.23538233885E+04  0.23538233885E+04  0.25500000920E-02 0. -1.
    10030    2    1    2    0    0  0.00000000000E+00  0.00000000000E+00 -0.78185137392E+03  0.39257954031E+04  0.38471519305E+04 0.  0.
        5    1    3    3  502    0 -0.59289958465E+02 -0.19068362571E+04 -0.64209249967E+03  0.20129194417E+04  0.46999998093E+01 0. -1.
       -5    1    3    3    0  502  0.59289958465E+02  0.19068362571E+04 -0.13975887425E+03  0.19128759614E+04  0.46999998093E+01 0.  1.
</event>
<event>
 5   0  0.1070988E-07  0.3821738E+04  0.7818609E-02  0.8041506E-01
       -1   -1    0    0    0  501  0.00000000000E+00  0.00000000000E+00  0.14473031389E+04  0.14473031389E+04  0.50400001928E-02 0.  1.
        1   -1    0    0  501    0  0.00000000000E+00  0.00000000000E+00 -0.25229127719E+04  0.25229127719E+04  0.50400001928E-02 0. -1.
    10030    2    1    2    0    0  0.00000000000E+00  0.00000000000E+00 -0.10756096330E+04  0.39702159108E+04  0.38217376016E+04 0.  0.
        2    1    3    3  502    0  0.90102950876E+03  0.12359770547E+04  0.65208829222E+03  0.16627424925E+04  0.25500000920E-02 0.  1.
       -2    1    3    3    0  502 -0.90102950876E+03 -0.12359770547E+04 -0.17276979253E+04  0.23074734183E+04  0.25500000920E-02 0. -1.
</event>
<event>
 5   0  0.1070988E-07  0.3834966E+04  0.7818609E-02  0.8038693E-01
       -1   -1    0    0    0  501  0.00000000000E+00  0.00000000000E+00  0.15388594331E+04  0.15388594331E+04  0.50400001928E-02 0.  1.
        1   -1    0    0  501    0  0.00000000000E+00  0.00000000000E+00 -0.23892638835E+04  0.23892638835E+04  0.50400001928E-02 0. -1.
    10030    2    1    2    0    0  0.00000000000E+00  0.00000000000E+00 -0.85040445042E+03  0.39281233166E+04  0.38349661096E+04 0.  0.
        5    1    3    3  502    0  0.33021788454E+03 -0.13215682449E+03  0.15047679520E+04  0.15462399415E+04  0.46999998093E+01 0.  1.
       -5    1    3    3    0  502 -0.33021788454E+03  0.13215682449E+03 -0.23551724024E+04  0.23818833751E+04  0.46999998093E+01 0. -1.
</event>
<event>
 5   0  0.1084315E-07  0.3641785E+04  0.7818609E-02  0.8080987E-01
       -1   -1    0    0    0  501  0.00000000000E+00  0.00000000000E+00  0.19314569312E+04  0.19314569312E+04  0.50400001928E-02 0. -1.
        1   -1    0    0  501    0  0.00000000000E+00  0.00000000000E+00 -0.17166576266E+04  0.17166576266E+04  0.50400001928E-02 0.  1.
    10030    2    1    2    0    0  0.00000000000E+00  0.00000000000E+00  0.21479930454E+03  0.36481145578E+04  0.36417854255E+04 0.  0.
        4    1    3    3  502    0 -0.23858508671E+03 -0.82087236312E+03 -0.15031551794E+04  0.17292285524E+04  0.12699999809E+01 0.  1.
       -4    1    3    3    0  502  0.23858508671E+03  0.82087236312E+03  0.17179544839E+04  0.19188860054E+04  0.12699999809E+01 0. -1.
</event>
<event>
 5   0  0.1084315E-07  0.3805151E+04  0.7818609E-02  0.8045050E-01
       -1   -1    0    0    0  501  0.00000000000E+00  0.00000000000E+00  0.25223039962E+04  0.25223039962E+04  0.50400001928E-02 0. -1.
        1   -1    0    0  501    0  0.00000000000E+00  0.00000000000E+00 -0.14351142576E+04  0.14351142576E+04  0.50400001928E-02 0.  1.
    10030    2    1    2    0    0  0.00000000000E+00  0.00000000000E+00  0.10871897386E+04  0.39574182538E+04  0.38051514697E+04 0.  0.
        4    1    3    3  502    0  0.60645868806E+03  0.22027008439E+03  0.24050438246E+04  0.24900900509E+04  0.12699999809E+01 0. -1.
       -4    1    3    3    0  502 -0.60645868806E+03 -0.22027008439E+03 -0.13178540859E+04  0.14673282029E+04  0.12699999809E+01 0.  1.
</event>
<event>
 5   0  0.3509843E-07  0.3816583E+04  0.7818609E-02  0.8042606E-01
       -2   -1    0    0    0  501  0.00000000000E+00  0.00000000000E+00  0.14301452506E+04  0.14301452506E+04  0.25500000920E-02 0.  1.
        2   -1    0    0  501    0  0.00000000000E+00  0.00000000000E+00 -0.25462985448E+04  0.25462985448E+04  0.25500000920E-02 0. -1.
    10030    2    1    2    0    0  0.00000000000E+00  0.00000000000E+00 -0.11161532942E+04  0.39764437953E+04  0.38165831684E+04 0.  0.
        4    1    3    3  502    0  0.96372066711E+03  0.13830237044E+04 -0.14900043648E+04  0.22498059274E+04  0.12699999809E+01 0. -1.
       -4    1    3    3    0  502 -0.96372066711E+03 -0.13830237044E+04  0.37385107060E+03  0.17266378679E+04  0.12699999809E+01 0.  1.
</event>
<event>
 5   0  0.1070988E-07  0.3663661E+04  0.7818609E-02  0.8076063E-01
       -1   -1    0    0    0  501  0.00000000000E+00  0.00000000000E+00  0.15759228019E+04  0.15759228019E+04  0.50400001928E-02 0.  1.
        1   -1    0    0  501    0  0.00000000000E+00  0.00000000000E+00 -0.21292939127E+04  0.21292939127E+04  0.50400001928E-02 0. -1.
    10030    2    1    2    0    0  0.00000000000E+00  0.00000000000E+00 -0.55337111081E+03  0.37052167146E+04  0.36636609172E+04 0.  0.
        3    1    3    3  502    0 -0.41989577577E+03  0.94567023849E+03 -0.18054524515E+04  0.20809284532E+04  0.10100000352E+00 0. -1.
       -3    1    3    3    0  502  0.41989577577E+03 -0.94567023849E+03  0.12520813406E+04  0.16242882614E+04  0.10100000352E+00 0.  1.
</event>
<event>
 5   0  0.3442126E-07  0.3686012E+04  0.7818609E-02  0.8071069E-01
        2   -1    0    0  501    0  0.00000000000E+00  0.00000000000E+00  0.17644234201E+04  0.17644234201E+04  0.25500000920E-02 0.  1.
       -2   -1    0    0    0  501  0.00000000000E+00  0.00000000000E+00 -0.19250885972E+04  0.19250885972E+04  0.25500000920E-02 0. -1.
    10030    2    1    2    0    0  0.00000000000E+00  0.00000000000E+00 -0.16066517712E+03  0.36895120174E+04  0.36860121578E+04 0.  0.
        2    1    3    3  502    0 -0.15297805582E+04 -0.81813391010E+03 -0.70309675350E+03  0.18718751817E+04  0.25500000920E-02 0. -1.
       -2    1    3    3    0  502  0.15297805582E+04  0.81813391010E+03  0.54243157638E+03  0.18176368356E+04  0.25500000920E-02 0.  1.
</event>
<event>
 5   0  0.3377396E-07  0.3703396E+04  0.7818609E-02  0.8067210E-01
        2   -1    0    0  501    0  0.00000000000E+00  0.00000000000E+00  0.21835592185E+04  0.21835592185E+04  0.25500000920E-02 0. -1.
       -2   -1    0    0    0  501  0.00000000000E+00  0.00000000000E+00 -0.15702736271E+04  0.15702736271E+04  0.25500000920E-02 0.  1.
    10030    2    1    2    0    0  0.00000000000E+00  0.00000000000E+00  0.61328559137E+03  0.37538328456E+04  0.37033959843E+04 0.  0.
        5    1    3    3  502    0  0.46744119962E+03  0.17903521842E+04  0.23568116623E+03  0.18653230070E+04  0.46999998093E+01 0.  1.
       -5    1    3    3    0  502 -0.46744119962E+03 -0.17903521842E+04  0.37760442514E+03  0.18885098386E+04  0.46999998093E+01 0. -1.
</event>
<event>
 5   0  0.3327241E-07  0.3813822E+04  0.7818609E-02  0.8043195E-01
        2   -1    0    0  501    0  0.00000000000E+00  0.00000000000E+00  0.22062814078E+04  0.22062814078E+04  0.25500000920E-02 0. -1.
       -2   -1    0    0    0  501  0.00000000000E+00  0.00000000000E+00 -0.16481620427E+04  0.16481620427E+04  0.25500000920E-02 0.  1.
    10030    2    1    2    0    0  0.00000000000E+00  0.00000000000E+00  0.55811936511E+03  0.38544434506E+04  0.38138218480E+04 0.  0.
        3    1    3    3  502    0 -0.13792190525E+04 -0.15489857651E+03 -0.10425654337E+04  0.17358517959E+04  0.10100000352E+00 0.  1.
       -3    1    3    3    0  502  0.13792190525E+04  0.15489857651E+03  0.16006847988E+04  0.21185916546E+04  0.10100000352E+00 0. -1.
</event>
<event>
 5   0  0.1070988E-07  0.3816682E+04  0.7818609E-02  0.8042584E-01
        1   -1    0    0  501    0  0.00000000000E+00  0.00000000000E+00  0.28216140258E+04  0.28216140258E+04  0.50400001928E-02 0. -1.
       -1   -1    0    0    0  501  0.00000000000E+00  0.00000000000E+00 -0.12906675115E+04  0.12906675115E+04  0.50400001928E-02 0.  1.
    10030    2    1    2    0    0  0.00000000000E+00  0.00000000000E+00  0.15309465143E+04  0.41122815372E+04  0.38166820947E+04 0.  0.
        2    1    3    3  502    0 -0.12979245370E+04 -0.84471275158E+03 -0.43607251617E+03  0.16088216109E+04  0.25500000920E-02 0.  1.
       -2    1    3    3    0  502  0.12979245370E+04  0.84471275158E+03  0.19670190305E+04  0.25034599263E+04  0.25500000920E-02 0. -1.
</event>
<event>
 5   0  0.3327241E-07  0.3452399E+04  0.7818609E-02  0.8125164E-01
       -2   -1    0    0    0  501  0.00000000000E+00  0.00000000000E+00  0.13969579177E+04  0.13969579177E+04  0.25500000920E-02 0.  1.
        2   -1    0    0  501    0  0.00000000000E+00  0.00000000000E+00 -0.21330387815E+04  0.21330387815E+04  0.25500000920E-02 0. -1.
    10030    2    1    2    0    0  0.00000000000E+00  0.00000000000E+00 -0.73608086378E+03  0.35299966992E+04  0.34523994059E+04 0.  0.
        3    1    3    3  502    0 -0.10872958369E+04 -0.18780892839E+03  0.98930642724E+03  0.14819620938E+04  0.10100000352E+00 0.  1.
       -3    1    3    3    0  502  0.10872958369E+04  0.18780892839E+03 -0.17253872910E+04  0.20480346053E+04  0.10100000352E+00 0. -1.
</event>
<event>
 5   0  0.1070988E-07  0.3788000E+04  0.7818609E-02  0.8048735E-01
       -1   -1    0    0    0  501  0.00000000000E+00  0.00000000000E+00  0.11909297177E+04  0.11909297177E+04  0.50400001928E-02 0. -1.
        1   -1    0    0  501    0  0.00000000000E+00  0.00000000000E+00 -0.30121312397E+04  0.30121312397E+04  0.50400001928E-02 0.  1.
    10030    2    1    2    0    0  0.00000000000E+00  0.00000000000E+00 -0.18212015220E+04  0.42030609574E+04  0.37880003205E+04 0.  0.
        5    1    3    3  502    0  0.73532373206E+03 -0.13348022142E+04  0.33726956006E+03  0.15608237531E+04  0.46999998093E+01 0. -1.
       -5    1    3    3    0  502 -0.73532373206E+03  0.13348022142E+04 -0.21584710820E+04  0.26422372043E+04  0.46999998093E+01 0.  1.
</event>
<event>
 5   0  0.1070988E-07  0.3762125E+04  0.7818609E-02  0.8054332E-01
        1   -1    0    0  501    0  0.00000000000E+00  0.00000000000E+00  0.15778929580E+04  0.15778929580E+04  0.50400001928E-02 0.  1.
       -1   -1    0    0    0  501  0.00000000000E+00  0.00000000000E+00 -0.22424819954E+04  0.22424819954E+04  0.50400001928E-02 0. -1.
    10030    2    1    2    0    0  0.00000000000E+00  0.00000000000E+00 -0.66458903739E+03  0.38203749533E+04  0.37621252233E+04 0.  0.
        3    1    3    3  502    0  0.45257775017E+03 -0.12963700442E+04  0.97330043575E+03  0.16830673367E+04  0.10100000352E+00 0.  1.
       -3    1    3    3    0  502 -0.45257775017E+03  0.12963700442E+04 -0.16378894731E+04  0.21373076166E+04  0.10100000352E+00 0. -1.
</event>
<event>
 5   0  0.1085771E-07  0.3840603E+04  0.7818609E-02  0.8037497E-01
       -1   -1    0    0    0  501  0.00000000000E+00  0.00000000000E+00  0.14957762878E+04  0.14957762878E+04  0.50400001928E-02 0.  1.
        1   -1    0    0  501    0  0.00000000000E+00  0.00000000000E+00 -0.24653143786E+04  0.24653143786E+04  0.50400001928E-02 0. -1.
    10030    2    1    2    0    0  0.00000000000E+00  0.00000000000E+00 -0.96953809075E+03  0.39610906664E+04  0.38406034888E+04 0.  0.
        1    1    3    3  502    0 -0.17181945864E+04 -0.60527553959E+03  0.14174817152E+03  0.18271955724E+04  0.50400001928E-02 0.  1.
       -1    1    3    3    0  502  0.17181945864E+04  0.60527553959E+03 -0.11112862623E+04  0.21338950940E+04  0.50400001928E-02 0. -1.
</event>
<event>
 5   0  0.3509843E-07  0.3849168E+04  0.7818609E-02  0.8035685E-01
       -2   -1    0    0    0  501  0.00000000000E+00  0.00000000000E+00  0.30961522378E+04  0.30961522378E+04  0.25500000920E-02 0.  1.
        2   -1    0    0  501    0  0.00000000000E+00  0.00000000000E+00 -0.11963313297E+04  0.11963313297E+04  0.25500000920E-02 0. -1.
    10030    2    1    2    0    0  0.00000000000E+00  0.00000000000E+00  0.18998209081E+04  0.42924835675E+04  0.38491681822E+04 0.  0.
        4    1    3    3  502    0 -0.16820457371E+04  0.82392152800E+03  0.14434892503E+04  0.23646960427E+04  0.12699999809E+01 0.  1.
       -4    1    3    3    0  502  0.16820457371E+04 -0.82392152800E+03  0.45633165778E+03  0.19277875248E+04  0.12699999809E+01 0. -1.
</event>
<event>
 5   0  0.1085771E-07  0.3734812E+04  0.7818609E-02  0.8060291E-01
       -1   -1    0    0    0  501  0.00000000000E+00  0.00000000000E+00  0.14871165406E+04  0.14871165407E+04  0.50400001928E-02 0.  1.
        1   -1    0    0  501    0  0.00000000000E+00  0.00000000000E+00 -0.23449438673E+04  0.23449438673E+04  0.50400001928E-02 0. -1.
    10030    2    1    2    0    0  0.00000000000E+00  0.00000000000E+00 -0.85782732669E+03  0.38320604080E+04  0.37348118089E+04 0.  0.
        1    1    3    3  502    0 -0.29164289045E+03 -0.89765177309E+03  0.12243684184E+04  0.15459341206E+04  0.50400001928E-02 0.  1.
       -1    1    3    3    0  502  0.29164289045E+03  0.89765177309E+03 -0.20821957450E+04  0.22861262874E+04  0.50400001928E-02 0. -1.
</event>
<event>
 5   0  0.1070988E-07  0.3819558E+04  0.7818609E-02  0.8041971E-01
        4   -1    0    0  501    0  0.00000000000E+00  0.00000000000E+00  0.16327031132E+04  0.16327036071E+04  0.12699999809E+01 0. -1.
       -4   -1    0    0    0  501  0.00000000000E+00  0.00000000000E+00 -0.22338748487E+04  0.22338752098E+04  0.12699999809E+01 0.  1.
    10030    2    1    2    0    0  0.00000000000E+00  0.00000000000E+00 -0.60117173558E+03  0.38665788169E+04  0.38195581278E+04 0.  0.
        5    1    3    3  502    0  0.63473932303E+02 -0.18897746383E+04 -0.57213589019E+03  0.19755097293E+04  0.46999998093E+01 0. -1.
       -5    1    3    3    0  502 -0.63473932303E+02  0.18897746383E+04 -0.29035845391E+02  0.18910690876E+04  0.46999998093E+01 0.  1.
</event>
<event>
 5   0  0.1070988E-07  0.3138281E+04  0.7818609E-02  0.8205310E-01
       -1   -1    0    0    0  501  0.00000000000E+00  0.00000000000E+00  0.20505742120E+04  0.20505742120E+04  0.50400001928E-02 0. -1.
        1   -1    0    0  501    0  0.00000000000E+00  0.00000000000E+00 -0.12007380079E+04  0.12007380079E+04  0.50400001928E-02 0.  1.
    10030    2    1    2    0    0  0.00000000000E+00  0.00000000000E+00  0.84983620410E+03  0.32513122200E+04  0.31382813096E+04 0.  0.
        5    1    3    3  502    0 -0.12162330677E+04 -0.99075096953E+03  0.38657223764E+03  0.16156331711E+04  0.46999998093E+01 0. -1.
       -5    1    3    3    0  502  0.12162330677E+04  0.99075096953E+03  0.46326396646E+03  0.16356790489E+04  0.46999998093E+01 0.  1.
</event>
<event>
 5   0  0.3442126E-07  0.3794228E+04  0.7818609E-02  0.8047395E-01
       -2   -1    0    0    0  501  0.00000000000E+00  0.00000000000E+00  0.13985622629E+04  0.13985622629E+04  0.25500000920E-02 0.  1.
        2   -1    0    0  501    0  0.00000000000E+00  0.00000000000E+00 -0.25733873787E+04  0.25733873787E+04  0.25500000920E-02 0. -1.
    10030    2    1    2    0    0  0.00000000000E+00  0.00000000000E+00 -0.11748251158E+04  0.39719496417E+04  0.37942284991E+04 0.  0.
        2    1    3    3  502    0 -0.13992341548E+04 -0.32338593202E+03  0.71024998191E+03  0.16021515902E+04  0.25500000920E-02 0.  1.
       -2    1    3    3    0  502  0.13992341548E+04  0.32338593202E+03 -0.18850750977E+04  0.23697980515E+04  0.25500000920E-02 0. -1.
</event>
<event>
 5   0  0.3509843E-07  0.3923314E+04  0.7818609E-02  0.8020198E-01
        2   -1    0    0  501    0  0.00000000000E+00  0.00000000000E+00  0.26211432846E+04  0.26211432846E+04  0.25500000920E-02 0. -1.
       -2   -1    0    0    0  501  0.00000000000E+00  0.00000000000E+00 -0.14680988509E+04  0.14680988509E+04  0.25500000920E-02 0.  1.
    10030    2    1    2    0    0  0.00000000000E+00  0.00000000000E+00  0.11530444337E+04  0.40892421355E+04  0.39233136220E+04 0.  0.
        4    1    3    3  502    0  0.19514363984E+04 -0.16228612947E+03  0.45472536263E+03  0.20102779841E+04  0.12699999809E+01 0.  1.
       -4    1    3    3    0  502 -0.19514363984E+04  0.16228612947E+03  0.69831907105E+03  0.20789641514E+04  0.12699999809E+01 0. -1.
</event>
<event>
 5   0  0.3442126E-07  0.3821329E+04  0.7818609E-02  0.8041593E-01
        2   -1    0    0  501    0  0.00000000000E+00  0.00000000000E+00  0.12508485283E+04  0.12508485283E+04  0.25500000920E-02 0. -1.
       -2   -1    0    0    0  501  0.00000000000E+00  0.00000000000E+00 -0.29185302028E+04  0.29185302028E+04  0.25500000920E-02 0.  1.
    10030    2    1    2    0    0  0.00000000000E+00  0.00000000000E+00 -0.16676816745E+04  0.41693787311E+04  0.38213291975E+04 0.  0.
        2    1    3    3  502    0  0.43770048147E+03  0.82100574014E+03 -0.26546735413E+04  0.28129919566E+04  0.25500000920E-02 0.  1.
       -2    1    3    3    0  502 -0.43770048147E+03 -0.82100574014E+03  0.98699186685E+03  0.13563867745E+04  0.25500000920E-02 0. -1.
</event>
<event>
 5   0  0.1084315E-07  0.3881025E+04  0.7818609E-02  0.8028987E-01
       -1   -1    0    0    0  501  0.00000000000E+00  0.00000000000E+00  0.32203893684E+04  0.32203893684E+04  0.50400001928E-02 0.  1.
        1   -1    0    0  501    0  0.00000000000E+00  0.00000000000E+00 -0.11692960986E+04  0.11692960986E+04  0.50400001928E-02 0. -1.
    10030    2    1    2    0    0  0.00000000000E+00  0.00000000000E+00  0.20510932698E+04  0.43896854670E+04  0.38810249803E+04 0.  0.
        4    1    3    3  502    0  0.11379311086E+04  0.30433292130E+03  0.27697628549E+04  0.30098328226E+04  0.12699999809E+01 0.  1.
       -4    1    3    3    0  502 -0.11379311086E+04 -0.30433292130E+03 -0.71866958510E+03  0.13798526444E+04  0.12699999809E+01 0. -1.
</event>
<event>
 5   0  0.3377396E-07  0.3771951E+04  0.7818609E-02  0.8052201E-01
        2   -1    0    0  501    0  0.00000000000E+00  0.00000000000E+00  0.27215364803E+04  0.27215364803E+04  0.25500000920E-02 0. -1.
       -2   -1    0    0    0  501  0.00000000000E+00  0.00000000000E+00 -0.13069469406E+04  0.13069469406E+04  0.25500000920E-02 0.  1.
    10030    2    1    2    0    0  0.00000000000E+00  0.00000000000E+00  0.14145895397E+04  0.40284834208E+04  0.37719511007E+04 0.  0.
        5    1    3    3  502    0  0.86469288338E+02  0.13840752081E+04  0.20724029630E+04  0.24935952460E+04  0.46999998093E+01 0. -1.
       -5    1    3    3    0  502 -0.86469288338E+02 -0.13840752081E+04 -0.65781342336E+03  0.15348881749E+04  0.46999998093E+01 0.  1.
</event>
<event>
 5   0  0.1070988E-07  0.3776122E+04  0.7818609E-02  0.8051298E-01
        1   -1    0    0  501    0  0.00000000000E+00  0.00000000000E+00  0.18544347248E+04  0.18544347248E+04  0.50400001928E-02 0.  1.
       -1   -1    0    0    0  501  0.00000000000E+00  0.00000000000E+00 -0.19222973686E+04  0.19222973686E+04  0.50400001928E-02 0. -1.
    10030    2    1    2    0    0  0.00000000000E+00  0.00000000000E+00 -0.67862643789E+02  0.37767320934E+04  0.37761223453E+04 0.  0.
        2    1    3    3  502    0  0.10864853955E+04 -0.15154798664E+04  0.26216588984E+03  0.18830455900E+04  0.25500000920E-02 0.  1.
       -2    1    3    3    0  502 -0.10864853955E+04  0.15154798664E+04 -0.33002853363E+03  0.18936865034E+04  0.25500000920E-02 0. -1.
</event>
<event>
 5   0  0.1085771E-07  0.3840147E+04  0.7818609E-02  0.8037594E-01
       -1   -1    0    0    0  501  0.00000000000E+00  0.00000000000E+00  0.13369960974E+04  0.13369960974E+04  0.50400001928E-02 0.  1.
        1   -1    0    0  501    0  0.00000000000E+00  0.00000000000E+00 -0.27574369955E+04  0.27574369955E+04  0.50400001928E-02 0. -1.
    10030    2    1    2    0    0  0.00000000000E+00  0.00000000000E+00 -0.14204408981E+04  0.40944330930E+04  0.38401471336E+04 0.  0.
        1    1    3    3  502    0 -0.16543344205E+03 -0.12018314832E+04 -0.22970288172E+04  0.25977121712E+04  0.50400001928E-02 0. -1.
       -1    1    3    3    0  502  0.16543344205E+03  0.12018314832E+04  0.87658791908E+03  0.14967209217E+04  0.50400001928E-02 0.  1.
</event>
<event>
 5   0  0.1070988E-07  0.3810762E+04  0.7818609E-02  0.8043849E-01
       -1   -1    0    0    0  501  0.00000000000E+00  0.00000000000E+00  0.22225244158E+04  0.22225244158E+04  0.50400001928E-02 0. -1.
        1   -1    0    0  501    0  0.00000000000E+00  0.00000000000E+00 -0.16334925617E+04  0.16334925617E+04  0.50400001928E-02 0.  1.
    10030    2    1    2    0    0  0.00000000000E+00  0.00000000000E+00  0.58903185409E+03  0.38560169775E+04  0.38107621817E+04 0.  0.
        5    1    3    3  502    0 -0.11102719064E+02 -0.18822538212E+04  0.59375113615E+03  0.19737186272E+04  0.46999998093E+01 0. -1.
       -5    1    3    3    0  502  0.11102719064E+02  0.18822538212E+04 -0.47192820617E+01  0.18822983503E+04  0.46999998093E+01 0.  1.
</event>
<event>
 5   0  0.1084315E-07  0.3791334E+04  0.7818609E-02  0.8048017E-01
       -1   -1    0    0    0  501  0.00000000000E+00  0.00000000000E+00  0.26653458250E+04  0.26653458250E+04  0.50400001928E-02 0. -1.
        1   -1    0    0  501    0  0.00000000000E+00  0.00000000000E+00 -0.13482501413E+04  0.13482501413E+04  0.50400001928E-02 0.  1.
    10030    2    1    2    0    0  0.00000000000E+00  0.00000000000E+00  0.13170956837E+04  0.40135959663E+04  0.37913337417E+04 0.  0.
        4    1    3    3  502    0 -0.71245063416E+02  0.11017275319E+04  0.22898839102E+04  0.25421348014E+04  0.12699999809E+01 0. -1.
       -4    1    3    3    0  502  0.71245063416E+02 -0.11017275319E+04 -0.97278822644E+03  0.14714611649E+04  0.12699999809E+01 0.  1.
</event>
<event>
 5   0  0.3539010E-07  0.3687974E+04  0.7818609E-02  0.8070632E-01
       -2   -1    0    0    0  501  0.00000000000E+00  0.00000000000E+00  0.23609624252E+04  0.23609624252E+04  0.25500000920E-02 0.  1.
        2   -1    0    0  501    0  0.00000000000E+00  0.00000000000E+00 -0.14402128251E+04  0.14402128251E+04  0.25500000920E-02 0. -1.
    10030    2    1    2    0    0  0.00000000000E+00  0.00000000000E+00  0.92074960009E+03  0.38011752504E+04  0.36879741672E+04 0.  0.
        1    1    3    3  502    0  0.30989463564E+03  0.13782608693E+04  0.16819330627E+04  0.21964827649E+04  0.50400001928E-02 0.  1.
       -1    1    3    3    0  502 -0.30989463564E+03 -0.13782608693E+04 -0.76118346265E+03  0.16046924855E+04  0.50400001928E-02 0. -1.
</event>
<event>
 5   0  0.1085771E-07  0.3674252E+04  0.7818609E-02  0.8073692E-01
       -1   -1    0    0    0  501  0.00000000000E+00  0.00000000000E+00  0.20431708160E+04  0.20431708160E+04  0.50400001928E-02 0.  1.
        1   -1    0    0  501    0  0.00000000000E+00  0.00000000000E+00 -0.16518600219E+04  0.16518600219E+04  0.50400001928E-02 0. -1.
    10030    2    1    2    0    0  0.00000000000E+00  0.00000000000E+00  0.39131079409E+03  0.36950308379E+04  0.36742521355E+04 0.  0.
        1    1    3    3  502    0 -0.13753193395E+04  0.12031577738E+04  0.50040811138E+01  0.18273250819E+04  0.50400001928E-02 0. -1.
       -1    1    3    3    0  502  0.13753193395E+04 -0.12031577738E+04  0.38630671298E+03  0.18677057559E+04  0.50400001928E-02 0.  1.
</event>
<event>
 5   0  0.3327241E-07  0.3802153E+04  0.7818609E-02  0.8045693E-01
        2   -1    0    0  501    0  0.00000000000E+00  0.00000000000E+00  0.18784366141E+04  0.18784366141E+04  0.25500000920E-02 0.  1.
       -2   -1    0    0    0  501  0.00000000000E+00  0.00000000000E+00 -0.19239894127E+04  0.19239894127E+04  0.25500000920E-02 0. -1.
    10030    2    1    2    0    0  0.00000000000E+00  0.00000000000E+00 -0.45552798568E+02  0.38024260269E+04  0.38021531574E+04 0.  0.
        3    1    3    3  502    0 -0.17618119356E+03 -0.12985799639E+04  0.13545451570E+04  0.18847127973E+04  0.10100000352E+00 0.  1.
       -3    1    3    3    0  502  0.17618119356E+03  0.12985799639E+04 -0.14000979555E+04  0.19177132296E+04  0.10100000352E+00 0. -1.
</event>
<event>
 5   0  0.3327241E-07  0.3817315E+04  0.7818609E-02  0.8042449E-01
        2   -1    0    0  501    0  0.00000000000E+00  0.00000000000E+00  0.19919387407E+04  0.19919387407E+04  0.25500000920E-02 0. -1.
       -2   -1    0    0    0  501  0.00000000000E+00  0.00000000000E+00 -0.18288578640E+04  0.18288578640E+04  0.25500000920E-02 0.  1.
    10030    2    1    2    0    0  0.00000000000E+00  0.00000000000E+00  0.16308087665E+03  0.38207966047E+04  0.38173146743E+04 0.  0.
        3    1    3    3  502    0 -0.15324590106E+04 -0.59363392352E+03  0.10530652612E+04  0.19518653408E+04  0.10100000352E+00 0. -1.
       -3    1    3    3    0  502  0.15324590106E+04  0.59363392352E+03 -0.88998438456E+03  0.18689312639E+04  0.10100000352E+00 0.  1.
</event>
<event>
 5   0  0.3539010E-07  0.3176884E+04  0.7818609E-02  0.8194949E-01
       -2   -1    0    0    0  501  0.00000000000E+00  0.00000000000E+00  0.13678388842E+04  0.13678388842E+04  0.25500000920E-02 0.  1.
        2   -1    0    0  501    0  0.00000000000E+00  0.00000000000E+00 -0.18446231310E+04  0.18446231310E+04  0.25500000920E-02 0. -1.
    10030    2    1    2    0    0  0.00000000000E+00  0.00000000000E+00 -0.47678424676E+03  0.32124620152E+04  0.31768835328E+04 0.  0.
        1    1    3    3  502    0 -0.29688060183E+03  0.12514593471E+04  0.70417279973E+03  0.14663382696E+04  0.50400001928E-02 0.  1.
       -1    1    3    3    0  502  0.29688060183E+03 -0.12514593471E+04 -0.11809570465E+04  0.17461237456E+04  0.50400001928E-02 0. -1.
</event>
<event>
 5   0  0.3377396E-07  0.3815044E+04  0.7818609E-02  0.8042934E-01
        2   -1    0    0  501    0  0.00000000000E+00  0.00000000000E+00  0.17248602963E+04  0.17248602963E+04  0.25500000920E-02 0. -1.
       -2   -1    0    0    0  501  0.00000000000E+00  0.00000000000E+00 -0.21095269616E+04  0.21095269616E+04  0.25500000920E-02 0.  1.
    10030    2    1    2    0    0  0.00000000000E+00  0.00000000000E+00 -0.38466666534E+03  0.38343872579E+04  0.38150435384E+04 0.  0.
        5    1    3    3  502    0  0.13151957346E+04 -0.78763568749E+03 -0.13332132488E+04  0.20316469805E+04  0.46999998093E+01 0. -1.
       -5    1    3    3    0  502 -0.13151957346E+04  0.78763568749E+03  0.94854658349E+03  0.18027402774E+04  0.46999998093E+01 0.  1.
</event>
<event>
 5   0  0.1070988E-07  0.3589152E+04  0.7818609E-02  0.8092981E-01
       -1   -1    0    0    0  501  0.00000000000E+00  0.00000000000E+00  0.13451419235E+04  0.13451419235E+04  0.50400001928E-02 0. -1.
        1   -1    0    0  501    0  0.00000000000E+00  0.00000000000E+00 -0.23941739524E+04  0.23941739524E+04  0.50400001928E-02 0.  1.
    10030    2    1    2    0    0  0.00000000000E+00  0.00000000000E+00 -0.10490320289E+04  0.37393158760E+04  0.35891524101E+04 0.  0.
        5    1    3    3  502    0 -0.12475876675E+04  0.26894085517E+03 -0.18389167411E+04  0.22384014480E+04  0.46999998093E+01 0.  1.
       -5    1    3    3    0  502  0.12475876675E+04 -0.26894085517E+03  0.78988471219E+03  0.15009144280E+04  0.46999998093E+01 0. -1.
</event>
<event>
 5   0  0.3327241E-07  0.3784238E+04  0.7818609E-02  0.8049546E-01
        2   -1    0    0  501    0  0.00000000000E+00  0.00000000000E+00  0.24382968621E+04  0.24382968621E+04  0.25500000920E-02 0.  1.
       -2   -1    0    0    0  501  0.00000000000E+00  0.00000000000E+00 -0.14682850340E+04  0.14682850340E+04  0.25500000920E-02 0. -1.
    10030    2    1    2    0    0  0.00000000000E+00  0.00000000000E+00  0.97001182810E+03  0.39065818962E+04  0.37842382542E+04 0.  0.
        3    1    3    3  502    0 -0.20772289023E+03  0.71016129506E+03 -0.13127414897E+04  0.15069067964E+04  0.10100000352E+00 0. -1.
       -3    1    3    3    0  502  0.20772289023E+03 -0.71016129506E+03  0.22827533178E+04  0.23996750997E+04  0.10100000352E+00 0.  1.
</event>
<event>
 5   0  0.1084315E-07  0.3821287E+04  0.7818609E-02  0.8041602E-01
       -1   -1    0    0    0  501  0.00000000000E+00  0.00000000000E+00  0.26990024716E+04  0.26990024716E+04  0.50400001928E-02 0. -1.
        1   -1    0    0  501    0  0.00000000000E+00  0.00000000000E+00 -0.13525587039E+04  0.13525587039E+04  0.50400001928E-02 0.  1.
    10030    2    1    2    0    0  0.00000000000E+00  0.00000000000E+00  0.13464437676E+04  0.40515611755E+04  0.38212873667E+04 0.  0.
        4    1    3    3  502    0 -0.36315197262E+03  0.33242391543E+03 -0.12841506783E+04  0.13752925479E+04  0.12699999809E+01 0.  1.
       -4    1    3    3    0  502  0.36315197262E+03 -0.33242391543E+03  0.26305944460E+04  0.26762686276E+04  0.12699999809E+01 0. -1.
</event>
<event>
 5   0  0.1085771E-07  0.3726477E+04  0.7818609E-02  0.8062119E-01
       -1   -1    0    0    0  501  0.00000000000E+00  0.00000000000E+00  0.16259593434E+04  0.16259593435E+04  0.50400001928E-02 0. -1.
        1   -1    0    0  501    0  0.00000000000E+00  0.00000000000E+00 -0.21351441702E+04  0.21351441702E+04  0.50400001928E-02 0.  1.
    10030    2    1    2    0    0  0.00000000000E+00  0.00000000000E+00 -0.50918482674E+03  0.37611035136E+04  0.37264769492E+04 0.  0.
        1    1    3    3  502    0 -0.70018457242E+03  0.91696714454E+03  0.12220713185E+04  0.16806384166E+04  0.50400001928E-02 0. -1.
       -1    1    3    3    0  502  0.70018457242E+03 -0.91696714454E+03 -0.17312561453E+04  0.20804650971E+04  0.50400001928E-02 0.  1.
</event>
<event>
 5   0  0.1070988E-07  0.3470087E+04  0.7818609E-02  0.8120916E-01
       -1   -1    0    0    0  501  0.00000000000E+00  0.00000000000E+00  0.12276609393E+04  0.12276609393E+04  0.50400001928E-02 0.  1.
        1   -1    0    0  501    0  0.00000000000E+00  0.00000000000E+00 -0.24521229573E+04  0.24521229573E+04  0.50400001928E-02 0. -1.
    10030    2    1    2    0    0  0.00000000000E+00  0.00000000000E+00 -0.12244620180E+04  0.36797838966E+04  0.34700867846E+04 0.  0.
        3    1    3    3  502    0  0.12188716093E+04  0.80279943379E+03  0.38267644360E+03  0.15088327282E+04  0.10100000352E+00 0.  1.
       -3    1    3    3    0  502 -0.12188716093E+04 -0.80279943379E+03 -0.16071384616E+04  0.21709511685E+04  0.10100000352E+00 0. -1.
</event>
<event>
 5   0  0.1070988E-07  0.3778195E+04  0.7818609E-02  0.8050850E-01
        1   -1    0    0  501    0  0.00000000000E+00  0.00000000000E+00  0.11620499273E+04  0.11620499273E+04  0.50400001928E-02 0.  1.
       -1   -1    0    0    0  501  0.00000000000E+00  0.00000000000E+00 -0.30710286958E+04  0.30710286958E+04  0.50400001928E-02 0. -1.
    10030    2    1    2    0    0  0.00000000000E+00  0.00000000000E+00 -0.19089787685E+04  0.42330786232E+04  0.37781946339E+04 0.  0.
        3    1    3    3  502    0  0.44140767075E+03 -0.12860362000E+04 -0.24238589252E+04  0.27791764857E+04  0.10100000352E+00 0. -1.
       -3    1    3    3    0  502 -0.44140767075E+03  0.12860362000E+04  0.51488015668E+03  0.14539021375E+04  0.10100000352E+00 0.  1.
</event>
<event>
 5   0  0.3442126E-07  0.3799093E+04  0.7818609E-02  0.8046350E-01
        2   -1    0    0  501    0  0.00000000000E+00  0.00000000000E+00  0.18809870871E+04  0.18809870871E+04  0.25500000920E-02 0.  1.
       -2   -1    0    0    0  501  0.00000000000E+00  0.00000000000E+00 -0.19182889915E+04  0.19182889915E+04  0.25500000920E-02 0. -1.
    10030    2    1    2    0    0  0.00000000000E+00  0.00000000000E+00 -0.37301904382E+02  0.37992760786E+04  0.37990929561E+04 0.  0.
        2    1    3    3  502    0  0.29892724860E+03 -0.69848881990E+03 -0.17597209965E+04  0.19167321454E+04  0.25500000920E-02 0. -1.
       -2    1    3    3    0  502 -0.29892724860E+03  0.69848881990E+03  0.17224190921E+04  0.18825439332E+04  0.25500000920E-02 0.  1.
</event>
<event>
 5   0  0.1070988E-07  0.3803333E+04  0.7818609E-02  0.8045440E-01
        1   -1    0    0  501    0  0.00000000000E+00  0.00000000000E+00  0.19154366567E+04  0.19154366567E+04  0.50400001928E-02 0.  1.
       -1   -1    0    0    0  501  0.00000000000E+00  0.00000000000E+00 -0.18879949982E+04  0.18879949982E+04  0.50400001928E-02 0. -1.
    10030    2    1    2    0    0  0.00000000000E+00  0.00000000000E+00  0.27441658491E+02  0.38034316550E+04  0.38033326583E+04 0.  0.
        5    1    3    3  502    0  0.11329695785E+04 -0.14746514960E+04 -0.38390194070E+03  0.18988469897E+04  0.46999998093E+01 0. -1.
       -5    1    3    3    0  502 -0.11329695785E+04  0.14746514960E+04  0.41134359919E+03  0.19045846652E+04  0.46999998093E+01 0.  1.
</event>
<event>
 5   0  0.3377396E-07  0.3766070E+04  0.7818609E-02  0.8053476E-01
       -2   -1    0    0    0  501  0.00000000000E+00  0.00000000000E+00  0.22407213279E+04  0.22407213279E+04  0.25500000920E-02 0. -1.
        2   -1    0    0  501    0  0.00000000000E+00  0.00000000000E+00 -0.15824458793E+04  0.15824458793E+04  0.25500000920E-02 0.  1.
    10030    2    1    2    0    0  0.00000000000E+00  0.00000000000E+00  0.65827544863E+03  0.38231672072E+04  0.37660696924E+04 0.  0.
        5    1    3    3  502    0  0.99783430801E+03 -0.84447761272E+03  0.17050395195E+04  0.21484872812E+04  0.46999998093E+01 0. -1.
       -5    1    3    3    0  502 -0.99783430801E+03  0.84447761272E+03 -0.10467640708E+04  0.16746799260E+04  0.46999998093E+01 0.  1.
</event>
<event>
 5   0  0.1070988E-07  0.3684678E+04  0.7818609E-02  0.8071366E-01
       -1   -1    0    0    0  501  0.00000000000E+00  0.00000000000E+00  0.16427479899E+04  0.16427479899E+04  0.50400001928E-02 0. -1.
        1   -1    0    0  501    0  0.00000000000E+00  0.00000000000E+00 -0.20661804477E+04  0.20661804477E+04  0.50400001928E-02 0.  1.
    10030    2    1    2    0    0  0.00000000000E+00  0.00000000000E+00 -0.42343245780E+03  0.37089284377E+04  0.36846784269E+04 0.  0.
        2    1    3    3  502    0  0.11410002477E+04  0.10729470549E+04  0.76478013863E+03  0.17429818152E+04  0.25500000920E-02 0. -1.
       -2    1    3    3    0  502 -0.11410002477E+04 -0.10729470549E+04 -0.11882125964E+04  0.19659466224E+04  0.25500000920E-02 0.  1.
</event>
<event>
 5   0  0.1070988E-07  0.3798768E+04  0.7818609E-02  0.8046419E-01
        1   -1    0    0  501    0  0.00000000000E+00  0.00000000000E+00  0.18301654826E+04  0.18301654826E+04  0.50400001928E-02 0.  1.
       -1   -1    0    0    0  501  0.00000000000E+00  0.00000000000E+00 -0.19712202817E+04  0.19712202817E+04  0.50400001928E-02 0. -1.
    10030    2    1    2    0    0  0.00000000000E+00  0.00000000000E+00 -0.14105479913E+03  0.38013857643E+04  0.37987678624E+04 0.  0.
        2    1    3    3  502    0  0.18228242254E+04 -0.18285226204E+02 -0.60440871528E+03  0.19205031635E+04  0.25500000920E-02 0. -1.
       -2    1    3    3    0  502 -0.18228242254E+04  0.18285226204E+02  0.46335391616E+03  0.18808826007E+04  0.25500000920E-02 0.  1.
</event>
<event>
 5   0  0.1085771E-07  0.3795832E+04  0.7818609E-02  0.8047050E-01
       -1   -1    0    0    0  501  0.00000000000E+00  0.00000000000E+00  0.15830588683E+04  0.15830588683E+04  0.50400001928E-02 0.  1.
        1   -1    0    0  501    0  0.00000000000E+00  0.00000000000E+00 -0.22753950905E+04  0.22753950905E+04  0.50400001928E-02 0. -1.
    10030    2    1    2    0    0  0.00000000000E+00  0.00000000000E+00 -0.69233622218E+03  0.38584539588E+04  0.37958315963E+04 0.  0.
        1    1    3    3  502    0  0.13098128271E+04 -0.50725653919E+03 -0.16436132203E+04  0.21620322053E+04  0.50400001928E-02 0. -1.
       -1    1    3    3    0  502 -0.13098128271E+04  0.50725653919E+03  0.95127699811E+03  0.16964217535E+04  0.50400001928E-02 0.  1.
</event>
<event>
 5   0  0.1070988E-07  0.3691921E+04  0.7818609E-02  0.8069755E-01
        1   -1    0    0  501    0  0.00000000000E+00  0.00000000000E+00  0.18119152120E+04  0.18119152120E+04  0.50400001928E-02 0. -1.
       -1   -1    0    0    0  501  0.00000000000E+00  0.00000000000E+00 -0.18806452599E+04  0.18806452599E+04  0.50400001928E-02 0.  1.
    10030    2    1    2    0    0  0.00000000000E+00  0.00000000000E+00 -0.68730047913E+02  0.36925604719E+04  0.36919207764E+04 0.  0.
        2    1    3    3  502    0  0.89798478901E+03 -0.94081890392E+03  0.12758439642E+04  0.18218931671E+04  0.25500000920E-02 0. -1.
       -2    1    3    3    0  502 -0.89798478901E+03  0.94081890392E+03 -0.13445740121E+04  0.18706673048E+04  0.25500000920E-02 0.  1.
</event>
<event>
 5   0  0.3539010E-07  0.3802457E+04  0.7818609E-02  0.8045628E-01
        2   -1    0    0  501    0  0.00000000000E+00  0.00000000000E+00  0.25022883858E+04  0.25022883858E+04  0.25500000920E-02 0.  1.
       -2   -1    0    0    0  501  0.00000000000E+00  0.00000000000E+00 -0.14445454497E+04  0.14445454497E+04  0.25500000920E-02 0. -1.
    10030    2    1    2    0    0  0.00000000000E+00  0.00000000000E+00  0.10577429361E+04  0.39468338356E+04  0.38024567331E+04 0.  0.
        1    1    3    3  502    0 -0.60950619374E+03  0.17801656413E+04  0.81157629197E+03  0.20491811995E+04  0.50400001928E-02 0.  1.
       -1    1    3    3    0  502  0.60950619374E+03 -0.17801656413E+04  0.24616664415E+03  0.18976526361E+04  0.50400001928E-02 0. -1.
</event>
<event>
 5   0  0.3539010E-07  0.3878438E+04  0.7818609E-02  0.8029529E-01
        2   -1    0    0  501    0  0.00000000000E+00  0.00000000000E+00  0.20278497731E+04  0.20278497731E+04  0.25500000920E-02 0.  1.
       -2   -1    0    0    0  501  0.00000000000E+00  0.00000000000E+00 -0.18544622643E+04  0.18544622643E+04  0.25500000920E-02 0. -1.
    10030    2    1    2    0    0  0.00000000000E+00  0.00000000000E+00  0.17338750881E+03  0.38823120373E+04  0.38784382845E+04 0.  0.
        1    1    3    3  502    0 -0.60042500737E+03  0.14333497940E+04  0.12478390035E+04  0.19930137983E+04  0.50400001928E-02 0.  1.
       -1    1    3    3    0  502  0.60042500737E+03 -0.14333497940E+04 -0.10744514947E+04  0.18892982390E+04  0.50400001928E-02 0. -1.
</event>
<event>
 5   0  0.1084315E-07  0.3722822E+04  0.7818609E-02  0.8062923E-01
       -1   -1    0    0    0  501  0.00000000000E+00  0.00000000000E+00  0.26358207369E+04  0.26358207369E+04  0.50400001928E-02 0.  1.
        1   -1    0    0  501    0  0.00000000000E+00  0.00000000000E+00 -0.13145246922E+04  0.13145246922E+04  0.50400001928E-02 0. -1.
    10030    2    1    2    0    0  0.00000000000E+00  0.00000000000E+00  0.13212960447E+04  0.39503454291E+04  0.37228222858E+04 0.  0.
        4    1    3    3  502    0  0.96082542063E+03 -0.13713465809E+04 -0.20210689638E+03  0.16866018333E+04  0.12699999809E+01 0. -1.
       -4    1    3    3    0  502 -0.96082542063E+03  0.13713465809E+04  0.15234029410E+04  0.22637435958E+04  0.12699999809E+01 0.  1.
</event>
<event>
 5   0  0.3377396E-07  0.3637644E+04  0.7818609E-02  0.8081923E-01
        2   -1    0    0  501    0  0.00000000000E+00  0.00000000000E+00  0.23675202983E+04  0.23675202983E+04  0.25500000920E-02 0.  1.
       -2   -1    0    0    0  501  0.00000000000E+00  0.00000000000E+00 -0.13972905844E+04  0.13972905844E+04  0.25500000920E-02 0. -1.
    10030    2    1    2    0    0  0.00000000000E+00  0.00000000000E+00  0.97022971395E+03  0.37648108827E+04  0.36376441943E+04 0.  0.
        5    1    3    3  502    0 -0.16265712659E+04  0.69781491405E+03  0.51651300476E+02  0.17706975135E+04  0.46999998093E+01 0. -1.
       -5    1    3    3    0  502  0.16265712659E+04 -0.69781491405E+03  0.91857841347E+03  0.19941133692E+04  0.46999998093E+01 0.  1.
</event>
<event>
 5   0  0.1070988E-07  0.3808402E+04  0.7818609E-02  0.8044354E-01
        1   -1    0    0  501    0  0.00000000000E+00  0.00000000000E+00  0.17286506939E+04  0.17286506939E+04  0.50400001928E-02 0.  1.
       -1   -1    0    0    0  501  0.00000000000E+00  0.00000000000E+00 -0.20975794428E+04  0.20975794429E+04  0.50400001928E-02 0. -1.
    10030    2    1    2    0    0  0.00000000000E+00  0.00000000000E+00 -0.36892874895E+03  0.38262301368E+04  0.38084023734E+04 0.  0.
        5    1    3    3  502    0  0.72172123018E+03  0.13006909424E+04 -0.13788446274E+04  0.20282783484E+04  0.46999998093E+01 0. -1.
       -5    1    3    3    0  502 -0.72172123018E+03 -0.13006909424E+04  0.10099158785E+04  0.17979517884E+04  0.46999998093E+01 0.  1.
</event>
<event>
 5   0  0.1070988E-07  0.3752102E+04  0.7818609E-02  0.8056513E-01
       -1   -1    0    0    0  501  0.00000000000E+00  0.00000000000E+00  0.12225441733E+04  0.12225441733E+04  0.50400001928E-02 0.  1.
        1   -1    0    0  501    0  0.00000000000E+00  0.00000000000E+00 -0.28788873055E+04  0.28788873055E+04  0.50400001928E-02 0. -1.
    10030    2    1    2    0    0  0.00000000000E+00  0.00000000000E+00 -0.16563431322E+04  0.41014314789E+04  0.37521017583E+04 0.  0.
        2    1    3    3  502    0  0.98513516609E+03 -0.98989210712E+03 -0.21974712582E+04  0.26037007528E+04  0.25500000920E-02 0. -1.
       -2    1    3    3    0  502 -0.98513516609E+03  0.98989210712E+03  0.54112812602E+03  0.14977307261E+04  0.25500000920E-02 0.  1.
</event>
<event>
 5   0  0.3377396E-07  0.3787769E+04  0.7818609E-02  0.8048785E-01
        2   -1    0    0  501    0  0.00000000000E+00  0.00000000000E+00  0.16125314062E+04  0.16125314062E+04  0.25500000920E-02 0.  1.
       -2   -1    0    0    0  501  0.00000000000E+00  0.00000000000E+00 -0.22243274439E+04  0.22243274439E+04  0.25500000920E-02 0. -1.
    10030    2    1    2    0    0  0.00000000000E+00  0.00000000000E+00 -0.61179603775E+03  0.38368588501E+04  0.37877686629E+04 0.  0.
        5    1    3    3  502    0 -0.35576995452E+02  0.17664425342E+04  0.38499045068E+03  0.18082656571E+04  0.46999998093E+01 0.  1.
       -5    1    3    3    0  502  0.35576995452E+02 -0.17664425342E+04 -0.99678648843E+03  0.20285931931E+04  0.46999998093E+01 0. -1.
</event>
<event>
 5   0  0.3539010E-07  0.3818744E+04  0.7818609E-02  0.8042144E-01
        2   -1    0    0  501    0  0.00000000000E+00  0.00000000000E+00  0.22036508744E+04  0.22036508744E+04  0.25500000920E-02 0.  1.
       -2   -1    0    0    0  501  0.00000000000E+00  0.00000000000E+00 -0.16543912326E+04  0.16543912326E+04  0.25500000920E-02 0. -1.
    10030    2    1    2    0    0  0.00000000000E+00  0.00000000000E+00  0.54925964177E+03  0.38580421070E+04  0.38187436082E+04 0.  0.
        1    1    3    3  502    0  0.67885494315E+03  0.17624837419E+04  0.55770554259E+03  0.19693218240E+04  0.50400001928E-02 0.  1.
       -1    1    3    3    0  502 -0.67885494315E+03 -0.17624837419E+04 -0.84459008226E+01  0.18887202830E+04  0.50400001928E-02 0. -1.
</event>
<event>
 5   0  0.1084315E-07  0.3794852E+04  0.7818609E-02  0.8047261E-01
       -1   -1    0    0    0  501  0.00000000000E+00  0.00000000000E+00  0.23654515683E+04  0.23654515683E+04  0.50400001928E-02 0. -1.
        1   -1    0    0  501    0  0.00000000000E+00  0.00000000000E+00 -0.15220034693E+04  0.15220034693E+04  0.50400001928E-02 0.  1.
    10030    2    1    2    0    0  0.00000000000E+00  0.00000000000E+00  0.84344809901E+03  0.38874550376E+04  0.37948520358E+04 0.  0.
        4    1    3    3  502    0  0.85879006720E+03  0.16887235157E+04  0.52875515759E+03  0.19669496998E+04  0.12699999809E+01 0. -1.
       -4    1    3    3    0  502 -0.85879006720E+03 -0.16887235157E+04  0.31469294142E+03  0.19205053377E+04  0.12699999809E+01 0.  1.
</event>
<event>
 5   0  0.1070988E-07  0.3846183E+04  0.7818609E-02  0.8036316E-01
       -1   -1    0    0    0  501  0.00000000000E+00  0.00000000000E+00  0.28147776425E+04  0.28147776425E+04  0.50400001928E-02 0.  1.
        1   -1    0    0  501    0  0.00000000000E+00  0.00000000000E+00 -0.13138802558E+04  0.13138802558E+04  0.50400001928E-02 0. -1.
    10030    2    1    2    0    0  0.00000000000E+00  0.00000000000E+00  0.15008973867E+04  0.41286578983E+04  0.38461829228E+04 0.  0.
        5    1    3    3  502    0 -0.16509750066E+03  0.96533028937E+02 -0.13036406404E+04  0.13176026790E+04  0.46999998093E+01 0. -1.
       -5    1    3    3    0  502  0.16509750066E+03 -0.96533028937E+02  0.28045380271E+04  0.28110552193E+04  0.46999998093E+01 0.  1.
</event>
<event>
 5   0  0.1070988E-07  0.3789938E+04  0.7818609E-02  0.8048318E-01
       -1   -1    0    0    0  501  0.00000000000E+00  0.00000000000E+00  0.15937212905E+04  0.15937212905E+04  0.50400001928E-02 0. -1.
        1   -1    0    0  501    0  0.00000000000E+00  0.00000000000E+00 -0.22531585316E+04  0.22531585316E+04  0.50400001928E-02 0.  1.
    10030    2    1    2    0    0  0.00000000000E+00  0.00000000000E+00 -0.65943724109E+03  0.38468798222E+04  0.37899375841E+04 0.  0.
        3    1    3    3  502    0  0.49421157953E+03 -0.56162063603E+02  0.15262802557E+04  0.16052821222E+04  0.10100000352E+00 0. -1.
       -3    1    3    3    0  502 -0.49421157953E+03  0.56162063603E+02 -0.21857174968E+04  0.22415977000E+04  0.10100000352E+00 0.  1.
</event>
<event>
 5   0  0.1070988E-07  0.3769665E+04  0.7818609E-02  0.8052696E-01
       -3   -1    0    0    0  501  0.00000000000E+00  0.00000000000E+00  0.13341300745E+04  0.13341300784E+04  0.10100000352E+00 0. -1.
        3   -1    0    0  501    0  0.00000000000E+00  0.00000000000E+00 -0.26628534809E+04  0.26628534828E+04  0.10100000352E+00 0.  1.
    10030    2    1    2    0    0  0.00000000000E+00  0.00000000000E+00 -0.13287234064E+04  0.39969835612E+04  0.37696646665E+04 0.  0.
        4    1    3    3  502    0  0.13001281708E+04  0.13221929217E+04 -0.10224612788E+04  0.21175353745E+04  0.12699999809E+01 0. -1.
       -4    1    3    3    0  502 -0.13001281708E+04 -0.13221929217E+04 -0.30626212756E+03  0.18794481867E+04  0.12699999809E+01 0.  1.
</event>
<event>
 5   0  0.1084315E-07  0.3646066E+04  0.7818609E-02  0.8080020E-01
        1   -1    0    0  501    0  0.00000000000E+00  0.00000000000E+00  0.23923733974E+04  0.23923733974E+04  0.50400001928E-02 0. -1.
       -1   -1    0    0    0  501  0.00000000000E+00  0.00000000000E+00 -0.13891851862E+04  0.13891851862E+04  0.50400001928E-02 0.  1.
    10030    2    1    2    0    0  0.00000000000E+00  0.00000000000E+00  0.10031882112E+04  0.37815585836E+04  0.36460661999E+04 0.  0.
        4    1    3    3  502    0 -0.13884239558E+03 -0.92760433835E+02 -0.13812367802E+04  0.13912937737E+04  0.12699999809E+01 0.  1.
       -4    1    3    3    0  502  0.13884239558E+03  0.92760433835E+02  0.23844249914E+04  0.23902648099E+04  0.12699999809E+01 0. -1.
</event>
<event>
 5   0  0.1070988E-07  0.3450575E+04  0.7818609E-02  0.8125604E-01
       -1   -1    0    0    0  501  0.00000000000E+00  0.00000000000E+00  0.17620889923E+04  0.17620889923E+04  0.50400001928E-02 0. -1.
        1   -1    0    0  501    0  0.00000000000E+00  0.00000000000E+00 -0.16892547692E+04  0.16892547692E+04  0.50400001928E-02 0.  1.
    10030    2    1    2    0    0  0.00000000000E+00  0.00000000000E+00  0.72834223036E+02  0.34513437615E+04  0.34505751602E+04 0.  0.
        5    1    3    3  502    0 -0.14885270489E+04  0.70864842491E+03  0.54515578695E+03  0.17364078690E+04  0.46999998093E+01 0. -1.
       -5    1    3    3    0  502  0.14885270489E+04 -0.70864842491E+03 -0.47232156391E+03  0.17149358925E+04  0.46999998093E+01 0.  1.
</event>
<event>
 5   0  0.3509843E-07  0.3792111E+04  0.7818609E-02  0.8047850E-01
        2   -1    0    0  501    0  0.00000000000E+00  0.00000000000E+00  0.17076083918E+04  0.17076083918E+04  0.25500000920E-02 0. -1.
       -2   -1    0    0    0  501  0.00000000000E+00  0.00000000000E+00 -0.21052987929E+04  0.21052987929E+04  0.25500000920E-02 0.  1.
    10030    2    1    2    0    0  0.00000000000E+00  0.00000000000E+00 -0.39769040114E+03  0.38129071847E+04  0.37921106977E+04 0.  0.
        4    1    3    3  502    0 -0.14686010591E+04  0.11658544156E+04 -0.48148942977E+03  0.19359336954E+04  0.12699999809E+01 0. -1.
       -4    1    3    3    0  502  0.14686010591E+04 -0.11658544156E+04  0.83799028638E+02  0.18769734892E+04  0.12699999809E+01 0.  1.
</event>
<event>
 5   0  0.1070988E-07  0.3698582E+04  0.7818609E-02  0.8068276E-01
        1   -1    0    0  501    0  0.00000000000E+00  0.00000000000E+00  0.19614905521E+04  0.19614905521E+04  0.50400001928E-02 0.  1.
       -1   -1    0    0    0  501  0.00000000000E+00  0.00000000000E+00 -0.17435098513E+04  0.17435098513E+04  0.50400001928E-02 0. -1.
    10030    2    1    2    0    0  0.00000000000E+00  0.00000000000E+00  0.21798070079E+03  0.37050004034E+04  0.36985824856E+04 0.  0.
        5    1    3    3  502    0 -0.10273905890E+04  0.15027808038E+04 -0.21711169603E+03  0.18333142517E+04  0.46999998093E+01 0. -1.
       -5    1    3    3    0  502  0.10273905890E+04 -0.15027808038E+04  0.43509239682E+03  0.18716861517E+04  0.46999998093E+01 0.  1.
</event>
<event>
 5   0  0.3327241E-07  0.3788263E+04  0.7818609E-02  0.8048678E-01
       -2   -1    0    0    0  501  0.00000000000E+00  0.00000000000E+00  0.14998734379E+04  0.14998734379E+04  0.25500000920E-02 0. -1.
        2   -1    0    0  501    0  0.00000000000E+00  0.00000000000E+00 -0.23920250353E+04  0.23920250353E+04  0.25500000920E-02 0.  1.
    10030    2    1    2    0    0  0.00000000000E+00  0.00000000000E+00 -0.89215159744E+03  0.38918984732E+04  0.37882633558E+04 0.  0.
        3    1    3    3  502    0 -0.14651443599E+04 -0.75268711012E+03  0.51468083921E+03  0.17257121016E+04  0.10100000352E+00 0. -1.
       -3    1    3    3    0  502  0.14651443599E+04  0.75268711012E+03 -0.14068324366E+04  0.21661863715E+04  0.10100000352E+00 0.  1.
</event>
<event>
 5   0  0.3327241E-07  0.3933700E+04  0.7818609E-02  0.8018057E-01
        2   -1    0    0  501    0  0.00000000000E+00  0.00000000000E+00  0.13148459494E+04  0.13148459494E+04  0.25500000920E-02 0.  1.
       -2   -1    0    0    0  501  0.00000000000E+00  0.00000000000E+00 -0.29421687445E+04  0.29421687445E+04  0.25500000920E-02 0. -1.
    10030    2    1    2    0    0  0.00000000000E+00  0.00000000000E+00 -0.16273227951E+04  0.42570146939E+04  0.39336998646E+04 0.  0.
        3    1    3    3  502    0 -0.55796679432E+03 -0.32258742649E+03  0.11973247339E+04  0.13597706130E+04  0.10100000352E+00 0.  1.
       -3    1    3    3    0  502  0.55796679432E+03  0.32258742649E+03 -0.28246475290E+04  0.28972440810E+04  0.10100000352E+00 0. -1.
</event>
<event>
 5   0  0.1070988E-07  0.3793047E+04  0.7818609E-02  0.8047649E-01
       -1   -1    0    0    0  501  0.00000000000E+00  0.00000000000E+00  0.13099239353E+04  0.13099239353E+04  0.50400001928E-02 0. -1.
        1   -1    0    0  501    0  0.00000000000E+00  0.00000000000E+00 -0.27458091842E+04  0.27458091842E+04  0.50400001928E-02 0.  1.
    10030    2    1    2    0    0  0.00000000000E+00  0.00000000000E+00 -0.14358852489E+04  0.40557331195E+04  0.37930468872E+04 0.  0.
        2    1    3    3  502    0  0.36055404331E+03 -0.11672087276E+04  0.83318652973E+03  0.14787072818E+04  0.25500000920E-02 0. -1.
       -2    1    3    3    0  502 -0.36055404331E+03  0.11672087276E+04 -0.22690717786E+04  0.25770258377E+04  0.25500000920E-02 0.  1.
</event>
<event>
 5   0  0.3377396E-07  0.3794010E+04  0.7818609E-02  0.8047442E-01
        2   -1    0    0  501    0  0.00000000000E+00  0.00000000000E+00  0.26086072381E+04  0.26086072381E+04  0.25500000920E-02 0.  1.
       -2   -1    0    0    0  501  0.00000000000E+00  0.00000000000E+00 -0.13795208383E+04  0.13795208383E+04  0.25500000920E-02 0. -1.
    10030    2    1    2    0    0  0.00000000000E+00  0.00000000000E+00  0.12290863998E+04  0.39881280764E+04  0.37940100389E+04 0.  0.
        5    1    3    3  502    0  0.24880760687E+03 -0.40499049108E+03  0.25449925475E+04  0.25890020625E+04  0.46999998093E+01 0.  1.
       -5    1    3    3    0  502 -0.24880760687E+03  0.40499049108E+03 -0.13159061477E+04  0.13991260138E+04  0.46999998093E+01 0. -1.
</event>
<event>
 5   0  0.1070988E-07  0.3593333E+04  0.7818609E-02  0.8092021E-01
        3   -1    0    0  501    0  0.00000000000E+00  0.00000000000E+00  0.16886615449E+04  0.16886615479E+04  0.10100000352E+00 0.  1.
       -3   -1    0    0    0  501  0.00000000000E+00  0.00000000000E+00 -0.19115793185E+04  0.19115793212E+04  0.10100000352E+00 0. -1.
    10030    2    1    2    0    0  0.00000000000E+00  0.00000000000E+00 -0.22291777367E+03  0.36002408691E+04  0.35933329907E+04 0.  0.
        2    1    3    3  502    0  0.12874930518E+04 -0.81802701684E+03  0.83968371225E+03  0.17412280997E+04  0.25500000920E-02 0.  1.
       -2    1    3    3    0  502 -0.12874930518E+04  0.81802701684E+03 -0.10626014859E+04  0.18590127693E+04  0.25500000920E-02 0. -1.
</event>
<event>
 5   0  0.1070988E-07  0.3839761E+04  0.7818609E-02  0.8037676E-01
       -1   -1    0    0    0  501  0.00000000000E+00  0.00000000000E+00  0.14389649327E+04  0.14389649327E+04  0.50400001928E-02 0.  1.
        1   -1    0    0  501    0  0.00000000000E+00  0.00000000000E+00 -0.25615224808E+04  0.25615224808E+04  0.50400001928E-02 0. -1.
    10030    2    1    2    0    0  0.00000000000E+00  0.00000000000E+00 -0.11225575482E+04  0.40004874135E+04  0.38397609426E+04 0.  0.
        2    1    3    3  502    0  0.12304710066E+04 -0.13784177982E+04 -0.18065224313E+02  0.18478151630E+04  0.25500000920E-02 0.  1.
       -2    1    3    3    0  502 -0.12304710066E+04  0.13784177982E+04 -0.11044923238E+04  0.21526722504E+04  0.25500000920E-02 0. -1.
</event>
<event>
 5   0  0.3377396E-07  0.3695618E+04  0.7818609E-02  0.8068934E-01
       -2   -1    0    0    0  501  0.00000000000E+00  0.00000000000E+00  0.22267041874E+04  0.22267041874E+04  0.25500000920E-02 0.  1.
        2   -1    0    0  501    0  0.00000000000E+00  0.00000000000E+00 -0.15333863681E+04  0.15333863681E+04  0.25500000920E-02 0. -1.
    10030    2    1    2    0    0  0.00000000000E+00  0.00000000000E+00  0.69331781931E+03  0.37600905555E+04  0.36956178627E+04 0.  0.
        5    1    3    3  502    0 -0.13194534736E+04 -0.53639933293E+03  0.15443502839E+04  0.21008859090E+04  0.46999998093E+01 0.  1.
       -5    1    3    3    0  502  0.13194534736E+04  0.53639933293E+03 -0.85103246455E+03  0.16592046465E+04  0.46999998093E+01 0. -1.
</event>
<event>
 5   0  0.3539010E-07  0.3930275E+04  0.7818609E-02  0.8018762E-01
        2   -1    0    0  501    0  0.00000000000E+00  0.00000000000E+00  0.14724415415E+04  0.14724415415E+04  0.25500000920E-02 0.  1.
       -2   -1    0    0    0  501  0.00000000000E+00  0.00000000000E+00 -0.26226951256E+04  0.26226951256E+04  0.25500000920E-02 0. -1.
    10030    2    1    2    0    0  0.00000000000E+00  0.00000000000E+00 -0.11502535841E+04  0.40951366671E+04  0.39302749286E+04 0.  0.
        1    1    3    3  502    0 -0.52516964433E+03  0.15694427622E+04 -0.16792026102E+04  0.23576842760E+04  0.50400001928E-02 0.  1.
       -1    1    3    3    0  502  0.52516964433E+03 -0.15694427622E+04  0.52894902610E+03  0.17374523911E+04  0.50400001928E-02 0. -1.
</event>
<event>
 5   0  0.1070988E-07  0.3727613E+04  0.7818609E-02  0.8061870E-01
       -1   -1    0    0    0  501  0.00000000000E+00  0.00000000000E+00  0.31973525694E+04  0.31973525695E+04  0.50400001928E-02 0.  1.
        1   -1    0    0  501    0  0.00000000000E+00  0.00000000000E+00 -0.10864533239E+04  0.10864533239E+04  0.50400001928E-02 0. -1.
    10030    2    1    2    0    0  0.00000000000E+00  0.00000000000E+00  0.21108992455E+04  0.42838058934E+04  0.37276128162E+04 0.  0.
        2    1    3    3  502    0 -0.13076716618E+04  0.12556814268E+04  0.55844724884E+03  0.18969987745E+04  0.25500000920E-02 0. -1.
       -2    1    3    3    0  502  0.13076716618E+04 -0.12556814268E+04  0.15524519967E+04  0.23868071189E+04  0.25500000920E-02 0.  1.
</event>
<event>
 5   0  0.3539010E-07  0.3505369E+04  0.7818609E-02  0.8112519E-01
        2   -1    0    0  501    0  0.00000000000E+00  0.00000000000E+00  0.13091121451E+04  0.13091121451E+04  0.25500000920E-02 0.  1.
       -2   -1    0    0    0  501  0.00000000000E+00  0.00000000000E+00 -0.23465546434E+04  0.23465546434E+04  0.25500000920E-02 0. -1.
    10030    2    1    2    0    0  0.00000000000E+00  0.00000000000E+00 -0.10374424983E+04  0.36556667885E+04  0.35053691291E+04 0.  0.
        1    1    3    3  502    0  0.27533403349E+03  0.16238314957E+04  0.10636605625E+03  0.16504397276E+04  0.50400001928E-02 0.  1.
       -1    1    3    3    0  502 -0.27533403349E+03 -0.16238314957E+04 -0.11438085546E+04  0.20052270609E+04  0.50400001928E-02 0. -1.
</event>
<event>
 5   0  0.1084315E-07  0.3799665E+04  0.7818609E-02  0.8046227E-01
       -1   -1    0    0    0  501  0.00000000000E+00  0.00000000000E+00  0.31289584508E+04  0.31289584508E+04  0.50400001928E-02 0. -1.
        1   -1    0    0  501    0  0.00000000000E+00  0.00000000000E+00 -0.11535353794E+04  0.11535353794E+04  0.50400001928E-02 0.  1.
    10030    2    1    2    0    0  0.00000000000E+00  0.00000000000E+00  0.19754230714E+04  0.42824938303E+04  0.37996653925E+04 0.  0.
        4    1    3    3  502    0  0.95584518731E+03  0.24620034868E+03 -0.84186509609E+03  0.12973022341E+04  0.12699999809E+01 0.  1.
       -4    1    3    3    0  502 -0.95584518731E+03 -0.24620034868E+03  0.28172881675E+04  0.29851915961E+04  0.12699999809E+01 0. -1.
</event>
<event>
 5   0  0.3327241E-07  0.3811431E+04  0.7818609E-02  0.8043706E-01
        2   -1    0    0  501    0  0.00000000000E+00  0.00000000000E+00  0.17165332071E+04  0.17165332071E+04  0.25500000920E-02 0. -1.
       -2   -1    0    0    0  501  0.00000000000E+00  0.00000000000E+00 -0.21157483179E+04  0.21157483179E+04  0.25500000920E-02 0.  1.
    10030    2    1    2    0    0  0.00000000000E+00  0.00000000000E+00 -0.39921511079E+03  0.38322815250E+04  0.38114313561E+04 0.  0.
        3    1    3    3  502    0 -0.36709283933E+03  0.10358187954E+04 -0.17650686721E+04  0.20792174387E+04  0.10100000352E+00 0.  1.
       -3    1    3    3    0  502  0.36709283933E+03 -0.10358187954E+04  0.13658535613E+04  0.17530640864E+04  0.10100000352E+00 0. -1.
</event>
<event>
 5   0  0.1084315E-07  0.3808870E+04  0.7818609E-02  0.8044254E-01
        1   -1    0    0  501    0  0.00000000000E+00  0.00000000000E+00  0.30706646200E+04  0.30706646200E+04  0.50400001928E-02 0.  1.
       -1   -1    0    0    0  501  0.00000000000E+00  0.00000000000E+00 -0.11811360994E+04  0.11811360994E+04  0.50400001928E-02 0. -1.
    10030    2    1    2    0    0  0.00000000000E+00  0.00000000000E+00  0.18895285207E+04  0.42518007194E+04  0.38088700854E+04 0.  0.
        4    1    3    3  502    0  0.16987328076E+04  0.44374615237E+02  0.19045191926E+04  0.25524218355E+04  0.12699999809E+01 0.  1.
       -4    1    3    3    0  502 -0.16987328076E+04 -0.44374615237E+02 -0.14990671991E+02  0.16993788839E+04  0.12699999809E+01 0. -1.
</event>
<event>
 5   0  0.3327241E-07  0.3896576E+04  0.7818609E-02  0.8025742E-01
       -2   -1    0    0    0  501  0.00000000000E+00  0.00000000000E+00  0.18996323029E+04  0.18996323029E+04  0.25500000920E-02 0. -1.
        2   -1    0    0  501    0  0.00000000000E+00  0.00000000000E+00 -0.19981896657E+04  0.19981896657E+04  0.25500000920E-02 0.  1.
    10030    2    1    2    0    0  0.00000000000E+00  0.00000000000E+00 -0.98557362802E+02  0.38978219686E+04  0.38965757461E+04 0.  0.
        3    1    3    3  502    0 -0.70734061847E+03 -0.16346919348E+04  0.74045285337E+03  0.19289424331E+04  0.10100000352E+00 0.  1.
       -3    1    3    3    0  502  0.70734061847E+03  0.16346919348E+04 -0.83901021617E+03  0.19688795355E+04  0.10100000352E+00 0. -1.
</event>
<event>
 5   0  0.3509843E-07  0.3861217E+04  0.7818609E-02  0.8033144E-01
       -2   -1    0    0    0  501  0.00000000000E+00  0.00000000000E+00  0.17280446965E+04  0.17280446965E+04  0.25500000920E-02 0. -1.
        2   -1    0    0  501    0  0.00000000000E+00  0.00000000000E+00 -0.21569176381E+04  0.21569176381E+04  0.25500000920E-02 0.  1.
    10030    2    1    2    0    0  0.00000000000E+00  0.00000000000E+00 -0.42887294157E+03  0.38849623346E+04  0.38612174688E+04 0.  0.
        4    1    3    3  502    0  0.64878084956E+03 -0.77710311913E+03 -0.18684566029E+04  0.21250735372E+04  0.12699999809E+01 0.  1.
       -4    1    3    3    0  502 -0.64878084956E+03  0.77710311913E+03  0.14395836613E+04  0.17598887975E+04  0.12699999809E+01 0. -1.
</event>
<event>
 5   0  0.3442126E-07  0.3799138E+04  0.7818609E-02  0.8046340E-01
        2   -1    0    0  501    0  0.00000000000E+00  0.00000000000E+00  0.27317231063E+04  0.27317231063E+04  0.25500000920E-02 0. -1.
       -2   -1    0    0    0  501  0.00000000000E+00  0.00000000000E+00 -0.13209109723E+04  0.13209109723E+04  0.25500000920E-02 0.  1.
    10030    2    1    2    0    0  0.00000000000E+00  0.00000000000E+00  0.14108121339E+04  0.40526340786E+04  0.37991383362E+04 0.  0.
        2    1    3    3  502    0  0.14849647216E+04  0.45118754443E+03 -0.46297269597E+03  0.16195783840E+04  0.25500000920E-02 0.  1.
       -2    1    3    3    0  502 -0.14849647216E+04 -0.45118754443E+03  0.18737848299E+04  0.24330556946E+04  0.25500000920E-02 0. -1.
</event>
<event>
 5   0  0.3442126E-07  0.3549867E+04  0.7818609E-02  0.8102073E-01
        2   -1    0    0  501    0  0.00000000000E+00  0.00000000000E+00  0.14906721848E+04  0.14906721848E+04  0.25500000920E-02 0. -1.
       -2   -1    0    0    0  501  0.00000000000E+00  0.00000000000E+00 -0.21134017959E+04  0.21134017959E+04  0.25500000920E-02 0.  1.
    10030    2    1    2    0    0  0.00000000000E+00  0.00000000000E+00 -0.62272961104E+03  0.36040739807E+04  0.35498671933E+04 0.  0.
        2    1    3    3  502    0  0.17390683301E+04  0.35485779520E+03 -0.30088434272E+03  0.18002261245E+04  0.25500000920E-02 0. -1.
       -2    1    3    3    0  502 -0.17390683301E+04 -0.35485779520E+03 -0.32184526832E+03  0.18038478562E+04  0.25500000920E-02 0.  1.
</event>
<event>
 5   0  0.1084315E-07  0.3710634E+04  0.7818609E-02  0.8065609E-01
        1   -1    0    0  501    0  0.00000000000E+00  0.00000000000E+00  0.24400749688E+04  0.24400749688E+04  0.50400001928E-02 0. -1.
       -1   -1    0    0    0  501  0.00000000000E+00  0.00000000000E+00 -0.14106948218E+04  0.14106948218E+04  0.50400001928E-02 0.  1.
    10030    2    1    2    0    0  0.00000000000E+00  0.00000000000E+00  0.10293801470E+04  0.38507697907E+04  0.37106339746E+04 0.  0.
        4    1    3    3  502    0 -0.12570959231E+04 -0.48984747501E+03 -0.80696871702E+03  0.15720816874E+04  0.12699999809E+01 0.  1.
       -4    1    3    3    0  502  0.12570959231E+04  0.48984747501E+03  0.18363488640E+04  0.22786881033E+04  0.12699999809E+01 0. -1.
</event>
<event>
 5   0  0.3442126E-07  0.3799220E+04  0.7818609E-02  0.8046322E-01
       -2   -1    0    0    0  501  0.00000000000E+00  0.00000000000E+00  0.25315008835E+04  0.25315008835E+04  0.25500000920E-02 0. -1.
        2   -1    0    0  501    0  0.00000000000E+00  0.00000000000E+00 -0.14254463401E+04  0.14254463401E+04  0.25500000920E-02 0.  1.
    10030    2    1    2    0    0  0.00000000000E+00  0.00000000000E+00  0.11060545434E+04  0.39569472236E+04  0.37992202723E+04 0.  0.
        2    1    3    3  502    0 -0.10632987951E+04 -0.12035350058E+04 -0.50369686509E+03  0.16830957696E+04  0.25500000920E-02 0.  1.
       -2    1    3    3    0  502  0.10632987951E+04  0.12035350058E+04  0.16097514085E+04  0.22738514540E+04  0.25500000920E-02 0. -1.
</event>
<event>
 5   0  0.3377396E-07  0.3784930E+04  0.7818609E-02  0.8049397E-01
       -2   -1    0    0    0  501  0.00000000000E+00  0.00000000000E+00  0.15120979635E+04  0.15120979635E+04  0.25500000920E-02 0.  1.
        2   -1    0    0  501    0  0.00000000000E+00  0.00000000000E+00 -0.23685132907E+04  0.23685132907E+04  0.25500000920E-02 0. -1.
    10030    2    1    2    0    0  0.00000000000E+00  0.00000000000E+00 -0.85641532715E+03  0.38806112542E+04  0.37849301834E+04 0.  0.
        5    1    3    3  502    0  0.18747380305E+04  0.82638924340E+02 -0.17721271592E+03  0.18849133432E+04  0.46999998093E+01 0.  1.
       -5    1    3    3    0  502 -0.18747380305E+04 -0.82638924340E+02 -0.67920261123E+03  0.19956979110E+04  0.46999998093E+01 0. -1.
</event>
<event>
 5   0  0.3377396E-07  0.3715954E+04  0.7818609E-02  0.8064435E-01
       -2   -1    0    0    0  501  0.00000000000E+00  0.00000000000E+00  0.14789813780E+04  0.14789813780E+04  0.25500000920E-02 0. -1.
        2   -1    0    0  501    0  0.00000000000E+00  0.00000000000E+00 -0.23340915436E+04  0.23340915436E+04  0.25500000920E-02 0.  1.
    10030    2    1    2    0    0  0.00000000000E+00  0.00000000000E+00 -0.85511016557E+03  0.38130729217E+04  0.37159536744E+04 0.  0.
        5    1    3    3  502    0  0.89349361915E+02 -0.81709235648E+02  0.14749227779E+04  0.14798915495E+04  0.46999998093E+01 0. -1.
       -5    1    3    3    0  502 -0.89349361915E+02  0.81709235648E+02 -0.23300329435E+04  0.23331813721E+04  0.46999998093E+01 0.  1.
</event>
<event>
 5   0  0.3327241E-07  0.3816128E+04  0.7818609E-02  0.8042703E-01
       -2   -1    0    0    0  501  0.00000000000E+00  0.00000000000E+00  0.14844822597E+04  0.14844822597E+04  0.25500000920E-02 0. -1.
        2   -1    0    0  501    0  0.00000000000E+00  0.00000000000E+00 -0.24525109797E+04  0.24525109797E+04  0.25500000920E-02 0.  1.
    10030    2    1    2    0    0  0.00000000000E+00  0.00000000000E+00 -0.96802872009E+03  0.39369932394E+04  0.38161284261E+04 0.  0.
        3    1    3    3  502    0  0.99658299110E+03  0.14784836946E+04 -0.11849574247E+04  0.21408446469E+04  0.10100000352E+00 0.  1.
       -3    1    3    3    0  502 -0.99658299110E+03 -0.14784836946E+04  0.21692870460E+03  0.17961485926E+04  0.10100000352E+00 0. -1.
</event>
<event>
 5   0  0.1070988E-07  0.3783986E+04  0.7818609E-02  0.8049600E-01
       -1   -1    0    0    0  501  0.00000000000E+00  0.00000000000E+00  0.13585284311E+04  0.13585284311E+04  0.50400001928E-02 0.  1.
        1   -1    0    0  501    0  0.00000000000E+00  0.00000000000E+00 -0.26349374683E+04  0.26349374683E+04  0.50400001928E-02 0. -1.
    10030    2    1    2    0    0  0.00000000000E+00  0.00000000000E+00 -0.12764090372E+04  0.39934658993E+04  0.37839859750E+04 0.  0.
        5    1    3    3  502    0 -0.99366772691E+03 -0.14348053522E+04  0.13269461506E+03  0.17503347968E+04  0.46999998093E+01 0. -1.
       -5    1    3    3    0  502  0.99366772691E+03  0.14348053522E+04 -0.14091036523E+04  0.22431311025E+04  0.46999998093E+01 0.  1.
</event>
<event>
 5   0  0.1085771E-07  0.3811587E+04  0.7818609E-02  0.8043673E-01
       -1   -1    0    0    0  501  0.00000000000E+00  0.00000000000E+00  0.30450397370E+04  0.30450397370E+04  0.50400001928E-02 0. -1.
        1   -1    0    0  501    0  0.00000000000E+00  0.00000000000E+00 -0.11927754740E+04  0.11927754740E+04  0.50400001928E-02 0.  1.
    10030    2    1    2    0    0  0.00000000000E+00  0.00000000000E+00  0.18522642630E+04  0.42378152110E+04  0.38115869218E+04 0.  0.
        1    1    3    3  502    0 -0.69411682910E+03  0.17304708478E+04  0.48738929191E+03  0.19271418862E+04  0.50400001928E-02 0. -1.
       -1    1    3    3    0  502  0.69411682910E+03 -0.17304708478E+04  0.13648749710E+04  0.23106733248E+04  0.50400001928E-02 0.  1.
</event>
<event>
 5   0  0.3327241E-07  0.3770895E+04  0.7818609E-02  0.8052430E-01
        2   -1    0    0  501    0  0.00000000000E+00  0.00000000000E+00  0.23016069976E+04  0.23016069976E+04  0.25500000920E-02 0. -1.
       -2   -1    0    0    0  501  0.00000000000E+00  0.00000000000E+00 -0.15445346275E+04  0.15445346275E+04  0.25500000920E-02 0.  1.
    10030    2    1    2    0    0  0.00000000000E+00  0.00000000000E+00  0.75707237005E+03  0.38461416251E+04  0.37708946984E+04 0.  0.
        3    1    3    3  502    0  0.11338135632E+03  0.16860203424E+04  0.12315206579E+04  0.20909717999E+04  0.10100000352E+00 0. -1.
       -3    1    3    3    0  502 -0.11338135632E+03 -0.16860203424E+04 -0.47444828781E+03  0.17551698252E+04  0.10100000352E+00 0.  1.
</event>
<event>
 5   0  0.1070988E-07  0.3819934E+04  0.7818609E-02  0.8041891E-01
        1   -1    0    0  501    0  0.00000000000E+00  0.00000000000E+00  0.17812533654E+04  0.17812533655E+04  0.50400001928E-02 0. -1.
       -1   -1    0    0    0  501  0.00000000000E+00  0.00000000000E+00 -0.20479818770E+04  0.20479818770E+04  0.50400001928E-02 0.  1.
    10030    2    1    2    0    0  0.00000000000E+00  0.00000000000E+00 -0.26672851151E+03  0.38292352424E+04  0.38199343506E+04 0.  0.
        2    1    3    3  502    0 -0.33984293134E+03 -0.44859228091E+01  0.17506962789E+04  0.17833818443E+04  0.25500000920E-02 0. -1.
       -2    1    3    3    0  502  0.33984293134E+03  0.44859228091E+01 -0.20174247904E+04  0.20458533981E+04  0.25500000920E-02 0.  1.
</event>
<event>
 5   0  0.3509843E-07  0.3792677E+04  0.7818609E-02  0.8047728E-01
        2   -1    0    0  501    0  0.00000000000E+00  0.00000000000E+00  0.22935716022E+04  0.22935716022E+04  0.25500000920E-02 0. -1.
       -2   -1    0    0    0  501  0.00000000000E+00  0.00000000000E+00 -0.15679036920E+04  0.15679036920E+04  0.25500000920E-02 0.  1.
    10030    2    1    2    0    0  0.00000000000E+00  0.00000000000E+00  0.72566791011E+03  0.38614752942E+04  0.37926768294E+04 0.  0.
        4    1    3    3  502    0  0.97944969741E+03  0.46223615844E+03 -0.12220385351E+04  0.16329004165E+04  0.12699999809E+01 0.  1.
       -4    1    3    3    0  502 -0.97944969741E+03 -0.46223615844E+03  0.19477064452E+04  0.22285748777E+04  0.12699999809E+01 0. -1.
</event>
<event>
 5   0  0.1084315E-07  0.3557856E+04  0.7818609E-02  0.8100214E-01
       -1   -1    0    0    0  501  0.00000000000E+00  0.00000000000E+00  0.21652553455E+04  0.21652553455E+04  0.50400001928E-02 0.  1.
        1   -1    0    0  501    0  0.00000000000E+00  0.00000000000E+00 -0.14615294716E+04  0.14615294716E+04  0.50400001928E-02 0. -1.
    10030    2    1    2    0    0  0.00000000000E+00  0.00000000000E+00  0.70372587385E+03  0.36267848171E+04  0.35578558155E+04 0.  0.
        4    1    3    3  502    0  0.14380155789E+04  0.88519208304E+03  0.92228344546E+03  0.19240743737E+04  0.12699999809E+01 0.  1.
       -4    1    3    3    0  502 -0.14380155789E+04 -0.88519208304E+03 -0.21855757161E+03  0.17027104434E+04  0.12699999809E+01 0. -1.
</event>
<event>
 5   0  0.3509843E-07  0.3809853E+04  0.7818609E-02  0.8044044E-01
        2   -1    0    0  501    0  0.00000000000E+00  0.00000000000E+00  0.18975367545E+04  0.18975367545E+04  0.25500000920E-02 0. -1.
       -2   -1    0    0    0  501  0.00000000000E+00  0.00000000000E+00 -0.19123453216E+04  0.19123453216E+04  0.25500000920E-02 0.  1.
    10030    2    1    2    0    0  0.00000000000E+00  0.00000000000E+00 -0.14808567128E+02  0.38098820761E+04  0.38098532964E+04 0.  0.
        4    1    3    3  502    0 -0.14092679438E+04  0.12810314870E+04  0.33414082495E+02  0.19047823818E+04  0.12699999809E+01 0. -1.
       -4    1    3    3    0  502  0.14092679438E+04 -0.12810314870E+04 -0.48222649623E+02  0.19050996943E+04  0.12699999809E+01 0.  1.
</event>
<event>
 5   0  0.3539010E-07  0.3788102E+04  0.7818609E-02  0.8048713E-01
       -2   -1    0    0    0  501  0.00000000000E+00  0.00000000000E+00  0.10995346197E+04  0.10995346197E+04  0.25500000920E-02 0.  1.
        2   -1    0    0  501    0  0.00000000000E+00  0.00000000000E+00 -0.32626804049E+04  0.32626804049E+04  0.25500000920E-02 0. -1.
    10030    2    1    2    0    0  0.00000000000E+00  0.00000000000E+00 -0.21631457852E+04  0.43622150246E+04  0.37881024581E+04 0.  0.
        1    1    3    3  502    0 -0.13475900724E+04  0.12911562444E+04 -0.14535571143E+04  0.23655679520E+04  0.50400001928E-02 0. -1.
       -1    1    3    3    0  502  0.13475900724E+04 -0.12911562444E+04 -0.70958867084E+03  0.19966470726E+04  0.50400001928E-02 0.  1.
</event>
<event>
 5   0  0.3442126E-07  0.3799294E+04  0.7818609E-02  0.8046306E-01
       -2   -1    0    0    0  501  0.00000000000E+00  0.00000000000E+00  0.21798703073E+04  0.21798703073E+04  0.25500000920E-02 0.  1.
        2   -1    0    0  501    0  0.00000000000E+00  0.00000000000E+00 -0.16554468838E+04  0.16554468838E+04  0.25500000920E-02 0. -1.
    10030    2    1    2    0    0  0.00000000000E+00  0.00000000000E+00  0.52442342349E+03  0.38353171911E+04  0.37992944120E+04 0.  0.
        2    1    3    3  502    0  0.14905800406E+04  0.61413350886E+03 -0.75213917070E+03  0.17789609766E+04  0.25500000920E-02 0. -1.
       -2    1    3    3    0  502 -0.14905800406E+04 -0.61413350886E+03  0.12765625942E+04  0.20563562145E+04  0.25500000920E-02 0.  1.
</event>
<event>
 5   0  0.1070988E-07  0.3822216E+04  0.7818609E-02  0.8041404E-01
       -1   -1    0    0    0  501  0.00000000000E+00  0.00000000000E+00  0.13882891776E+04  0.13882891776E+04  0.50400001928E-02 0.  1.
        1   -1    0    0  501    0  0.00000000000E+00  0.00000000000E+00 -0.26308158778E+04  0.26308158778E+04  0.50400001928E-02 0. -1.
    10030    2    1    2    0    0  0.00000000000E+00  0.00000000000E+00 -0.12425267002E+04  0.40191050554E+04  0.38222156985E+04 0.  0.
        3    1    3    3  502    0  0.10972286228E+04  0.14711661845E+04 -0.60803981153E+02  0.18362836729E+04  0.10100000352E+00 0.  1.
       -3    1    3    3    0  502 -0.10972286228E+04 -0.14711661845E+04 -0.11817227190E+04  0.21828213825E+04  0.10100000352E+00 0. -1.
</event>
<event>
 5   0  0.1085771E-07  0.3527337E+04  0.7818609E-02  0.8107342E-01
        1   -1    0    0  501    0  0.00000000000E+00  0.00000000000E+00  0.19761801909E+04  0.19761801909E+04  0.50400001928E-02 0. -1.
       -1   -1    0    0    0  501  0.00000000000E+00  0.00000000000E+00 -0.15740092534E+04  0.15740092534E+04  0.50400001928E-02 0.  1.
    10030    2    1    2    0    0  0.00000000000E+00  0.00000000000E+00  0.40217093748E+03  0.35501894443E+04  0.35273366195E+04 0.  0.
        1    1    3    3  502    0 -0.84597775341E+02 -0.75432735032E+02  0.19725107108E+04  0.19757645065E+04  0.50400001928E-02 0. -1.
       -1    1    3    3    0  502  0.84597775341E+02  0.75432735032E+02 -0.15703397733E+04  0.15744249378E+04  0.50400001928E-02 0.  1.
</event>
<event>
 5   0  0.1070988E-07  0.3671541E+04  0.7818609E-02  0.8074298E-01
       -1   -1    0    0    0  501  0.00000000000E+00  0.00000000000E+00  0.11344649793E+04  0.11344649793E+04  0.50400001928E-02 0. -1.
        1   -1    0    0  501    0  0.00000000000E+00  0.00000000000E+00 -0.29706110766E+04  0.29706110766E+04  0.50400001928E-02 0.  1.
    10030    2    1    2    0    0  0.00000000000E+00  0.00000000000E+00 -0.18361460973E+04  0.41050760558E+04  0.36715414929E+04 0.  0.
        2    1    3    3  502    0  0.17865183430E+04  0.17821186887E+03 -0.48990986694E+03  0.18610263131E+04  0.25500000920E-02 0. -1.
       -2    1    3    3    0  502 -0.17865183430E+04 -0.17821186887E+03 -0.13462362303E+04  0.22440497428E+04  0.25500000920E-02 0.  1.
</event>
<event>
 5   0  0.3442126E-07  0.3770531E+04  0.7818609E-02  0.8052509E-01
        2   -1    0    0  501    0  0.00000000000E+00  0.00000000000E+00  0.11786520147E+04  0.11786520147E+04  0.25500000920E-02 0. -1.
       -2   -1    0    0    0  501  0.00000000000E+00  0.00000000000E+00 -0.30155000137E+04  0.30155000137E+04  0.25500000920E-02 0.  1.
    10030    2    1    2    0    0  0.00000000000E+00  0.00000000000E+00 -0.18368479990E+04  0.41941520284E+04  0.37705305550E+04 0.  0.
        2    1    3    3  502    0  0.11028357724E+04 -0.40548848975E+03  0.72151340640E+03  0.13788579520E+04  0.25500000920E-02 0. -1.
       -2    1    3    3    0  502 -0.11028357724E+04  0.40548848975E+03 -0.25583614054E+04  0.28152940765E+04  0.25500000920E-02 0.  1.
</event>
<event>
 5   0  0.3377396E-07  0.3782383E+04  0.7818609E-02  0.8049946E-01
        2   -1    0    0  501    0  0.00000000000E+00  0.00000000000E+00  0.20755018618E+04  0.20755018618E+04  0.25500000920E-02 0. -1.
       -2   -1    0    0    0  501  0.00000000000E+00  0.00000000000E+00 -0.17232487845E+04  0.17232487845E+04  0.25500000920E-02 0.  1.
    10030    2    1    2    0    0  0.00000000000E+00  0.00000000000E+00  0.35225307727E+03  0.37987506462E+04  0.37823834076E+04 0.  0.
        5    1    3    3  502    0  0.17837953941E+04  0.33462494560E+03 -0.35785462131E+03  0.18498599629E+04  0.46999998093E+01 0.  1.
       -5    1    3    3    0  502 -0.17837953941E+04 -0.33462494560E+03  0.71010769859E+03  0.19488906834E+04  0.46999998093E+01 0. -1.
</event>
<event>
 5   0  0.1085771E-07  0.3749432E+04  0.7818609E-02  0.8057094E-01
        1   -1    0    0  501    0  0.00000000000E+00  0.00000000000E+00  0.19470529055E+04  0.19470529055E+04  0.50400001928E-02 0. -1.
       -1   -1    0    0    0  501  0.00000000000E+00  0.00000000000E+00 -0.18050667960E+04  0.18050667960E+04  0.50400001928E-02 0.  1.
    10030    2    1    2    0    0  0.00000000000E+00  0.00000000000E+00  0.14198610955E+03  0.37521197015E+04  0.37494322502E+04 0.  0.
        1    1    3    3  502    0  0.16690228027E+04  0.92068097508E+01  0.92532545559E+03  0.19083891322E+04  0.50400001928E-02 0. -1.
       -1    1    3    3    0  502 -0.16690228027E+04 -0.92068097508E+01 -0.78333934604E+03  0.18437305693E+04  0.50400001928E-02 0.  1.
</event>
<event>
 5   0  0.3539010E-07  0.3161383E+04  0.7818609E-02  0.8199091E-01
        2   -1    0    0  501    0  0.00000000000E+00  0.00000000000E+00  0.22004981846E+04  0.22004981846E+04  0.25500000920E-02 0.  1.
       -2   -1    0    0    0  501  0.00000000000E+00  0.00000000000E+00 -0.11354633220E+04  0.11354633220E+04  0.25500000920E-02 0. -1.
    10030    2    1    2    0    0  0.00000000000E+00  0.00000000000E+00  0.10650348627E+04  0.33359615066E+04  0.31613825954E+04 0.  0.
        1    1    3    3  502    0  0.75975151470E+03 -0.11684417006E+04  0.13194236911E+04  0.19192074532E+04  0.50400001928E-02 0.  1.
       -1    1    3    3    0  502 -0.75975151470E+03  0.11684417006E+04 -0.25438882845E+03  0.14167540534E+04  0.50400001928E-02 0. -1.
</event>
<event>
 5   0  0.1085771E-07  0.3773339E+04  0.7818609E-02  0.8051901E-01
       -1   -1    0    0    0  501  0.00000000000E+00  0.00000000000E+00  0.15591661061E+04  0.15591661061E+04  0.50400001928E-02 0.  1.
        1   -1    0    0  501    0  0.00000000000E+00  0.00000000000E+00 -0.22829647795E+04  0.22829647795E+04  0.50400001928E-02 0. -1.
    10030    2    1    2    0    0  0.00000000000E+00  0.00000000000E+00 -0.72379867343E+03  0.38421308856E+04  0.37733387368E+04 0.  0.
        1    1    3    3  502    0  0.13773542504E+04 -0.57841841288E+03  0.81143197378E+03  0.17000277761E+04  0.50400001928E-02 0.  1.
       -1    1    3    3    0  502 -0.13773542504E+04  0.57841841288E+03 -0.15352306472E+04  0.21421031095E+04  0.50400001928E-02 0. -1.
</event>
<event>
 5   0  0.3377396E-07  0.3781974E+04  0.7818609E-02  0.8050034E-01
        2   -1    0    0  501    0  0.00000000000E+00  0.00000000000E+00  0.24695052629E+04  0.24695052629E+04  0.25500000920E-02 0. -1.
       -2   -1    0    0    0  501  0.00000000000E+00  0.00000000000E+00 -0.14479952267E+04  0.14479952267E+04  0.25500000920E-02 0.  1.
    10030    2    1    2    0    0  0.00000000000E+00  0.00000000000E+00  0.10215100363E+04  0.39175004896E+04  0.37819739993E+04 0.  0.
        5    1    3    3  502    0  0.71997316346E+03  0.16095245419E+04  0.12185260016E+04  0.21433054644E+04  0.46999998093E+01 0. -1.
       -5    1    3    3    0  502 -0.71997316346E+03 -0.16095245419E+04 -0.19701596530E+03  0.17741950252E+04  0.46999998093E+01 0.  1.
</event>
<event>
 5   0  0.3539010E-07  0.3800431E+04  0.7818609E-02  0.8046062E-01
       -2   -1    0    0    0  501  0.00000000000E+00  0.00000000000E+00  0.31412116113E+04  0.31412116113E+04  0.25500000920E-02 0.  1.
        2   -1    0    0  501    0  0.00000000000E+00  0.00000000000E+00 -0.11494986531E+04  0.11494986531E+04  0.25500000920E-02 0. -1.
    10030    2    1    2    0    0  0.00000000000E+00  0.00000000000E+00  0.19917129582E+04  0.42907102644E+04  0.38004307737E+04 0.  0.
        1    1    3    3  502    0  0.41483929435E+02  0.18297120124E+04  0.15729228984E+04  0.24132246909E+04  0.50400001928E-02 0.  1.
       -1    1    3    3    0  502 -0.41483929435E+02 -0.18297120124E+04  0.41879005978E+03  0.18774855735E+04  0.50400001928E-02 0. -1.
</event>
<event>
 5   0  0.3377396E-07  0.3768186E+04  0.7818609E-02  0.8053017E-01
       -2   -1    0    0    0  501  0.00000000000E+00  0.00000000000E+00  0.16562149966E+04  0.16562149966E+04  0.25500000920E-02 0.  1.
        2   -1    0    0  501    0  0.00000000000E+00  0.00000000000E+00 -0.21433243737E+04  0.21433243737E+04  0.25500000920E-02 0. -1.
    10030    2    1    2    0    0  0.00000000000E+00  0.00000000000E+00 -0.48710937716E+03  0.37995393703E+04  0.37681857546E+04 0.  0.
        5    1    3    3  502    0 -0.10352744145E+04 -0.12088989129E+03  0.13390193384E+04  0.16968801837E+04  0.46999998093E+01 0.  1.
       -5    1    3    3    0  502  0.10352744145E+04  0.12088989129E+03 -0.18261287156E+04  0.21026591866E+04  0.46999998093E+01 0. -1.
</event>
<event>
 5   0  0.3377396E-07  0.3783999E+04  0.7818609E-02  0.8049597E-01
       -2   -1    0    0    0  501  0.00000000000E+00  0.00000000000E+00  0.26688887872E+04  0.26688887872E+04  0.25500000920E-02 0. -1.
        2   -1    0    0  501    0  0.00000000000E+00  0.00000000000E+00 -0.13412558625E+04  0.13412558625E+04  0.25500000920E-02 0.  1.
    10030    2    1    2    0    0  0.00000000000E+00  0.00000000000E+00  0.13276329247E+04  0.40101446496E+04  0.37839993299E+04 0.  0.
        5    1    3    3  502    0  0.74526496869E+03 -0.15799272880E+04  0.14339157652E+04  0.22600280132E+04  0.46999998093E+01 0. -1.
       -5    1    3    3    0  502 -0.74526496869E+03  0.15799272880E+04 -0.10628284054E+03  0.17501166364E+04  0.46999998093E+01 0.  1.
</event>
<event>
 5   0  0.1070988E-07  0.3776128E+04  0.7818609E-02  0.8051297E-01
        1   -1    0    0  501    0  0.00000000000E+00  0.00000000000E+00  0.29863251189E+04  0.29863251189E+04  0.50400001928E-02 0.  1.
       -1   -1    0    0    0  501  0.00000000000E+00  0.00000000000E+00 -0.11937032004E+04  0.11937032004E+04  0.50400001928E-02 0. -1.
    10030    2    1    2    0    0  0.00000000000E+00  0.00000000000E+00  0.17926219185E+04  0.41800283193E+04  0.37761280974E+04 0.  0.
        2    1    3    3  502    0 -0.72318907855E+03 -0.96276881325E+03 -0.71349406429E+03  0.13996428155E+04  0.25500000920E-02 0. -1.
       -2    1    3    3    0  502  0.72318907855E+03  0.96276881325E+03  0.25061159827E+04  0.27803855039E+04  0.25500000920E-02 0.  1.
</event>
<event>
 5   0  0.3327241E-07  0.3799660E+04  0.7818609E-02  0.8046228E-01
       -2   -1    0    0    0  501  0.00000000000E+00  0.00000000000E+00  0.13062059152E+04  0.13062059152E+04  0.25500000920E-02 0.  1.
        2   -1    0    0  501    0  0.00000000000E+00  0.00000000000E+00 -0.27632348918E+04  0.27632348918E+04  0.25500000920E-02 0. -1.
    10030    2    1    2    0    0  0.00000000000E+00  0.00000000000E+00 -0.14570289766E+04  0.40694408070E+04  0.37996598589E+04 0.  0.
        3    1    3    3  502    0  0.10267226709E+04  0.77769163820E+03  0.76720705277E+03  0.14991899143E+04  0.10100000352E+00 0.  1.
       -3    1    3    3    0  502 -0.10267226709E+04 -0.77769163820E+03 -0.22242360293E+04  0.25702508927E+04  0.10100000352E+00 0. -1.
</event>
<event>
 5   0  0.1070988E-07  0.3777333E+04  0.7818609E-02  0.8051037E-01
       -1   -1    0    0    0  501  0.00000000000E+00  0.00000000000E+00  0.18283350739E+04  0.18283350739E+04  0.50400001928E-02 0. -1.
        1   -1    0    0  501    0  0.00000000000E+00  0.00000000000E+00 -0.19509882971E+04  0.19509882971E+04  0.50400001928E-02 0.  1.
    10030    2    1    2    0    0  0.00000000000E+00  0.00000000000E+00 -0.12265322326E+03  0.37793233710E+04  0.37773325680E+04 0.  0.
        2    1    3    3  502    0 -0.12573960914E+04  0.65024640342E+03 -0.13122635331E+04  0.19302592821E+04  0.25500000920E-02 0.  1.
       -2    1    3    3    0  502  0.12573960914E+04 -0.65024640342E+03  0.11896103098E+04  0.18490640889E+04  0.25500000920E-02 0. -1.
</event>
<event>
 5   0  0.3509843E-07  0.3833564E+04  0.7818609E-02  0.8038990E-01
       -2   -1    0    0    0  501  0.00000000000E+00  0.00000000000E+00  0.24692985009E+04  0.24692985009E+04  0.25500000920E-02 0.  1.
        2   -1    0    0  501    0  0.00000000000E+00  0.00000000000E+00 -0.14878938235E+04  0.14878938235E+04  0.25500000920E-02 0. -1.
    10030    2    1    2    0    0  0.00000000000E+00  0.00000000000E+00  0.98140467742E+03  0.39571923245E+04  0.38335643926E+04 0.  0.
        4    1    3    3  502    0  0.10251495202E+04 -0.15084302535E+04  0.10994307735E+04  0.21295640415E+04  0.12699999809E+01 0.  1.
       -4    1    3    3    0  502 -0.10251495202E+04  0.15084302535E+04 -0.11802609608E+03  0.18276282829E+04  0.12699999809E+01 0. -1.
</event>
<event>
 5   0  0.1070988E-07  0.3778381E+04  0.7818609E-02  0.8050810E-01
        1   -1    0    0  501    0  0.00000000000E+00  0.00000000000E+00  0.13196715743E+04  0.13196715744E+04  0.50400001928E-02 0.  1.
       -1   -1    0    0    0  501  0.00000000000E+00  0.00000000000E+00 -0.27044915964E+04  0.27044915964E+04  0.50400001928E-02 0. -1.
    10030    2    1    2    0    0  0.00000000000E+00  0.00000000000E+00 -0.13848200221E+04  0.40241631708E+04  0.37783809670E+04 0.  0.
        3    1    3    3  502    0 -0.14037857853E+04  0.33227514242E+02 -0.20384751718E+04  0.24752978881E+04  0.10100000352E+00 0. -1.
       -3    1    3    3    0  502  0.14037857853E+04 -0.33227514242E+02  0.65365514976E+03  0.15488652826E+04  0.10100000352E+00 0.  1.
</event>
<event>
 5   0  0.3327241E-07  0.3861659E+04  0.7818609E-02  0.8033051E-01
       -2   -1    0    0    0  501  0.00000000000E+00  0.00000000000E+00  0.15821614275E+04  0.15821614275E+04  0.25500000920E-02 0.  1.
        2   -1    0    0  501    0  0.00000000000E+00  0.00000000000E+00 -0.23563345976E+04  0.23563345976E+04  0.25500000920E-02 0. -1.
    10030    2    1    2    0    0  0.00000000000E+00  0.00000000000E+00 -0.77417317012E+03  0.39384960251E+04  0.38616585611E+04 0.  0.
        3    1    3    3  502    0 -0.33698142389E+03 -0.19320400422E+02 -0.23260112920E+04  0.23503740763E+04  0.10100000352E+00 0. -1.
       -3    1    3    3    0  502  0.33698142389E+03  0.19320400422E+02  0.15518381218E+04  0.15881219489E+04  0.10100000352E+00 0.  1.
</event>
<event>
 5   0  0.1084315E-07  0.3803969E+04  0.7818609E-02  0.8045304E-01
       -1   -1    0    0    0  501  0.00000000000E+00  0.00000000000E+00  0.16243392674E+04  0.16243392674E+04  0.50400001928E-02 0. -1.
        1   -1    0    0  501    0  0.00000000000E+00  0.00000000000E+00 -0.22270868716E+04  0.22270868716E+04  0.50400001928E-02 0.  1.
    10030    2    1    2    0    0  0.00000000000E+00  0.00000000000E+00 -0.60274760421E+03  0.38514261390E+04  0.38039687998E+04 0.  0.
        4    1    3    3  502    0  0.15150782613E+04 -0.66940593823E+03  0.64515651519E+03  0.17775812190E+04  0.12699999809E+01 0. -1.
       -4    1    3    3    0  502 -0.15150782613E+04  0.66940593823E+03 -0.12479041194E+04  0.20738449200E+04  0.12699999809E+01 0.  1.
</event>
<event>
 5   0  0.3539010E-07  0.3846658E+04  0.7818609E-02  0.8036216E-01
        2   -1    0    0  501    0  0.00000000000E+00  0.00000000000E+00  0.15666602061E+04  0.15666602061E+04  0.25500000920E-02 0. -1.
       -2   -1    0    0    0  501  0.00000000000E+00  0.00000000000E+00 -0.23611977932E+04  0.23611977932E+04  0.25500000920E-02 0.  1.
    10030    2    1    2    0    0  0.00000000000E+00  0.00000000000E+00 -0.79453758712E+03  0.39278579992E+04  0.38466580931E+04 0.  0.
        1    1    3    3  502    0 -0.87861302898E+03  0.11472462561E+04 -0.16933374929E+04  0.22261012312E+04  0.50400001928E-02 0.  1.
       -1    1    3    3    0  502  0.87861302898E+03 -0.11472462561E+04  0.89879990581E+03  0.17017567680E+04  0.50400001928E-02 0. -1.
</event>
<event>
 5   0  0.1070988E-07  0.3803903E+04  0.7818609E-02  0.8045318E-01
        1   -1    0    0  501    0  0.00000000000E+00  0.00000000000E+00  0.12572216361E+04  0.12572216362E+04  0.50400001928E-02 0.  1.
       -1   -1    0    0    0  501  0.00000000000E+00  0.00000000000E+00 -0.28773128422E+04  0.28773128422E+04  0.50400001928E-02 0. -1.
    10030    2    1    2    0    0  0.00000000000E+00  0.00000000000E+00 -0.16200912060E+04  0.41345344783E+04  0.38039032370E+04 0.  0.
        5    1    3    3  502    0  0.72980242140E+03 -0.10449192640E+04 -0.23444618286E+04  0.26685185400E+04  0.46999998093E+01 0. -1.
       -5    1    3    3    0  502 -0.72980242140E+03  0.10449192640E+04  0.72437062255E+03  0.14660159383E+04  0.46999998093E+01 0.  1.
</event>
<event>
 5   0  0.1084315E-07  0.3832501E+04  0.7818609E-02  0.8039216E-01
       -1   -1    0    0    0  501  0.00000000000E+00  0.00000000000E+00  0.27238368136E+04  0.27238368136E+04  0.50400001928E-02 0.  1.
        1   -1    0    0  501    0  0.00000000000E+00  0.00000000000E+00 -0.13481043856E+04  0.13481043856E+04  0.50400001928E-02 0. -1.
    10030    2    1    2    0    0  0.00000000000E+00  0.00000000000E+00  0.13757324280E+04  0.40719411992E+04  0.38325011958E+04 0.  0.
        4    1    3    3  502    0  0.15570507414E+04 -0.68299404647E+03 -0.25116490643E+03  0.17187126874E+04  0.12699999809E+01 0. -1.
       -4    1    3    3    0  502 -0.15570507414E+04  0.68299404647E+03  0.16268973345E+04  0.23532285118E+04  0.12699999809E+01 0.  1.
</event>
<event>
 5   0  0.3327241E-07  0.3894756E+04  0.7818609E-02  0.8026121E-01
       -2   -1    0    0    0  501  0.00000000000E+00  0.00000000000E+00  0.19007686382E+04  0.19007686382E+04  0.25500000920E-02 0. -1.
        2   -1    0    0  501    0  0.00000000000E+00  0.00000000000E+00 -0.19951305695E+04  0.19951305695E+04  0.25500000920E-02 0.  1.
    10030    2    1    2    0    0  0.00000000000E+00  0.00000000000E+00 -0.94361931252E+02  0.38958992077E+04  0.38947562776E+04 0.  0.
        3    1    3    3  502    0 -0.13667934086E+04  0.76526884375E+03  0.11101032186E+04  0.19199192147E+04  0.10100000352E+00 0. -1.
       -3    1    3    3    0  502  0.13667934086E+04 -0.76526884375E+03 -0.12044651499E+04  0.19759799929E+04  0.10100000352E+00 0.  1.
</event>
<event>
 5   0  0.1070988E-07  0.3787868E+04  0.7818609E-02  0.8048763E-01
        3   -1    0    0  501    0  0.00000000000E+00  0.00000000000E+00  0.21665992308E+04  0.21665992331E+04  0.10100000352E+00 0.  1.
       -3   -1    0    0    0  501  0.00000000000E+00  0.00000000000E+00 -0.16555834150E+04  0.16555834181E+04  0.10100000352E+00 0. -1.
    10030    2    1    2    0    0  0.00000000000E+00  0.00000000000E+00  0.51101581580E+03  0.38221826512E+04  0.37878678772E+04 0.  0.
        1    1    3    3  502    0  0.47536590536E+03  0.34298456334E+03 -0.15617441569E+04  0.16681294813E+04  0.50400001928E-02 0. -1.
       -1    1    3    3    0  502 -0.47536590536E+03 -0.34298456334E+03  0.20727599727E+04  0.21540531700E+04  0.50400001928E-02 0.  1.
</event>
<event>
 5   0  0.1070988E-07  0.3797022E+04  0.7818609E-02  0.8046794E-01
        1   -1    0    0  501    0  0.00000000000E+00  0.00000000000E+00  0.15375661976E+04  0.15375661976E+04  0.50400001928E-02 0. -1.
       -1   -1    0    0    0  501  0.00000000000E+00  0.00000000000E+00 -0.23441875751E+04  0.23441875751E+04  0.50400001928E-02 0.  1.
    10030    2    1    2    0    0  0.00000000000E+00  0.00000000000E+00 -0.80662137750E+03  0.38817537727E+04  0.37970217678E+04 0.  0.
        3    1    3    3  502    0  0.10569189979E+03  0.13735841426E+04  0.93214760875E+03  0.16633710798E+04  0.10100000352E+00 0. -1.
       -3    1    3    3    0  502 -0.10569189979E+03 -0.13735841426E+04 -0.17387689862E+04  0.22183826929E+04  0.10100000352E+00 0.  1.
</event>
<event>
 5   0  0.1070988E-07  0.3785469E+04  0.7818609E-02  0.8049280E-01
       -1   -1    0    0    0  501  0.00000000000E+00  0.00000000000E+00  0.17597306267E+04  0.17597306267E+04  0.50400001928E-02 0.  1.
        1   -1    0    0  501    0  0.00000000000E+00  0.00000000000E+00 -0.20357914262E+04  0.20357914262E+04  0.50400001928E-02 0. -1.
    10030    2    1    2    0    0  0.00000000000E+00  0.00000000000E+00 -0.27606079944E+03  0.37955220529E+04  0.37854693354E+04 0.  0.
        2    1    3    3  502    0  0.35144532051E+03  0.12831444084E+04  0.12118252736E+04  0.17995815847E+04  0.25500000920E-02 0. -1.
       -2    1    3    3    0  502 -0.35144532051E+03 -0.12831444084E+04 -0.14878860731E+04  0.19959404682E+04  0.25500000920E-02 0.  1.
</event>
<event>
 5   0  0.3442126E-07  0.3799069E+04  0.7818609E-02  0.8046355E-01
       -2   -1    0    0    0  501  0.00000000000E+00  0.00000000000E+00  0.16749235205E+04  0.16749235205E+04  0.25500000920E-02 0. -1.
        2   -1    0    0  501    0  0.00000000000E+00  0.00000000000E+00 -0.21542664788E+04  0.21542664788E+04  0.25500000920E-02 0.  1.
    10030    2    1    2    0    0  0.00000000000E+00  0.00000000000E+00 -0.47934295827E+03  0.38291899993E+04  0.37990691464E+04 0.  0.
        2    1    3    3  502    0 -0.66192527324E+02 -0.18266684357E+04  0.28127503842E+03  0.18493822406E+04  0.25500000920E-02 0. -1.
       -2    1    3    3    0  502  0.66192527324E+02  0.18266684357E+04 -0.76061799669E+03  0.19798077587E+04  0.25500000920E-02 0.  1.
</event>
<event>
 5   0  0.1084315E-07  0.3753373E+04  0.7818609E-02  0.8056236E-01
        1   -1    0    0  501    0  0.00000000000E+00  0.00000000000E+00  0.18507778253E+04  0.18507778254E+04  0.50400001928E-02 0. -1.
       -1   -1    0    0    0  501  0.00000000000E+00  0.00000000000E+00 -0.19029576309E+04  0.19029576309E+04  0.50400001928E-02 0.  1.
    10030    2    1    2    0    0  0.00000000000E+00  0.00000000000E+00 -0.52179805520E+02  0.37537354562E+04  0.37533727690E+04 0.  0.
        4    1    3    3  502    0 -0.19812961482E+03  0.94495141038E+03  0.15833392446E+04  0.18544954270E+04  0.12699999809E+01 0. -1.
       -4    1    3    3    0  502  0.19812961482E+03 -0.94495141038E+03 -0.16355190502E+04  0.18992400292E+04  0.12699999809E+01 0.  1.
</event>
<event>
 5   0  0.1070988E-07  0.3592169E+04  0.7818609E-02  0.8092288E-01
       -1   -1    0    0    0  501  0.00000000000E+00  0.00000000000E+00  0.25406596579E+04  0.25406596579E+04  0.50400001928E-02 0. -1.
        1   -1    0    0  501    0  0.00000000000E+00  0.00000000000E+00 -0.12697173216E+04  0.12697173216E+04  0.50400001928E-02 0.  1.
    10030    2    1    2    0    0  0.00000000000E+00  0.00000000000E+00  0.12709423363E+04  0.38103769795E+04  0.35921690249E+04 0.  0.
        2    1    3    3  502    0  0.37568547886E+03 -0.14327996456E+04  0.17129845147E+04  0.22645905482E+04  0.25500000920E-02 0. -1.
       -2    1    3    3    0  502 -0.37568547886E+03  0.14327996456E+04 -0.44204217839E+03  0.15457864312E+04  0.25500000920E-02 0.  1.
</event>
<event>
 5   0  0.1070988E-07  0.3797378E+04  0.7818609E-02  0.8046718E-01
        1   -1    0    0  501    0  0.00000000000E+00  0.00000000000E+00  0.30596942679E+04  0.30596942679E+04  0.50400001928E-02 0. -1.
       -1   -1    0    0    0  501  0.00000000000E+00  0.00000000000E+00 -0.11782290006E+04  0.11782290006E+04  0.50400001928E-02 0.  1.
    10030    2    1    2    0    0  0.00000000000E+00  0.00000000000E+00  0.18814652672E+04  0.42379232685E+04  0.37973783164E+04 0.  0.
        3    1    3    3  502    0 -0.11711661345E+03 -0.63421656895E+03 -0.10522407141E+04  0.12341626668E+04  0.10100000352E+00 0.  1.
       -3    1    3    3    0  502  0.11711661345E+03  0.63421656895E+03  0.29337059813E+04  0.30037606017E+04  0.10100000352E+00 0. -1.
</event>
<event>
 5   0  0.3539010E-07  0.3757678E+04  0.7818609E-02  0.8055298E-01
       -2   -1    0    0    0  501  0.00000000000E+00  0.00000000000E+00  0.16930297874E+04  0.16930297874E+04  0.25500000920E-02 0.  1.
        2   -1    0    0  501    0  0.00000000000E+00  0.00000000000E+00 -0.20850410677E+04  0.20850410677E+04  0.25500000920E-02 0. -1.
    10030    2    1    2    0    0  0.00000000000E+00  0.00000000000E+00 -0.39201128031E+03  0.37780708550E+04  0.37576783446E+04 0.  0.
        1    1    3    3  502    0 -0.44222178489E+03  0.13142345971E+04  0.10786536006E+04  0.17567772407E+04  0.50400001928E-02 0.  1.
       -1    1    3    3    0  502  0.44222178489E+03 -0.13142345971E+04 -0.14706648809E+04  0.20212936143E+04  0.50400001928E-02 0. -1.
</event>
<event>
 5   0  0.3509843E-07  0.3764142E+04  0.7818609E-02  0.8053894E-01
       -2   -1    0    0    0  501  0.00000000000E+00  0.00000000000E+00  0.14462983269E+04  0.14462983269E+04  0.25500000920E-02 0.  1.
        2   -1    0    0  501    0  0.00000000000E+00  0.00000000000E+00 -0.24491427682E+04  0.24491427682E+04  0.25500000920E-02 0. -1.
    10030    2    1    2    0    0  0.00000000000E+00  0.00000000000E+00 -0.10028444414E+04  0.38954410951E+04  0.37641419144E+04 0.  0.
        4    1    3    3  502    0 -0.10705220398E+04 -0.62728803788E+03 -0.19659466604E+04  0.23247485035E+04  0.12699999809E+01 0. -1.
       -4    1    3    3    0  502  0.10705220398E+04  0.62728803788E+03  0.96310221900E+03  0.15706925916E+04  0.12699999809E+01 0.  1.
</event>
<event>
 5   0  0.1070988E-07  0.3829294E+04  0.7818609E-02  0.8039897E-01
        1   -1    0    0  501    0  0.00000000000E+00  0.00000000000E+00  0.21735749886E+04  0.21735749886E+04  0.50400001928E-02 0. -1.
       -1   -1    0    0    0  501  0.00000000000E+00  0.00000000000E+00 -0.16865641397E+04  0.16865641397E+04  0.50400001928E-02 0.  1.
    10030    2    1    2    0    0  0.00000000000E+00  0.00000000000E+00  0.48701084885E+03  0.38601391283E+04  0.38292942591E+04 0.  0.
        3    1    3    3  502    0  0.96872869923E+03 -0.62832434229E+03  0.17831083020E+04  0.21243121236E+04  0.10100000352E+00 0. -1.
       -3    1    3    3    0  502 -0.96872869923E+03  0.62832434229E+03 -0.12960974532E+04  0.17358270047E+04  0.10100000352E+00 0.  1.
</event>
<event>
 5   0  0.3539010E-07  0.3824915E+04  0.7818609E-02  0.8040829E-01
       -2   -1    0    0    0  501  0.00000000000E+00  0.00000000000E+00  0.13394704706E+04  0.13394704706E+04  0.25500000920E-02 0. -1.
        2   -1    0    0  501    0  0.00000000000E+00  0.00000000000E+00 -0.27305516583E+04  0.27305516583E+04  0.25500000920E-02 0.  1.
    10030    2    1    2    0    0  0.00000000000E+00  0.00000000000E+00 -0.13910811876E+04  0.40700221289E+04  0.38249148041E+04 0.  0.
        1    1    3    3  502    0 -0.16652162266E+04 -0.12422011819E+03  0.29646535290E+03  0.16959561977E+04  0.50400001928E-02 0. -1.
       -1    1    3    3    0  502  0.16652162266E+04  0.12422011819E+03 -0.16875465405E+04  0.23740659312E+04  0.50400001928E-02 0.  1.
</event>
<event>
 5   0  0.3509843E-07  0.3814190E+04  0.7818609E-02  0.8043117E-01
       -2   -1    0    0    0  501  0.00000000000E+00  0.00000000000E+00  0.21815855314E+04  0.21815855314E+04  0.25500000920E-02 0.  1.
        2   -1    0    0  501    0  0.00000000000E+00  0.00000000000E+00 -0.16671412365E+04  0.16671412365E+04  0.25500000920E-02 0. -1.
    10030    2    1    2    0    0  0.00000000000E+00  0.00000000000E+00  0.51444429484E+03  0.38487267679E+04  0.38141899273E+04 0.  0.
        4    1    3    3  502    0 -0.40370965613E+03 -0.17951640174E+04 -0.24873031253E+03  0.18567346921E+04  0.12699999809E+01 0. -1.
       -4    1    3    3    0  502  0.40370965613E+03  0.17951640174E+04  0.76317460737E+03  0.19919920758E+04  0.12699999809E+01 0.  1.
</event>
<event>
 5   0  0.3377396E-07  0.3803112E+04  0.7818609E-02  0.8045487E-01
       -2   -1    0    0    0  501  0.00000000000E+00  0.00000000000E+00  0.16417974744E+04  0.16417974744E+04  0.25500000920E-02 0.  1.
        2   -1    0    0  501    0  0.00000000000E+00  0.00000000000E+00 -0.22024122135E+04  0.22024122135E+04  0.25500000920E-02 0. -1.
    10030    2    1    2    0    0  0.00000000000E+00  0.00000000000E+00 -0.56061473907E+03  0.38442096879E+04  0.38031117837E+04 0.  0.
        5    1    3    3  502    0  0.70752117396E+03 -0.17271155706E+04 -0.64807745497E+03  0.19757380605E+04  0.46999998093E+01 0. -1.
       -5    1    3    3    0  502 -0.70752117396E+03  0.17271155706E+04  0.87462715900E+02  0.18684716275E+04  0.46999998093E+01 0.  1.
</event>
<event>
 5   0  0.3539010E-07  0.3813760E+04  0.7818609E-02  0.8043208E-01
        2   -1    0    0  501    0  0.00000000000E+00  0.00000000000E+00  0.21750296223E+04  0.21750296223E+04  0.25500000920E-02 0. -1.
       -2   -1    0    0    0  501  0.00000000000E+00  0.00000000000E+00 -0.16717896628E+04  0.16717896628E+04  0.25500000920E-02 0.  1.
    10030    2    1    2    0    0  0.00000000000E+00  0.00000000000E+00  0.50323995956E+03  0.38468192851E+04  0.38137603694E+04 0.  0.
        1    1    3    3  502    0  0.25611036975E+03  0.15475833393E+04 -0.84202272720E+03  0.17803395706E+04  0.50400001928E-02 0.  1.
       -1    1    3    3    0  502 -0.25611036975E+03 -0.15475833393E+04  0.13452626868E+04  0.20664797144E+04  0.50400001928E-02 0. -1.
</event>
<event>
 5   0  0.3377396E-07  0.3782493E+04  0.7818609E-02  0.8049922E-01
        2   -1    0    0  501    0  0.00000000000E+00  0.00000000000E+00  0.18216677675E+04  0.18216677675E+04  0.25500000920E-02 0.  1.
       -2   -1    0    0    0  501  0.00000000000E+00  0.00000000000E+00 -0.19634831526E+04  0.19634831526E+04  0.25500000920E-02 0. -1.
    10030    2    1    2    0    0  0.00000000000E+00  0.00000000000E+00 -0.14181538507E+03  0.37851509201E+04  0.37824933423E+04 0.  0.
        5    1    3    3  502    0  0.26928027569E+03 -0.89143822578E+03 -0.17181559415E+04  0.19542916636E+04  0.46999998093E+01 0. -1.
       -5    1    3    3    0  502 -0.26928027569E+03  0.89143822578E+03  0.15763405564E+04  0.18308592565E+04  0.46999998093E+01 0.  1.
</event>
<event>
 5   0  0.3539010E-07  0.3813315E+04  0.7818609E-02  0.8043304E-01
       -2   -1    0    0    0  501  0.00000000000E+00  0.00000000000E+00  0.27400746368E+04  0.27400746368E+04  0.25500000920E-02 0. -1.
        2   -1    0    0  501    0  0.00000000000E+00  0.00000000000E+00 -0.13267311673E+04  0.13267311673E+04  0.25500000920E-02 0.  1.
    10030    2    1    2    0    0  0.00000000000E+00  0.00000000000E+00  0.14133434695E+04  0.40668058041E+04  0.38133147897E+04 0.  0.
        1    1    3    3  502    0 -0.16817969140E+04 -0.63465557094E+03  0.13846295226E+04  0.22690146470E+04  0.50400001928E-02 0.  1.
       -1    1    3    3    0  502  0.16817969140E+04  0.63465557094E+03  0.28713946928E+02  0.17977911570E+04  0.50400001928E-02 0. -1.
</event>
<event>
 5   0  0.1084315E-07  0.3632936E+04  0.7818609E-02  0.8082989E-01
        1   -1    0    0  501    0  0.00000000000E+00  0.00000000000E+00  0.10823820306E+04  0.10823820306E+04  0.50400001928E-02 0.  1.
       -1   -1    0    0    0  501  0.00000000000E+00  0.00000000000E+00 -0.30484215985E+04  0.30484215985E+04  0.50400001928E-02 0. -1.
    10030    2    1    2    0    0  0.00000000000E+00  0.00000000000E+00 -0.19660395679E+04  0.41308036291E+04  0.36329364211E+04 0.  0.
        4    1    3    3  502    0  0.86388496692E+03  0.47408726773E+03 -0.27180809777E+04  0.28911972931E+04  0.12699999809E+01 0. -1.
       -4    1    3    3    0  502 -0.86388496692E+03 -0.47408726773E+03  0.75204140976E+03  0.12396063361E+04  0.12699999809E+01 0.  1.
</event>
<event>
 5   0  0.1070988E-07  0.3757634E+04  0.7818609E-02  0.8055308E-01
        1   -1    0    0  501    0  0.00000000000E+00  0.00000000000E+00  0.20099537749E+04  0.20099537749E+04  0.50400001928E-02 0.  1.
       -1   -1    0    0    0  501  0.00000000000E+00  0.00000000000E+00 -0.17562358876E+04  0.17562358876E+04  0.50400001928E-02 0. -1.
    10030    2    1    2    0    0  0.00000000000E+00  0.00000000000E+00  0.25371788722E+03  0.37661896625E+04  0.37576338044E+04 0.  0.
        3    1    3    3  502    0 -0.14792840594E+03 -0.16510144320E+04  0.10133055871E+04  0.19428123149E+04  0.10100000352E+00 0.  1.
       -3    1    3    3    0  502  0.14792840594E+03  0.16510144320E+04 -0.75958769985E+03  0.18233773476E+04  0.10100000352E+00 0. -1.
</event>
<event>
 5   0  0.3539010E-07  0.3308922E+04  0.7818609E-02  0.8160629E-01
        2   -1    0    0  501    0  0.00000000000E+00  0.00000000000E+00  0.13442694862E+04  0.13442694862E+04  0.25500000920E-02 0. -1.
       -2   -1    0    0    0  501  0.00000000000E+00  0.00000000000E+00 -0.20362294988E+04  0.20362294988E+04  0.25500000920E-02 0.  1.
    10030    2    1    2    0    0  0.00000000000E+00  0.00000000000E+00 -0.69196001268E+03  0.33804989850E+04  0.33089219889E+04 0.  0.
        1    1    3    3  502    0  0.25729361684E+03 -0.10194847867E+04 -0.16509885848E+04  0.19573738894E+04  0.50400001928E-02 0.  1.
       -1    1    3    3    0  502 -0.25729361684E+03  0.10194847867E+04  0.95902857214E+03  0.14231250956E+04  0.50400001928E-02 0. -1.
</event>
<event>
 5   0  0.1070988E-07  0.3752831E+04  0.7818609E-02  0.8056354E-01
       -1   -1    0    0    0  501  0.00000000000E+00  0.00000000000E+00  0.14557007787E+04  0.14557007787E+04  0.50400001928E-02 0. -1.
        1   -1    0    0  501    0  0.00000000000E+00  0.00000000000E+00 -0.24187220582E+04  0.24187220582E+04  0.50400001928E-02 0.  1.
    10030    2    1    2    0    0  0.00000000000E+00  0.00000000000E+00 -0.96302127949E+03  0.38744228369E+04  0.37528312424E+04 0.  0.
        2    1    3    3  502    0 -0.99804756030E+03  0.44410585354E+03  0.10935699309E+04  0.15457115305E+04  0.25500000920E-02 0. -1.
       -2    1    3    3    0  502  0.99804756030E+03 -0.44410585354E+03 -0.20565912104E+04  0.23287113064E+04  0.25500000920E-02 0.  1.
</event>
<event>
 5   0  0.3442126E-07  0.3827349E+04  0.7818609E-02  0.8040311E-01
        2   -1    0    0  501    0  0.00000000000E+00  0.00000000000E+00  0.19582384967E+04  0.19582384967E+04  0.25500000920E-02 0.  1.
       -2   -1    0    0    0  501  0.00000000000E+00  0.00000000000E+00 -0.18701243298E+04  0.18701243298E+04  0.25500000920E-02 0. -1.
    10030    2    1    2    0    0  0.00000000000E+00  0.00000000000E+00  0.88114166901E+02  0.38283628265E+04  0.38273486678E+04 0.  0.
        2    1    3    3  502    0  0.84945669759E+03 -0.30114240724E+03  0.17326649519E+04  0.19530466625E+04  0.25500000920E-02 0.  1.
       -2    1    3    3    0  502 -0.84945669759E+03  0.30114240724E+03 -0.16445507850E+04  0.18753161640E+04  0.25500000920E-02 0. -1.
</event>
<event>
 5   0  0.1084315E-07  0.3824231E+04  0.7818609E-02  0.8040975E-01
       -1   -1    0    0    0  501  0.00000000000E+00  0.00000000000E+00  0.17116725763E+04  0.17116725763E+04  0.50400001928E-02 0. -1.
        1   -1    0    0  501    0  0.00000000000E+00  0.00000000000E+00 -0.21360311033E+04  0.21360311033E+04  0.50400001928E-02 0.  1.
    10030    2    1    2    0    0  0.00000000000E+00  0.00000000000E+00 -0.42435852698E+03  0.38477036796E+04  0.38242310922E+04 0.  0.
        4    1    3    3  502    0 -0.56512313860E+03 -0.16471503916E+04  0.58242486945E+03  0.18362159230E+04  0.12699999809E+01 0. -1.
       -4    1    3    3    0  502  0.56512313860E+03  0.16471503916E+04 -0.10067833964E+04  0.20114877565E+04  0.12699999809E+01 0.  1.
</event>
<event>
 5   0  0.3377396E-07  0.3751809E+04  0.7818609E-02  0.8056576E-01
        2   -1    0    0  501    0  0.00000000000E+00  0.00000000000E+00  0.24821606699E+04  0.24821606699E+04  0.25500000920E-02 0.  1.
       -2   -1    0    0    0  501  0.00000000000E+00  0.00000000000E+00 -0.14177239256E+04  0.14177239256E+04  0.25500000920E-02 0. -1.
    10030    2    1    2    0    0  0.00000000000E+00  0.00000000000E+00  0.10644367443E+04  0.38998845955E+04  0.37518094669E+04 0.  0.
        5    1    3    3  502    0  0.16305455079E+04  0.87384760879E+03  0.20896535220E+03  0.18617134326E+04  0.46999998093E+01 0. -1.
       -5    1    3    3    0  502 -0.16305455079E+04 -0.87384760879E+03  0.85547139206E+03  0.20381711629E+04  0.46999998093E+01 0.  1.
</event>
<event>
 5   0  0.1085771E-07  0.3779852E+04  0.7818609E-02  0.8050492E-01
       -1   -1    0    0    0  501  0.00000000000E+00  0.00000000000E+00  0.24192517093E+04  0.24192517093E+04  0.50400001928E-02 0. -1.
        1   -1    0    0  501    0  0.00000000000E+00  0.00000000000E+00 -0.14764156708E+04  0.14764156708E+04  0.50400001928E-02 0.  1.
    10030    2    1    2    0    0  0.00000000000E+00  0.00000000000E+00  0.94283603847E+03  0.38956673801E+04  0.37798524497E+04 0.  0.
        1    1    3    3  502    0 -0.62184149514E+03  0.45150554870E+03 -0.13081237606E+04  0.15171459649E+04  0.50400001928E-02 0.  1.
       -1    1    3    3    0  502  0.62184149514E+03 -0.45150554870E+03  0.22509597991E+04  0.23785214153E+04  0.50400001928E-02 0. -1.
</event>
<event>
 5   0  0.3539010E-07  0.3724337E+04  0.7818609E-02  0.8062590E-01
        2   -1    0    0  501    0  0.00000000000E+00  0.00000000000E+00  0.20214056116E+04  0.20214056116E+04  0.25500000920E-02 0. -1.
       -2   -1    0    0    0  501  0.00000000000E+00  0.00000000000E+00 -0.17154753367E+04  0.17154753367E+04  0.25500000920E-02 0.  1.
    10030    2    1    2    0    0  0.00000000000E+00  0.00000000000E+00  0.30593027488E+03  0.37368809483E+04  0.37243369731E+04 0.  0.
        1    1    3    3  502    0  0.87889069345E+03  0.10160984870E+04 -0.11408610133E+04  0.17625177553E+04  0.50400001928E-02 0.  1.
       -1    1    3    3    0  502 -0.87889069345E+03 -0.10160984870E+04  0.14467912882E+04  0.19743631930E+04  0.50400001928E-02 0. -1.
</event>
<event>
 5   0  0.1070988E-07  0.3831209E+04  0.7818609E-02  0.8039490E-01
       -1   -1    0    0    0  501  0.00000000000E+00  0.00000000000E+00  0.12806000218E+04  0.12806000218E+04  0.50400001928E-02 0.  1.
        1   -1    0    0  501    0  0.00000000000E+00  0.00000000000E+00 -0.28654859723E+04  0.28654859723E+04  0.50400001928E-02 0. -1.
    10030    2    1    2    0    0  0.00000000000E+00  0.00000000000E+00 -0.15848859505E+04  0.41460859941E+04  0.38312094166E+04 0.  0.
        2    1    3    3  502    0 -0.14701277279E+04 -0.11029364716E+04 -0.20786449126E+03  0.18495815861E+04  0.25500000920E-02 0.  1.
       -2    1    3    3    0  502  0.14701277279E+04  0.11029364716E+04 -0.13770214593E+04  0.22965044080E+04  0.25500000920E-02 0. -1.
</event>
<event>
 5   0  0.1070988E-07  0.3834368E+04  0.7818609E-02  0.8038820E-01
        1   -1    0    0  501    0  0.00000000000E+00  0.00000000000E+00  0.15403396980E+04  0.15403396980E+04  0.50400001928E-02 0. -1.
       -1   -1    0    0    0  501  0.00000000000E+00  0.00000000000E+00 -0.23862237171E+04  0.23862237172E+04  0.50400001928E-02 0.  1.
    10030    2    1    2    0    0  0.00000000000E+00  0.00000000000E+00 -0.84588401915E+03  0.39265634152E+04  0.38343683286E+04 0.  0.
        2    1    3    3  502    0  0.29023408261E+02 -0.96251782550E+03 -0.21206063239E+04  0.23290028132E+04  0.25500000920E-02 0.  1.
       -2    1    3    3    0  502 -0.29023408261E+02  0.96251782550E+03  0.12747223048E+04  0.15975606020E+04  0.25500000920E-02 0. -1.
</event>
<event>
 5   0  0.1070988E-07  0.3840199E+04  0.7818609E-02  0.8037583E-01
        1   -1    0    0  501    0  0.00000000000E+00  0.00000000000E+00  0.23972885967E+04  0.23972885968E+04  0.50400001928E-02 0.  1.
       -1   -1    0    0    0  501  0.00000000000E+00  0.00000000000E+00 -0.15378963299E+04  0.15378963299E+04  0.50400001928E-02 0. -1.
    10030    2    1    2    0    0  0.00000000000E+00  0.00000000000E+00  0.85939226689E+03  0.39351849266E+04  0.38401986066E+04 0.  0.
        5    1    3    3  502    0  0.39384439676E+03 -0.60670781882E+03 -0.13929355348E+04  0.15695538475E+04  0.46999998093E+01 0. -1.
       -5    1    3    3    0  502 -0.39384439676E+03  0.60670781882E+03  0.22523278017E+04  0.23656310791E+04  0.46999998093E+01 0.  1.
</event>
<event>
 5   0  0.1070988E-07  0.3586433E+04  0.7818609E-02  0.8093606E-01
        1   -1    0    0  501    0  0.00000000000E+00  0.00000000000E+00  0.18186449256E+04  0.18186449256E+04  0.50400001928E-02 0.  1.
       -1   -1    0    0    0  501  0.00000000000E+00  0.00000000000E+00 -0.17681440325E+04  0.17681440326E+04  0.50400001928E-02 0. -1.
    10030    2    1    2    0    0  0.00000000000E+00  0.00000000000E+00  0.50500893084E+02  0.35867889582E+04  0.35864334220E+04 0.  0.
        5    1    3    3  502    0 -0.10208668474E+04  0.12585278820E+04 -0.74264240102E+03  0.17825827823E+04  0.46999998093E+01 0. -1.
       -5    1    3    3    0  502  0.10208668474E+04 -0.12585278820E+04  0.79314329411E+03  0.18042061759E+04  0.46999998093E+01 0.  1.
</event>
<event>
 5   0  0.1084315E-07  0.3754583E+04  0.7818609E-02  0.8055972E-01
       -1   -1    0    0    0  501  0.00000000000E+00  0.00000000000E+00  0.13930361929E+04  0.13930361929E+04  0.50400001928E-02 0. -1.
        1   -1    0    0  501    0  0.00000000000E+00  0.00000000000E+00 -0.25298859821E+04  0.25298859821E+04  0.50400001928E-02 0.  1.
    10030    2    1    2    0    0  0.00000000000E+00  0.00000000000E+00 -0.11368497892E+04  0.39229221750E+04  0.37545826596E+04 0.  0.
        4    1    3    3  502    0  0.40328286977E+03  0.89122337022E+03 -0.22425455390E+04  0.24466156781E+04  0.12699999809E+01 0.  1.
       -4    1    3    3    0  502 -0.40328286977E+03 -0.89122337022E+03  0.11056957499E+04  0.14763064969E+04  0.12699999809E+01 0. -1.
</event>
<event>
 5   0  0.3509843E-07  0.3848897E+04  0.7818609E-02  0.8035742E-01
       -2   -1    0    0    0  501  0.00000000000E+00  0.00000000000E+00  0.17427679501E+04  0.17427679501E+04  0.25500000920E-02 0.  1.
        2   -1    0    0  501    0  0.00000000000E+00  0.00000000000E+00 -0.21250683943E+04  0.21250683943E+04  0.25500000920E-02 0. -1.
    10030    2    1    2    0    0  0.00000000000E+00  0.00000000000E+00 -0.38230044429E+03  0.38678363444E+04  0.38488965116E+04 0.  0.
        4    1    3    3  502    0  0.12587007862E+04  0.10453991228E+04 -0.12092062066E+04  0.20345437469E+04  0.12699999809E+01 0. -1.
       -4    1    3    3    0  502 -0.12587007862E+04 -0.10453991228E+04  0.82690576236E+03  0.18332925975E+04  0.12699999809E+01 0.  1.
</event>
<event>
 5   0  0.3539010E-07  0.3791522E+04  0.7818609E-02  0.8047977E-01
        2   -1    0    0  501    0  0.00000000000E+00  0.00000000000E+00  0.24415828217E+04  0.24415828217E+04  0.25500000920E-02 0. -1.
       -2   -1    0    0    0  501  0.00000000000E+00  0.00000000000E+00 -0.14719588232E+04  0.14719588232E+04  0.25500000920E-02 0.  1.
    10030    2    1    2    0    0  0.00000000000E+00  0.00000000000E+00  0.96962399848E+03  0.39135416449E+04  0.37915217932E+04 0.  0.
        1    1    3    3  502    0 -0.32867127503E+03 -0.15682450557E+04  0.15305772115E+04  0.22158709263E+04  0.50400001928E-02 0. -1.
       -1    1    3    3    0  502  0.32867127503E+03  0.15682450557E+04 -0.56095321300E+03  0.16976707186E+04  0.50400001928E-02 0.  1.
</event>
<event>
 5   0  0.3377396E-07  0.3795774E+04  0.7818609E-02  0.8047062E-01
        2   -1    0    0  501    0  0.00000000000E+00  0.00000000000E+00  0.28915622276E+04  0.28915622276E+04  0.25500000920E-02 0. -1.
       -2   -1    0    0    0  501  0.00000000000E+00  0.00000000000E+00 -0.12456849477E+04  0.12456849477E+04  0.25500000920E-02 0.  1.
    10030    2    1    2    0    0  0.00000000000E+00  0.00000000000E+00  0.16458772799E+04  0.41372471753E+04  0.37957742516E+04 0.  0.
        5    1    3    3  502    0  0.10664049071E+04 -0.38449322794E+02  0.25336070624E+04  0.27491607107E+04  0.46999998093E+01 0. -1.
       -5    1    3    3    0  502 -0.10664049071E+04  0.38449322794E+02 -0.88772978256E+03  0.13880864646E+04  0.46999998093E+01 0.  1.
</event>
<event>
 5   0  0.3442126E-07  0.3812435E+04  0.7818609E-02  0.8043492E-01
       -2   -1    0    0    0  501  0.00000000000E+00  0.00000000000E+00  0.26681186149E+04  0.26681186149E+04  0.25500000920E-02 0.  1.
        2   -1    0    0  501    0  0.00000000000E+00  0.00000000000E+00 -0.13618826356E+04  0.13618826356E+04  0.25500000920E-02 0. -1.
    10030    2    1    2    0    0  0.00000000000E+00  0.00000000000E+00  0.13062359793E+04  0.40300012506E+04  0.38124346087E+04 0.  0.
        2    1    3    3  502    0 -0.17905488560E+04  0.55182053809E+03  0.28224945843E+03  0.18947917745E+04  0.25500000920E-02 0. -1.
       -2    1    3    3    0  502  0.17905488560E+04 -0.55182053809E+03  0.10239865209E+04  0.21352094761E+04  0.25500000920E-02 0.  1.
</event>
<event>
 5   0  0.1070988E-07  0.3833251E+04  0.7818609E-02  0.8039057E-01
        1   -1    0    0  501    0  0.00000000000E+00  0.00000000000E+00  0.13312504906E+04  0.13312504906E+04  0.50400001928E-02 0.  1.
       -1   -1    0    0    0  501  0.00000000000E+00  0.00000000000E+00 -0.27594001828E+04  0.27594001828E+04  0.50400001928E-02 0. -1.
    10030    2    1    2    0    0  0.00000000000E+00  0.00000000000E+00 -0.14281496922E+04  0.40906506735E+04  0.38332507600E+04 0.  0.
        2    1    3    3  502    0 -0.14913597637E+04  0.10287304456E+04 -0.46775768513E+02  0.18123543381E+04  0.25500000920E-02 0.  1.
       -2    1    3    3    0  502  0.14913597637E+04 -0.10287304456E+04 -0.13813739237E+04  0.22782963353E+04  0.25500000920E-02 0. -1.
</event>
<event>
 5   0  0.1085771E-07  0.3837447E+04  0.7818609E-02  0.8038166E-01
       -1   -1    0    0    0  501  0.00000000000E+00  0.00000000000E+00  0.16621183181E+04  0.16621183181E+04  0.50400001928E-02 0.  1.
        1   -1    0    0  501    0  0.00000000000E+00  0.00000000000E+00 -0.22149449449E+04  0.22149449449E+04  0.50400001928E-02 0. -1.
    10030    2    1    2    0    0  0.00000000000E+00  0.00000000000E+00 -0.55282662676E+03  0.38770632630E+04  0.38374473633E+04 0.  0.
        1    1    3    3  502    0 -0.43324419213E+03  0.13322431107E+04  0.10482006865E+04  0.17496562277E+04  0.50400001928E-02 0.  1.
       -1    1    3    3    0  502  0.43324419213E+03 -0.13322431107E+04 -0.16010273132E+04  0.21274070353E+04  0.50400001928E-02 0. -1.
</event>
<event>
 5   0  0.3377396E-07  0.3820637E+04  0.7818609E-02  0.8041741E-01
       -2   -1    0    0    0  501  0.00000000000E+00  0.00000000000E+00  0.18758347000E+04  0.18758347000E+04  0.25500000920E-02 0.  1.
        2   -1    0    0  501    0  0.00000000000E+00  0.00000000000E+00 -0.19454359441E+04  0.19454359441E+04  0.25500000920E-02 0. -1.
    10030    2    1    2    0    0  0.00000000000E+00  0.00000000000E+00 -0.69601244019E+02  0.38212706441E+04  0.38206367273E+04 0.  0.
        5    1    3    3  502    0  0.51175699604E+03  0.28729388233E+03 -0.18530299621E+04  0.19437528465E+04  0.46999998093E+01 0. -1.
       -5    1    3    3    0  502 -0.51175699604E+03 -0.28729388233E+03  0.17834287181E+04  0.18775177976E+04  0.46999998093E+01 0.  1.
</event>
<event>
 5   0  0.3539010E-07  0.3762202E+04  0.7818609E-02  0.8054315E-01
       -2   -1    0    0    0  501  0.00000000000E+00  0.00000000000E+00  0.17076055327E+04  0.17076055327E+04  0.25500000920E-02 0. -1.
        2   -1    0    0  501    0  0.00000000000E+00  0.00000000000E+00 -0.20722243611E+04  0.20722243611E+04  0.25500000920E-02 0.  1.
    10030    2    1    2    0    0  0.00000000000E+00  0.00000000000E+00 -0.36461882831E+03  0.37798298938E+04  0.37622024316E+04 0.  0.
        1    1    3    3  502    0  0.92533639042E+03 -0.10820120093E+04 -0.14175186898E+04  0.20090686050E+04  0.50400001928E-02 0.  1.
       -1    1    3    3    0  502 -0.92533639042E+03  0.10820120093E+04  0.10528998615E+04  0.17707612888E+04  0.50400001928E-02 0. -1.
</event>
<event>
 5   0  0.1070988E-07  0.3839216E+04  0.7818609E-02  0.8037791E-01
       -3   -1    0    0    0  501  0.00000000000E+00  0.00000000000E+00  0.22568258384E+04  0.22568258407E+04  0.10100000352E+00 0. -1.
        3   -1    0    0  501    0  0.00000000000E+00  0.00000000000E+00 -0.16327776544E+04  0.16327776575E+04  0.10100000352E+00 0.  1.
    10030    2    1    2    0    0  0.00000000000E+00  0.00000000000E+00  0.62404818401E+03  0.38896034982E+04  0.38392159665E+04 0.  0.
        3    1    3    3  502    0  0.19106365773E+03 -0.12965413689E+04  0.17330624683E+04  0.21727932188E+04  0.10100000352E+00 0. -1.
       -3    1    3    3    0  502 -0.19106365773E+03  0.12965413689E+04 -0.11090142843E+04  0.17168102794E+04  0.10100000352E+00 0.  1.
</event>
<event>
 5   0  0.1070988E-07  0.3650581E+04  0.7818609E-02  0.8079003E-01
       -1   -1    0    0    0  501  0.00000000000E+00  0.00000000000E+00  0.12297572586E+04  0.12297572586E+04  0.50400001928E-02 0.  1.
        1   -1    0    0  501    0  0.00000000000E+00  0.00000000000E+00 -0.27092221362E+04  0.27092221362E+04  0.50400001928E-02 0. -1.
    10030    2    1    2    0    0  0.00000000000E+00  0.00000000000E+00 -0.14794648776E+04  0.39389793948E+04  0.36505810974E+04 0.  0.
        3    1    3    3  502    0  0.72813796022E+03 -0.79488276027E+03 -0.23290758951E+04  0.25664407313E+04  0.10100000352E+00 0. -1.
       -3    1    3    3    0  502 -0.72813796022E+03  0.79488276027E+03  0.84961101753E+03  0.13725386636E+04  0.10100000352E+00 0.  1.
</event>
<event>
 5   0  0.3377396E-07  0.3790447E+04  0.7818609E-02  0.8048208E-01
        2   -1    0    0  501    0  0.00000000000E+00  0.00000000000E+00  0.20874178997E+04  0.20874178997E+04  0.25500000920E-02 0.  1.
       -2   -1    0    0    0  501  0.00000000000E+00  0.00000000000E+00 -0.17207248904E+04  0.17207248904E+04  0.25500000920E-02 0. -1.
    10030    2    1    2    0    0  0.00000000000E+00  0.00000000000E+00  0.36669300929E+03  0.38081427901E+04  0.37904469059E+04 0.  0.
        5    1    3    3  502    0  0.11438832686E+04 -0.66261307098E+03  0.15477458851E+04  0.20354518979E+04  0.46999998093E+01 0.  1.
       -5    1    3    3    0  502 -0.11438832686E+04  0.66261307098E+03 -0.11810528758E+04  0.17726908922E+04  0.46999998093E+01 0. -1.
</event>
<event>
 5   0  0.1070988E-07  0.3494365E+04  0.7818609E-02  0.8115127E-01
        1   -1    0    0  501    0  0.00000000000E+00  0.00000000000E+00  0.24526341435E+04  0.24526341435E+04  0.50400001928E-02 0. -1.
       -1   -1    0    0    0  501  0.00000000000E+00  0.00000000000E+00 -0.12446402815E+04  0.12446402816E+04  0.50400001928E-02 0.  1.
    10030    2    1    2    0    0  0.00000000000E+00  0.00000000000E+00  0.12079938619E+04  0.36972744250E+04  0.34943653220E+04 0.  0.
        3    1    3    3  502    0 -0.13276183614E+04  0.90336543435E+03 -0.12446362546E+03  0.16106305677E+04  0.10100000352E+00 0.  1.
       -3    1    3    3    0  502  0.13276183614E+04 -0.90336543435E+03  0.13324574874E+04  0.20866438573E+04  0.10100000352E+00 0. -1.
</event>
<event>
 5   0  0.3377396E-07  0.3792108E+04  0.7818609E-02  0.8047851E-01
        2   -1    0    0  501    0  0.00000000000E+00  0.00000000000E+00  0.23073044450E+04  0.23073044450E+04  0.25500000920E-02 0. -1.
       -2   -1    0    0    0  501  0.00000000000E+00  0.00000000000E+00 -0.15581040982E+04  0.15581040982E+04  0.25500000920E-02 0.  1.
    10030    2    1    2    0    0  0.00000000000E+00  0.00000000000E+00  0.74920034678E+03  0.38654085432E+04  0.37921078632E+04 0.  0.
        5    1    3    3  502    0  0.10650317543E+04  0.49318264185E+03 -0.11433036310E+04  0.16385014612E+04  0.46999998093E+01 0.  1.
       -5    1    3    3    0  502 -0.10650317543E+04 -0.49318264185E+03  0.18925039778E+04  0.22269070820E+04  0.46999998093E+01 0. -1.
</event>
<event>
 5   0  0.1070988E-07  0.3876740E+04  0.7818609E-02  0.8029884E-01
       -1   -1    0    0    0  501  0.00000000000E+00  0.00000000000E+00  0.15461113541E+04  0.15461113541E+04  0.50400001928E-02 0.  1.
        1   -1    0    0  501    0  0.00000000000E+00  0.00000000000E+00 -0.24301468928E+04  0.24301468928E+04  0.50400001928E-02 0. -1.
    10030    2    1    2    0    0  0.00000000000E+00  0.00000000000E+00 -0.88403553877E+03  0.39762582469E+04  0.38767397143E+04 0.  0.
        2    1    3    3  502    0  0.10606759704E+04 -0.16222624046E+04 -0.46515521599E+03  0.19932732373E+04  0.25500000920E-02 0. -1.
       -2    1    3    3    0  502 -0.10606759704E+04  0.16222624046E+04 -0.41888032278E+03  0.19829850096E+04  0.25500000920E-02 0.  1.
</event>
<event>
 5   0  0.3539010E-07  0.3566185E+04  0.7818609E-02  0.8098282E-01
       -2   -1    0    0    0  501  0.00000000000E+00  0.00000000000E+00  0.23960527961E+04  0.23960527961E+04  0.25500000920E-02 0. -1.
        2   -1    0    0  501    0  0.00000000000E+00  0.00000000000E+00 -0.13269402560E+04  0.13269402560E+04  0.25500000920E-02 0.  1.
    10030    2    1    2    0    0  0.00000000000E+00  0.00000000000E+00  0.10691125401E+04  0.37229930521E+04  0.35661850264E+04 0.  0.
        1    1    3    3  502    0  0.88389046609E+03  0.14543585478E+04 -0.20810460285E+02  0.17020147523E+04  0.50400001928E-02 0.  1.
       -1    1    3    3    0  502 -0.88389046609E+03 -0.14543585478E+04  0.10899230004E+04  0.20209782998E+04  0.50400001928E-02 0. -1.
</event>
<event>
 5   0  0.1070988E-07  0.3921317E+04  0.7818609E-02  0.8020610E-01
        1   -1    0    0  501    0  0.00000000000E+00  0.00000000000E+00  0.28849559422E+04  0.28849559423E+04  0.50400001928E-02 0. -1.
       -1   -1    0    0    0  501  0.00000000000E+00  0.00000000000E+00 -0.13324926216E+04  0.13324926216E+04  0.50400001928E-02 0.  1.
    10030    2    1    2    0    0  0.00000000000E+00  0.00000000000E+00  0.15524633206E+04  0.42174485639E+04  0.39213173841E+04 0.  0.
        2    1    3    3  502    0 -0.17141657067E+04  0.80909385680E+03  0.13152643965E+04  0.23071448528E+04  0.25500000920E-02 0. -1.
       -2    1    3    3    0  502  0.17141657067E+04 -0.80909385680E+03  0.23719892415E+03  0.19103037111E+04  0.25500000920E-02 0.  1.
</event>
<event>
 5   0  0.3509843E-07  0.3795087E+04  0.7818609E-02  0.8047210E-01
       -2   -1    0    0    0  501  0.00000000000E+00  0.00000000000E+00  0.15315549385E+04  0.15315549385E+04  0.25500000920E-02 0.  1.
        2   -1    0    0  501    0  0.00000000000E+00  0.00000000000E+00 -0.23509906607E+04  0.23509906607E+04  0.25500000920E-02 0. -1.
    10030    2    1    2    0    0  0.00000000000E+00  0.00000000000E+00 -0.81943572224E+03  0.38825455992E+04  0.37950870118E+04 0.  0.
        4    1    3    3  502    0 -0.16563666018E+04 -0.13769991349E+03  0.52689003692E+03  0.17435957988E+04  0.12699999809E+01 0. -1.
       -4    1    3    3    0  502  0.16563666018E+04  0.13769991349E+03 -0.13463257592E+04  0.21389498004E+04  0.12699999809E+01 0.  1.
</event>
<event>
 5   0  0.1084315E-07  0.3849210E+04  0.7818609E-02  0.8035676E-01
        1   -1    0    0  501    0  0.00000000000E+00  0.00000000000E+00  0.18513451656E+04  0.18513451656E+04  0.50400001928E-02 0. -1.
       -1   -1    0    0    0  501  0.00000000000E+00  0.00000000000E+00 -0.20007642110E+04  0.20007642111E+04  0.50400001928E-02 0.  1.
    10030    2    1    2    0    0  0.00000000000E+00  0.00000000000E+00 -0.14941904544E+03  0.38521093767E+04  0.38492103864E+04 0.  0.
        4    1    3    3  502    0  0.13300731516E+04 -0.36144334300E+03 -0.14189887201E+04  0.19781977857E+04  0.12699999809E+01 0.  1.
       -4    1    3    3    0  502 -0.13300731516E+04  0.36144334300E+03  0.12695696747E+04  0.18739115909E+04  0.12699999809E+01 0. -1.
</event>
<event>
 5   0  0.1070988E-07  0.3800096E+04  0.7818609E-02  0.8046134E-01
        1   -1    0    0  501    0  0.00000000000E+00  0.00000000000E+00  0.24734187899E+04  0.24734187899E+04  0.50400001928E-02 0. -1.
       -1   -1    0    0    0  501  0.00000000000E+00  0.00000000000E+00 -0.14595922954E+04  0.14595922954E+04  0.50400001928E-02 0.  1.
    10030    2    1    2    0    0  0.00000000000E+00  0.00000000000E+00  0.10138264945E+04  0.39330110853E+04  0.38000963193E+04 0.  0.
        2    1    3    3  502    0  0.14236453185E+04  0.12530214498E+04  0.62651581942E+03  0.19973359303E+04  0.25500000920E-02 0.  1.
       -2    1    3    3    0  502 -0.14236453185E+04 -0.12530214498E+04  0.38731067513E+03  0.19356751550E+04  0.25500000920E-02 0. -1.
</event>
<event>
 5   0  0.1070988E-07  0.3801760E+04  0.7818609E-02  0.8045777E-01
       -1   -1    0    0    0  501  0.00000000000E+00  0.00000000000E+00  0.12027793984E+04  0.12027793984E+04  0.50400001928E-02 0. -1.
        1   -1    0    0  501    0  0.00000000000E+00  0.00000000000E+00 -0.30041631473E+04  0.30041631473E+04  0.50400001928E-02 0.  1.
    10030    2    1    2    0    0  0.00000000000E+00  0.00000000000E+00 -0.18013837489E+04  0.42069425457E+04  0.38017604044E+04 0.  0.
        5    1    3    3  502    0  0.11895135594E+04  0.26353446032E+03 -0.25152830818E+04  0.27948280790E+04  0.46999998093E+01 0.  1.
       -5    1    3    3    0  502 -0.11895135594E+04 -0.26353446032E+03  0.71389933289E+03  0.14121144667E+04  0.46999998093E+01 0. -1.
</event>
<event>
 5   0  0.1070988E-07  0.3813126E+04  0.7818609E-02  0.8043344E-01
        1   -1    0    0  501    0  0.00000000000E+00  0.00000000000E+00  0.15679675227E+04  0.15679675227E+04  0.50400001928E-02 0. -1.
       -1   -1    0    0    0  501  0.00000000000E+00  0.00000000000E+00 -0.23182767654E+04  0.23182767655E+04  0.50400001928E-02 0.  1.
    10030    2    1    2    0    0  0.00000000000E+00  0.00000000000E+00 -0.75030924272E+03  0.38862442882E+04  0.38131261070E+04 0.  0.
        2    1    3    3  502    0 -0.12298354208E+04 -0.11825442397E+04 -0.12423984046E+04  0.21105591290E+04  0.25500000920E-02 0.  1.
       -2    1    3    3    0  502  0.12298354208E+04  0.11825442397E+04  0.49208916190E+03  0.17756851592E+04  0.25500000920E-02 0. -1.
</event>
<event>
 5   0  0.1070988E-07  0.3719139E+04  0.7818609E-02  0.8063734E-01
       -1   -1    0    0    0  501  0.00000000000E+00  0.00000000000E+00  0.23545457403E+04  0.23545457403E+04  0.50400001928E-02 0. -1.
        1   -1    0    0  501    0  0.00000000000E+00  0.00000000000E+00 -0.14686481332E+04  0.14686481332E+04  0.50400001928E-02 0.  1.
    10030    2    1    2    0    0  0.00000000000E+00  0.00000000000E+00  0.88589760705E+03  0.38231938735E+04  0.37191392585E+04 0.  0.
        3    1    3    3  502    0 -0.56071118556E+03 -0.14133967891E+04  0.15433712843E+04  0.21665831275E+04  0.10100000352E+00 0. -1.
       -3    1    3    3    0  502  0.56071118556E+03  0.14133967891E+04 -0.65747367726E+03  0.16566107459E+04  0.10100000352E+00 0.  1.
</event>
<event>
 5   0  0.1070988E-07  0.3819799E+04  0.7818609E-02  0.8041919E-01
        1   -1    0    0  501    0  0.00000000000E+00  0.00000000000E+00  0.23911454989E+04  0.23911454990E+04  0.50400001928E-02 0. -1.
       -1   -1    0    0    0  501  0.00000000000E+00  0.00000000000E+00 -0.15255097440E+04  0.15255097440E+04  0.50400001928E-02 0.  1.
    10030    2    1    2    0    0  0.00000000000E+00  0.00000000000E+00  0.86563575491E+03  0.39166552430E+04  0.38197988209E+04 0.  0.
        5    1    3    3  502    0  0.17294699375E+04 -0.78871217070E+03  0.24219941645E+03  0.19161982675E+04  0.46999998093E+01 0.  1.
       -5    1    3    3    0  502 -0.17294699375E+04  0.78871217070E+03  0.62343633846E+03  0.20004569755E+04  0.46999998093E+01 0. -1.
</event>
<event>
 5   0  0.1070988E-07  0.3354845E+04  0.7818609E-02  0.8149079E-01
        1   -1    0    0  501    0  0.00000000000E+00  0.00000000000E+00  0.20612347785E+04  0.20612347785E+04  0.50400001928E-02 0.  1.
       -1   -1    0    0    0  501  0.00000000000E+00  0.00000000000E+00 -0.13650779517E+04  0.13650779517E+04  0.50400001928E-02 0. -1.
    10030    2    1    2    0    0  0.00000000000E+00  0.00000000000E+00  0.69615682685E+03  0.34263127302E+04  0.33548449439E+04 0.  0.
        5    1    3    3  502    0  0.50253048617E+03 -0.51692857785E+03  0.18949298504E+04  0.20274450109E+04  0.46999998093E+01 0.  1.
       -5    1    3    3    0  502 -0.50253048617E+03  0.51692857785E+03 -0.11987730236E+04  0.13988677193E+04  0.46999998093E+01 0. -1.
</event>
<event>
 5   0  0.1070988E-07  0.3789093E+04  0.7818609E-02  0.8048500E-01
        1   -1    0    0  501    0  0.00000000000E+00  0.00000000000E+00  0.24154354314E+04  0.24154354314E+04  0.50400001928E-02 0. -1.
       -1   -1    0    0    0  501  0.00000000000E+00  0.00000000000E+00 -0.14859872681E+04  0.14859872681E+04  0.50400001928E-02 0.  1.
    10030    2    1    2    0    0  0.00000000000E+00  0.00000000000E+00  0.92944816330E+03  0.39014226995E+04  0.37890929247E+04 0.  0.
        5    1    3    3  502    0 -0.15104407998E+04  0.11366631770E+04  0.59435159258E+03  0.19815929181E+04  0.46999998093E+01 0.  1.
       -5    1    3    3    0  502  0.15104407998E+04 -0.11366631770E+04  0.33509657072E+03  0.19198297813E+04  0.46999998093E+01 0. -1.
</event>
<event>
 5   0  0.3509843E-07  0.3666008E+04  0.7818609E-02  0.8075537E-01
       -2   -1    0    0    0  501  0.00000000000E+00  0.00000000000E+00  0.13028979790E+04  0.13028979790E+04  0.25500000920E-02 0.  1.
        2   -1    0    0  501    0  0.00000000000E+00  0.00000000000E+00 -0.25787926226E+04  0.25787926226E+04  0.25500000920E-02 0. -1.
    10030    2    1    2    0    0  0.00000000000E+00  0.00000000000E+00 -0.12758946436E+04  0.38816906016E+04  0.36660080175E+04 0.  0.
        4    1    3    3  502    0 -0.85398335265E+03  0.26259631165E+03 -0.23326286855E+04  0.24978796182E+04  0.12699999809E+01 0. -1.
       -4    1    3    3    0  502  0.85398335265E+03 -0.26259631165E+03  0.10567340419E+04  0.13838109834E+04  0.12699999809E+01 0.  1.
</event>
<event>
 5   0  0.1084315E-07  0.3835966E+04  0.7818609E-02  0.8038480E-01
        1   -1    0    0  501    0  0.00000000000E+00  0.00000000000E+00  0.19146371679E+04  0.19146371679E+04  0.50400001928E-02 0.  1.
       -1   -1    0    0    0  501  0.00000000000E+00  0.00000000000E+00 -0.19213348283E+04  0.19213348283E+04  0.50400001928E-02 0. -1.
    10030    2    1    2    0    0  0.00000000000E+00  0.00000000000E+00 -0.66976603682E+01  0.38359719962E+04  0.38359661491E+04 0.  0.
        4    1    3    3  502    0  0.14126875639E+04  0.12850108887E+04  0.17474783071E+03  0.19176750388E+04  0.12699999809E+01 0.  1.
       -4    1    3    3    0  502 -0.14126875639E+04 -0.12850108887E+04 -0.18144549108E+03  0.19182969573E+04  0.12699999809E+01 0. -1.
</event>
<event>
 5   0  0.3327241E-07  0.3811328E+04  0.7818609E-02  0.8043728E-01
       -2   -1    0    0    0  501  0.00000000000E+00  0.00000000000E+00  0.14224875185E+04  0.14224875185E+04  0.25500000920E-02 0.  1.
        2   -1    0    0  501    0  0.00000000000E+00  0.00000000000E+00 -0.25529608950E+04  0.25529608950E+04  0.25500000920E-02 0. -1.
    10030    2    1    2    0    0  0.00000000000E+00  0.00000000000E+00 -0.11304733765E+04  0.39754484136E+04  0.38113278571E+04 0.  0.
        3    1    3    3  502    0  0.76915606050E+02 -0.16891863104E+04  0.35140504123E+03  0.17270645369E+04  0.10100000352E+00 0.  1.
       -3    1    3    3    0  502 -0.76915606050E+02  0.16891863104E+04 -0.14818784177E+04  0.22483838766E+04  0.10100000352E+00 0. -1.
</event>
<event>
 5   0  0.3539010E-07  0.3773272E+04  0.7818609E-02  0.8051915E-01
        2   -1    0    0  501    0  0.00000000000E+00  0.00000000000E+00  0.25149828026E+04  0.25149828026E+04  0.25500000920E-02 0.  1.
       -2   -1    0    0    0  501  0.00000000000E+00  0.00000000000E+00 -0.14152763754E+04  0.14152763754E+04  0.25500000920E-02 0. -1.
    10030    2    1    2    0    0  0.00000000000E+00  0.00000000000E+00  0.10997064272E+04  0.39302591780E+04  0.37732721847E+04 0.  0.
        1    1    3    3  502    0 -0.21418894056E+03 -0.13026529648E+04  0.19537474669E+04  0.23579463127E+04  0.50400001928E-02 0.  1.
       -1    1    3    3    0  502  0.21418894056E+03  0.13026529648E+04 -0.85404103970E+03  0.15723128653E+04  0.50400001928E-02 0. -1.
</event>
<event>
 5   0  0.1084315E-07  0.3799290E+04  0.7818609E-02  0.8046307E-01
        1   -1    0    0  501    0  0.00000000000E+00  0.00000000000E+00  0.27147815309E+04  0.27147815309E+04  0.50400001928E-02 0.  1.
       -1   -1    0    0    0  501  0.00000000000E+00  0.00000000000E+00 -0.13292599207E+04  0.13292599207E+04  0.50400001928E-02 0. -1.
    10030    2    1    2    0    0  0.00000000000E+00  0.00000000000E+00  0.13855216102E+04  0.40440414517E+04  0.37992895560E+04 0.  0.
        4    1    3    3  502    0  0.11247858743E+04 -0.14944497950E+04  0.10459900014E+04  0.21430399317E+04  0.12699999809E+01 0.  1.
       -4    1    3    3    0  502 -0.11247858743E+04  0.14944497950E+04  0.33953160881E+03  0.19010015200E+04  0.12699999809E+01 0. -1.
</event>
<event>
 5   0  0.3539010E-07  0.3823048E+04  0.7818609E-02  0.8041227E-01
       -2   -1    0    0    0  501  0.00000000000E+00  0.00000000000E+00  0.16453182287E+04  0.16453182287E+04  0.25500000920E-02 0. -1.
        2   -1    0    0  501    0  0.00000000000E+00  0.00000000000E+00 -0.22208010710E+04  0.22208010710E+04  0.25500000920E-02 0.  1.
    10030    2    1    2    0    0  0.00000000000E+00  0.00000000000E+00 -0.57548284223E+03  0.38661192997E+04  0.38230482521E+04 0.  0.
        1    1    3    3  502    0 -0.10557141628E+04  0.10384616407E+04  0.93459012678E+03  0.17511121260E+04  0.50400001928E-02 0. -1.
       -1    1    3    3    0  502  0.10557141628E+04 -0.10384616407E+04 -0.15100729690E+04  0.21150071737E+04  0.50400001928E-02 0.  1.
</event>
<event>
 5   0  0.3327241E-07  0.3758622E+04  0.7818609E-02  0.8055093E-01
        2   -1    0    0  501    0  0.00000000000E+00  0.00000000000E+00  0.14639655113E+04  0.14639655113E+04  0.25500000920E-02 0.  1.
       -2   -1    0    0    0  501  0.00000000000E+00  0.00000000000E+00 -0.24124951465E+04  0.24124951465E+04  0.25500000920E-02 0. -1.
    10030    2    1    2    0    0  0.00000000000E+00  0.00000000000E+00 -0.94852963525E+03  0.38764606578E+04  0.37586219234E+04 0.  0.
        3    1    3    3  502    0 -0.42614401861E+03 -0.75650797955E+03  0.12446943497E+04  0.15176188857E+04  0.10100000352E+00 0.  1.
       -3    1    3    3    0  502  0.42614401861E+03  0.75650797955E+03 -0.21932239850E+04  0.23588417722E+04  0.10100000352E+00 0. -1.
</event>
<event>
 5   0  0.1070988E-07  0.3781845E+04  0.7818609E-02  0.8050062E-01
       -1   -1    0    0    0  501  0.00000000000E+00  0.00000000000E+00  0.14080901232E+04  0.14080901233E+04  0.50400001928E-02 0.  1.
        1   -1    0    0  501    0  0.00000000000E+00  0.00000000000E+00 -0.25393172809E+04  0.25393172809E+04  0.50400001928E-02 0. -1.
    10030    2    1    2    0    0  0.00000000000E+00  0.00000000000E+00 -0.11312271576E+04  0.39474074041E+04  0.37818448318E+04 0.  0.
        2    1    3    3  502    0  0.45142991345E+03  0.17918128043E+04 -0.14653239671E+03  0.18536056311E+04  0.25500000920E-02 0. -1.
       -2    1    3    3    0  502 -0.45142991345E+03 -0.17918128043E+04 -0.98469476091E+03  0.20938017730E+04  0.25500000920E-02 0.  1.
</event>
<event>
 5   0  0.3327241E-07  0.3734643E+04  0.7818609E-02  0.8060328E-01
       -2   -1    0    0    0  501  0.00000000000E+00  0.00000000000E+00  0.28398007972E+04  0.28398007972E+04  0.25500000920E-02 0.  1.
        2   -1    0    0  501    0  0.00000000000E+00  0.00000000000E+00 -0.12278642966E+04  0.12278642966E+04  0.25500000920E-02 0. -1.
    10030    2    1    2    0    0  0.00000000000E+00  0.00000000000E+00  0.16119365006E+04  0.40676650939E+04  0.37346432271E+04 0.  0.
        3    1    3    3  502    0 -0.14608736266E+04  0.12999045322E+03 -0.45288008242E+03  0.15349754559E+04  0.10100000352E+00 0. -1.
       -3    1    3    3    0  502  0.14608736266E+04 -0.12999045322E+03  0.20648165830E+04  0.25326896380E+04  0.10100000352E+00 0.  1.
</event>
<event>
 5   0  0.1085771E-07  0.3816576E+04  0.7818609E-02  0.8042607E-01
       -1   -1    0    0    0  501  0.00000000000E+00  0.00000000000E+00  0.21077877771E+04  0.21077877771E+04  0.50400001928E-02 0. -1.
        1   -1    0    0  501    0  0.00000000000E+00  0.00000000000E+00 -0.17276709346E+04  0.17276709346E+04  0.50400001928E-02 0.  1.
    10030    2    1    2    0    0  0.00000000000E+00  0.00000000000E+00  0.38011684251E+03  0.38354587117E+04  0.38165763080E+04 0.  0.
        1    1    3    3  502    0  0.16281774694E+03 -0.75433961597E+03 -0.15638630754E+04  0.17439052708E+04  0.50400001928E-02 0.  1.
       -1    1    3    3    0  502 -0.16281774694E+03  0.75433961597E+03  0.19439799179E+04  0.20915534409E+04  0.50400001928E-02 0. -1.
</event>
<event>
 5   0  0.1070988E-07  0.3812266E+04  0.7818609E-02  0.8043528E-01
       -1   -1    0    0    0  501  0.00000000000E+00  0.00000000000E+00  0.24833660376E+04  0.24833660376E+04  0.50400001928E-02 0. -1.
        1   -1    0    0  501    0  0.00000000000E+00  0.00000000000E+00 -0.14630717376E+04  0.14630717376E+04  0.50400001928E-02 0.  1.
    10030    2    1    2    0    0  0.00000000000E+00  0.00000000000E+00  0.10202943001E+04  0.39464377752E+04  0.38122658164E+04 0.  0.
        2    1    3    3  502    0 -0.39027200981E+03  0.90648726751E+03  0.21982801923E+04  0.24096612234E+04  0.25500000920E-02 0. -1.
       -2    1    3    3    0  502  0.39027200981E+03 -0.90648726751E+03 -0.11779858923E+04  0.15367765518E+04  0.25500000920E-02 0.  1.
</event>
<event>
 5   0  0.1085771E-07  0.3768897E+04  0.7818609E-02  0.8052863E-01
        1   -1    0    0  501    0  0.00000000000E+00  0.00000000000E+00  0.28409202587E+04  0.28409202587E+04  0.50400001928E-02 0.  1.
       -1   -1    0    0    0  501  0.00000000000E+00  0.00000000000E+00 -0.12499987672E+04  0.12499987672E+04  0.50400001928E-02 0. -1.
    10030    2    1    2    0    0  0.00000000000E+00  0.00000000000E+00  0.15909214915E+04  0.40909190258E+04  0.37688973565E+04 0.  0.
        1    1    3    3  502    0  0.44248938982E+03 -0.87046806846E+03  0.25448870907E+04  0.27257956311E+04  0.50400001928E-02 0.  1.
       -1    1    3    3    0  502 -0.44248938982E+03  0.87046806846E+03 -0.95396559918E+03  0.13651233947E+04  0.50400001928E-02 0. -1.
</event>
<event>
 5   0  0.3539010E-07  0.3822970E+04  0.7818609E-02  0.8041244E-01
        2   -1    0    0  501    0  0.00000000000E+00  0.00000000000E+00  0.21838625632E+04  0.21838625632E+04  0.25500000920E-02 0.  1.
       -2   -1    0    0    0  501  0.00000000000E+00  0.00000000000E+00 -0.16730788547E+04  0.16730788547E+04  0.25500000920E-02 0. -1.
    10030    2    1    2    0    0  0.00000000000E+00  0.00000000000E+00  0.51078370856E+03  0.38569414179E+04  0.38229696709E+04 0.  0.
        1    1    3    3  502    0  0.30123019495E+03 -0.17839192528E+04  0.87785645647E+03  0.20109051417E+04  0.50400001928E-02 0.  1.
       -1    1    3    3    0  502 -0.30123019495E+03  0.17839192528E+04 -0.36707274790E+03  0.18460362762E+04  0.50400001928E-02 0. -1.
</event>
<event>
 5   0  0.1085771E-07  0.3815687E+04  0.7818609E-02  0.8042797E-01
       -1   -1    0    0    0  501  0.00000000000E+00  0.00000000000E+00  0.19764900431E+04  0.19764900431E+04  0.50400001928E-02 0. -1.
        1   -1    0    0  501    0  0.00000000000E+00  0.00000000000E+00 -0.18415811829E+04  0.18415811829E+04  0.50400001928E-02 0.  1.
    10030    2    1    2    0    0  0.00000000000E+00  0.00000000000E+00  0.13490886025E+03  0.38180712261E+04  0.38156870268E+04 0.  0.
        1    1    3    3  502    0 -0.39260682563E+02 -0.73361631213E+03  0.18292739356E+04  0.19712882656E+04  0.50400001928E-02 0. -1.
       -1    1    3    3    0  502  0.39260682563E+02  0.73361631213E+03 -0.16943650753E+04  0.18467829605E+04  0.50400001928E-02 0.  1.
</event>
<event>
 5   0  0.1084315E-07  0.3798483E+04  0.7818609E-02  0.8046481E-01
       -1   -1    0    0    0  501  0.00000000000E+00  0.00000000000E+00  0.13930915950E+04  0.13930915950E+04  0.50400001928E-02 0.  1.
        1   -1    0    0  501    0  0.00000000000E+00  0.00000000000E+00 -0.25892895801E+04  0.25892895801E+04  0.50400001928E-02 0. -1.
    10030    2    1    2    0    0  0.00000000000E+00  0.00000000000E+00 -0.11961979852E+04  0.39823811751E+04  0.37984826187E+04 0.  0.
        4    1    3    3  502    0 -0.26689731002E+03 -0.20268306525E+03 -0.25580441968E+04  0.25799043247E+04  0.12699999809E+01 0. -1.
       -4    1    3    3    0  502  0.26689731002E+03  0.20268306525E+03  0.13618462116E+04  0.14024768504E+04  0.12699999809E+01 0.  1.
</event>
<event>
 5   0  0.3442126E-07  0.3792716E+04  0.7818609E-02  0.8047720E-01
       -2   -1    0    0    0  501  0.00000000000E+00  0.00000000000E+00  0.17006165559E+04  0.17006165559E+04  0.25500000920E-02 0.  1.
        2   -1    0    0  501    0  0.00000000000E+00  0.00000000000E+00 -0.21146293781E+04  0.21146293781E+04  0.25500000920E-02 0. -1.
    10030    2    1    2    0    0  0.00000000000E+00  0.00000000000E+00 -0.41401282216E+03  0.38152459340E+04  0.37927160347E+04 0.  0.
        2    1    3    3  502    0  0.10643094348E+04  0.81477030929E+03  0.11424423587E+04  0.17611870352E+04  0.25500000920E-02 0.  1.
       -2    1    3    3    0  502 -0.10643094348E+04 -0.81477030929E+03 -0.15564551809E+04  0.20540588988E+04  0.25500000920E-02 0. -1.
</event>
<event>
 5   0  0.3442126E-07  0.3801763E+04  0.7818609E-02  0.8045777E-01
        2   -1    0    0  501    0  0.00000000000E+00  0.00000000000E+00  0.22170247011E+04  0.22170247011E+04  0.25500000920E-02 0.  1.
       -2   -1    0    0    0  501  0.00000000000E+00  0.00000000000E+00 -0.16298196652E+04  0.16298196652E+04  0.25500000920E-02 0. -1.
    10030    2    1    2    0    0  0.00000000000E+00  0.00000000000E+00  0.58720503594E+03  0.38468443663E+04  0.38017629890E+04 0.  0.
        2    1    3    3  502    0 -0.13300850339E+04  0.59521894558E+03 -0.94150217854E+03  0.17348885102E+04  0.25500000920E-02 0. -1.
       -2    1    3    3    0  502  0.13300850339E+04 -0.59521894558E+03  0.15287072145E+04  0.21119558561E+04  0.25500000920E-02 0.  1.
</event>
<event>
 5   0  0.1070988E-07  0.3819534E+04  0.7818609E-02  0.8041976E-01
        1   -1    0    0  501    0  0.00000000000E+00  0.00000000000E+00  0.10906229890E+04  0.10906229890E+04  0.50400001928E-02 0.  1.
       -1   -1    0    0    0  501  0.00000000000E+00  0.00000000000E+00 -0.33441535325E+04  0.33441535326E+04  0.50400001928E-02 0. -1.
    10030    2    1    2    0    0  0.00000000000E+00  0.00000000000E+00 -0.22535305436E+04  0.44347765216E+04  0.38195343807E+04 0.  0.
        2    1    3    3  502    0  0.11330914631E+04 -0.57935526963E+03  0.52656298997E+03  0.13772499318E+04  0.25500000920E-02 0.  1.
       -2    1    3    3    0  502 -0.11330914631E+04  0.57935526963E+03 -0.27800935335E+04  0.30575265898E+04  0.25500000920E-02 0. -1.
</event>
<event>
 5   0  0.3539010E-07  0.3775020E+04  0.7818609E-02  0.8051537E-01
       -2   -1    0    0    0  501  0.00000000000E+00  0.00000000000E+00  0.15431374802E+04  0.15431374802E+04  0.25500000920E-02 0.  1.
        2   -1    0    0  501    0  0.00000000000E+00  0.00000000000E+00 -0.23087342781E+04  0.23087342781E+04  0.25500000920E-02 0. -1.
    10030    2    1    2    0    0  0.00000000000E+00  0.00000000000E+00 -0.76559679793E+03  0.38518717582E+04  0.37750202099E+04 0.  0.
        1    1    3    3  502    0 -0.13665304449E+04 -0.10470735245E+04  0.40685973334E+03  0.17689836815E+04  0.50400001928E-02 0.  1.
       -1    1    3    3    0  502  0.13665304449E+04  0.10470735245E+04 -0.11724565313E+04  0.20828880768E+04  0.50400001928E-02 0. -1.
</event>
<event>
 5   0  0.1070988E-07  0.3513911E+04  0.7818609E-02  0.8110501E-01
        1   -1    0    0  501    0  0.00000000000E+00  0.00000000000E+00  0.14252080049E+04  0.14252080049E+04  0.50400001928E-02 0. -1.
       -1   -1    0    0    0  501  0.00000000000E+00  0.00000000000E+00 -0.21659244311E+04  0.21659244311E+04  0.50400001928E-02 0.  1.
    10030    2    1    2    0    0  0.00000000000E+00  0.00000000000E+00 -0.74071642618E+03  0.35911324360E+04  0.35139111185E+04 0.  0.
        3    1    3    3  502    0 -0.54029697179E+03  0.10551542670E+04  0.95491302510E+03  0.15222122850E+04  0.10100000352E+00 0. -1.
       -3    1    3    3    0  502  0.54029697179E+03 -0.10551542670E+04 -0.16956294513E+04  0.20689201510E+04  0.10100000352E+00 0.  1.
</event>
<event>
 5   0  0.3509843E-07  0.3769650E+04  0.7818609E-02  0.8052699E-01
       -2   -1    0    0    0  501  0.00000000000E+00  0.00000000000E+00  0.22349660239E+04  0.22349660239E+04  0.25500000920E-02 0.  1.
        2   -1    0    0  501    0  0.00000000000E+00  0.00000000000E+00 -0.15895388739E+04  0.15895388739E+04  0.25500000920E-02 0. -1.
    10030    2    1    2    0    0  0.00000000000E+00  0.00000000000E+00  0.64542715000E+03  0.38245048978E+04  0.37696500510E+04 0.  0.
        4    1    3    3  502    0 -0.18741863115E+04 -0.57844496508E+02  0.12850323362E+03  0.18794773236E+04  0.12699999809E+01 0.  1.
       -4    1    3    3    0  502  0.18741863115E+04  0.57844496508E+02  0.51692391637E+03  0.19450275742E+04  0.12699999809E+01 0. -1.
</event>
<event>
 5   0  0.3377396E-07  0.3799152E+04  0.7818609E-02  0.8046337E-01
        2   -1    0    0  501    0  0.00000000000E+00  0.00000000000E+00  0.19919655105E+04  0.19919655105E+04  0.25500000920E-02 0. -1.
       -2   -1    0    0    0  501  0.00000000000E+00  0.00000000000E+00 -0.18114715812E+04  0.18114715812E+04  0.25500000920E-02 0.  1.
    10030    2    1    2    0    0  0.00000000000E+00  0.00000000000E+00  0.18049392929E+03  0.38034370917E+04  0.37991519648E+04 0.  0.
        5    1    3    3  502    0 -0.15053296176E+04  0.70537614283E+03  0.10104104565E+04  0.19453853452E+04  0.46999998093E+01 0. -1.
       -5    1    3    3    0  502  0.15053296176E+04 -0.70537614283E+03 -0.82991652719E+03  0.18580517465E+04  0.46999998093E+01 0.  1.
</event>
<event>
 5   0  0.3327241E-07  0.3070169E+04  0.7818609E-02  0.8223973E-01
       -2   -1    0    0    0  501  0.00000000000E+00  0.00000000000E+00  0.16316039657E+04  0.16316039657E+04  0.25500000920E-02 0. -1.
        2   -1    0    0  501    0  0.00000000000E+00  0.00000000000E+00 -0.14442749461E+04  0.14442749461E+04  0.25500000920E-02 0.  1.
    10030    2    1    2    0    0  0.00000000000E+00  0.00000000000E+00  0.18732901961E+03  0.30758789118E+04  0.30701692003E+04 0.  0.
        3    1    3    3  502    0 -0.16751055710E+02 -0.77809631257E+03 -0.12319629848E+04  0.14572052963E+04  0.10100000352E+00 0.  1.
       -3    1    3    3    0  502  0.16751055710E+02  0.77809631257E+03  0.14192920044E+04  0.16186736155E+04  0.10100000352E+00 0. -1.
</event>
<event>
 5   0  0.1085771E-07  0.3957589E+04  0.7818609E-02  0.8013157E-01
        1   -1    0    0  501    0  0.00000000000E+00  0.00000000000E+00  0.23715483581E+04  0.23715483581E+04  0.50400001928E-02 0.  1.
       -1   -1    0    0    0  501  0.00000000000E+00  0.00000000000E+00 -0.16510846435E+04  0.16510846435E+04  0.50400001928E-02 0. -1.
    10030    2    1    2    0    0  0.00000000000E+00  0.00000000000E+00  0.72046371460E+03  0.40226330017E+04  0.39575886980E+04 0.  0.
        1    1    3    3  502    0 -0.35273955253E+03 -0.15049082872E+04  0.16160347054E+04  0.22362339577E+04  0.50400001928E-02 0.  1.
       -1    1    3    3    0  502  0.35273955253E+03  0.15049082872E+04 -0.89557099077E+03  0.17863990440E+04  0.50400001928E-02 0. -1.
</event>
<event>
 5   0  0.1070988E-07  0.3798334E+04  0.7818609E-02  0.8046513E-01
       -1   -1    0    0    0  501  0.00000000000E+00  0.00000000000E+00  0.15579016318E+04  0.15579016318E+04  0.50400001928E-02 0. -1.
        1   -1    0    0  501    0  0.00000000000E+00  0.00000000000E+00 -0.23151876064E+04  0.23151876064E+04  0.50400001928E-02 0.  1.
    10030    2    1    2    0    0  0.00000000000E+00  0.00000000000E+00 -0.75728597468E+03  0.38730892382E+04  0.37983336083E+04 0.  0.
        2    1    3    3  502    0 -0.16487639847E+04 -0.47752026770E+03 -0.12072782557E+04  0.20985635730E+04  0.25500000920E-02 0.  1.
       -2    1    3    3    0  502  0.16487639847E+04  0.47752026770E+03  0.44999228103E+03  0.17745256652E+04  0.25500000920E-02 0. -1.
</event>
<event>
 5   0  0.1070988E-07  0.3865379E+04  0.7818609E-02  0.8032269E-01
        1   -1    0    0  501    0  0.00000000000E+00  0.00000000000E+00  0.14879445439E+04  0.14879445439E+04  0.50400001928E-02 0.  1.
       -1   -1    0    0    0  501  0.00000000000E+00  0.00000000000E+00 -0.25103678164E+04  0.25103678164E+04  0.50400001928E-02 0. -1.
    10030    2    1    2    0    0  0.00000000000E+00  0.00000000000E+00 -0.10224232725E+04  0.39983123604E+04  0.38653786856E+04 0.  0.
        2    1    3    3  502    0  0.17765502609E+04  0.68541243527E+03 -0.16913143384E+03  0.19116815838E+04  0.25500000920E-02 0.  1.
       -2    1    3    3    0  502 -0.17765502609E+04 -0.68541243527E+03 -0.85329183866E+03  0.20866307766E+04  0.25500000920E-02 0. -1.
</event>
<event>
 5   0  0.3442126E-07  0.3820020E+04  0.7818609E-02  0.8041872E-01
       -2   -1    0    0    0  501  0.00000000000E+00  0.00000000000E+00  0.17116025404E+04  0.17116025404E+04  0.25500000920E-02 0.  1.
        2   -1    0    0  501    0  0.00000000000E+00  0.00000000000E+00 -0.21314163997E+04  0.21314163997E+04  0.25500000920E-02 0. -1.
    10030    2    1    2    0    0  0.00000000000E+00  0.00000000000E+00 -0.41981385932E+03  0.38430189401E+04  0.38200197510E+04 0.  0.
        2    1    3    3  502    0 -0.79710755377E+03  0.14054565683E+04  0.81477792466E+03  0.18095722379E+04  0.25500000920E-02 0. -1.
       -2    1    3    3    0  502  0.79710755377E+03 -0.14054565683E+04 -0.12345917840E+04  0.20334467022E+04  0.25500000920E-02 0.  1.
</event>
<event>
 5   0  0.3509843E-07  0.3714615E+04  0.7818609E-02  0.8064731E-01
       -2   -1    0    0    0  501  0.00000000000E+00  0.00000000000E+00  0.12465672493E+04  0.12465672493E+04  0.25500000920E-02 0.  1.
        2   -1    0    0  501    0  0.00000000000E+00  0.00000000000E+00 -0.27672727171E+04  0.27672727171E+04  0.25500000920E-02 0. -1.
    10030    2    1    2    0    0  0.00000000000E+00  0.00000000000E+00 -0.15207054678E+04  0.40138399664E+04  0.37146152097E+04 0.  0.
        4    1    3    3  502    0  0.27551532852E+03 -0.10006304061E+04 -0.24246925788E+04  0.26374809232E+04  0.12699999809E+01 0. -1.
       -4    1    3    3    0  502 -0.27551532852E+03  0.10006304061E+04  0.90398711102E+03  0.13763590431E+04  0.12699999809E+01 0.  1.
</event>
<event>
 5   0  0.3377396E-07  0.3723021E+04  0.7818609E-02  0.8062879E-01
       -2   -1    0    0    0  501  0.00000000000E+00  0.00000000000E+00  0.15873116630E+04  0.15873116630E+04  0.25500000920E-02 0.  1.
        2   -1    0    0  501    0  0.00000000000E+00  0.00000000000E+00 -0.21830755403E+04  0.21830755403E+04  0.25500000920E-02 0. -1.
    10030    2    1    2    0    0  0.00000000000E+00  0.00000000000E+00 -0.59576387730E+03  0.37703872034E+04  0.37230209597E+04 0.  0.
        5    1    3    3  502    0 -0.20050068982E+03  0.80898549438E+03 -0.19835527692E+04  0.21515486829E+04  0.46999998093E+01 0. -1.
       -5    1    3    3    0  502  0.20050068982E+03 -0.80898549438E+03  0.13877888919E+04  0.16188385205E+04  0.46999998093E+01 0.  1.
</event>
<event>
 5   0  0.1085771E-07  0.3808865E+04  0.7818609E-02  0.8044255E-01
       -1   -1    0    0    0  501  0.00000000000E+00  0.00000000000E+00  0.13428645958E+04  0.13428645958E+04  0.50400001928E-02 0.  1.
        1   -1    0    0  501    0  0.00000000000E+00  0.00000000000E+00 -0.27008398625E+04  0.27008398625E+04  0.50400001928E-02 0. -1.
    10030    2    1    2    0    0  0.00000000000E+00  0.00000000000E+00 -0.13579752667E+04  0.40437044582E+04  0.38088645185E+04 0.  0.
        1    1    3    3  502    0 -0.18235176646E+04  0.38698022882E+03 -0.26522512966E+03  0.18829006188E+04  0.50400001928E-02 0. -1.
       -1    1    3    3    0  502  0.18235176646E+04 -0.38698022882E+03 -0.10927501370E+04  0.21608038395E+04  0.50400001928E-02 0.  1.
</event>
<event>
 5   0  0.1084315E-07  0.3778333E+04  0.7818609E-02  0.8050821E-01
        1   -1    0    0  501    0  0.00000000000E+00  0.00000000000E+00  0.21282926199E+04  0.21282926199E+04  0.50400001928E-02 0.  1.
       -1   -1    0    0    0  501  0.00000000000E+00  0.00000000000E+00 -0.16769074127E+04  0.16769074127E+04  0.50400001928E-02 0. -1.
    10030    2    1    2    0    0  0.00000000000E+00  0.00000000000E+00  0.45138520718E+03  0.38052000326E+04  0.37783327915E+04 0.  0.
        4    1    3    3  502    0 -0.15409403071E+04  0.26394838272E+03  0.12937916247E+04  0.20293013970E+04  0.12699999809E+01 0.  1.
       -4    1    3    3    0  502  0.15409403071E+04 -0.26394838272E+03 -0.84240641749E+03  0.17758986356E+04  0.12699999809E+01 0. -1.
</event>
<event>
 5   0  0.3442126E-07  0.3081158E+04  0.7818609E-02  0.8220928E-01
       -2   -1    0    0    0  501  0.00000000000E+00  0.00000000000E+00  0.12487741096E+04  0.12487741096E+04  0.25500000920E-02 0.  1.
        2   -1    0    0  501    0  0.00000000000E+00  0.00000000000E+00 -0.19005710329E+04  0.19005710329E+04  0.25500000920E-02 0. -1.
    10030    2    1    2    0    0  0.00000000000E+00  0.00000000000E+00 -0.65179692330E+03  0.31493451425E+04  0.30811581585E+04 0.  0.
        2    1    3    3  502    0  0.46400811486E+03  0.50051541938E+03  0.10858128788E+04  0.12825010033E+04  0.25500000920E-02 0.  1.
       -2    1    3    3    0  502 -0.46400811486E+03 -0.50051541938E+03 -0.17376098021E+04  0.18668441392E+04  0.25500000920E-02 0. -1.
</event>
<event>
 5   0  0.3539010E-07  0.3795307E+04  0.7818609E-02  0.8047163E-01
       -2   -1    0    0    0  501  0.00000000000E+00  0.00000000000E+00  0.16532696603E+04  0.16532696603E+04  0.25500000920E-02 0.  1.
        2   -1    0    0  501    0  0.00000000000E+00  0.00000000000E+00 -0.21781617277E+04  0.21781617277E+04  0.25500000920E-02 0. -1.
    10030    2    1    2    0    0  0.00000000000E+00  0.00000000000E+00 -0.52489206743E+03  0.38314313881E+04  0.37953069440E+04 0.  0.
        1    1    3    3  502    0 -0.38435869518E+03  0.11012543522E+04  0.12486634128E+04  0.17086992343E+04  0.50400001928E-02 0.  1.
       -1    1    3    3    0  502  0.38435869518E+03 -0.11012543522E+04 -0.17735554803E+04  0.21227321537E+04  0.50400001928E-02 0. -1.
</event>
<event>
 5   0  0.3539010E-07  0.3813117E+04  0.7818609E-02  0.8043346E-01
       -2   -1    0    0    0  501  0.00000000000E+00  0.00000000000E+00  0.19083835189E+04  0.19083835189E+04  0.25500000920E-02 0. -1.
        2   -1    0    0  501    0  0.00000000000E+00  0.00000000000E+00 -0.19047354747E+04  0.19047354747E+04  0.25500000920E-02 0.  1.
    10030    2    1    2    0    0  0.00000000000E+00  0.00000000000E+00  0.36480441745E+01  0.38131189936E+04  0.38131172486E+04 0.  0.
        1    1    3    3  502    0 -0.58787455795E+03  0.68472500638E+03 -0.16776174146E+04  0.19049527606E+04  0.50400001928E-02 0.  1.
       -1    1    3    3    0  502  0.58787455795E+03 -0.68472500638E+03  0.16812654587E+04  0.19081662331E+04  0.50400001928E-02 0. -1.
</event>
<event>
 5   0  0.1070988E-07  0.3078442E+04  0.7818609E-02  0.8221679E-01
       -1   -1    0    0    0  501  0.00000000000E+00  0.00000000000E+00  0.85801060901E+03  0.85801060903E+03  0.50400001928E-02 0.  1.
        1   -1    0    0  501    0  0.00000000000E+00  0.00000000000E+00 -0.27612731416E+04  0.27612731416E+04  0.50400001928E-02 0. -1.
    10030    2    1    2    0    0  0.00000000000E+00  0.00000000000E+00 -0.19032625326E+04  0.36192837506E+04  0.30784422359E+04 0.  0.
        2    1    3    3  502    0  0.36482859097E+03  0.58027590088E+03 -0.25719398793E+04  0.26617089932E+04  0.25500000920E-02 0. -1.
       -2    1    3    3    0  502 -0.36482859097E+03 -0.58027590088E+03  0.66867734673E+03  0.95757475738E+03  0.25500000920E-02 0.  1.
</event>
<event>
 5   0  0.3377396E-07  0.3818063E+04  0.7818609E-02  0.8042290E-01
        2   -1    0    0  501    0  0.00000000000E+00  0.00000000000E+00  0.12769564552E+04  0.12769564552E+04  0.25500000920E-02 0. -1.
       -2   -1    0    0    0  501  0.00000000000E+00  0.00000000000E+00 -0.28539741615E+04  0.28539741615E+04  0.25500000920E-02 0.  1.
    10030    2    1    2    0    0  0.00000000000E+00  0.00000000000E+00 -0.15770177063E+04  0.41309306167E+04  0.38180627174E+04 0.  0.
        5    1    3    3  502    0  0.16865409806E+04  0.88243830073E+03 -0.63074965465E+03  0.20052393998E+04  0.46999998093E+01 0.  1.
       -5    1    3    3    0  502 -0.16865409806E+04 -0.88243830073E+03 -0.94626805169E+03  0.21256912169E+04  0.46999998093E+01 0. -1.
</event>
<event>
 5   0  0.1084315E-07  0.3823568E+04  0.7818609E-02  0.8041116E-01
       -1   -1    0    0    0  501  0.00000000000E+00  0.00000000000E+00  0.14652359306E+04  0.14652359306E+04  0.50400001928E-02 0. -1.
        1   -1    0    0  501    0  0.00000000000E+00  0.00000000000E+00 -0.24944226989E+04  0.24944226989E+04  0.50400001928E-02 0.  1.
    10030    2    1    2    0    0  0.00000000000E+00  0.00000000000E+00 -0.10291867682E+04  0.39596586295E+04  0.38235678441E+04 0.  0.
        4    1    3    3  502    0  0.15777355676E+04 -0.51245642872E+03 -0.14987088470E+04  0.22356186914E+04  0.12699999809E+01 0.  1.
       -4    1    3    3    0  502 -0.15777355676E+04  0.51245642872E+03  0.46952207874E+03  0.17240399380E+04  0.12699999809E+01 0. -1.
</event>
<event>
 5   0  0.1085771E-07  0.3855685E+04  0.7818609E-02  0.8034310E-01
        1   -1    0    0  501    0  0.00000000000E+00  0.00000000000E+00  0.15502291677E+04  0.15502291677E+04  0.50400001928E-02 0. -1.
       -1   -1    0    0    0  501  0.00000000000E+00  0.00000000000E+00 -0.23974368567E+04  0.23974368567E+04  0.50400001928E-02 0.  1.
    10030    2    1    2    0    0  0.00000000000E+00  0.00000000000E+00 -0.84720768901E+03  0.39476660245E+04  0.38556849161E+04 0.  0.
        1    1    3    3  502    0 -0.64480683240E+03  0.18113417749E+04 -0.27938303125E+03  0.19428818170E+04  0.50400001928E-02 0. -1.
       -1    1    3    3    0  502  0.64480683240E+03 -0.18113417749E+04 -0.56782465775E+03  0.20047842075E+04  0.50400001928E-02 0.  1.
</event>
<event>
 5   0  0.1085771E-07  0.3783085E+04  0.7818609E-02  0.8049795E-01
        1   -1    0    0  501    0  0.00000000000E+00  0.00000000000E+00  0.29242988772E+04  0.29242988772E+04  0.50400001928E-02 0.  1.
       -1   -1    0    0    0  501  0.00000000000E+00  0.00000000000E+00 -0.12235179671E+04  0.12235179671E+04  0.50400001928E-02 0. -1.
    10030    2    1    2    0    0  0.00000000000E+00  0.00000000000E+00  0.17007809101E+04  0.41478168443E+04  0.37830845708E+04 0.  0.
        1    1    3    3  502    0  0.35025604891E+03  0.22402902688E+03 -0.11727971464E+04  0.12443156558E+04  0.50400001928E-02 0. -1.
       -1    1    3    3    0  502 -0.35025604891E+03 -0.22402902688E+03  0.28735780565E+04  0.29035011885E+04  0.50400001928E-02 0.  1.
</event>
<event>
 5   0  0.1070988E-07  0.3794388E+04  0.7818609E-02  0.8047360E-01
        1   -1    0    0  501    0  0.00000000000E+00  0.00000000000E+00  0.29679642372E+04  0.29679642372E+04  0.50400001928E-02 0.  1.
       -1   -1    0    0    0  501  0.00000000000E+00  0.00000000000E+00 -0.12127321923E+04  0.12127321924E+04  0.50400001928E-02 0. -1.
    10030    2    1    2    0    0  0.00000000000E+00  0.00000000000E+00  0.17552320449E+04  0.41806964296E+04  0.37943883703E+04 0.  0.
        2    1    3    3  502    0  0.19651096591E+02  0.14144892956E+04  0.22705150984E+04  0.26751457801E+04  0.25500000920E-02 0.  1.
       -2    1    3    3    0  502 -0.19651096591E+02 -0.14144892956E+04 -0.51528305350E+03  0.15055506495E+04  0.25500000920E-02 0. -1.
</event>
<event>
 5   0  0.1070988E-07  0.3821829E+04  0.7818609E-02  0.8041487E-01
       -1   -1    0    0    0  501  0.00000000000E+00  0.00000000000E+00  0.19390422753E+04  0.19390422753E+04  0.50400001928E-02 0.  1.
        1   -1    0    0  501    0  0.00000000000E+00  0.00000000000E+00 -0.18831951637E+04  0.18831951637E+04  0.50400001928E-02 0. -1.
    10030    2    1    2    0    0  0.00000000000E+00  0.00000000000E+00  0.55847111591E+02  0.38222374390E+04  0.38218294232E+04 0.  0.
        3    1    3    3  502    0 -0.11578502208E+04 -0.14162701698E+04  0.58039243025E+03  0.19191909001E+04  0.10100000352E+00 0.  1.
       -3    1    3    3    0  502  0.11578502208E+04  0.14162701698E+04 -0.52454531866E+03  0.19030465389E+04  0.10100000352E+00 0. -1.
</event>
<event>
 5   0  0.3327241E-07  0.3806158E+04  0.7818609E-02  0.8044835E-01
       -2   -1    0    0    0  501  0.00000000000E+00  0.00000000000E+00  0.16877147017E+04  0.16877147017E+04  0.25500000920E-02 0. -1.
        2   -1    0    0  501    0  0.00000000000E+00  0.00000000000E+00 -0.21459258278E+04  0.21459258278E+04  0.25500000920E-02 0.  1.
    10030    2    1    2    0    0  0.00000000000E+00  0.00000000000E+00 -0.45821112611E+03  0.38336405296E+04  0.38061584667E+04 0.  0.
        3    1    3    3  502    0  0.98734391182E+03  0.16113578136E+04 -0.30108162036E+01  0.18897965708E+04  0.10100000352E+00 0.  1.
       -3    1    3    3    0  502 -0.98734391182E+03 -0.16113578136E+04 -0.45520030990E+03  0.19438439588E+04  0.10100000352E+00 0. -1.
</event>
<event>
 5   0  0.1070988E-07  0.3835442E+04  0.7818609E-02  0.8038592E-01
       -1   -1    0    0    0  501  0.00000000000E+00  0.00000000000E+00  0.17429548222E+04  0.17429548222E+04  0.50400001928E-02 0. -1.
        1   -1    0    0  501    0  0.00000000000E+00  0.00000000000E+00 -0.21100106874E+04  0.21100106874E+04  0.50400001928E-02 0.  1.
    10030    2    1    2    0    0  0.00000000000E+00  0.00000000000E+00 -0.36705586527E+03  0.38529655096E+04  0.38354417229E+04 0.  0.
        3    1    3    3  502    0  0.54894048195E+03  0.18257819430E+04 -0.39144684910E+03  0.19462903180E+04  0.10100000352E+00 0. -1.
       -3    1    3    3    0  502 -0.54894048195E+03 -0.18257819430E+04  0.24390983825E+02  0.19066751916E+04  0.10100000352E+00 0.  1.
</event>
<event>
 5   0  0.3509843E-07  0.3797411E+04  0.7818609E-02  0.8046711E-01
       -2   -1    0    0    0  501  0.00000000000E+00  0.00000000000E+00  0.27265796318E+04  0.27265796318E+04  0.25500000920E-02 0. -1.
        2   -1    0    0  501    0  0.00000000000E+00  0.00000000000E+00 -0.13221998983E+04  0.13221998983E+04  0.25500000920E-02 0.  1.
    10030    2    1    2    0    0  0.00000000000E+00  0.00000000000E+00  0.14043797334E+04  0.40487795301E+04  0.37974113878E+04 0.  0.
        4    1    3    3  502    0  0.77408358479E+03  0.31292098360E+03  0.25203429738E+04  0.26550433625E+04  0.12699999809E+01 0. -1.
       -4    1    3    3    0  502 -0.77408358479E+03 -0.31292098360E+03 -0.11159632404E+04  0.13937361676E+04  0.12699999809E+01 0.  1.
</event>
<event>
 5   0  0.3327241E-07  0.3836700E+04  0.7818609E-02  0.8038325E-01
       -2   -1    0    0    0  501  0.00000000000E+00  0.00000000000E+00  0.12899276382E+04  0.12899276382E+04  0.25500000920E-02 0. -1.
        2   -1    0    0  501    0  0.00000000000E+00  0.00000000000E+00 -0.28529253477E+04  0.28529253477E+04  0.25500000920E-02 0.  1.
    10030    2    1    2    0    0  0.00000000000E+00  0.00000000000E+00 -0.15629977096E+04  0.41428529859E+04  0.38367002779E+04 0.  0.
        3    1    3    3  502    0 -0.18367760336E+04 -0.21497501783E+03 -0.23079579084E+03  0.18636596157E+04  0.10100000352E+00 0. -1.
       -3    1    3    3    0  502  0.18367760336E+04  0.21497501783E+03 -0.13322019188E+04  0.22791933702E+04  0.10100000352E+00 0.  1.
</event>
<event>
 5   0  0.3442126E-07  0.3807991E+04  0.7818609E-02  0.8044442E-01
       -2   -1    0    0    0  501  0.00000000000E+00  0.00000000000E+00  0.18202721111E+04  0.18202721111E+04  0.25500000920E-02 0.  1.
        2   -1    0    0  501    0  0.00000000000E+00  0.00000000000E+00 -0.19915694261E+04  0.19915694261E+04  0.25500000920E-02 0. -1.
    10030    2    1    2    0    0  0.00000000000E+00  0.00000000000E+00 -0.17129731501E+03  0.38118415372E+04  0.38079906952E+04 0.  0.
        2    1    3    3  502    0  0.15282353823E+03 -0.17062064213E+04  0.74627715332E+03  0.18685355163E+04  0.25500000920E-02 0.  1.
       -2    1    3    3    0  502 -0.15282353823E+03  0.17062064213E+04 -0.91757446834E+03  0.19433060209E+04  0.25500000920E-02 0. -1.
</event>
<event>
 5   0  0.1070988E-07  0.3813338E+04  0.7818609E-02  0.8043299E-01
        1   -1    0    0  501    0  0.00000000000E+00  0.00000000000E+00  0.22427464382E+04  0.22427464382E+04  0.50400001928E-02 0.  1.
       -1   -1    0    0    0  501  0.00000000000E+00  0.00000000000E+00 -0.16209531932E+04  0.16209531932E+04  0.50400001928E-02 0. -1.
    10030    2    1    2    0    0  0.00000000000E+00  0.00000000000E+00  0.62179324505E+03  0.38636996314E+04  0.38133381704E+04 0.  0.
        5    1    3    3  502    0 -0.46723220464E+02  0.43031418496E+03 -0.15705088028E+04  0.16290713142E+04  0.46999998093E+01 0. -1.
       -5    1    3    3    0  502  0.46723220464E+02 -0.43031418496E+03  0.21923020478E+04  0.22346283172E+04  0.46999998093E+01 0.  1.
</event>
<event>
 5   0  0.1085771E-07  0.3771955E+04  0.7818609E-02  0.8052200E-01
       -1   -1    0    0    0  501  0.00000000000E+00  0.00000000000E+00  0.24500153575E+04  0.24500153575E+04  0.50400001928E-02 0.  1.
        1   -1    0    0  501    0  0.00000000000E+00  0.00000000000E+00 -0.14517912621E+04  0.14517912621E+04  0.50400001928E-02 0. -1.
    10030    2    1    2    0    0  0.00000000000E+00  0.00000000000E+00  0.99822409542E+03  0.39018066196E+04  0.37719548714E+04 0.  0.
        1    1    3    3  502    0 -0.70250019656E+03 -0.16873349688E+04  0.18015104584E+02  0.18278212076E+04  0.50400001928E-02 0.  1.
       -1    1    3    3    0  502  0.70250019656E+03  0.16873349688E+04  0.98020899083E+03  0.20739854119E+04  0.50400001928E-02 0. -1.
</event>
<event>
 5   0  0.3539010E-07  0.3725223E+04  0.7818609E-02  0.8062395E-01
        2   -1    0    0  501    0  0.00000000000E+00  0.00000000000E+00  0.19959306319E+04  0.19959306319E+04  0.25500000920E-02 0. -1.
       -2   -1    0    0    0  501  0.00000000000E+00  0.00000000000E+00 -0.17381974527E+04  0.17381974527E+04  0.25500000920E-02 0.  1.
    10030    2    1    2    0    0  0.00000000000E+00  0.00000000000E+00  0.25773317920E+03  0.37341280845E+04  0.37252229678E+04 0.  0.
        1    1    3    3  502    0  0.13280517939E+02  0.10283759040E+04  0.16855077540E+04  0.19745049407E+04  0.50400001928E-02 0. -1.
       -1    1    3    3    0  502 -0.13280517939E+02 -0.10283759040E+04 -0.14277745748E+04  0.17596231439E+04  0.50400001928E-02 0.  1.
</event>
<event>
 5   0  0.3509843E-07  0.3820006E+04  0.7818609E-02  0.8041875E-01
        2   -1    0    0  501    0  0.00000000000E+00  0.00000000000E+00  0.21744614336E+04  0.21744614336E+04  0.25500000920E-02 0. -1.
       -2   -1    0    0    0  501  0.00000000000E+00  0.00000000000E+00 -0.16777078055E+04  0.16777078055E+04  0.25500000920E-02 0.  1.
    10030    2    1    2    0    0  0.00000000000E+00  0.00000000000E+00  0.49675362809E+03  0.38521692390E+04  0.38200057172E+04 0.  0.
        4    1    3    3  502    0  0.15290156616E+03  0.46497518008E+03 -0.16133879684E+04  0.16860021224E+04  0.12699999809E+01 0.  1.
       -4    1    3    3    0  502 -0.15290156616E+03 -0.46497518008E+03  0.21101415965E+04  0.21661671167E+04  0.12699999809E+01 0. -1.
</event>
<event>
 5   0  0.3377396E-07  0.3779745E+04  0.7818609E-02  0.8050516E-01
        2   -1    0    0  501    0  0.00000000000E+00  0.00000000000E+00  0.12762974286E+04  0.12762974286E+04  0.25500000920E-02 0.  1.
       -2   -1    0    0    0  501  0.00000000000E+00  0.00000000000E+00 -0.27984217885E+04  0.27984217885E+04  0.25500000920E-02 0. -1.
    10030    2    1    2    0    0  0.00000000000E+00  0.00000000000E+00 -0.15221243598E+04  0.40747192171E+04  0.37797452469E+04 0.  0.
        5    1    3    3  502    0 -0.62292373936E+03  0.99318693318E+03  0.83689169094E+03  0.14404388434E+04  0.46999998093E+01 0.  1.
       -5    1    3    3    0  502  0.62292373936E+03 -0.99318693318E+03 -0.23590160508E+04  0.26342803737E+04  0.46999998093E+01 0. -1.
</event>
<event>
 5   0  0.3327241E-07  0.3746899E+04  0.7818609E-02  0.8057647E-01
        2   -1    0    0  501    0  0.00000000000E+00  0.00000000000E+00  0.13029525583E+04  0.13029525583E+04  0.25500000920E-02 0.  1.
       -2   -1    0    0    0  501  0.00000000000E+00  0.00000000000E+00 -0.26937375838E+04  0.26937375838E+04  0.25500000920E-02 0. -1.
    10030    2    1    2    0    0  0.00000000000E+00  0.00000000000E+00 -0.13907850255E+04  0.39966901421E+04  0.37468985982E+04 0.  0.
        3    1    3    3  502    0 -0.10103912079E+04  0.62814991319E+03 -0.22390577502E+04  0.25355161853E+04  0.10100000352E+00 0. -1.
       -3    1    3    3    0  502  0.10103912079E+04 -0.62814991319E+03  0.84827272475E+03  0.14611739569E+04  0.10100000352E+00 0.  1.
</event>
<event>
 5   0  0.3509843E-07  0.3838692E+04  0.7818609E-02  0.8037902E-01
       -2   -1    0    0    0  501  0.00000000000E+00  0.00000000000E+00  0.16155303497E+04  0.16155303497E+04  0.25500000920E-02 0. -1.
        2   -1    0    0  501    0  0.00000000000E+00  0.00000000000E+00 -0.22802971092E+04  0.22802971092E+04  0.25500000920E-02 0.  1.
    10030    2    1    2    0    0  0.00000000000E+00  0.00000000000E+00 -0.66476675949E+03  0.38958274590E+04  0.38386920618E+04 0.  0.
        4    1    3    3  502    0 -0.55166675495E+03 -0.18379866553E+04 -0.36976115951E+03  0.19542917084E+04  0.12699999809E+01 0. -1.
       -4    1    3    3    0  502  0.55166675495E+03  0.18379866553E+04 -0.29500559997E+03  0.19415357505E+04  0.12699999809E+01 0.  1.
</event>
<event>
 5   0  0.1070988E-07  0.3803415E+04  0.7818609E-02  0.8045423E-01
       -1   -1    0    0    0  501  0.00000000000E+00  0.00000000000E+00  0.14382005606E+04  0.14382005606E+04  0.50400001928E-02 0.  1.
        1   -1    0    0  501    0  0.00000000000E+00  0.00000000000E+00 -0.25145941115E+04  0.25145941115E+04  0.50400001928E-02 0. -1.
    10030    2    1    2    0    0  0.00000000000E+00  0.00000000000E+00 -0.10763935509E+04  0.39527946722E+04  0.38034146032E+04 0.  0.
        5    1    3    3  502    0  0.89060980042E+03 -0.12622463003E+04 -0.16908167684E+04  0.22902696290E+04  0.46999998093E+01 0.  1.
       -5    1    3    3    0  502 -0.89060980042E+03  0.12622463003E+04  0.61442321743E+03  0.16625250432E+04  0.46999998093E+01 0. -1.
</event>
<event>
 5   0  0.1070988E-07  0.3695728E+04  0.7818609E-02  0.8068909E-01
       -1   -1    0    0    0  501  0.00000000000E+00  0.00000000000E+00  0.13480723714E+04  0.13480723714E+04  0.50400001928E-02 0.  1.
        1   -1    0    0  501    0  0.00000000000E+00  0.00000000000E+00 -0.25329512409E+04  0.25329512409E+04  0.50400001928E-02 0. -1.
    10030    2    1    2    0    0  0.00000000000E+00  0.00000000000E+00 -0.11848788694E+04  0.38810236123E+04  0.36957281209E+04 0.  0.
        2    1    3    3  502    0 -0.12969887160E+04 -0.92444290265E+03  0.39146015942E+03  0.16401266616E+04  0.25500000920E-02 0.  1.
       -2    1    3    3    0  502  0.12969887160E+04  0.92444290265E+03 -0.15763390289E+04  0.22408969507E+04  0.25500000920E-02 0. -1.
</event>
<event>
 5   0  0.3509843E-07  0.3694826E+04  0.7818609E-02  0.8069109E-01
        2   -1    0    0  501    0  0.00000000000E+00  0.00000000000E+00  0.30219427204E+04  0.30219427204E+04  0.25500000920E-02 0. -1.
       -2   -1    0    0    0  501  0.00000000000E+00  0.00000000000E+00 -0.11293841540E+04  0.11293841540E+04  0.25500000920E-02 0.  1.
    10030    2    1    2    0    0  0.00000000000E+00  0.00000000000E+00  0.18925585664E+04  0.41513268743E+04  0.36948256915E+04 0.  0.
        4    1    3    3  502    0  0.56477092154E+03 -0.16184218341E+04  0.17203705258E+04  0.24285657879E+04  0.12699999809E+01 0. -1.
       -4    1    3    3    0  502 -0.56477092154E+03  0.16184218341E+04  0.17218804055E+03  0.17227610865E+04  0.12699999809E+01 0.  1.
</event>
<event>
 5   0  0.3327241E-07  0.3801579E+04  0.7818609E-02  0.8045816E-01
        2   -1    0    0  501    0  0.00000000000E+00  0.00000000000E+00  0.19454289180E+04  0.19454289180E+04  0.25500000920E-02 0. -1.
       -2   -1    0    0    0  501  0.00000000000E+00  0.00000000000E+00 -0.18571742320E+04  0.18571742320E+04  0.25500000920E-02 0.  1.
    10030    2    1    2    0    0  0.00000000000E+00  0.00000000000E+00  0.88254685958E+02  0.38026031500E+04  0.38015788598E+04 0.  0.
        3    1    3    3  502    0  0.10542229101E+04  0.69017627822E+03 -0.13793763363E+04  0.18682634521E+04  0.10100000352E+00 0.  1.
       -3    1    3    3    0  502 -0.10542229101E+04 -0.69017627822E+03  0.14676310223E+04  0.19343396979E+04  0.10100000352E+00 0. -1.
</event>
<event>
 5   0  0.3442126E-07  0.3805822E+04  0.7818609E-02  0.8044907E-01
        2   -1    0    0  501    0  0.00000000000E+00  0.00000000000E+00  0.21341903665E+04  0.21341903665E+04  0.25500000920E-02 0.  1.
       -2   -1    0    0    0  501  0.00000000000E+00  0.00000000000E+00 -0.16966954982E+04  0.16966954982E+04  0.25500000920E-02 0. -1.
    10030    2    1    2    0    0  0.00000000000E+00  0.00000000000E+00  0.43749486832E+03  0.38308858648E+04  0.38058224800E+04 0.  0.
        2    1    3    3  502    0 -0.12184049273E+04  0.14589986330E+04  0.12937301470E+03  0.19052361940E+04  0.25500000920E-02 0. -1.
       -2    1    3    3    0  502  0.12184049273E+04 -0.14589986330E+04  0.30812185362E+03  0.19256496708E+04  0.25500000920E-02 0.  1.
</event>
<event>
 5   0  0.3509843E-07  0.3743587E+04  0.7818609E-02  0.8058370E-01
       -2   -1    0    0    0  501  0.00000000000E+00  0.00000000000E+00  0.16552053253E+04  0.16552053253E+04  0.25500000920E-02 0.  1.
        2   -1    0    0  501    0  0.00000000000E+00  0.00000000000E+00 -0.21167230744E+04  0.21167230744E+04  0.25500000920E-02 0. -1.
    10030    2    1    2    0    0  0.00000000000E+00  0.00000000000E+00 -0.46151774906E+03  0.37719283997E+04  0.37435872128E+04 0.  0.
        4    1    3    3  502    0 -0.18272214779E+04  0.13957813743E+03  0.15342728680E+03  0.18389567507E+04  0.12699999809E+01 0.  1.
       -4    1    3    3    0  502  0.18272214779E+04 -0.13957813743E+03 -0.61494503585E+03  0.19329716490E+04  0.12699999809E+01 0. -1.
</event>
<event>
 5   0  0.1085771E-07  0.3827229E+04  0.7818609E-02  0.8040337E-01
        1   -1    0    0  501    0  0.00000000000E+00  0.00000000000E+00  0.18567117827E+04  0.18567117827E+04  0.50400001928E-02 0. -1.
       -1   -1    0    0    0  501  0.00000000000E+00  0.00000000000E+00 -0.19722607086E+04  0.19722607087E+04  0.50400001928E-02 0.  1.
    10030    2    1    2    0    0  0.00000000000E+00  0.00000000000E+00 -0.11554892593E+03  0.38289724914E+04  0.38272286038E+04 0.  0.
        1    1    3    3  502    0 -0.54692165290E+03  0.17779580959E+04  0.39149742365E+03  0.19009283306E+04  0.50400001928E-02 0. -1.
       -1    1    3    3    0  502  0.54692165290E+03 -0.17779580959E+04 -0.50704634958E+03  0.19280441608E+04  0.50400001928E-02 0.  1.
</event>
<event>
 5   0  0.3442126E-07  0.3815849E+04  0.7818609E-02  0.8042762E-01
        2   -1    0    0  501    0  0.00000000000E+00  0.00000000000E+00  0.13729515969E+04  0.13729515969E+04  0.25500000920E-02 0. -1.
       -2   -1    0    0    0  501  0.00000000000E+00  0.00000000000E+00 -0.26513508142E+04  0.26513508142E+04  0.25500000920E-02 0.  1.
    10030    2    1    2    0    0  0.00000000000E+00  0.00000000000E+00 -0.12783992173E+04  0.40243024111E+04  0.38158492288E+04 0.  0.
        2    1    3    3  502    0 -0.11192210846E+04  0.14153315955E+04  0.14633313129E+02  0.18044482523E+04  0.25500000920E-02 0. -1.
       -2    1    3    3    0  502  0.11192210846E+04 -0.14153315955E+04 -0.12930325304E+04  0.22198541588E+04  0.25500000920E-02 0.  1.
</event>
<event>
 5   0  0.1070988E-07  0.3776478E+04  0.7818609E-02  0.8051222E-01
       -1   -1    0    0    0  501  0.00000000000E+00  0.00000000000E+00  0.12398980668E+04  0.12398980668E+04  0.50400001928E-02 0.  1.
        1   -1    0    0  501    0  0.00000000000E+00  0.00000000000E+00 -0.28755967282E+04  0.28755967282E+04  0.50400001928E-02 0. -1.
    10030    2    1    2    0    0  0.00000000000E+00  0.00000000000E+00 -0.16356986614E+04  0.41154947950E+04  0.37764781605E+04 0.  0.
        5    1    3    3  502    0 -0.14943581377E+04  0.40962329465E+03 -0.19938563297E+04  0.25251500234E+04  0.46999998093E+01 0. -1.
       -5    1    3    3    0  502  0.14943581377E+04 -0.40962329465E+03  0.35815766827E+03  0.15903447716E+04  0.46999998093E+01 0.  1.
</event>
<event>
 5   0  0.1070988E-07  0.3812703E+04  0.7818609E-02  0.8043434E-01
        1   -1    0    0  501    0  0.00000000000E+00  0.00000000000E+00  0.23030994918E+04  0.23030994918E+04  0.50400001928E-02 0.  1.
       -1   -1    0    0    0  501  0.00000000000E+00  0.00000000000E+00 -0.15779497218E+04  0.15779497218E+04  0.50400001928E-02 0. -1.
    10030    2    1    2    0    0  0.00000000000E+00  0.00000000000E+00  0.72514977000E+03  0.38810492136E+04  0.38127025597E+04 0.  0.
        3    1    3    3  502    0  0.14132342525E+04 -0.10419716690E+04  0.11183389931E+04  0.20817344032E+04  0.10100000352E+00 0.  1.
       -3    1    3    3    0  502 -0.14132342525E+04  0.10419716690E+04 -0.39318922314E+03  0.17993148104E+04  0.10100000352E+00 0. -1.
</event>
<event>
 5   0  0.3377396E-07  0.3866173E+04  0.7818609E-02  0.8032102E-01
        2   -1    0    0  501    0  0.00000000000E+00  0.00000000000E+00  0.14524392658E+04  0.14524392658E+04  0.25500000920E-02 0.  1.
       -2   -1    0    0    0  501  0.00000000000E+00  0.00000000000E+00 -0.25727910003E+04  0.25727910003E+04  0.25500000920E-02 0. -1.
    10030    2    1    2    0    0  0.00000000000E+00  0.00000000000E+00 -0.11203517344E+04  0.40252302661E+04  0.38661726147E+04 0.  0.
        5    1    3    3  502    0  0.10575116203E+04  0.37350343923E+03  0.10790722034E+04  0.15563593917E+04  0.46999998093E+01 0.  1.
       -5    1    3    3    0  502 -0.10575116203E+04 -0.37350343923E+03 -0.21994239378E+04  0.24688708744E+04  0.46999998093E+01 0. -1.
</event>
<event>
 5   0  0.1070988E-07  0.3810179E+04  0.7818609E-02  0.8043974E-01
       -1   -1    0    0    0  501  0.00000000000E+00  0.00000000000E+00  0.13930083188E+04  0.13930083188E+04  0.50400001928E-02 0.  1.
        1   -1    0    0  501    0  0.00000000000E+00  0.00000000000E+00 -0.26054158344E+04  0.26054158344E+04  0.50400001928E-02 0. -1.
    10030    2    1    2    0    0  0.00000000000E+00  0.00000000000E+00 -0.12124075156E+04  0.39984241532E+04  0.38101789623E+04 0.  0.
        5    1    3    3  502    0 -0.32027037815E+03  0.18316999555E+04 -0.10409745193E+04  0.21310438479E+04  0.46999998093E+01 0.  1.
       -5    1    3    3    0  502  0.32027037815E+03 -0.18316999555E+04 -0.17143299636E+03  0.18673803052E+04  0.46999998093E+01 0. -1.
</event>
<event>
 5   0  0.3327241E-07  0.3396393E+04  0.7818609E-02  0.8138792E-01
       -2   -1    0    0    0  501  0.00000000000E+00  0.00000000000E+00  0.11265603404E+04  0.11265603404E+04  0.25500000920E-02 0.  1.
        2   -1    0    0  501    0  0.00000000000E+00  0.00000000000E+00 -0.25598907324E+04  0.25598907324E+04  0.25500000920E-02 0. -1.
    10030    2    1    2    0    0  0.00000000000E+00  0.00000000000E+00 -0.14333303920E+04  0.36864510728E+04  0.33963930131E+04 0.  0.
        3    1    3    3  502    0  0.11897355796E+04 -0.11642041213E+04 -0.10815755669E+04  0.19851064714E+04  0.10100000352E+00 0. -1.
       -3    1    3    3    0  502 -0.11897355796E+04  0.11642041213E+04 -0.35175482509E+03  0.17013446014E+04  0.10100000352E+00 0.  1.
</event>
<event>
 5   0  0.1085771E-07  0.3795903E+04  0.7818609E-02  0.8047035E-01
       -1   -1    0    0    0  501  0.00000000000E+00  0.00000000000E+00  0.17504393677E+04  0.17504393677E+04  0.50400001928E-02 0.  1.
        1   -1    0    0  501    0  0.00000000000E+00  0.00000000000E+00 -0.20578945766E+04  0.20578945766E+04  0.50400001928E-02 0. -1.
    10030    2    1    2    0    0  0.00000000000E+00  0.00000000000E+00 -0.30745520889E+03  0.38083339442E+04  0.37959028867E+04 0.  0.
        1    1    3    3  502    0  0.61921201878E+03  0.15412422539E+04 -0.10750860294E+04  0.19785502723E+04  0.50400001928E-02 0. -1.
       -1    1    3    3    0  502 -0.61921201878E+03 -0.15412422539E+04  0.76763082055E+03  0.18297836719E+04  0.50400001928E-02 0.  1.
</event>
<event>
 5   0  0.1070988E-07  0.3364479E+04  0.7818609E-02  0.8146680E-01
        1   -1    0    0  501    0  0.00000000000E+00  0.00000000000E+00  0.19388346094E+04  0.19388346095E+04  0.50400001928E-02 0. -1.
       -1   -1    0    0    0  501  0.00000000000E+00  0.00000000000E+00 -0.14596037161E+04  0.14596037161E+04  0.50400001928E-02 0.  1.
    10030    2    1    2    0    0  0.00000000000E+00  0.00000000000E+00  0.47923089337E+03  0.33984383255E+04  0.33644792767E+04 0.  0.
        5    1    3    3  502    0  0.87380847356E+03  0.40077696087E+03 -0.11548054882E+04  0.15025848483E+04  0.46999998093E+01 0.  1.
       -5    1    3    3    0  502 -0.87380847356E+03 -0.40077696087E+03  0.16340363816E+04  0.18958534772E+04  0.46999998093E+01 0. -1.
</event>
<event>
 5   0  0.3327241E-07  0.3577867E+04  0.7818609E-02  0.8095580E-01
       -2   -1    0    0    0  501  0.00000000000E+00  0.00000000000E+00  0.30128049053E+04  0.30128049053E+04  0.25500000920E-02 0. -1.
        2   -1    0    0  501    0  0.00000000000E+00  0.00000000000E+00 -0.10622269853E+04  0.10622269853E+04  0.25500000920E-02 0.  1.
    10030    2    1    2    0    0  0.00000000000E+00  0.00000000000E+00  0.19505779200E+04  0.40750318907E+04  0.35778667790E+04 0.  0.
        3    1    3    3  502    0  0.81318322122E+03  0.81634466623E+03 -0.58329075285E+03  0.12914773238E+04  0.10100000352E+00 0.  1.
       -3    1    3    3    0  502 -0.81318322122E+03 -0.81634466623E+03  0.25338686728E+04  0.27835545669E+04  0.10100000352E+00 0. -1.
</event>
<event>
 5   0  0.3377396E-07  0.3710720E+04  0.7818609E-02  0.8065590E-01
        2   -1    0    0  501    0  0.00000000000E+00  0.00000000000E+00  0.20980755943E+04  0.20980755943E+04  0.25500000920E-02 0. -1.
       -2   -1    0    0    0  501  0.00000000000E+00  0.00000000000E+00 -0.16407226867E+04  0.16407226867E+04  0.25500000920E-02 0.  1.
    10030    2    1    2    0    0  0.00000000000E+00  0.00000000000E+00  0.45735290762E+03  0.37387982810E+04  0.37107197286E+04 0.  0.
        5    1    3    3  502    0  0.39308230345E+02 -0.12495533239E+04  0.16099655668E+04  0.20383669597E+04  0.46999998093E+01 0. -1.
       -5    1    3    3    0  502 -0.39308230345E+02  0.12495533239E+04 -0.11526126592E+04  0.17004313213E+04  0.46999998093E+01 0.  1.
</event>
<event>
 5   0  0.3377396E-07  0.3795654E+04  0.7818609E-02  0.8047088E-01
       -2   -1    0    0    0  501  0.00000000000E+00  0.00000000000E+00  0.19236748106E+04  0.19236748106E+04  0.25500000920E-02 0. -1.
        2   -1    0    0  501    0  0.00000000000E+00  0.00000000000E+00 -0.18723269296E+04  0.18723269296E+04  0.25500000920E-02 0.  1.
    10030    2    1    2    0    0  0.00000000000E+00  0.00000000000E+00  0.51347880922E+02  0.37960017402E+04  0.37956544372E+04 0.  0.
        5    1    3    3  502    0  0.17472394403E+04 -0.43104043297E+02 -0.71400338870E+03  0.18879953785E+04  0.46999998093E+01 0.  1.
       -5    1    3    3    0  502 -0.17472394403E+04  0.43104043297E+02  0.76535126963E+03  0.19080063617E+04  0.46999998093E+01 0. -1.
</event>
<event>
 5   0  0.1084315E-07  0.3790081E+04  0.7818609E-02  0.8048287E-01
        1   -1    0    0  501    0  0.00000000000E+00  0.00000000000E+00  0.13979537600E+04  0.13979537600E+04  0.50400001928E-02 0.  1.
       -1   -1    0    0    0  501  0.00000000000E+00  0.00000000000E+00 -0.25688821743E+04  0.25688821743E+04  0.50400001928E-02 0. -1.
    10030    2    1    2    0    0  0.00000000000E+00  0.00000000000E+00 -0.11709284143E+04  0.39668359343E+04  0.37900809989E+04 0.  0.
        4    1    3    3  502    0 -0.73673111346E+03 -0.11469673466E+04  0.79231220587E+03  0.15767266955E+04  0.12699999809E+01 0.  1.
       -4    1    3    3    0  502  0.73673111346E+03  0.11469673466E+04 -0.19632406202E+04  0.23901092388E+04  0.12699999809E+01 0. -1.
</event>
<event>
 5   0  0.1084315E-07  0.3797851E+04  0.7818609E-02  0.8046616E-01
        1   -1    0    0  501    0  0.00000000000E+00  0.00000000000E+00  0.17109853869E+04  0.17109853869E+04  0.50400001928E-02 0. -1.
       -1   -1    0    0    0  501  0.00000000000E+00  0.00000000000E+00 -0.21075094719E+04  0.21075094719E+04  0.50400001928E-02 0.  1.
    10030    2    1    2    0    0  0.00000000000E+00  0.00000000000E+00 -0.39652408497E+03  0.38184948588E+04  0.37978509234E+04 0.  0.
        4    1    3    3  502    0 -0.94138848233E+03  0.15740507365E+04 -0.69294079560E+03  0.19606163711E+04  0.12699999809E+01 0. -1.
       -4    1    3    3    0  502  0.94138848233E+03 -0.15740507365E+04  0.29641671063E+03  0.18578784877E+04  0.12699999809E+01 0.  1.
</event>
<event>
 5   0  0.1070988E-07  0.3777403E+04  0.7818609E-02  0.8051021E-01
        1   -1    0    0  501    0  0.00000000000E+00  0.00000000000E+00  0.18441131486E+04  0.18441131486E+04  0.50400001928E-02 0. -1.
       -1   -1    0    0    0  501  0.00000000000E+00  0.00000000000E+00 -0.19343683625E+04  0.19343683625E+04  0.50400001928E-02 0.  1.
    10030    2    1    2    0    0  0.00000000000E+00  0.00000000000E+00 -0.90255213919E+02  0.37784815111E+04  0.37774034105E+04 0.  0.
        3    1    3    3  502    0 -0.44934060649E+03 -0.20166069733E+03 -0.18690020873E+04  0.19328069821E+04  0.10100000352E+00 0.  1.
       -3    1    3    3    0  502  0.44934060649E+03  0.20166069733E+03  0.17787468733E+04  0.18456745290E+04  0.10100000352E+00 0. -1.
</event>
<event>
 5   0  0.1085771E-07  0.3734280E+04  0.7818609E-02  0.8060407E-01
        1   -1    0    0  501    0  0.00000000000E+00  0.00000000000E+00  0.22269681980E+04  0.22269681980E+04  0.50400001928E-02 0. -1.
       -1   -1    0    0    0  501  0.00000000000E+00  0.00000000000E+00 -0.15654522635E+04  0.15654522635E+04  0.50400001928E-02 0.  1.
    10030    2    1    2    0    0  0.00000000000E+00  0.00000000000E+00  0.66151593446E+03  0.37924204615E+04  0.37342803357E+04 0.  0.
        1    1    3    3  502    0  0.90330856421E+02  0.12535627379E+04  0.17330650884E+04  0.21408161533E+04  0.50400001928E-02 0. -1.
       -1    1    3    3    0  502 -0.90330856421E+02 -0.12535627379E+04 -0.10715491540E+04  0.16516043082E+04  0.50400001928E-02 0.  1.
</event>
<event>
 5   0  0.3327241E-07  0.3787474E+04  0.7818609E-02  0.8048848E-01
       -2   -1    0    0    0  501  0.00000000000E+00  0.00000000000E+00  0.11556046681E+04  0.11556046681E+04  0.25500000920E-02 0. -1.
        2   -1    0    0  501    0  0.00000000000E+00  0.00000000000E+00 -0.31033444229E+04  0.31033444229E+04  0.25500000920E-02 0.  1.
    10030    2    1    2    0    0  0.00000000000E+00  0.00000000000E+00 -0.19477397548E+04  0.42589490910E+04  0.37874737237E+04 0.  0.
        3    1    3    3  502    0 -0.14317909626E+04 -0.93796423077E+03 -0.18849348655E+04  0.25461307343E+04  0.10100000352E+00 0.  1.
       -3    1    3    3    0  502  0.14317909626E+04  0.93796423077E+03 -0.62804889300E+02  0.17128183567E+04  0.10100000352E+00 0. -1.
</event>
<event>
 5   0  0.3377396E-07  0.3824923E+04  0.7818609E-02  0.8040828E-01
       -2   -1    0    0    0  501  0.00000000000E+00  0.00000000000E+00  0.12834112679E+04  0.12834112679E+04  0.25500000920E-02 0.  1.
        2   -1    0    0  501    0  0.00000000000E+00  0.00000000000E+00 -0.28498341226E+04  0.28498341226E+04  0.25500000920E-02 0. -1.
    10030    2    1    2    0    0  0.00000000000E+00  0.00000000000E+00 -0.15664228547E+04  0.41332453906E+04  0.38249231233E+04 0.  0.
        5    1    3    3  502    0 -0.14313609125E+04 -0.75141588666E+03 -0.18873732158E+04  0.24850794036E+04  0.46999998093E+01 0. -1.
       -5    1    3    3    0  502  0.14313609125E+04  0.75141588666E+03  0.32095036109E+03  0.16481659870E+04  0.46999998093E+01 0.  1.
</event>
<event>
 5   0  0.3377396E-07  0.3476823E+04  0.7818609E-02  0.8119305E-01
        2   -1    0    0  501    0  0.00000000000E+00  0.00000000000E+00  0.10787402187E+04  0.10787402187E+04  0.25500000920E-02 0.  1.
       -2   -1    0    0    0  501  0.00000000000E+00  0.00000000000E+00 -0.28014857686E+04  0.28014857686E+04  0.25500000920E-02 0. -1.
    10030    2    1    2    0    0  0.00000000000E+00  0.00000000000E+00 -0.17227455499E+04  0.38802259874E+04  0.34768234760E+04 0.  0.
        5    1    3    3  502    0  0.13343410201E+04  0.28145021277E+03  0.34185307619E+03  0.14059039071E+04  0.46999998093E+01 0.  1.
       -5    1    3    3    0  502 -0.13343410201E+04 -0.28145021277E+03 -0.20645986261E+04  0.24743220803E+04  0.46999998093E+01 0. -1.
</event>
<event>
 5   0  0.1085771E-07  0.3789849E+04  0.7818609E-02  0.8048337E-01
       -1   -1    0    0    0  501  0.00000000000E+00  0.00000000000E+00  0.13538837641E+04  0.13538837641E+04  0.50400001928E-02 0.  1.
        1   -1    0    0  501    0  0.00000000000E+00  0.00000000000E+00 -0.26521772491E+04  0.26521772491E+04  0.50400001928E-02 0. -1.
    10030    2    1    2    0    0  0.00000000000E+00  0.00000000000E+00 -0.12982934850E+04  0.40060610131E+04  0.37898494519E+04 0.  0.
        1    1    3    3  502    0  0.83900723946E+03  0.16886176438E+04 -0.84796498781E+03  0.20674639817E+04  0.50400001928E-02 0. -1.
       -1    1    3    3    0  502 -0.83900723946E+03 -0.16886176438E+04 -0.45032849719E+03  0.19385970314E+04  0.50400001928E-02 0.  1.
</event>
<event>
 5   0  0.3539010E-07  0.3782597E+04  0.7818609E-02  0.8049900E-01
        2   -1    0    0  501    0  0.00000000000E+00  0.00000000000E+00  0.19070783505E+04  0.19070783505E+04  0.25500000920E-02 0.  1.
       -2   -1    0    0    0  501  0.00000000000E+00  0.00000000000E+00 -0.18756491289E+04  0.18756491289E+04  0.25500000920E-02 0. -1.
    10030    2    1    2    0    0  0.00000000000E+00  0.00000000000E+00  0.31429221663E+02  0.37827274794E+04  0.37825969105E+04 0.  0.
        1    1    3    3  502    0 -0.11962131737E+04  0.56171039698E+03  0.13687451715E+04  0.19026055481E+04  0.50400001928E-02 0.  1.
       -1    1    3    3    0  502  0.11962131737E+04 -0.56171039698E+03 -0.13373159499E+04  0.18801219313E+04  0.50400001928E-02 0. -1.
</event>
<event>
 5   0  0.3539010E-07  0.3565883E+04  0.7818609E-02  0.8098352E-01
       -2   -1    0    0    0  501  0.00000000000E+00  0.00000000000E+00  0.22833102049E+04  0.22833102049E+04  0.25500000920E-02 0.  1.
        2   -1    0    0  501    0  0.00000000000E+00  0.00000000000E+00 -0.13922243908E+04  0.13922243908E+04  0.25500000920E-02 0. -1.
    10030    2    1    2    0    0  0.00000000000E+00  0.00000000000E+00  0.89108581409E+03  0.36755345957E+04  0.35658828691E+04 0.  0.
        1    1    3    3  502    0 -0.37630198896E+03 -0.65108409581E+03  0.21118444594E+04  0.22417405531E+04  0.50400001928E-02 0.  1.
       -1    1    3    3    0  502  0.37630198896E+03  0.65108409581E+03 -0.12207586453E+04  0.14337940427E+04  0.50400001928E-02 0. -1.
</event>
<event>
 5   0  0.1070988E-07  0.3814122E+04  0.7818609E-02  0.8043131E-01
       -1   -1    0    0    0  501  0.00000000000E+00  0.00000000000E+00  0.20305728709E+04  0.20305728709E+04  0.50400001928E-02 0. -1.
        1   -1    0    0  501    0  0.00000000000E+00  0.00000000000E+00 -0.17910615014E+04  0.17910615014E+04  0.50400001928E-02 0.  1.
    10030    2    1    2    0    0  0.00000000000E+00  0.00000000000E+00  0.23951136954E+03  0.38216343723E+04  0.38141216000E+04 0.  0.
        3    1    3    3  502    0 -0.16342447648E+04 -0.48201789336E+03 -0.73854335140E+03  0.18570254422E+04  0.10100000352E+00 0.  1.
       -3    1    3    3    0  502  0.16342447648E+04  0.48201789336E+03  0.97805472094E+03  0.19646089301E+04  0.10100000352E+00 0. -1.
</event>
<event>
 5   0  0.3509843E-07  0.3621192E+04  0.7818609E-02  0.8085655E-01
       -2   -1    0    0    0  501  0.00000000000E+00  0.00000000000E+00  0.21444341875E+04  0.21444341875E+04  0.25500000920E-02 0.  1.
        2   -1    0    0  501    0  0.00000000000E+00  0.00000000000E+00 -0.15287286759E+04  0.15287286760E+04  0.25500000920E-02 0. -1.
    10030    2    1    2    0    0  0.00000000000E+00  0.00000000000E+00  0.61570551159E+03  0.36731628635E+04  0.36211920889E+04 0.  0.
        4    1    3    3  502    0 -0.39114006810E+03  0.68238083912E+03 -0.13463875627E+04  0.15592931874E+04  0.12699999809E+01 0. -1.
       -4    1    3    3    0  502  0.39114006810E+03 -0.68238083912E+03  0.19620930743E+04  0.21138696761E+04  0.12699999809E+01 0.  1.
</event>
<event>
 5   0  0.1070988E-07  0.3770447E+04  0.7818609E-02  0.8052527E-01
       -1   -1    0    0    0  501  0.00000000000E+00  0.00000000000E+00  0.31981080711E+04  0.31981080711E+04  0.50400001928E-02 0.  1.
        1   -1    0    0  501    0  0.00000000000E+00  0.00000000000E+00 -0.11113034169E+04  0.11113034169E+04  0.50400001928E-02 0. -1.
    10030    2    1    2    0    0  0.00000000000E+00  0.00000000000E+00  0.20868046542E+04  0.43094114879E+04  0.37704474148E+04 0.  0.
        2    1    3    3  502    0  0.35357980007E+03 -0.12748451802E+04 -0.49164446292E+03  0.14113692594E+04  0.25500000920E-02 0. -1.
       -2    1    3    3    0  502 -0.35357980007E+03  0.12748451802E+04  0.25784491171E+04  0.28980422285E+04  0.25500000920E-02 0.  1.
</event>
<event>
 5   0  0.3442126E-07  0.3320281E+04  0.7818609E-02  0.8157754E-01
       -2   -1    0    0    0  501  0.00000000000E+00  0.00000000000E+00  0.11867030176E+04  0.11867030176E+04  0.25500000920E-02 0.  1.
        2   -1    0    0  501    0  0.00000000000E+00  0.00000000000E+00 -0.23224563689E+04  0.23224563689E+04  0.25500000920E-02 0. -1.
    10030    2    1    2    0    0  0.00000000000E+00  0.00000000000E+00 -0.11357533513E+04  0.35091593865E+04  0.33202806998E+04 0.  0.
        2    1    3    3  502    0 -0.85105915124E+03  0.12959922815E+02  0.93854655598E+03  0.12670198405E+04  0.25500000920E-02 0.  1.
       -2    1    3    3    0  502  0.85105915124E+03 -0.12959922815E+02 -0.20742999073E+04  0.22421395460E+04  0.25500000920E-02 0. -1.
</event>
<event>
 5   0  0.1070988E-07  0.3789246E+04  0.7818609E-02  0.8048467E-01
        1   -1    0    0  501    0  0.00000000000E+00  0.00000000000E+00  0.19248445884E+04  0.19248445884E+04  0.50400001928E-02 0.  1.
       -1   -1    0    0    0  501  0.00000000000E+00  0.00000000000E+00 -0.18648761219E+04  0.18648761219E+04  0.50400001928E-02 0. -1.
    10030    2    1    2    0    0  0.00000000000E+00  0.00000000000E+00  0.59968466548E+02  0.37897207103E+04  0.37892462106E+04 0.  0.
        3    1    3    3  502    0  0.16068997117E+04 -0.28640322292E+03 -0.93213582104E+03  0.18796357862E+04  0.10100000352E+00 0. -1.
       -3    1    3    3    0  502 -0.16068997117E+04  0.28640322292E+03  0.99210428759E+03  0.19100849241E+04  0.10100000352E+00 0.  1.
</event>
<event>
 5   0  0.3442126E-07  0.3795252E+04  0.7818609E-02  0.8047174E-01
       -2   -1    0    0    0  501  0.00000000000E+00  0.00000000000E+00  0.17730673933E+04  0.17730673933E+04  0.25500000920E-02 0. -1.
        2   -1    0    0  501    0  0.00000000000E+00  0.00000000000E+00 -0.20309351814E+04  0.20309351814E+04  0.25500000920E-02 0.  1.
    10030    2    1    2    0    0  0.00000000000E+00  0.00000000000E+00 -0.25786778806E+03  0.38040025747E+04  0.37952522699E+04 0.  0.
        2    1    3    3  502    0  0.14920224110E+04 -0.88418943993E+03 -0.90081535098E+03  0.19543260059E+04  0.25500000920E-02 0.  1.
       -2    1    3    3    0  502 -0.14920224110E+04  0.88418943993E+03  0.64294756292E+03  0.18496765688E+04  0.25500000920E-02 0. -1.
</event>
<event>
 5   0  0.3377396E-07  0.3585986E+04  0.7818609E-02  0.8093709E-01
       -2   -1    0    0    0  501  0.00000000000E+00  0.00000000000E+00  0.14552265157E+04  0.14552265157E+04  0.25500000920E-02 0.  1.
        2   -1    0    0  501    0  0.00000000000E+00  0.00000000000E+00 -0.22091564423E+04  0.22091564423E+04  0.25500000920E-02 0. -1.
    10030    2    1    2    0    0  0.00000000000E+00  0.00000000000E+00 -0.75392992664E+03  0.36643829580E+04  0.35859855171E+04 0.  0.
        5    1    3    3  502    0 -0.91960784360E+03 -0.86361517311E+03 -0.16789036711E+04  0.21000593754E+04  0.46999998093E+01 0. -1.
       -5    1    3    3    0  502  0.91960784360E+03  0.86361517311E+03  0.92497374445E+03  0.15643235826E+04  0.46999998093E+01 0.  1.
</event>
<event>
 5   0  0.3377396E-07  0.4358148E+04  0.7818609E-02  0.7935953E-01
        2   -1    0    0  501    0  0.00000000000E+00  0.00000000000E+00  0.23444799573E+04  0.23444799573E+04  0.25500000920E-02 0. -1.
       -2   -1    0    0    0  501  0.00000000000E+00  0.00000000000E+00 -0.20253378942E+04  0.20253378942E+04  0.25500000920E-02 0.  1.
    10030    2    1    2    0    0  0.00000000000E+00  0.00000000000E+00  0.31914206306E+03  0.43698178515E+04  0.43581482763E+04 0.  0.
        5    1    3    3  502    0 -0.71163763768E+03 -0.20307644165E+04  0.50387039738E+03  0.22100542324E+04  0.46999998093E+01 0. -1.
       -5    1    3    3    0  502  0.71163763768E+03  0.20307644165E+04 -0.18472833433E+03  0.21597636191E+04  0.46999998093E+01 0.  1.
</event>
<event>
 5   0  0.1070988E-07  0.3757201E+04  0.7818609E-02  0.8055402E-01
        1   -1    0    0  501    0  0.00000000000E+00  0.00000000000E+00  0.17663631431E+04  0.17663631431E+04  0.50400001928E-02 0.  1.
       -1   -1    0    0    0  501  0.00000000000E+00  0.00000000000E+00 -0.19979697659E+04  0.19979697659E+04  0.50400001928E-02 0. -1.
    10030    2    1    2    0    0  0.00000000000E+00  0.00000000000E+00 -0.23160662275E+03  0.37643329090E+04  0.37572011687E+04 0.  0.
        2    1    3    3  502    0  0.19940966857E+02  0.73507651931E+03  0.16161784112E+04  0.17756034998E+04  0.25500000920E-02 0.  1.
       -2    1    3    3    0  502 -0.19940966857E+02 -0.73507651931E+03 -0.18477850340E+04  0.19887294093E+04  0.25500000920E-02 0. -1.
</event>
<event>
 5   0  0.1070988E-07  0.3798654E+04  0.7818609E-02  0.8046444E-01
        1   -1    0    0  501    0  0.00000000000E+00  0.00000000000E+00  0.20831622458E+04  0.20831622458E+04  0.50400001928E-02 0. -1.
       -1   -1    0    0    0  501  0.00000000000E+00  0.00000000000E+00 -0.17317144947E+04  0.17317144947E+04  0.50400001928E-02 0.  1.
    10030    2    1    2    0    0  0.00000000000E+00  0.00000000000E+00  0.35144775109E+03  0.38148767406E+04  0.37986535804E+04 0.  0.
        3    1    3    3  502    0  0.14097495967E+03  0.18327463861E+04 -0.30444883453E+03  0.18632021785E+04  0.10100000352E+00 0.  1.
       -3    1    3    3    0  502 -0.14097495967E+03 -0.18327463861E+04  0.65589658562E+03  0.19516745621E+04  0.10100000352E+00 0. -1.
</event>
<event>
 5   0  0.1070988E-07  0.3774656E+04  0.7818609E-02  0.8051616E-01
        1   -1    0    0  501    0  0.00000000000E+00  0.00000000000E+00  0.20292149833E+04  0.20292149833E+04  0.50400001928E-02 0.  1.
       -1   -1    0    0    0  501  0.00000000000E+00  0.00000000000E+00 -0.17553622483E+04  0.17553622483E+04  0.50400001928E-02 0. -1.
    10030    2    1    2    0    0  0.00000000000E+00  0.00000000000E+00  0.27385273504E+03  0.37845772316E+04  0.37746562097E+04 0.  0.
        3    1    3    3  502    0  0.78804723589E+03 -0.85560083643E+03 -0.13532289901E+04  0.17844606881E+04  0.10100000352E+00 0. -1.
       -3    1    3    3    0  502 -0.78804723589E+03  0.85560083643E+03  0.16270817252E+04  0.20001165436E+04  0.10100000352E+00 0.  1.
</event>
<event>
 5   0  0.1070988E-07  0.3477529E+04  0.7818609E-02  0.8119136E-01
        1   -1    0    0  501    0  0.00000000000E+00  0.00000000000E+00  0.12196438801E+04  0.12196438801E+04  0.50400001928E-02 0.  1.
       -1   -1    0    0    0  501  0.00000000000E+00  0.00000000000E+00 -0.24788404711E+04  0.24788404711E+04  0.50400001928E-02 0. -1.
    10030    2    1    2    0    0  0.00000000000E+00  0.00000000000E+00 -0.12591965911E+04  0.36984843512E+04  0.34775293588E+04 0.  0.
        5    1    3    3  502    0 -0.12382183602E+04 -0.52141124381E+03 -0.18034600015E+04  0.22488984991E+04  0.46999998093E+01 0. -1.
       -5    1    3    3    0  502  0.12382183602E+04  0.52141124381E+03  0.54426341039E+03  0.14495858521E+04  0.46999998093E+01 0.  1.
</event>
<event>
 5   0  0.3539010E-07  0.3789364E+04  0.7818609E-02  0.8048441E-01
        2   -1    0    0  501    0  0.00000000000E+00  0.00000000000E+00  0.25727275176E+04  0.25727275176E+04  0.25500000920E-02 0. -1.
       -2   -1    0    0    0  501  0.00000000000E+00  0.00000000000E+00 -0.13953361703E+04  0.13953361703E+04  0.25500000920E-02 0.  1.
    10030    2    1    2    0    0  0.00000000000E+00  0.00000000000E+00  0.11773913473E+04  0.39680636878E+04  0.37893639369E+04 0.  0.
        1    1    3    3  502    0 -0.17059995935E+04 -0.45384195144E+03 -0.13180142641E+03  0.17702482159E+04  0.50400001928E-02 0.  1.
       -1    1    3    3    0  502  0.17059995935E+04  0.45384195144E+03  0.13091927737E+04  0.21978154719E+04  0.50400001928E-02 0. -1.
</event>
<event>
 5   0  0.1070988E-07  0.3113762E+04  0.7818609E-02  0.8211971E-01
       -1   -1    0    0    0  501  0.00000000000E+00  0.00000000000E+00  0.11890845453E+04  0.11890845453E+04  0.50400001928E-02 0. -1.
        1   -1    0    0  501    0  0.00000000000E+00  0.00000000000E+00 -0.20384404233E+04  0.20384404234E+04  0.50400001928E-02 0.  1.
    10030    2    1    2    0    0  0.00000000000E+00  0.00000000000E+00 -0.84935587807E+03  0.32275249686E+04  0.31137617146E+04 0.  0.
        5    1    3    3  502    0 -0.72412433083E+03  0.77413338161E+03  0.75725332032E+03  0.13027253049E+04  0.46999998093E+01 0. -1.
       -5    1    3    3    0  502  0.72412433083E+03 -0.77413338161E+03 -0.16066091984E+04  0.19247996637E+04  0.46999998093E+01 0.  1.
</event>
<event>
 5   0  0.3539010E-07  0.3778850E+04  0.7818609E-02  0.8050709E-01
        2   -1    0    0  501    0  0.00000000000E+00  0.00000000000E+00  0.15434530749E+04  0.15434530749E+04  0.25500000920E-02 0.  1.
       -2   -1    0    0    0  501  0.00000000000E+00  0.00000000000E+00 -0.23129481741E+04  0.23129481741E+04  0.25500000920E-02 0. -1.
    10030    2    1    2    0    0  0.00000000000E+00  0.00000000000E+00 -0.76949509918E+03  0.38564012490E+04  0.37788500745E+04 0.  0.
        1    1    3    3  502    0 -0.16105652535E+04 -0.34891193722E+02 -0.13923237352E+04  0.21292494487E+04  0.50400001928E-02 0. -1.
       -1    1    3    3    0  502  0.16105652535E+04  0.34891193722E+02  0.62282863605E+03  0.17271518003E+04  0.50400001928E-02 0.  1.
</event>
<event>
 5   0  0.3327241E-07  0.3790801E+04  0.7818609E-02  0.8048132E-01
       -2   -1    0    0    0  501  0.00000000000E+00  0.00000000000E+00  0.14438388313E+04  0.14438388313E+04  0.25500000920E-02 0.  1.
        2   -1    0    0  501    0  0.00000000000E+00  0.00000000000E+00 -0.24881882919E+04  0.24881882919E+04  0.25500000920E-02 0. -1.
    10030    2    1    2    0    0  0.00000000000E+00  0.00000000000E+00 -0.10443494606E+04  0.39320271231E+04  0.37908009050E+04 0.  0.
        3    1    3    3  502    0 -0.14426760569E+04  0.10126514819E+04  0.20075972483E+03  0.17740016083E+04  0.10100000352E+00 0.  1.
       -3    1    3    3    0  502  0.14426760569E+04 -0.10126514819E+04 -0.12451091854E+04  0.21580255148E+04  0.10100000352E+00 0. -1.
</event>
<event>
 5   0  0.3442126E-07  0.3772488E+04  0.7818609E-02  0.8052085E-01
        2   -1    0    0  501    0  0.00000000000E+00  0.00000000000E+00  0.29408316103E+04  0.29408316103E+04  0.25500000920E-02 0. -1.
       -2   -1    0    0    0  501  0.00000000000E+00  0.00000000000E+00 -0.12098331343E+04  0.12098331343E+04  0.25500000920E-02 0.  1.
    10030    2    1    2    0    0  0.00000000000E+00  0.00000000000E+00  0.17309984760E+04  0.41506647445E+04  0.37724875212E+04 0.  0.
        2    1    3    3  502    0  0.35125535627E+03 -0.13043658327E+04 -0.58297173369E+03  0.14712602058E+04  0.25500000920E-02 0.  1.
       -2    1    3    3    0  502 -0.35125535627E+03  0.13043658327E+04  0.23139702097E+04  0.26794045387E+04  0.25500000920E-02 0. -1.
</event>
<event>
 5   0  0.1084315E-07  0.3802143E+04  0.7818609E-02  0.8045695E-01
        1   -1    0    0  501    0  0.00000000000E+00  0.00000000000E+00  0.17817570138E+04  0.17817570138E+04  0.50400001928E-02 0.  1.
       -1   -1    0    0    0  501  0.00000000000E+00  0.00000000000E+00 -0.20283756352E+04  0.20283756352E+04  0.50400001928E-02 0. -1.
    10030    2    1    2    0    0  0.00000000000E+00  0.00000000000E+00 -0.24661862140E+03  0.38101326490E+04  0.38021428246E+04 0.  0.
        4    1    3    3  502    0 -0.65935103469E+03 -0.61889250805E+03 -0.17990371570E+04  0.20135312336E+04  0.12699999809E+01 0. -1.
       -4    1    3    3    0  502  0.65935103469E+03  0.61889250805E+03  0.15524185356E+04  0.17966014155E+04  0.12699999809E+01 0.  1.
</event>
<event>
 5   0  0.3377396E-07  0.3354807E+04  0.7818609E-02  0.8149088E-01
        2   -1    0    0  501    0  0.00000000000E+00  0.00000000000E+00  0.24355500614E+04  0.24355500614E+04  0.25500000920E-02 0. -1.
       -2   -1    0    0    0  501  0.00000000000E+00  0.00000000000E+00 -0.11552555146E+04  0.11552555146E+04  0.25500000920E-02 0.  1.
    10030    2    1    2    0    0  0.00000000000E+00  0.00000000000E+00  0.12802945468E+04  0.35908055760E+04  0.33548070821E+04 0.  0.
        5    1    3    3  502    0 -0.67660055057E+03 -0.10921349837E+04  0.17944916017E+04  0.22069819497E+04  0.46999998093E+01 0. -1.
       -5    1    3    3    0  502  0.67660055057E+03  0.10921349837E+04 -0.51419705489E+03  0.13838236264E+04  0.46999998093E+01 0.  1.
</event>
<event>
 5   0  0.3377396E-07  0.3825334E+04  0.7818609E-02  0.8040740E-01
        2   -1    0    0  501    0  0.00000000000E+00  0.00000000000E+00  0.26012041742E+04  0.26012041742E+04  0.25500000920E-02 0. -1.
       -2   -1    0    0    0  501  0.00000000000E+00  0.00000000000E+00 -0.14063854860E+04  0.14063854860E+04  0.25500000920E-02 0.  1.
    10030    2    1    2    0    0  0.00000000000E+00  0.00000000000E+00  0.11948186882E+04  0.40075896602E+04  0.38253343889E+04 0.  0.
        5    1    3    3  502    0 -0.34965933953E+03 -0.77242885501E+03 -0.11987326009E+04  0.14682949051E+04  0.46999998093E+01 0.  1.
       -5    1    3    3    0  502  0.34965933953E+03  0.77242885501E+03  0.23935512891E+04  0.25392947551E+04  0.46999998093E+01 0. -1.
</event>
<event>
 5   0  0.3539010E-07  0.3787778E+04  0.7818609E-02  0.8048783E-01
       -2   -1    0    0    0  501  0.00000000000E+00  0.00000000000E+00  0.14075836512E+04  0.14075836512E+04  0.25500000920E-02 0. -1.
        2   -1    0    0  501    0  0.00000000000E+00  0.00000000000E+00 -0.25482077456E+04  0.25482077456E+04  0.25500000920E-02 0.  1.
    10030    2    1    2    0    0  0.00000000000E+00  0.00000000000E+00 -0.11406240944E+04  0.39557913968E+04  0.37877780097E+04 0.  0.
        1    1    3    3  502    0  0.97592107208E+03 -0.95846509211E+03 -0.19382751547E+04  0.23723380550E+04  0.50400001928E-02 0.  1.
       -1    1    3    3    0  502 -0.97592107208E+03  0.95846509211E+03  0.79765106032E+03  0.15834533418E+04  0.50400001928E-02 0. -1.
</event>
<event>
 5   0  0.3509843E-07  0.3845403E+04  0.7818609E-02  0.8036481E-01
       -2   -1    0    0    0  501  0.00000000000E+00  0.00000000000E+00  0.13094300500E+04  0.13094300500E+04  0.25500000920E-02 0. -1.
        2   -1    0    0  501    0  0.00000000000E+00  0.00000000000E+00 -0.28231990465E+04  0.28231990465E+04  0.25500000920E-02 0.  1.
    10030    2    1    2    0    0  0.00000000000E+00  0.00000000000E+00 -0.15137689965E+04  0.41326290965E+04  0.38454033176E+04 0.  0.
        4    1    3    3  502    0  0.12595713985E+04 -0.69512966352E+03  0.61395184290E+03  0.15641815225E+04  0.12699999809E+01 0. -1.
       -4    1    3    3    0  502 -0.12595713985E+04  0.69512966352E+03 -0.21277208394E+04  0.25684475740E+04  0.12699999809E+01 0.  1.
</event>
<event>
 5   0  0.1084315E-07  0.3211948E+04  0.7818609E-02  0.8185669E-01
       -1   -1    0    0    0  501  0.00000000000E+00  0.00000000000E+00  0.12116018239E+04  0.12116018239E+04  0.50400001928E-02 0.  1.
        1   -1    0    0  501    0  0.00000000000E+00  0.00000000000E+00 -0.21287126402E+04  0.21287126402E+04  0.50400001928E-02 0. -1.
    10030    2    1    2    0    0  0.00000000000E+00  0.00000000000E+00 -0.91711081634E+03  0.33403144641E+04  0.32119477689E+04 0.  0.
        4    1    3    3  502    0  0.10041002454E+04  0.11756144197E+04 -0.91050854009E+03  0.17942446826E+04  0.12699999809E+01 0. -1.
       -4    1    3    3    0  502 -0.10041002454E+04 -0.11756144197E+04 -0.66022762513E+01  0.15460697816E+04  0.12699999809E+01 0.  1.
</event>
<event>
 5   0  0.1070988E-07  0.3234223E+04  0.7818609E-02  0.8179837E-01
       -1   -1    0    0    0  501  0.00000000000E+00  0.00000000000E+00  0.17085203986E+04  0.17085203986E+04  0.50400001928E-02 0. -1.
        1   -1    0    0  501    0  0.00000000000E+00  0.00000000000E+00 -0.15305928908E+04  0.15305928908E+04  0.50400001928E-02 0.  1.
    10030    2    1    2    0    0  0.00000000000E+00  0.00000000000E+00  0.17792750784E+03  0.32391132894E+04  0.32342227356E+04 0.  0.
        2    1    3    3  502    0 -0.15240069516E+04  0.26641284420E+03  0.56028794196E+03  0.16454469210E+04  0.25500000920E-02 0. -1.
       -2    1    3    3    0  502  0.15240069516E+04 -0.26641284420E+03 -0.38236043412E+03  0.15936663684E+04  0.25500000920E-02 0.  1.
</event>
<event>
 5   0  0.3377396E-07  0.3785784E+04  0.7818609E-02  0.8049212E-01
        2   -1    0    0  501    0  0.00000000000E+00  0.00000000000E+00  0.16052432214E+04  0.16052432215E+04  0.25500000920E-02 0. -1.
       -2   -1    0    0    0  501  0.00000000000E+00  0.00000000000E+00 -0.22320859469E+04  0.22320859469E+04  0.25500000920E-02 0.  1.
    10030    2    1    2    0    0  0.00000000000E+00  0.00000000000E+00 -0.62684272540E+03  0.38373291683E+04  0.37857843763E+04 0.  0.
        5    1    3    3  502    0 -0.17433787841E+04 -0.73297390761E+03 -0.39450052824E+03  0.19319091829E+04  0.46999998093E+01 0.  1.
       -5    1    3    3    0  502  0.17433787841E+04  0.73297390761E+03 -0.23234219717E+03  0.19054199854E+04  0.46999998093E+01 0. -1.
</event>
<event>
 5   0  0.3327241E-07  0.3628755E+04  0.7818609E-02  0.8083937E-01
        2   -1    0    0  501    0  0.00000000000E+00  0.00000000000E+00  0.21957100298E+04  0.21957100298E+04  0.25500000920E-02 0. -1.
       -2   -1    0    0    0  501  0.00000000000E+00  0.00000000000E+00 -0.14992714384E+04  0.14992714384E+04  0.25500000920E-02 0.  1.
    10030    2    1    2    0    0  0.00000000000E+00  0.00000000000E+00  0.69643859149E+03  0.36949814682E+04  0.36287547918E+04 0.  0.
        3    1    3    3  502    0  0.35650202677E+03  0.61579241203E+03 -0.13512744859E+04  0.15271662438E+04  0.10100000352E+00 0.  1.
       -3    1    3    3    0  502 -0.35650202677E+03 -0.61579241203E+03  0.20477130774E+04  0.21678152244E+04  0.10100000352E+00 0. -1.
</event>
<event>
 5   0  0.1070988E-07  0.3800963E+04  0.7818609E-02  0.8045948E-01
       -1   -1    0    0    0  501  0.00000000000E+00  0.00000000000E+00  0.16576737358E+04  0.16576737358E+04  0.50400001928E-02 0. -1.
        1   -1    0    0  501    0  0.00000000000E+00  0.00000000000E+00 -0.21788547962E+04  0.21788547962E+04  0.50400001928E-02 0.  1.
    10030    2    1    2    0    0  0.00000000000E+00  0.00000000000E+00 -0.52118106032E+03  0.38365285320E+04  0.38009632305E+04 0.  0.
        2    1    3    3  502    0 -0.12553061931E+04  0.14268560131E+04 -0.24959598556E+03  0.19167706896E+04  0.25500000920E-02 0. -1.
       -2    1    3    3    0  502  0.12553061931E+04 -0.14268560131E+04 -0.27158507477E+03  0.19197578424E+04  0.25500000920E-02 0.  1.
</event>
<event>
 5   0  0.3509843E-07  0.3781070E+04  0.7818609E-02  0.8050229E-01
       -2   -1    0    0    0  501  0.00000000000E+00  0.00000000000E+00  0.31222052126E+04  0.31222052126E+04  0.25500000920E-02 0. -1.
        2   -1    0    0  501    0  0.00000000000E+00  0.00000000000E+00 -0.11447431508E+04  0.11447431508E+04  0.25500000920E-02 0.  1.
    10030    2    1    2    0    0  0.00000000000E+00  0.00000000000E+00  0.19774620618E+04  0.42669483634E+04  0.37810702361E+04 0.  0.
        4    1    3    3  502    0 -0.13513831522E+04  0.12513071413E+04  0.14703194325E+04  0.23566601011E+04  0.12699999809E+01 0. -1.
       -4    1    3    3    0  502  0.13513831522E+04 -0.12513071413E+04  0.50714262927E+03  0.19102882623E+04  0.12699999809E+01 0.  1.
</event>
<event>
 5   0  0.1084315E-07  0.3553731E+04  0.7818609E-02  0.8101173E-01
       -1   -1    0    0    0  501  0.00000000000E+00  0.00000000000E+00  0.20718456251E+04  0.20718456251E+04  0.50400001928E-02 0.  1.
        1   -1    0    0  501    0  0.00000000000E+00  0.00000000000E+00 -0.15238834265E+04  0.15238834265E+04  0.50400001928E-02 0. -1.
    10030    2    1    2    0    0  0.00000000000E+00  0.00000000000E+00  0.54796219860E+03  0.35957290516E+04  0.35537311155E+04 0.  0.
        4    1    3    3  502    0  0.12481001612E+03  0.12986045728E+04  0.14945952299E+04  0.19838769848E+04  0.12699999809E+01 0.  1.
       -4    1    3    3    0  502 -0.12481001612E+03 -0.12986045728E+04 -0.94663303132E+03  0.16118520668E+04  0.12699999809E+01 0. -1.
</event>
<event>
 5   0  0.1070988E-07  0.3786867E+04  0.7818609E-02  0.8048979E-01
       -1   -1    0    0    0  501  0.00000000000E+00  0.00000000000E+00  0.21589720470E+04  0.21589720470E+04  0.50400001928E-02 0.  1.
        1   -1    0    0  501    0  0.00000000000E+00  0.00000000000E+00 -0.16605539726E+04  0.16605539726E+04  0.50400001928E-02 0. -1.
    10030    2    1    2    0    0  0.00000000000E+00  0.00000000000E+00  0.49841807446E+03  0.38195260196E+04  0.37868665724E+04 0.  0.
        5    1    3    3  502    0 -0.15975530523E+03  0.13259196065E+04  0.16029779866E+04  0.20864191995E+04  0.46999998093E+01 0.  1.
       -5    1    3    3    0  502  0.15975530523E+03 -0.13259196065E+04 -0.11045599121E+04  0.17331068201E+04  0.46999998093E+01 0. -1.
</event>
<event>
 5   0  0.3327241E-07  0.3760185E+04  0.7818609E-02  0.8054753E-01
       -2   -1    0    0    0  501  0.00000000000E+00  0.00000000000E+00  0.17839311487E+04  0.17839311487E+04  0.25500000920E-02 0. -1.
        2   -1    0    0  501    0  0.00000000000E+00  0.00000000000E+00 -0.19814371423E+04  0.19814371423E+04  0.25500000920E-02 0.  1.
    10030    2    1    2    0    0  0.00000000000E+00  0.00000000000E+00 -0.19750599358E+03  0.37653682910E+04  0.37601848025E+04 0.  0.
        3    1    3    3  502    0  0.10677083036E+04  0.14121144837E+04  0.53511176784E+03  0.18494358466E+04  0.10100000352E+00 0. -1.
       -3    1    3    3    0  502 -0.10677083036E+04 -0.14121144837E+04 -0.73261776142E+03  0.19159324443E+04  0.10100000352E+00 0.  1.
</event>
<event>
 5   0  0.1070988E-07  0.3815599E+04  0.7818609E-02  0.8042816E-01
       -1   -1    0    0    0  501  0.00000000000E+00  0.00000000000E+00  0.26893451298E+04  0.26893451298E+04  0.50400001928E-02 0. -1.
        1   -1    0    0  501    0  0.00000000000E+00  0.00000000000E+00 -0.13533772578E+04  0.13533772578E+04  0.50400001928E-02 0.  1.
    10030    2    1    2    0    0  0.00000000000E+00  0.00000000000E+00  0.13359678720E+04  0.40427223877E+04  0.38155987929E+04 0.  0.
        2    1    3    3  502    0 -0.10522333891E+04 -0.48780261158E+03  0.22729290061E+04  0.25517352449E+04  0.25500000920E-02 0. -1.
       -2    1    3    3    0  502  0.10522333891E+04  0.48780261158E+03 -0.93696113415E+03  0.14909871428E+04  0.25500000920E-02 0.  1.
</event>
<event>
 5   0  0.3539010E-07  0.3816665E+04  0.7818609E-02  0.8042588E-01
       -2   -1    0    0    0  501  0.00000000000E+00  0.00000000000E+00  0.12311521385E+04  0.12311521385E+04  0.25500000920E-02 0. -1.
        2   -1    0    0  501    0  0.00000000000E+00  0.00000000000E+00 -0.29579883991E+04  0.29579883991E+04  0.25500000920E-02 0.  1.
    10030    2    1    2    0    0  0.00000000000E+00  0.00000000000E+00 -0.17268362606E+04  0.41891405376E+04  0.38166654259E+04 0.  0.
        1    1    3    3  502    0  0.32973347939E+03 -0.16110425518E+04  0.19934969927E+03  0.16564789687E+04  0.50400001928E-02 0. -1.
       -1    1    3    3    0  502 -0.32973347939E+03  0.16110425518E+04 -0.19261859599E+04  0.25326615690E+04  0.50400001928E-02 0.  1.
</event>
<event>
 5   0  0.3327241E-07  0.3799080E+04  0.7818609E-02  0.8046352E-01
        2   -1    0    0  501    0  0.00000000000E+00  0.00000000000E+00  0.15411009131E+04  0.15411009131E+04  0.25500000920E-02 0.  1.
       -2   -1    0    0    0  501  0.00000000000E+00  0.00000000000E+00 -0.23413474332E+04  0.23413474332E+04  0.25500000920E-02 0. -1.
    10030    2    1    2    0    0  0.00000000000E+00  0.00000000000E+00 -0.80024652017E+03  0.38824483463E+04  0.37990802398E+04 0.  0.
        3    1    3    3  502    0  0.83097616611E+03  0.15870163492E+04  0.24549191397E+03  0.18081505942E+04  0.10100000352E+00 0. -1.
       -3    1    3    3    0  502 -0.83097616611E+03 -0.15870163492E+04 -0.10457384341E+04  0.20742977521E+04  0.10100000352E+00 0.  1.
</event>
<event>
 5   0  0.1070988E-07  0.3800709E+04  0.7818609E-02  0.8046003E-01
       -1   -1    0    0    0  501  0.00000000000E+00  0.00000000000E+00  0.17884353431E+04  0.17884353431E+04  0.50400001928E-02 0. -1.
        1   -1    0    0  501    0  0.00000000000E+00  0.00000000000E+00 -0.20192773803E+04  0.20192773804E+04  0.50400001928E-02 0.  1.
    10030    2    1    2    0    0  0.00000000000E+00  0.00000000000E+00 -0.23084203723E+03  0.38077127235E+04  0.38007088994E+04 0.  0.
        3    1    3    3  502    0 -0.53969142467E+03 -0.18203582913E+04 -0.35424755245E+02  0.18990065998E+04  0.10100000352E+00 0. -1.
       -3    1    3    3    0  502  0.53969142467E+03  0.18203582913E+04 -0.19541728199E+03  0.19087061237E+04  0.10100000352E+00 0.  1.
</event>
<event>
 5   0  0.1085771E-07  0.3719873E+04  0.7818609E-02  0.8063572E-01
        1   -1    0    0  501    0  0.00000000000E+00  0.00000000000E+00  0.22447920821E+04  0.22447920821E+04  0.50400001928E-02 0. -1.
       -1   -1    0    0    0  501  0.00000000000E+00  0.00000000000E+00 -0.15410620826E+04  0.15410620826E+04  0.50400001928E-02 0.  1.
    10030    2    1    2    0    0  0.00000000000E+00  0.00000000000E+00  0.70372999949E+03  0.37858541646E+04  0.37198730951E+04 0.  0.
        1    1    3    3  502    0 -0.15112564608E+04  0.13708115542E+03 -0.74270045259E+03  0.16894647957E+04  0.50400001928E-02 0.  1.
       -1    1    3    3    0  502  0.15112564608E+04 -0.13708115542E+03  0.14464304521E+04  0.20963893690E+04  0.50400001928E-02 0. -1.
</event>
<event>
 5   0  0.3539010E-07  0.3776595E+04  0.7818609E-02  0.8051196E-01
        2   -1    0    0  501    0  0.00000000000E+00  0.00000000000E+00  0.25004085853E+04  0.25004085853E+04  0.25500000920E-02 0.  1.
       -2   -1    0    0    0  501  0.00000000000E+00  0.00000000000E+00 -0.14260337809E+04  0.14260337809E+04  0.25500000920E-02 0. -1.
    10030    2    1    2    0    0  0.00000000000E+00  0.00000000000E+00  0.10743748044E+04  0.39264423662E+04  0.37765948200E+04 0.  0.
        1    1    3    3  502    0 -0.18817088794E+04 -0.14192728185E+03  0.46594519305E+03  0.19437274971E+04  0.50400001928E-02 0.  1.
       -1    1    3    3    0  502  0.18817088794E+04  0.14192728185E+03  0.60842961133E+03  0.19827148691E+04  0.50400001928E-02 0. -1.
</event>
<event>
 5   0  0.1070988E-07  0.3877080E+04  0.7818609E-02  0.8029813E-01
       -1   -1    0    0    0  501  0.00000000000E+00  0.00000000000E+00  0.16151484908E+04  0.16151484908E+04  0.50400001928E-02 0.  1.
        1   -1    0    0  501    0  0.00000000000E+00  0.00000000000E+00 -0.23266825706E+04  0.23266825706E+04  0.50400001928E-02 0. -1.
    10030    2    1    2    0    0  0.00000000000E+00  0.00000000000E+00 -0.71153407984E+03  0.39418310614E+04  0.38770802636E+04 0.  0.
        2    1    3    3  502    0  0.28215270446E+03 -0.12175639104E+03 -0.23017610346E+04  0.23221840211E+04  0.25500000920E-02 0. -1.
       -2    1    3    3    0  502 -0.28215270446E+03  0.12175639104E+03  0.15902269548E+04  0.16196470403E+04  0.25500000920E-02 0.  1.
</event>
<event>
 5   0  0.1085771E-07  0.3811004E+04  0.7818609E-02  0.8043798E-01
       -1   -1    0    0    0  501  0.00000000000E+00  0.00000000000E+00  0.20122873335E+04  0.20122873335E+04  0.50400001928E-02 0. -1.
        1   -1    0    0  501    0  0.00000000000E+00  0.00000000000E+00 -0.18043830541E+04  0.18043830541E+04  0.50400001928E-02 0.  1.
    10030    2    1    2    0    0  0.00000000000E+00  0.00000000000E+00  0.20790427938E+03  0.38166703877E+04  0.38110036288E+04 0.  0.
        1    1    3    3  502    0 -0.66660859347E+03 -0.14886997284E+04 -0.88257262380E+03  0.18545965423E+04  0.50400001928E-02 0.  1.
       -1    1    3    3    0  502  0.66660859347E+03  0.14886997284E+04  0.10904769032E+04  0.19620738454E+04  0.50400001928E-02 0. -1.
</event>
<event>
 5   0  0.3327241E-07  0.3820158E+04  0.7818609E-02  0.8041843E-01
       -2   -1    0    0    0  501  0.00000000000E+00  0.00000000000E+00  0.20770569498E+04  0.20770569498E+04  0.25500000920E-02 0.  1.
        2   -1    0    0  501    0  0.00000000000E+00  0.00000000000E+00 -0.17565251054E+04  0.17565251054E+04  0.25500000920E-02 0. -1.
    10030    2    1    2    0    0  0.00000000000E+00  0.00000000000E+00  0.32053184441E+03  0.38335820551E+04  0.38201584666E+04 0.  0.
        3    1    3    3  502    0 -0.15812491346E+04 -0.10547189436E+04  0.34966648510E+03  0.19326271075E+04  0.10100000352E+00 0. -1.
       -3    1    3    3    0  502  0.15812491346E+04  0.10547189436E+04 -0.29134640697E+02  0.19009549477E+04  0.10100000352E+00 0.  1.
</event>
<event>
 5   0  0.1084315E-07  0.3801281E+04  0.7818609E-02  0.8045880E-01
        1   -1    0    0  501    0  0.00000000000E+00  0.00000000000E+00  0.18055925526E+04  0.18055925526E+04  0.50400001928E-02 0.  1.
       -1   -1    0    0    0  501  0.00000000000E+00  0.00000000000E+00 -0.20006923717E+04  0.20006923717E+04  0.50400001928E-02 0. -1.
    10030    2    1    2    0    0  0.00000000000E+00  0.00000000000E+00 -0.19509981906E+03  0.38062849243E+04  0.38012814925E+04 0.  0.
        4    1    3    3  502    0 -0.11684783483E+04  0.69143930480E+03  0.12342397259E+04  0.18348785455E+04  0.12699999809E+01 0.  1.
       -4    1    3    3    0  502  0.11684783483E+04 -0.69143930480E+03 -0.14293395450E+04  0.19714063788E+04  0.12699999809E+01 0. -1.
</event>
<event>
 5   0  0.1085771E-07  0.3819532E+04  0.7818609E-02  0.8041976E-01
       -1   -1    0    0    0  501  0.00000000000E+00  0.00000000000E+00  0.11952878778E+04  0.11952878778E+04  0.50400001928E-02 0.  1.
        1   -1    0    0  501    0  0.00000000000E+00  0.00000000000E+00 -0.30513199941E+04  0.30513199941E+04  0.50400001928E-02 0. -1.
    10030    2    1    2    0    0  0.00000000000E+00  0.00000000000E+00 -0.18560321163E+04  0.42466078719E+04  0.38195318040E+04 0.  0.
        1    1    3    3  502    0  0.14023668129E+04  0.67773905680E+03  0.30064771844E+03  0.15863013452E+04  0.50400001928E-02 0.  1.
       -1    1    3    3    0  502 -0.14023668129E+04 -0.67773905680E+03 -0.21566798347E+04  0.26603065268E+04  0.50400001928E-02 0. -1.
</event>
<event>
 5   0  0.1085771E-07  0.3774163E+04  0.7818609E-02  0.8051722E-01
       -1   -1    0    0    0  501  0.00000000000E+00  0.00000000000E+00  0.16380840600E+04  0.16380840600E+04  0.50400001928E-02 0. -1.
        1   -1    0    0  501    0  0.00000000000E+00  0.00000000000E+00 -0.21739280539E+04  0.21739280539E+04  0.50400001928E-02 0.  1.
    10030    2    1    2    0    0  0.00000000000E+00  0.00000000000E+00 -0.53584399383E+03  0.38120121139E+04  0.37741631617E+04 0.  0.
        1    1    3    3  502    0  0.74403810557E+03 -0.14308188874E+04 -0.12576681830E+04  0.20451319394E+04  0.50400001928E-02 0.  1.
       -1    1    3    3    0  502 -0.74403810557E+03  0.14308188874E+04  0.72182418920E+03  0.17668801745E+04  0.50400001928E-02 0. -1.
</event>
<event>
 5   0  0.3442126E-07  0.3706586E+04  0.7818609E-02  0.8066504E-01
        2   -1    0    0  501    0  0.00000000000E+00  0.00000000000E+00  0.31373536578E+04  0.31373536578E+04  0.25500000920E-02 0.  1.
       -2   -1    0    0    0  501  0.00000000000E+00  0.00000000000E+00 -0.10947743054E+04  0.10947743054E+04  0.25500000920E-02 0. -1.
    10030    2    1    2    0    0  0.00000000000E+00  0.00000000000E+00  0.20425793524E+04  0.42321279631E+04  0.37065855832E+04 0.  0.
        2    1    3    3  502    0 -0.16783165100E+03 -0.17552902416E+04  0.16726912909E+04  0.24304541654E+04  0.25500000920E-02 0.  1.
       -2    1    3    3    0  502  0.16783165100E+03  0.17552902416E+04  0.36988806156E+03  0.18016737978E+04  0.25500000920E-02 0. -1.
</event>
<event>
 5   0  0.3509843E-07  0.3838099E+04  0.7818609E-02  0.8038028E-01
       -2   -1    0    0    0  501  0.00000000000E+00  0.00000000000E+00  0.21168065169E+04  0.21168065169E+04  0.25500000920E-02 0.  1.
        2   -1    0    0  501    0  0.00000000000E+00  0.00000000000E+00 -0.17397673440E+04  0.17397673440E+04  0.25500000920E-02 0. -1.
    10030    2    1    2    0    0  0.00000000000E+00  0.00000000000E+00  0.37703917289E+03  0.38565738610E+04  0.38380989314E+04 0.  0.
        4    1    3    3  502    0 -0.17521057816E+04  0.47184190469E+03  0.81621833204E+03  0.19896540984E+04  0.12699999809E+01 0. -1.
       -4    1    3    3    0  502  0.17521057816E+04 -0.47184190469E+03 -0.43917915915E+03  0.18669197625E+04  0.12699999809E+01 0.  1.
</event>
<event>
 5   0  0.3327241E-07  0.3783547E+04  0.7818609E-02  0.8049695E-01
        2   -1    0    0  501    0  0.00000000000E+00  0.00000000000E+00  0.28002077305E+04  0.28002077305E+04  0.25500000920E-02 0. -1.
       -2   -1    0    0    0  501  0.00000000000E+00  0.00000000000E+00 -0.12780503394E+04  0.12780503394E+04  0.25500000920E-02 0.  1.
    10030    2    1    2    0    0  0.00000000000E+00  0.00000000000E+00  0.15221573911E+04  0.40782580699E+04  0.37835467172E+04 0.  0.
        3    1    3    3  502    0 -0.20142568842E+03  0.18489854128E+04  0.38848452927E+03  0.19000630528E+04  0.10100000352E+00 0.  1.
       -3    1    3    3    0  502  0.20142568842E+03 -0.18489854128E+04  0.11336728619E+04  0.21781950171E+04  0.10100000352E+00 0. -1.
</event>
<event>
 5   0  0.1070988E-07  0.3784430E+04  0.7818609E-02  0.8049504E-01
       -1   -1    0    0    0  501  0.00000000000E+00  0.00000000000E+00  0.21173939558E+04  0.21173939558E+04  0.50400001928E-02 0. -1.
        1   -1    0    0  501    0  0.00000000000E+00  0.00000000000E+00 -0.16909829978E+04  0.16909829978E+04  0.50400001928E-02 0.  1.
    10030    2    1    2    0    0  0.00000000000E+00  0.00000000000E+00  0.42641095801E+03  0.38083769537E+04  0.37844297742E+04 0.  0.
        5    1    3    3  502    0  0.84207393451E+02  0.16567778509E+04 -0.70274708858E+03  0.18016323967E+04  0.46999998093E+01 0.  1.
       -5    1    3    3    0  502 -0.84207393451E+02 -0.16567778509E+04  0.11291580466E+04  0.20067445569E+04  0.46999998093E+01 0. -1.
</event>
<event>
 5   0  0.3377396E-07  0.3415134E+04  0.7818609E-02  0.8134202E-01
        2   -1    0    0  501    0  0.00000000000E+00  0.00000000000E+00  0.20446751865E+04  0.20446751865E+04  0.25500000920E-02 0. -1.
       -2   -1    0    0    0  501  0.00000000000E+00  0.00000000000E+00 -0.14260386647E+04  0.14260386647E+04  0.25500000920E-02 0.  1.
    10030    2    1    2    0    0  0.00000000000E+00  0.00000000000E+00  0.61863652178E+03  0.34707138512E+04  0.34151344763E+04 0.  0.
        5    1    3    3  502    0  0.11846099110E+04  0.19029824484E+03  0.15441020343E+04  0.19554506503E+04  0.46999998093E+01 0. -1.
       -5    1    3    3    0  502 -0.11846099110E+04 -0.19029824484E+03 -0.92546551253E+03  0.15152632010E+04  0.46999998093E+01 0.  1.
</event>
<event>
 5   0  0.3442126E-07  0.3783782E+04  0.7818609E-02  0.8049644E-01
       -2   -1    0    0    0  501  0.00000000000E+00  0.00000000000E+00  0.16230021898E+04  0.16230021898E+04  0.25500000920E-02 0. -1.
        2   -1    0    0  501    0  0.00000000000E+00  0.00000000000E+00 -0.22053271014E+04  0.22053271014E+04  0.25500000920E-02 0.  1.
    10030    2    1    2    0    0  0.00000000000E+00  0.00000000000E+00 -0.58232491161E+03  0.38283292913E+04  0.37837815555E+04 0.  0.
        2    1    3    3  502    0 -0.50616557696E+03  0.13088581859E+04 -0.15749339306E+04  0.21094383679E+04  0.25500000920E-02 0.  1.
       -2    1    3    3    0  502  0.50616557696E+03 -0.13088581859E+04  0.99260901901E+03  0.17188909234E+04  0.25500000920E-02 0. -1.
</event>
<event>
 5   0  0.1070988E-07  0.3808762E+04  0.7818609E-02  0.8044277E-01
       -1   -1    0    0    0  501  0.00000000000E+00  0.00000000000E+00  0.14749241151E+04  0.14749241151E+04  0.50400001928E-02 0. -1.
        1   -1    0    0  501    0  0.00000000000E+00  0.00000000000E+00 -0.24588836836E+04  0.24588836836E+04  0.50400001928E-02 0.  1.
    10030    2    1    2    0    0  0.00000000000E+00  0.00000000000E+00 -0.98395956854E+03  0.39338077987E+04  0.38087619202E+04 0.  0.
        3    1    3    3  502    0 -0.76573645315E+03  0.12190188535E+04  0.79567008724E+03  0.16448252730E+04  0.10100000352E+00 0. -1.
       -3    1    3    3    0  502  0.76573645315E+03 -0.12190188535E+04 -0.17796296558E+04  0.22889825257E+04  0.10100000352E+00 0.  1.
</event>
<event>
 5   0  0.3377396E-07  0.3810384E+04  0.7818609E-02  0.8043930E-01
       -2   -1    0    0    0  501  0.00000000000E+00  0.00000000000E+00  0.25691104037E+04  0.25691104037E+04  0.25500000920E-02 0. -1.
        2   -1    0    0  501    0  0.00000000000E+00  0.00000000000E+00 -0.14128457943E+04  0.14128457943E+04  0.25500000920E-02 0.  1.
    10030    2    1    2    0    0  0.00000000000E+00  0.00000000000E+00  0.11562646094E+04  0.39819561980E+04  0.38103841428E+04 0.  0.
        5    1    3    3  502    0  0.75822655173E+03 -0.88768320642E+03  0.21515306996E+04  0.24478552694E+04  0.46999998093E+01 0. -1.
       -5    1    3    3    0  502 -0.75822655173E+03  0.88768320642E+03 -0.99526609018E+03  0.15341009285E+04  0.46999998093E+01 0.  1.
</event>
<event>
 5   0  0.3377396E-07  0.3796021E+04  0.7818609E-02  0.8047009E-01
        2   -1    0    0  501    0  0.00000000000E+00  0.00000000000E+00  0.28468561663E+04  0.28468561663E+04  0.25500000920E-02 0. -1.
       -2   -1    0    0    0  501  0.00000000000E+00  0.00000000000E+00 -0.12654112455E+04  0.12654112455E+04  0.25500000920E-02 0.  1.
    10030    2    1    2    0    0  0.00000000000E+00  0.00000000000E+00  0.15814449208E+04  0.41122674118E+04  0.37960209731E+04 0.  0.
        5    1    3    3  502    0 -0.18265313132E+04  0.43678721075E+03  0.49321230094E+03  0.19417209298E+04  0.46999998093E+01 0. -1.
       -5    1    3    3    0  502  0.18265313132E+04 -0.43678721075E+03  0.10882326199E+04  0.21705464820E+04  0.46999998093E+01 0.  1.
</event>
<event>
 5   0  0.3539010E-07  0.3087855E+04  0.7818609E-02  0.8219079E-01
        2   -1    0    0  501    0  0.00000000000E+00  0.00000000000E+00  0.15624224345E+04  0.15624224345E+04  0.25500000920E-02 0. -1.
       -2   -1    0    0    0  501  0.00000000000E+00  0.00000000000E+00 -0.15256512430E+04  0.15256512430E+04  0.25500000920E-02 0.  1.
    10030    2    1    2    0    0  0.00000000000E+00  0.00000000000E+00  0.36771191430E+02  0.30880736775E+04  0.30878547435E+04 0.  0.
        1    1    3    3  502    0 -0.24216932055E+03 -0.13526965828E+04  0.72219518556E+03  0.15524174410E+04  0.50400001928E-02 0. -1.
       -1    1    3    3    0  502  0.24216932055E+03  0.13526965828E+04 -0.68542399413E+03  0.15356562365E+04  0.50400001928E-02 0.  1.
</event>
<event>
 5   0  0.3509843E-07  0.3789425E+04  0.7818609E-02  0.8048428E-01
       -2   -1    0    0    0  501  0.00000000000E+00  0.00000000000E+00  0.14126659823E+04  0.14126659823E+04  0.25500000920E-02 0. -1.
        2   -1    0    0  501    0  0.00000000000E+00  0.00000000000E+00 -0.25412489145E+04  0.25412489146E+04  0.25500000920E-02 0.  1.
    10030    2    1    2    0    0  0.00000000000E+00  0.00000000000E+00 -0.11285829323E+04  0.39539148968E+04  0.37894252304E+04 0.  0.
        4    1    3    3  502    0  0.78831718357E+03  0.11576141869E+04  0.76719620063E+03  0.15969051978E+04  0.12699999809E+01 0. -1.
       -4    1    3    3    0  502 -0.78831718357E+03 -0.11576141869E+04 -0.18957791329E+04  0.23570096990E+04  0.12699999809E+01 0.  1.
</event>
<event>
 5   0  0.1070988E-07  0.3758794E+04  0.7818609E-02  0.8055056E-01
       -1   -1    0    0    0  501  0.00000000000E+00  0.00000000000E+00  0.13577630759E+04  0.13577630759E+04  0.50400001928E-02 0. -1.
        1   -1    0    0  501    0  0.00000000000E+00  0.00000000000E+00 -0.26014359839E+04  0.26014359839E+04  0.50400001928E-02 0.  1.
    10030    2    1    2    0    0  0.00000000000E+00  0.00000000000E+00 -0.12436729080E+04  0.39591990598E+04  0.37587943403E+04 0.  0.
        3    1    3    3  502    0  0.16715249777E+04 -0.57237716898E+03 -0.12967174054E+04  0.21915947195E+04  0.10100000352E+00 0.  1.
       -3    1    3    3    0  502 -0.16715249777E+04  0.57237716898E+03  0.53044497415E+02  0.17676043403E+04  0.10100000352E+00 0. -1.
</event>
<event>
 5   0  0.1084315E-07  0.3789931E+04  0.7818609E-02  0.8048319E-01
        1   -1    0    0  501    0  0.00000000000E+00  0.00000000000E+00  0.28047355040E+04  0.28047355040E+04  0.50400001928E-02 0.  1.
       -1   -1    0    0    0  501  0.00000000000E+00  0.00000000000E+00 -0.12802970187E+04  0.12802970188E+04  0.50400001928E-02 0. -1.
    10030    2    1    2    0    0  0.00000000000E+00  0.00000000000E+00  0.15244384853E+04  0.40850325228E+04  0.37899311362E+04 0.  0.
        4    1    3    3  502    0 -0.18674894211E+04  0.29661032052E+03  0.62846640517E+03  0.19926028343E+04  0.12699999809E+01 0. -1.
       -4    1    3    3    0  502  0.18674894211E+04 -0.29661032052E+03  0.89597208011E+03  0.20924296885E+04  0.12699999809E+01 0.  1.
</event>
<event>
 5   0  0.3539010E-07  0.4093072E+04  0.7818609E-02  0.7986030E-01
        2   -1    0    0  501    0  0.00000000000E+00  0.00000000000E+00  0.12504876127E+04  0.12504876127E+04  0.25500000920E-02 0. -1.
       -2   -1    0    0    0  501  0.00000000000E+00  0.00000000000E+00 -0.33493413167E+04  0.33493413167E+04  0.25500000920E-02 0.  1.
    10030    2    1    2    0    0  0.00000000000E+00  0.00000000000E+00 -0.20988537040E+04  0.45998289293E+04  0.40930721113E+04 0.  0.
        1    1    3    3  502    0 -0.37299131049E+03 -0.19700261127E+04 -0.15103039961E+04  0.25102078725E+04  0.50400001928E-02 0.  1.
       -1    1    3    3    0  502  0.37299131049E+03  0.19700261127E+04 -0.58854970790E+03  0.20896210568E+04  0.50400001928E-02 0. -1.
</event>
<event>
 5   0  0.1085771E-07  0.3820012E+04  0.7818609E-02  0.8041874E-01
        1   -1    0    0  501    0  0.00000000000E+00  0.00000000000E+00  0.24146984688E+04  0.24146984688E+04  0.50400001928E-02 0. -1.
       -1   -1    0    0    0  501  0.00000000000E+00  0.00000000000E+00 -0.15107984114E+04  0.15107984114E+04  0.50400001928E-02 0.  1.
    10030    2    1    2    0    0  0.00000000000E+00  0.00000000000E+00  0.90390005741E+03  0.39254968801E+04  0.38200118380E+04 0.  0.
        1    1    3    3  502    0  0.66656005622E+03  0.62733477986E+02 -0.13862683349E+04  0.15394731872E+04  0.50400001928E-02 0.  1.
       -1    1    3    3    0  502 -0.66656005622E+03 -0.62733477986E+02  0.22901683923E+04  0.23860236929E+04  0.50400001928E-02 0. -1.
</event>
<event>
 5   0  0.3509843E-07  0.3839021E+04  0.7818609E-02  0.8037833E-01
        2   -1    0    0  501    0  0.00000000000E+00  0.00000000000E+00  0.30479161919E+04  0.30479161919E+04  0.25500000920E-02 0.  1.
       -2   -1    0    0    0  501  0.00000000000E+00  0.00000000000E+00 -0.12088652481E+04  0.12088652481E+04  0.25500000920E-02 0. -1.
    10030    2    1    2    0    0  0.00000000000E+00  0.00000000000E+00  0.18390509438E+04  0.42567814399E+04  0.38390206894E+04 0.  0.
        4    1    3    3  502    0  0.91783719087E+03  0.76940624903E+03 -0.74374359505E+03  0.14098110629E+04  0.12699999809E+01 0. -1.
       -4    1    3    3    0  502 -0.91783719087E+03 -0.76940624903E+03  0.25827945388E+04  0.28469703770E+04  0.12699999809E+01 0.  1.
</event>
<event>
 5   0  0.3377396E-07  0.3754036E+04  0.7818609E-02  0.8056091E-01
        2   -1    0    0  501    0  0.00000000000E+00  0.00000000000E+00  0.21606194738E+04  0.21606194738E+04  0.25500000920E-02 0.  1.
       -2   -1    0    0    0  501  0.00000000000E+00  0.00000000000E+00 -0.16306416686E+04  0.16306416686E+04  0.25500000920E-02 0. -1.
    10030    2    1    2    0    0  0.00000000000E+00  0.00000000000E+00  0.52997780520E+03  0.37912611424E+04  0.37540357718E+04 0.  0.
        5    1    3    3  502    0  0.30829660131E+02  0.14619159026E+03  0.21545987526E+04  0.21597778413E+04  0.46999998093E+01 0.  1.
       -5    1    3    3    0  502 -0.30829660131E+02 -0.14619159026E+03 -0.16246209474E+04  0.16314833011E+04  0.46999998093E+01 0. -1.
</event>
<event>
 5   0  0.3377396E-07  0.3793679E+04  0.7818609E-02  0.8047513E-01
       -2   -1    0    0    0  501  0.00000000000E+00  0.00000000000E+00  0.19122443907E+04  0.19122443907E+04  0.25500000920E-02 0.  1.
        2   -1    0    0  501    0  0.00000000000E+00  0.00000000000E+00 -0.18815589664E+04  0.18815589664E+04  0.25500000920E-02 0. -1.
    10030    2    1    2    0    0  0.00000000000E+00  0.00000000000E+00  0.30685424255E+02  0.37938033572E+04  0.37936792586E+04 0.  0.
        5    1    3    3  502    0  0.18864155341E+04  0.31995943079E+02 -0.18060037490E+03  0.18953168319E+04  0.46999998093E+01 0.  1.
       -5    1    3    3    0  502 -0.18864155341E+04 -0.31995943079E+02  0.21128579916E+03  0.18984865253E+04  0.46999998093E+01 0. -1.
</event>
<event>
 5   0  0.1084315E-07  0.3808097E+04  0.7818609E-02  0.8044420E-01
        1   -1    0    0  501    0  0.00000000000E+00  0.00000000000E+00  0.13085767468E+04  0.13085767468E+04  0.50400001928E-02 0. -1.
       -1   -1    0    0    0  501  0.00000000000E+00  0.00000000000E+00 -0.27704908601E+04  0.27704908601E+04  0.50400001928E-02 0.  1.
    10030    2    1    2    0    0  0.00000000000E+00  0.00000000000E+00 -0.14619141133E+04  0.40790676070E+04  0.38080965938E+04 0.  0.
        4    1    3    3  502    0  0.64270694999E+03  0.42800914323E+03  0.11333275282E+04  0.13713850478E+04  0.12699999809E+01 0. -1.
       -4    1    3    3    0  502 -0.64270694999E+03 -0.42800914323E+03 -0.25952416415E+04  0.27076825591E+04  0.12699999809E+01 0.  1.
</event>
<event>
 5   0  0.1084315E-07  0.3804131E+04  0.7818609E-02  0.8045269E-01
       -1   -1    0    0    0  501  0.00000000000E+00  0.00000000000E+00  0.29327423096E+04  0.29327423096E+04  0.50400001928E-02 0.  1.
        1   -1    0    0  501    0  0.00000000000E+00  0.00000000000E+00 -0.12336078429E+04  0.12336078429E+04  0.50400001928E-02 0. -1.
    10030    2    1    2    0    0  0.00000000000E+00  0.00000000000E+00  0.16991344667E+04  0.41663501524E+04  0.38041313932E+04 0.  0.
        4    1    3    3  502    0 -0.12868797759E+04 -0.68900141605E+03  0.21851350138E+04  0.26278506712E+04  0.12699999809E+01 0.  1.
       -4    1    3    3    0  502  0.12868797759E+04  0.68900141605E+03 -0.48600054704E+03  0.15384994812E+04  0.12699999809E+01 0. -1.
</event>
<event>
 5   0  0.1085771E-07  0.3767098E+04  0.7818609E-02  0.8053253E-01
        1   -1    0    0  501    0  0.00000000000E+00  0.00000000000E+00  0.17804757090E+04  0.17804757090E+04  0.50400001928E-02 0.  1.
       -1   -1    0    0    0  501  0.00000000000E+00  0.00000000000E+00 -0.19925897030E+04  0.19925897030E+04  0.50400001928E-02 0. -1.
    10030    2    1    2    0    0  0.00000000000E+00  0.00000000000E+00 -0.21211399398E+03  0.37730654120E+04  0.37670983869E+04 0.  0.
        1    1    3    3  502    0 -0.16247329590E+04  0.93591631827E+03 -0.28539653547E+03  0.18966148068E+04  0.50400001928E-02 0. -1.
       -1    1    3    3    0  502  0.16247329590E+04 -0.93591631827E+03  0.73282541489E+02  0.18764506052E+04  0.50400001928E-02 0.  1.
</event>
<event>
 5   0  0.3377396E-07  0.3783570E+04  0.7818609E-02  0.8049690E-01
       -2   -1    0    0    0  501  0.00000000000E+00  0.00000000000E+00  0.16262905291E+04  0.16262905291E+04  0.25500000920E-02 0.  1.
        2   -1    0    0  501    0  0.00000000000E+00  0.00000000000E+00 -0.22006220768E+04  0.22006220768E+04  0.25500000920E-02 0. -1.
    10030    2    1    2    0    0  0.00000000000E+00  0.00000000000E+00 -0.57433154771E+03  0.38269126058E+04  0.37835701878E+04 0.  0.
        5    1    3    3  502    0 -0.91002167894E+03  0.88519498931E+03 -0.17057727139E+04  0.21263565709E+04  0.46999998093E+01 0. -1.
       -5    1    3    3    0  502  0.91002167894E+03 -0.88519498931E+03  0.11314411662E+04  0.17005560349E+04  0.46999998093E+01 0.  1.
</event>
<event>
 5   0  0.3539010E-07  0.3828849E+04  0.7818609E-02  0.8039992E-01
       -2   -1    0    0    0  501  0.00000000000E+00  0.00000000000E+00  0.11281607323E+04  0.11281607323E+04  0.25500000920E-02 0. -1.
        2   -1    0    0  501    0  0.00000000000E+00  0.00000000000E+00 -0.32486694597E+04  0.32486694597E+04  0.25500000920E-02 0.  1.
    10030    2    1    2    0    0  0.00000000000E+00  0.00000000000E+00 -0.21205087274E+04  0.43768301921E+04  0.38288490787E+04 0.  0.
        1    1    3    3  502    0  0.34162535673E+03 -0.10060029334E+04  0.76023993365E+03  0.13064128532E+04  0.50400001928E-02 0. -1.
       -1    1    3    3    0  502 -0.34162535673E+03  0.10060029334E+04 -0.28807486610E+04  0.30704173388E+04  0.50400001928E-02 0.  1.
</event>
<event>
 5   0  0.3539010E-07  0.3763676E+04  0.7818609E-02  0.8053995E-01
        2   -1    0    0  501    0  0.00000000000E+00  0.00000000000E+00  0.14958625369E+04  0.14958625369E+04  0.25500000920E-02 0. -1.
       -2   -1    0    0    0  501  0.00000000000E+00  0.00000000000E+00 -0.23674060359E+04  0.23674060359E+04  0.25500000920E-02 0.  1.
    10030    2    1    2    0    0  0.00000000000E+00  0.00000000000E+00 -0.87154349906E+03  0.38632685728E+04  0.37636758621E+04 0.  0.
        1    1    3    3  502    0 -0.46183788808E+03 -0.78194107885E+03  0.12560498661E+04  0.15499636614E+04  0.50400001928E-02 0. -1.
       -1    1    3    3    0  502  0.46183788808E+03  0.78194107885E+03 -0.21275933651E+04  0.23133049114E+04  0.50400001928E-02 0.  1.
</event>
<event>
 5   0  0.3539010E-07  0.3893766E+04  0.7818609E-02  0.8026327E-01
       -2   -1    0    0    0  501  0.00000000000E+00  0.00000000000E+00  0.11972277140E+04  0.11972277140E+04  0.25500000920E-02 0. -1.
        2   -1    0    0  501    0  0.00000000000E+00  0.00000000000E+00 -0.31659421024E+04  0.31659421024E+04  0.25500000920E-02 0.  1.
    10030    2    1    2    0    0  0.00000000000E+00  0.00000000000E+00 -0.19687143884E+04  0.43631698164E+04  0.38937661080E+04 0.  0.
        1    1    3    3  502    0  0.13471664451E+04  0.30757332846E+03  0.55243276176E+03  0.14881669058E+04  0.50400001928E-02 0. -1.
       -1    1    3    3    0  502 -0.13471664451E+04 -0.30757332846E+03 -0.25211471501E+04  0.28750029106E+04  0.50400001928E-02 0.  1.
</event>
<event>
 5   0  0.1070988E-07  0.3968258E+04  0.7818609E-02  0.8010981E-01
        1   -1    0    0  501    0  0.00000000000E+00  0.00000000000E+00  0.16713972177E+04  0.16713972178E+04  0.50400001928E-02 0.  1.
       -1   -1    0    0    0  501  0.00000000000E+00  0.00000000000E+00 -0.23553753793E+04  0.23553753793E+04  0.50400001928E-02 0. -1.
    10030    2    1    2    0    0  0.00000000000E+00  0.00000000000E+00 -0.68397816154E+03  0.40267725970E+04  0.39682579834E+04 0.  0.
        2    1    3    3  502    0 -0.27975165040E+03  0.19563390012E+04 -0.16262124514E+03  0.19829192981E+04  0.25500000920E-02 0.  1.
       -2    1    3    3    0  502  0.27975165040E+03 -0.19563390012E+04 -0.52135691640E+03  0.20438532990E+04  0.25500000920E-02 0. -1.
</event>
<event>
 5   0  0.1070988E-07  0.3814346E+04  0.7818609E-02  0.8043083E-01
        3   -1    0    0  501    0  0.00000000000E+00  0.00000000000E+00  0.21670820909E+04  0.21670820933E+04  0.10100000352E+00 0.  1.
       -3   -1    0    0    0  501  0.00000000000E+00  0.00000000000E+00 -0.16784361282E+04  0.16784361313E+04  0.10100000352E+00 0. -1.
    10030    2    1    2    0    0  0.00000000000E+00  0.00000000000E+00  0.48864596269E+03  0.38455182246E+04  0.38143460171E+04 0.  0.
        4    1    3    3  502    0  0.16062458458E+04  0.18979540310E+02 -0.79214554354E+03  0.17910561452E+04  0.12699999809E+01 0. -1.
       -4    1    3    3    0  502 -0.16062458458E+04 -0.18979540310E+02  0.12807915062E+04  0.20544620794E+04  0.12699999809E+01 0.  1.
</event>
<event>
 5   0  0.3377396E-07  0.3718384E+04  0.7818609E-02  0.8063900E-01
       -2   -1    0    0    0  501  0.00000000000E+00  0.00000000000E+00  0.21523089768E+04  0.21523089768E+04  0.25500000920E-02 0.  1.
        2   -1    0    0  501    0  0.00000000000E+00  0.00000000000E+00 -0.16059940261E+04  0.16059940261E+04  0.25500000920E-02 0. -1.
    10030    2    1    2    0    0  0.00000000000E+00  0.00000000000E+00  0.54631495064E+03  0.37583030029E+04  0.37183842507E+04 0.  0.
        5    1    3    3  502    0  0.79789818369E+03 -0.90803409354E+03  0.17009106805E+04  0.20866927564E+04  0.46999998093E+01 0.  1.
       -5    1    3    3    0  502 -0.79789818369E+03  0.90803409354E+03 -0.11545957299E+04  0.16716102465E+04  0.46999998093E+01 0. -1.
</event>
<event>
 5   0  0.1084315E-07  0.3762068E+04  0.7818609E-02  0.8054344E-01
       -1   -1    0    0    0  501  0.00000000000E+00  0.00000000000E+00  0.14014821655E+04  0.14014821655E+04  0.50400001928E-02 0.  1.
        1   -1    0    0  501    0  0.00000000000E+00  0.00000000000E+00 -0.25246758415E+04  0.25246758415E+04  0.50400001928E-02 0. -1.
    10030    2    1    2    0    0  0.00000000000E+00  0.00000000000E+00 -0.11231936761E+04  0.39261580070E+04  0.37620676046E+04 0.  0.
        4    1    3    3  502    0  0.50405725080E+03 -0.15567277774E+02 -0.24528113934E+04  0.25041168896E+04  0.12699999809E+01 0. -1.
       -4    1    3    3    0  502 -0.50405725080E+03  0.15567277774E+02  0.13296177174E+04  0.14220411174E+04  0.12699999809E+01 0.  1.
</event>
<event>
 5   0  0.3442126E-07  0.3887100E+04  0.7818609E-02  0.8027718E-01
        2   -1    0    0  501    0  0.00000000000E+00  0.00000000000E+00  0.31929441842E+04  0.31929441842E+04  0.25500000920E-02 0. -1.
       -2   -1    0    0    0  501  0.00000000000E+00  0.00000000000E+00 -0.11830418138E+04  0.11830418138E+04  0.25500000920E-02 0.  1.
    10030    2    1    2    0    0  0.00000000000E+00  0.00000000000E+00  0.20099023704E+04  0.43759859980E+04  0.38870999365E+04 0.  0.
        2    1    3    3  502    0 -0.18184166464E+04 -0.40472054892E+02  0.17760096002E+04  0.25421422437E+04  0.25500000920E-02 0. -1.
       -2    1    3    3    0  502  0.18184166464E+04  0.40472054892E+02  0.23389277014E+03  0.18338437543E+04  0.25500000920E-02 0.  1.
</event>
<event>
 5   0  0.1085771E-07  0.3419078E+04  0.7818609E-02  0.8133240E-01
       -1   -1    0    0    0  501  0.00000000000E+00  0.00000000000E+00  0.28402386545E+04  0.28402386545E+04  0.50400001928E-02 0. -1.
        1   -1    0    0  501    0  0.00000000000E+00  0.00000000000E+00 -0.10289713168E+04  0.10289713168E+04  0.50400001928E-02 0.  1.
    10030    2    1    2    0    0  0.00000000000E+00  0.00000000000E+00  0.18112673378E+04  0.38692099713E+04  0.34190783018E+04 0.  0.
        1    1    3    3  502    0  0.95846640815E+03  0.61607851949E+03  0.23479090148E+04  0.26097676792E+04  0.50400001928E-02 0. -1.
       -1    1    3    3    0  502 -0.95846640815E+03 -0.61607851949E+03 -0.53664167701E+03  0.12594422921E+04  0.50400001928E-02 0.  1.
</event>
<event>
 5   0  0.3327241E-07  0.3785369E+04  0.7818609E-02  0.8049302E-01
       -2   -1    0    0    0  501  0.00000000000E+00  0.00000000000E+00  0.13241868158E+04  0.13241868158E+04  0.25500000920E-02 0.  1.
        2   -1    0    0  501    0  0.00000000000E+00  0.00000000000E+00 -0.27052479786E+04  0.27052479786E+04  0.25500000920E-02 0. -1.
    10030    2    1    2    0    0  0.00000000000E+00  0.00000000000E+00 -0.13810611628E+04  0.40294347944E+04  0.37853685193E+04 0.  0.
        3    1    3    3  502    0 -0.17042880624E+03 -0.11131863394E+04  0.92874171450E+03  0.14597229144E+04  0.10100000352E+00 0.  1.
       -3    1    3    3    0  502  0.17042880624E+03  0.11131863394E+04 -0.23098028773E+04  0.25697118801E+04  0.10100000352E+00 0. -1.
</event>
<event>
 5   0  0.3377396E-07  0.3775674E+04  0.7818609E-02  0.8051395E-01
       -2   -1    0    0    0  501  0.00000000000E+00  0.00000000000E+00  0.23110697056E+04  0.23110697056E+04  0.25500000920E-02 0. -1.
        2   -1    0    0  501    0  0.00000000000E+00  0.00000000000E+00 -0.15421122296E+04  0.15421122296E+04  0.25500000920E-02 0.  1.
    10030    2    1    2    0    0  0.00000000000E+00  0.00000000000E+00  0.76895747604E+03  0.38531819352E+04  0.37756741684E+04 0.  0.
        5    1    3    3  502    0 -0.41788582813E+03 -0.14648428771E+04  0.15224997145E+04  0.21536993037E+04  0.46999998093E+01 0. -1.
       -5    1    3    3    0  502  0.41788582813E+03  0.14648428771E+04 -0.75354223850E+03  0.16994826316E+04  0.46999998093E+01 0.  1.
</event>
<event>
 5   0  0.1070988E-07  0.3756691E+04  0.7818609E-02  0.8055513E-01
        1   -1    0    0  501    0  0.00000000000E+00  0.00000000000E+00  0.18829328658E+04  0.18829328658E+04  0.50400001928E-02 0. -1.
       -1   -1    0    0    0  501  0.00000000000E+00  0.00000000000E+00 -0.18737694280E+04  0.18737694280E+04  0.50400001928E-02 0.  1.
    10030    2    1    2    0    0  0.00000000000E+00  0.00000000000E+00  0.91634377404E+01  0.37567022938E+04  0.37566911179E+04 0.  0.
        3    1    3    3  502    0  0.22869060385E+02 -0.14908342086E+04  0.11469827703E+04  0.18811377188E+04  0.10100000352E+00 0.  1.
       -3    1    3    3    0  502 -0.22869060385E+02  0.14908342086E+04 -0.11378193326E+04  0.18755645750E+04  0.10100000352E+00 0. -1.
</event>
<event>
 5   0  0.1085771E-07  0.3812405E+04  0.7818609E-02  0.8043498E-01
        1   -1    0    0  501    0  0.00000000000E+00  0.00000000000E+00  0.24193367738E+04  0.24193367738E+04  0.50400001928E-02 0. -1.
       -1   -1    0    0    0  501  0.00000000000E+00  0.00000000000E+00 -0.15019022124E+04  0.15019022125E+04  0.50400001928E-02 0.  1.
    10030    2    1    2    0    0  0.00000000000E+00  0.00000000000E+00  0.91743456137E+03  0.39212389863E+04  0.38124046235E+04 0.  0.
        1    1    3    3  502    0 -0.16401860043E+04  0.92061724144E+03  0.77717028166E+03  0.20351265023E+04  0.50400001928E-02 0. -1.
       -1    1    3    3    0  502  0.16401860043E+04 -0.92061724144E+03  0.14026427971E+03  0.18861124839E+04  0.50400001928E-02 0.  1.
</event>
<event>
 5   0  0.1070988E-07  0.3827808E+04  0.7818609E-02  0.8040214E-01
        1   -1    0    0  501    0  0.00000000000E+00  0.00000000000E+00  0.18752125714E+04  0.18752125714E+04  0.50400001928E-02 0. -1.
       -1   -1    0    0    0  501  0.00000000000E+00  0.00000000000E+00 -0.19533934205E+04  0.19533934205E+04  0.50400001928E-02 0.  1.
    10030    2    1    2    0    0  0.00000000000E+00  0.00000000000E+00 -0.78180849077E+02  0.38286059918E+04  0.38278076748E+04 0.  0.
        5    1    3    3  502    0  0.13094640369E+04  0.79478897763E+03  0.11085896113E+04  0.18908671553E+04  0.46999998093E+01 0. -1.
       -5    1    3    3    0  502 -0.13094640369E+04 -0.79478897763E+03 -0.11867704604E+04  0.19377388365E+04  0.46999998093E+01 0.  1.
</event>
<event>
 5   0  0.3377396E-07  0.3831991E+04  0.7818609E-02  0.8039324E-01
       -2   -1    0    0    0  501  0.00000000000E+00  0.00000000000E+00  0.26488728951E+04  0.26488728951E+04  0.25500000920E-02 0. -1.
        2   -1    0    0  501    0  0.00000000000E+00  0.00000000000E+00 -0.13858868754E+04  0.13858868754E+04  0.25500000920E-02 0.  1.
    10030    2    1    2    0    0  0.00000000000E+00  0.00000000000E+00  0.12629860197E+04  0.40347597705E+04  0.38319906994E+04 0.  0.
        5    1    3    3  502    0  0.10183691845E+03  0.10097067775E+04 -0.10796596077E+04  0.14817440714E+04  0.46999998093E+01 0.  1.
       -5    1    3    3    0  502 -0.10183691845E+03 -0.10097067775E+04  0.23426456274E+04  0.25530156991E+04  0.46999998093E+01 0. -1.
</event>
<event>
 5   0  0.3377396E-07  0.3764266E+04  0.7818609E-02  0.8053867E-01
        2   -1    0    0  501    0  0.00000000000E+00  0.00000000000E+00  0.24043439846E+04  0.24043439846E+04  0.25500000920E-02 0.  1.
       -2   -1    0    0    0  501  0.00000000000E+00  0.00000000000E+00 -0.14733438021E+04  0.14733438021E+04  0.25500000920E-02 0. -1.
    10030    2    1    2    0    0  0.00000000000E+00  0.00000000000E+00  0.93100018248E+03  0.38776877868E+04  0.37642663604E+04 0.  0.
        5    1    3    3  502    0  0.11630699476E+04  0.14780604305E+04  0.53840600444E+03  0.19563479892E+04  0.46999998093E+01 0.  1.
       -5    1    3    3    0  502 -0.11630699476E+04 -0.14780604305E+04  0.39259417804E+03  0.19213397976E+04  0.46999998093E+01 0. -1.
</event>
<event>
 5   0  0.3327241E-07  0.3636263E+04  0.7818609E-02  0.8082235E-01
        2   -1    0    0  501    0  0.00000000000E+00  0.00000000000E+00  0.16638183414E+04  0.16638183414E+04  0.25500000920E-02 0.  1.
       -2   -1    0    0    0  501  0.00000000000E+00  0.00000000000E+00 -0.19867564170E+04  0.19867564170E+04  0.25500000920E-02 0. -1.
    10030    2    1    2    0    0  0.00000000000E+00  0.00000000000E+00 -0.32293807563E+03  0.36505747584E+04  0.36362627884E+04 0.  0.
        3    1    3    3  502    0  0.15220272792E+04  0.62238016727E+03 -0.94020086145E+03  0.18941757525E+04  0.10100000352E+00 0. -1.
       -3    1    3    3    0  502 -0.15220272792E+04 -0.62238016727E+03  0.61726278581E+03  0.17563990059E+04  0.10100000352E+00 0.  1.
</event>
<event>
 5   0  0.3377396E-07  0.3829321E+04  0.7818609E-02  0.8039892E-01
       -2   -1    0    0    0  501  0.00000000000E+00  0.00000000000E+00  0.16724818411E+04  0.16724818411E+04  0.25500000920E-02 0.  1.
        2   -1    0    0  501    0  0.00000000000E+00  0.00000000000E+00 -0.21919068871E+04  0.21919068871E+04  0.25500000920E-02 0. -1.
    10030    2    1    2    0    0  0.00000000000E+00  0.00000000000E+00 -0.51942504605E+03  0.38643887282E+04  0.38293208098E+04 0.  0.
        5    1    3    3  502    0 -0.14291451227E+04  0.12732129357E+04 -0.21052796592E+03  0.19255833080E+04  0.46999998093E+01 0.  1.
       -5    1    3    3    0  502  0.14291451227E+04 -0.12732129357E+04 -0.30889708013E+03  0.19388054203E+04  0.46999998093E+01 0. -1.
</event>
<event>
 5   0  0.1070988E-07  0.3757368E+04  0.7818609E-02  0.8055366E-01
       -1   -1    0    0    0  501  0.00000000000E+00  0.00000000000E+00  0.23719038956E+04  0.23719038956E+04  0.50400001928E-02 0. -1.
        1   -1    0    0  501    0  0.00000000000E+00  0.00000000000E+00 -0.14880258521E+04  0.14880258522E+04  0.50400001928E-02 0.  1.
    10030    2    1    2    0    0  0.00000000000E+00  0.00000000000E+00  0.88387804347E+03  0.38599297478E+04  0.37573683958E+04 0.  0.
        2    1    3    3  502    0  0.15412459987E+04 -0.10504838749E+04  0.67279216270E+03  0.19828274999E+04  0.25500000920E-02 0. -1.
       -2    1    3    3    0  502 -0.15412459987E+04  0.10504838749E+04  0.21108588077E+03  0.18771022479E+04  0.25500000920E-02 0.  1.
</event>
<event>
 5   0  0.3327241E-07  0.3866002E+04  0.7818609E-02  0.8032137E-01
       -2   -1    0    0    0  501  0.00000000000E+00  0.00000000000E+00  0.14279399096E+04  0.14279399096E+04  0.25500000920E-02 0.  1.
        2   -1    0    0  501    0  0.00000000000E+00  0.00000000000E+00 -0.26167022514E+04  0.26167022514E+04  0.25500000920E-02 0. -1.
    10030    2    1    2    0    0  0.00000000000E+00  0.00000000000E+00 -0.11887623418E+04  0.40446421610E+04  0.38660023675E+04 0.  0.
        3    1    3    3  502    0  0.52604014190E+03 -0.16010695319E+04 -0.15848873966E+04  0.23134411484E+04  0.10100000352E+00 0. -1.
       -3    1    3    3    0  502 -0.52604014190E+03  0.16010695319E+04  0.39612505480E+03  0.17312010126E+04  0.10100000352E+00 0.  1.
</event>
<event>
 5   0  0.3509843E-07  0.3876484E+04  0.7818609E-02  0.8029938E-01
        2   -1    0    0  501    0  0.00000000000E+00  0.00000000000E+00  0.20212219286E+04  0.20212219286E+04  0.25500000920E-02 0. -1.
       -2   -1    0    0    0  501  0.00000000000E+00  0.00000000000E+00 -0.18586686811E+04  0.18586686811E+04  0.25500000920E-02 0.  1.
    10030    2    1    2    0    0  0.00000000000E+00  0.00000000000E+00  0.16255324742E+03  0.38798906097E+04  0.38764839204E+04 0.  0.
        4    1    3    3  502    0  0.12851299530E+04  0.63866568103E+03  0.13852367456E+04  0.19945764720E+04  0.12699999809E+01 0. -1.
       -4    1    3    3    0  502 -0.12851299530E+04 -0.63866568103E+03 -0.12226834982E+04  0.18853141377E+04  0.12699999809E+01 0.  1.
</event>
<event>
 5   0  0.3327241E-07  0.3803893E+04  0.7818609E-02  0.8045320E-01
        2   -1    0    0  501    0  0.00000000000E+00  0.00000000000E+00  0.17541114825E+04  0.17541114825E+04  0.25500000920E-02 0. -1.
       -2   -1    0    0    0  501  0.00000000000E+00  0.00000000000E+00 -0.20622403967E+04  0.20622403967E+04  0.25500000920E-02 0.  1.
    10030    2    1    2    0    0  0.00000000000E+00  0.00000000000E+00 -0.30812891417E+03  0.38163518792E+04  0.38038925113E+04 0.  0.
        3    1    3    3  502    0  0.16542996492E+03 -0.72025479535E+03  0.16041783761E+04  0.17662169504E+04  0.10100000352E+00 0. -1.
       -3    1    3    3    0  502 -0.16542996492E+03  0.72025479535E+03 -0.19123072902E+04  0.20501349287E+04  0.10100000352E+00 0.  1.
</event>
<event>
 5   0  0.1070988E-07  0.3790340E+04  0.7818609E-02  0.8048231E-01
       -1   -1    0    0    0  501  0.00000000000E+00  0.00000000000E+00  0.21497857531E+04  0.21497857531E+04  0.50400001928E-02 0.  1.
        1   -1    0    0  501    0  0.00000000000E+00  0.00000000000E+00 -0.16707104015E+04  0.16707104015E+04  0.50400001928E-02 0. -1.
    10030    2    1    2    0    0  0.00000000000E+00  0.00000000000E+00  0.47907535163E+03  0.38204961546E+04  0.37903400473E+04 0.  0.
        2    1    3    3  502    0  0.15305887200E+04 -0.10440847823E+04 -0.16219895274E+03  0.18598718673E+04  0.25500000920E-02 0. -1.
       -2    1    3    3    0  502 -0.15305887200E+04  0.10440847823E+04  0.64127430437E+03  0.19606242873E+04  0.25500000920E-02 0.  1.
</event>
<event>
 5   0  0.3442126E-07  0.3790591E+04  0.7818609E-02  0.8048177E-01
        2   -1    0    0  501    0  0.00000000000E+00  0.00000000000E+00  0.24256956881E+04  0.24256956881E+04  0.25500000920E-02 0. -1.
       -2   -1    0    0    0  501  0.00000000000E+00  0.00000000000E+00 -0.14808720768E+04  0.14808720768E+04  0.25500000920E-02 0.  1.
    10030    2    1    2    0    0  0.00000000000E+00  0.00000000000E+00  0.94482361137E+03  0.39065677649E+04  0.37905909889E+04 0.  0.
        2    1    3    3  502    0 -0.30680810122E+03  0.31593759192E+03 -0.14274093854E+04  0.14938023051E+04  0.25500000920E-02 0.  1.
       -2    1    3    3    0  502  0.30680810122E+03 -0.31593759192E+03  0.23722329968E+04  0.24127654598E+04  0.25500000920E-02 0. -1.
</event>
<event>
 5   0  0.1084315E-07  0.3964762E+04  0.7818609E-02  0.8011693E-01
        1   -1    0    0  501    0  0.00000000000E+00  0.00000000000E+00  0.27009795621E+04  0.27009795621E+04  0.50400001928E-02 0. -1.
       -1   -1    0    0    0  501  0.00000000000E+00  0.00000000000E+00 -0.14549665250E+04  0.14549665250E+04  0.50400001928E-02 0.  1.
    10030    2    1    2    0    0  0.00000000000E+00  0.00000000000E+00  0.12460130371E+04  0.41559460872E+04  0.39647622111E+04 0.  0.
        4    1    3    3  502    0  0.82516694435E+03  0.16463853576E+04 -0.14609614065E+03  0.18473848887E+04  0.12699999809E+01 0. -1.
       -4    1    3    3    0  502 -0.82516694435E+03 -0.16463853576E+04  0.13921091777E+04  0.23085611985E+04  0.12699999809E+01 0.  1.
</event>
<event>
 5   0  0.1084315E-07  0.3737287E+04  0.7818609E-02  0.8059749E-01
       -1   -1    0    0    0  501  0.00000000000E+00  0.00000000000E+00  0.16950737311E+04  0.16950737311E+04  0.50400001928E-02 0. -1.
        1   -1    0    0  501    0  0.00000000000E+00  0.00000000000E+00 -0.20599859271E+04  0.20599859271E+04  0.50400001928E-02 0.  1.
    10030    2    1    2    0    0  0.00000000000E+00  0.00000000000E+00 -0.36491219605E+03  0.37550596582E+04  0.37372867331E+04 0.  0.
        4    1    3    3  502    0 -0.14934859282E+03  0.84249882247E+03  0.14866836845E+04  0.17153248260E+04  0.12699999809E+01 0. -1.
       -4    1    3    3    0  502  0.14934859282E+03 -0.84249882247E+03 -0.18515958805E+04  0.20397348322E+04  0.12699999809E+01 0.  1.
</event>
<event>
 5   0  0.3509843E-07  0.3793222E+04  0.7818609E-02  0.8047611E-01
        2   -1    0    0  501    0  0.00000000000E+00  0.00000000000E+00  0.26276273654E+04  0.26276273654E+04  0.25500000920E-02 0.  1.
       -2   -1    0    0    0  501  0.00000000000E+00  0.00000000000E+00 -0.13689664801E+04  0.13689664801E+04  0.25500000920E-02 0. -1.
    10030    2    1    2    0    0  0.00000000000E+00  0.00000000000E+00  0.12586608853E+04  0.39965938455E+04  0.37932222637E+04 0.  0.
        4    1    3    3  502    0  0.99894978117E+03  0.89850694868E+03 -0.78106417312E+03  0.15541165521E+04  0.12699999809E+01 0.  1.
       -4    1    3    3    0  502 -0.99894978117E+03 -0.89850694868E+03  0.20397250584E+04  0.24424772934E+04  0.12699999809E+01 0. -1.
</event>
<event>
 5   0  0.1070988E-07  0.3804075E+04  0.7818609E-02  0.8045281E-01
        1   -1    0    0  501    0  0.00000000000E+00  0.00000000000E+00  0.15219413626E+04  0.15219413626E+04  0.50400001928E-02 0. -1.
       -1   -1    0    0    0  501  0.00000000000E+00  0.00000000000E+00 -0.23770610923E+04  0.23770610923E+04  0.50400001928E-02 0.  1.
    10030    2    1    2    0    0  0.00000000000E+00  0.00000000000E+00 -0.85511972966E+03  0.38990024549E+04  0.38040754976E+04 0.  0.
        5    1    3    3  502    0 -0.16322853513E+04  0.87251036633E+03  0.21664396625E+02  0.18509784557E+04  0.46999998093E+01 0.  1.
       -5    1    3    3    0  502  0.16322853513E+04 -0.87251036633E+03 -0.87678412629E+03  0.20480239992E+04  0.46999998093E+01 0. -1.
</event>
<event>
 5   0  0.1070988E-07  0.3755246E+04  0.7818609E-02  0.8055828E-01
        1   -1    0    0  501    0  0.00000000000E+00  0.00000000000E+00  0.16807284273E+04  0.16807284273E+04  0.50400001928E-02 0.  1.
       -1   -1    0    0    0  501  0.00000000000E+00  0.00000000000E+00 -0.20975839409E+04  0.20975839409E+04  0.50400001928E-02 0. -1.
    10030    2    1    2    0    0  0.00000000000E+00  0.00000000000E+00 -0.41685551354E+03  0.37783123682E+04  0.37552464410E+04 0.  0.
        2    1    3    3  502    0  0.38619613589E+03  0.17457452778E+04  0.36841297340E+03  0.18255142150E+04  0.25500000920E-02 0.  1.
       -2    1    3    3    0  502 -0.38619613589E+03 -0.17457452778E+04 -0.78526848694E+03  0.19527981532E+04  0.25500000920E-02 0. -1.
</event>
<event>
 5   0  0.3327241E-07  0.3813413E+04  0.7818609E-02  0.8043283E-01
        2   -1    0    0  501    0  0.00000000000E+00  0.00000000000E+00  0.27467436692E+04  0.27467436692E+04  0.25500000920E-02 0. -1.
       -2   -1    0    0    0  501  0.00000000000E+00  0.00000000000E+00 -0.13235777370E+04  0.13235777371E+04  0.25500000920E-02 0.  1.
    10030    2    1    2    0    0  0.00000000000E+00  0.00000000000E+00  0.14231659321E+04  0.40703214062E+04  0.38134125242E+04 0.  0.
        3    1    3    3  502    0 -0.11710204349E+04  0.13375650354E+04 -0.24174545290E+02  0.17779070565E+04  0.10100000352E+00 0. -1.
       -3    1    3    3    0  502  0.11710204349E+04 -0.13375650354E+04  0.14473404774E+04  0.22924143497E+04  0.10100000352E+00 0.  1.
</event>
<event>
 5   0  0.3327241E-07  0.3766956E+04  0.7818609E-02  0.8053283E-01
        2   -1    0    0  501    0  0.00000000000E+00  0.00000000000E+00  0.14543156601E+04  0.14543156601E+04  0.25500000920E-02 0.  1.
       -2   -1    0    0    0  501  0.00000000000E+00  0.00000000000E+00 -0.24392841365E+04  0.24392841365E+04  0.25500000920E-02 0. -1.
    10030    2    1    2    0    0  0.00000000000E+00  0.00000000000E+00 -0.98496847634E+03  0.38935997966E+04  0.37669558634E+04 0.  0.
        3    1    3    3  502    0  0.58307984765E+03 -0.19967506354E+03 -0.23321057248E+04  0.24121710888E+04  0.10100000352E+00 0. -1.
       -3    1    3    3    0  502 -0.58307984765E+03  0.19967506354E+03  0.13471372485E+04  0.14814287078E+04  0.10100000352E+00 0.  1.
</event>
<event>
 5   0  0.3509843E-07  0.3809048E+04  0.7818609E-02  0.8044216E-01
       -2   -1    0    0    0  501  0.00000000000E+00  0.00000000000E+00  0.17284576982E+04  0.17284576982E+04  0.25500000920E-02 0. -1.
        2   -1    0    0  501    0  0.00000000000E+00  0.00000000000E+00 -0.20985246833E+04  0.20985246833E+04  0.25500000920E-02 0.  1.
    10030    2    1    2    0    0  0.00000000000E+00  0.00000000000E+00 -0.37006698510E+03  0.38269823815E+04  0.38090477254E+04 0.  0.
        4    1    3    3  502    0 -0.17745836694E+04 -0.53295461622E+03 -0.62758641239E+03  0.19562858024E+04  0.12699999809E+01 0.  1.
       -4    1    3    3    0  502  0.17745836694E+04  0.53295461622E+03  0.25751942729E+03  0.18706965791E+04  0.12699999809E+01 0. -1.
</event>
<event>
 5   0  0.1085771E-07  0.3822241E+04  0.7818609E-02  0.8041399E-01
       -1   -1    0    0    0  501  0.00000000000E+00  0.00000000000E+00  0.17625800630E+04  0.17625800630E+04  0.50400001928E-02 0.  1.
        1   -1    0    0  501    0  0.00000000000E+00  0.00000000000E+00 -0.20721791997E+04  0.20721791997E+04  0.50400001928E-02 0. -1.
    10030    2    1    2    0    0  0.00000000000E+00  0.00000000000E+00 -0.30959913673E+03  0.38347592627E+04  0.38222410936E+04 0.  0.
        1    1    3    3  502    0  0.82356840615E+03  0.27536652055E+03  0.15532125778E+04  0.17794833386E+04  0.50400001928E-02 0.  1.
       -1    1    3    3    0  502 -0.82356840615E+03 -0.27536652055E+03 -0.18628117146E+04  0.20552759241E+04  0.50400001928E-02 0. -1.
</event>
<event>
 5   0  0.3509843E-07  0.3802072E+04  0.7818609E-02  0.8045710E-01
        2   -1    0    0  501    0  0.00000000000E+00  0.00000000000E+00  0.21284366081E+04  0.21284366081E+04  0.25500000920E-02 0.  1.
       -2   -1    0    0    0  501  0.00000000000E+00  0.00000000000E+00 -0.16979308618E+04  0.16979308618E+04  0.25500000920E-02 0. -1.
    10030    2    1    2    0    0  0.00000000000E+00  0.00000000000E+00  0.43050574633E+03  0.38263674699E+04  0.38020721741E+04 0.  0.
        4    1    3    3  502    0  0.50625763138E+03  0.87772170474E+03  0.18340225022E+04  0.20953119892E+04  0.12699999809E+01 0.  1.
       -4    1    3    3    0  502 -0.50625763138E+03 -0.87772170474E+03 -0.14035167559E+04  0.17310554807E+04  0.12699999809E+01 0. -1.
</event>
<event>
 5   0  0.1070988E-07  0.3870833E+04  0.7818609E-02  0.8031123E-01
       -1   -1    0    0    0  501  0.00000000000E+00  0.00000000000E+00  0.15988082005E+04  0.15988082005E+04  0.50400001928E-02 0.  1.
        1   -1    0    0  501    0  0.00000000000E+00  0.00000000000E+00 -0.23428929506E+04  0.23428929506E+04  0.50400001928E-02 0. -1.
    10030    2    1    2    0    0  0.00000000000E+00  0.00000000000E+00 -0.74408475017E+03  0.39417011511E+04  0.38708327074E+04 0.  0.
        3    1    3    3  502    0  0.54511637542E+03  0.25268428721E+03 -0.22455180519E+04  0.23245112483E+04  0.10100000352E+00 0. -1.
       -3    1    3    3    0  502 -0.54511637542E+03 -0.25268428721E+03  0.15014333018E+04  0.16171899028E+04  0.10100000352E+00 0.  1.
</event>
<event>
 5   0  0.3327241E-07  0.3802563E+04  0.7818609E-02  0.8045605E-01
        2   -1    0    0  501    0  0.00000000000E+00  0.00000000000E+00  0.25428960802E+04  0.25428960802E+04  0.25500000920E-02 0.  1.
       -2   -1    0    0    0  501  0.00000000000E+00  0.00000000000E+00 -0.14215571140E+04  0.14215571140E+04  0.25500000920E-02 0. -1.
    10030    2    1    2    0    0  0.00000000000E+00  0.00000000000E+00  0.11213389663E+04  0.39644531942E+04  0.38025633527E+04 0.  0.
        3    1    3    3  502    0  0.43153005890E+01 -0.11185547421E+04  0.21635530378E+04  0.24355995341E+04  0.10100000352E+00 0.  1.
       -3    1    3    3    0  502 -0.43153005890E+01  0.11185547421E+04 -0.10422140716E+04  0.15288536601E+04  0.10100000352E+00 0. -1.
</event>
<event>
 5   0  0.3327241E-07  0.3812983E+04  0.7818609E-02  0.8043375E-01
       -2   -1    0    0    0  501  0.00000000000E+00  0.00000000000E+00  0.29819828661E+04  0.29819828661E+04  0.25500000920E-02 0.  1.
        2   -1    0    0  501    0  0.00000000000E+00  0.00000000000E+00 -0.12188901825E+04  0.12188901825E+04  0.25500000920E-02 0. -1.
    10030    2    1    2    0    0  0.00000000000E+00  0.00000000000E+00  0.17630926837E+04  0.42008730486E+04  0.38129828953E+04 0.  0.
        3    1    3    3  502    0 -0.15068625523E+04 -0.51768273729E+03 -0.27189554917E+03  0.16163407339E+04  0.10100000352E+00 0. -1.
       -3    1    3    3    0  502  0.15068625523E+04  0.51768273729E+03  0.20349882328E+04  0.25845323148E+04  0.10100000352E+00 0.  1.
</event>
<event>
 5   0  0.1085771E-07  0.3800805E+04  0.7818609E-02  0.8045982E-01
        1   -1    0    0  501    0  0.00000000000E+00  0.00000000000E+00  0.24377348916E+04  0.24377348916E+04  0.50400001928E-02 0.  1.
       -1   -1    0    0    0  501  0.00000000000E+00  0.00000000000E+00 -0.14815102497E+04  0.14815102497E+04  0.50400001928E-02 0. -1.
    10030    2    1    2    0    0  0.00000000000E+00  0.00000000000E+00  0.95622464193E+03  0.39192451414E+04  0.38008047717E+04 0.  0.
        1    1    3    3  502    0  0.15079606713E+04  0.11046295864E+04  0.12483239674E+03  0.18734286846E+04  0.50400001928E-02 0.  1.
       -1    1    3    3    0  502 -0.15079606713E+04 -0.11046295864E+04  0.83139224519E+03  0.20458164567E+04  0.50400001928E-02 0. -1.
</event>
<event>
 5   0  0.1085771E-07  0.3802654E+04  0.7818609E-02  0.8045586E-01
        1   -1    0    0  501    0  0.00000000000E+00  0.00000000000E+00  0.28273306236E+04  0.28273306236E+04  0.50400001928E-02 0. -1.
       -1   -1    0    0    0  501  0.00000000000E+00  0.00000000000E+00 -0.12786068501E+04  0.12786068501E+04  0.50400001928E-02 0.  1.
    10030    2    1    2    0    0  0.00000000000E+00  0.00000000000E+00  0.15487237735E+04  0.41059374737E+04  0.38026539695E+04 0.  0.
        1    1    3    3  502    0 -0.11984015958E+03 -0.55894317777E+03 -0.11836212162E+04  0.13144346021E+04  0.50400001928E-02 0.  1.
       -1    1    3    3    0  502  0.11984015958E+03  0.55894317777E+03  0.27323449896E+04  0.27915028716E+04  0.50400001928E-02 0. -1.
</event>
<event>
 5   0  0.3539010E-07  0.3720313E+04  0.7818609E-02  0.8063475E-01
        2   -1    0    0  501    0  0.00000000000E+00  0.00000000000E+00  0.18009858715E+04  0.18009858715E+04  0.25500000920E-02 0. -1.
       -2   -1    0    0    0  501  0.00000000000E+00  0.00000000000E+00 -0.19212713086E+04  0.19212713086E+04  0.25500000920E-02 0.  1.
    10030    2    1    2    0    0  0.00000000000E+00  0.00000000000E+00 -0.12028543707E+03  0.37222571801E+04  0.37203131493E+04 0.  0.
        1    1    3    3  502    0  0.17335973798E+04 -0.60149810235E+02 -0.73221137559E+03  0.18828466144E+04  0.50400001928E-02 0.  1.
       -1    1    3    3    0  502 -0.17335973798E+04  0.60149810235E+02  0.61192593852E+03  0.18394105657E+04  0.50400001928E-02 0. -1.
</event>
<event>
 5   0  0.1084315E-07  0.3797545E+04  0.7818609E-02  0.8046682E-01
        1   -1    0    0  501    0  0.00000000000E+00  0.00000000000E+00  0.19685154428E+04  0.19685154428E+04  0.50400001928E-02 0.  1.
       -1   -1    0    0    0  501  0.00000000000E+00  0.00000000000E+00 -0.18315008978E+04  0.18315008978E+04  0.50400001928E-02 0. -1.
    10030    2    1    2    0    0  0.00000000000E+00  0.00000000000E+00  0.13701454508E+03  0.38000163406E+04  0.37975454182E+04 0.  0.
        4    1    3    3  502    0 -0.29283683512E+03  0.10981204481E+04 -0.14535722699E+04  0.18451276073E+04  0.12699999809E+01 0. -1.
       -4    1    3    3    0  502  0.29283683512E+03 -0.10981204481E+04  0.15905868150E+04  0.19548887333E+04  0.12699999809E+01 0.  1.
</event>
<event>
 5   0  0.3377396E-07  0.3766997E+04  0.7818609E-02  0.8053275E-01
        2   -1    0    0  501    0  0.00000000000E+00  0.00000000000E+00  0.10844893037E+04  0.10844893037E+04  0.25500000920E-02 0.  1.
       -2   -1    0    0    0  501  0.00000000000E+00  0.00000000000E+00 -0.32711861695E+04  0.32711861695E+04  0.25500000920E-02 0. -1.
    10030    2    1    2    0    0  0.00000000000E+00  0.00000000000E+00 -0.21866968658E+04  0.43556754732E+04  0.37669969001E+04 0.  0.
        5    1    3    3  502    0  0.10174622734E+03  0.84584211232E+02  0.10791021860E+04  0.10871938196E+04  0.46999998093E+01 0.  1.
       -5    1    3    3    0  502 -0.10174622734E+03 -0.84584211232E+02 -0.32657990518E+04  0.32684816537E+04  0.46999998093E+01 0. -1.
</event>
<event>
 5   0  0.1070988E-07  0.3784098E+04  0.7818609E-02  0.8049576E-01
       -1   -1    0    0    0  501  0.00000000000E+00  0.00000000000E+00  0.17648079141E+04  0.17648079141E+04  0.50400001928E-02 0.  1.
        1   -1    0    0  501    0  0.00000000000E+00  0.00000000000E+00 -0.20284638960E+04  0.20284638960E+04  0.50400001928E-02 0. -1.
    10030    2    1    2    0    0  0.00000000000E+00  0.00000000000E+00 -0.26365598189E+03  0.37932718101E+04  0.37840978513E+04 0.  0.
        2    1    3    3  502    0  0.72977388954E+03  0.12055126550E+04 -0.13974332675E+04  0.19846033428E+04  0.25500000920E-02 0. -1.
       -2    1    3    3    0  502 -0.72977388954E+03 -0.12055126550E+04  0.11337772856E+04  0.18086684673E+04  0.25500000920E-02 0.  1.
</event>
<event>
 5   0  0.1070988E-07  0.3782974E+04  0.7818609E-02  0.8049819E-01
       -1   -1    0    0    0  501  0.00000000000E+00  0.00000000000E+00  0.17479953472E+04  0.17479953473E+04  0.50400001928E-02 0.  1.
        1   -1    0    0  501    0  0.00000000000E+00  0.00000000000E+00 -0.20467576976E+04  0.20467576976E+04  0.50400001928E-02 0. -1.
    10030    2    1    2    0    0  0.00000000000E+00  0.00000000000E+00 -0.29876235034E+03  0.37947530449E+04  0.37829739266E+04 0.  0.
        5    1    3    3  502    0  0.11341810347E+04 -0.80472751986E+03  0.11366981834E+04  0.17961230054E+04  0.46999998093E+01 0.  1.
       -5    1    3    3    0  502 -0.11341810347E+04  0.80472751986E+03 -0.14354605337E+04  0.19986300394E+04  0.46999998093E+01 0. -1.
</event>
<event>
 5   0  0.1070988E-07  0.3757166E+04  0.7818609E-02  0.8055410E-01
        1   -1    0    0  501    0  0.00000000000E+00  0.00000000000E+00  0.15667387595E+04  0.15667387596E+04  0.50400001928E-02 0.  1.
       -1   -1    0    0    0  501  0.00000000000E+00  0.00000000000E+00 -0.22524964894E+04  0.22524964894E+04  0.50400001928E-02 0. -1.
    10030    2    1    2    0    0  0.00000000000E+00  0.00000000000E+00 -0.68575772989E+03  0.38192352490E+04  0.37571657167E+04 0.  0.
        3    1    3    3  502    0  0.38682579968E+03  0.14610172522E+04  0.79128994384E+03  0.17059734452E+04  0.10100000352E+00 0.  1.
       -3    1    3    3    0  502 -0.38682579968E+03 -0.14610172522E+04 -0.14770476737E+04  0.21132618037E+04  0.10100000352E+00 0. -1.
</event>
<event>
 5   0  0.3377396E-07  0.3825888E+04  0.7818609E-02  0.8040622E-01
        2   -1    0    0  501    0  0.00000000000E+00  0.00000000000E+00  0.15899751410E+04  0.15899751410E+04  0.25500000920E-02 0.  1.
       -2   -1    0    0    0  501  0.00000000000E+00  0.00000000000E+00 -0.23015169645E+04  0.23015169645E+04  0.25500000920E-02 0. -1.
    10030    2    1    2    0    0  0.00000000000E+00  0.00000000000E+00 -0.71154182351E+03  0.38914921054E+04  0.38258880067E+04 0.  0.
        5    1    3    3  502    0 -0.91463953081E+03  0.89113167606E+02  0.13507424022E+04  0.16337177709E+04  0.46999998093E+01 0.  1.
       -5    1    3    3    0  502  0.91463953081E+03 -0.89113167606E+02 -0.20622842257E+04  0.22577743345E+04  0.46999998093E+01 0. -1.
</event>
<event>
 5   0  0.1070988E-07  0.3817558E+04  0.7818609E-02  0.8042398E-01
        1   -1    0    0  501    0  0.00000000000E+00  0.00000000000E+00  0.20420738921E+04  0.20420738921E+04  0.50400001928E-02 0. -1.
       -1   -1    0    0    0  501  0.00000000000E+00  0.00000000000E+00 -0.17841844864E+04  0.17841844864E+04  0.50400001928E-02 0.  1.
    10030    2    1    2    0    0  0.00000000000E+00  0.00000000000E+00  0.25788940572E+03  0.38262583785E+04  0.38175576267E+04 0.  0.
        2    1    3    3  502    0 -0.12873369015E+03  0.11982597988E+04 -0.13546443232E+04  0.18131354475E+04  0.25500000920E-02 0.  1.
       -2    1    3    3    0  502  0.12873369015E+03 -0.11982597988E+04  0.16125337289E+04  0.20131229310E+04  0.25500000920E-02 0. -1.
</event>
<event>
 5   0  0.1070988E-07  0.3818297E+04  0.7818609E-02  0.8042240E-01
        1   -1    0    0  501    0  0.00000000000E+00  0.00000000000E+00  0.17459316138E+04  0.17459316138E+04  0.50400001928E-02 0.  1.
       -1   -1    0    0    0  501  0.00000000000E+00  0.00000000000E+00 -0.20876230655E+04  0.20876230655E+04  0.50400001928E-02 0. -1.
    10030    2    1    2    0    0  0.00000000000E+00  0.00000000000E+00 -0.34169145169E+03  0.38335546793E+04  0.38182965353E+04 0.  0.
        3    1    3    3  502    0  0.79596154160E+03 -0.16311233070E+04  0.42374467871E+03  0.18637804541E+04  0.10100000352E+00 0.  1.
       -3    1    3    3    0  502 -0.79596154160E+03  0.16311233070E+04 -0.76543613040E+03  0.19697742252E+04  0.10100000352E+00 0. -1.
</event>
<event>
 5   0  0.3327241E-07  0.3766476E+04  0.7818609E-02  0.8053388E-01
        2   -1    0    0  501    0  0.00000000000E+00  0.00000000000E+00  0.25718948735E+04  0.25718948735E+04  0.25500000920E-02 0.  1.
       -2   -1    0    0    0  501  0.00000000000E+00  0.00000000000E+00 -0.13789774040E+04  0.13789774040E+04  0.25500000920E-02 0. -1.
    10030    2    1    2    0    0  0.00000000000E+00  0.00000000000E+00  0.11929174695E+04  0.39508722774E+04  0.37664757617E+04 0.  0.
        3    1    3    3  502    0 -0.39844796169E+03  0.94880356955E+02 -0.13316896810E+04  0.13932553524E+04  0.10100000352E+00 0. -1.
       -3    1    3    3    0  502  0.39844796169E+03 -0.94880356955E+02  0.25246071505E+04  0.25576169250E+04  0.10100000352E+00 0.  1.
</event>
<event>
 5   0  0.3377396E-07  0.3820980E+04  0.7818609E-02  0.8041668E-01
        2   -1    0    0  501    0  0.00000000000E+00  0.00000000000E+00  0.21266390326E+04  0.21266390326E+04  0.25500000920E-02 0. -1.
       -2   -1    0    0    0  501  0.00000000000E+00  0.00000000000E+00 -0.17163102781E+04  0.17163102781E+04  0.25500000920E-02 0.  1.
    10030    2    1    2    0    0  0.00000000000E+00  0.00000000000E+00  0.41032875448E+03  0.38429493107E+04  0.38209802038E+04 0.  0.
        5    1    3    3  502    0 -0.11434004658E+04 -0.18714816629E+03  0.17329643212E+04  0.20846046364E+04  0.46999998093E+01 0. -1.
       -5    1    3    3    0  502  0.11434004658E+04  0.18714816629E+03 -0.13226355667E+04  0.17583446743E+04  0.46999998093E+01 0.  1.
</event>
<event>
 5   0  0.3539010E-07  0.3851932E+04  0.7818609E-02  0.8035101E-01
       -2   -1    0    0    0  501  0.00000000000E+00  0.00000000000E+00  0.15804211431E+04  0.15804211431E+04  0.25500000920E-02 0.  1.
        2   -1    0    0  501    0  0.00000000000E+00  0.00000000000E+00 -0.23470614715E+04  0.23470614715E+04  0.25500000920E-02 0. -1.
    10030    2    1    2    0    0  0.00000000000E+00  0.00000000000E+00 -0.76664032837E+03  0.39274826146E+04  0.38519322806E+04 0.  0.
        1    1    3    3  502    0 -0.16259944756E+03 -0.18291172540E+04 -0.97543136707E+03  0.20793207691E+04  0.50400001928E-02 0. -1.
       -1    1    3    3    0  502  0.16259944756E+03  0.18291172540E+04  0.20879103870E+03  0.18481618454E+04  0.50400001928E-02 0.  1.
</event>
<event>
 5   0  0.1084315E-07  0.3766888E+04  0.7818609E-02  0.8053298E-01
        1   -1    0    0  501    0  0.00000000000E+00  0.00000000000E+00  0.22671718348E+04  0.22671718348E+04  0.50400001928E-02 0.  1.
       -1   -1    0    0    0  501  0.00000000000E+00  0.00000000000E+00 -0.15646635959E+04  0.15646635959E+04  0.50400001928E-02 0. -1.
    10030    2    1    2    0    0  0.00000000000E+00  0.00000000000E+00  0.70250823888E+03  0.38318354307E+04  0.37668879651E+04 0.  0.
        4    1    3    3  502    0  0.13549120073E+04  0.10106656704E+04  0.11963168765E+04  0.20708470070E+04  0.12699999809E+01 0.  1.
       -4    1    3    3    0  502 -0.13549120073E+04 -0.10106656704E+04 -0.49380863758E+03  0.17609884236E+04  0.12699999809E+01 0. -1.
</event>
<event>
 5   0  0.1070988E-07  0.4048230E+04  0.7818609E-02  0.7994887E-01
        1   -1    0    0  501    0  0.00000000000E+00  0.00000000000E+00  0.21144864816E+04  0.21144864816E+04  0.50400001928E-02 0. -1.
       -1   -1    0    0    0  501  0.00000000000E+00  0.00000000000E+00 -0.19376057598E+04  0.19376057598E+04  0.50400001928E-02 0.  1.
    10030    2    1    2    0    0  0.00000000000E+00  0.00000000000E+00  0.17688072177E+03  0.40520922413E+04  0.40482298283E+04 0.  0.
        5    1    3    3  502    0  0.61621103842E+03  0.18486926620E+04 -0.45947435503E+03  0.20021287109E+04  0.46999998093E+01 0.  1.
       -5    1    3    3    0  502 -0.61621103842E+03 -0.18486926620E+04  0.63635507679E+03  0.20499635304E+04  0.46999998093E+01 0. -1.
</event>
<event>
 5   0  0.1070988E-07  0.3868016E+04  0.7818609E-02  0.8031714E-01
       -1   -1    0    0    0  501  0.00000000000E+00  0.00000000000E+00  0.24548966105E+04  0.24548966105E+04  0.50400001928E-02 0. -1.
        1   -1    0    0  501    0  0.00000000000E+00  0.00000000000E+00 -0.15236436140E+04  0.15236436140E+04  0.50400001928E-02 0.  1.
    10030    2    1    2    0    0  0.00000000000E+00  0.00000000000E+00  0.93125299643E+03  0.39785402245E+04  0.38680163100E+04 0.  0.
        3    1    3    3  502    0 -0.14510991499E+04  0.11405872246E+04 -0.12860042186E+03  0.18501800016E+04  0.10100000352E+00 0.  1.
       -3    1    3    3    0  502  0.14510991499E+04 -0.11405872246E+04  0.10598534183E+04  0.21283602229E+04  0.10100000352E+00 0. -1.
</event>
<event>
 5   0  0.3442126E-07  0.3820754E+04  0.7818609E-02  0.8041716E-01
        2   -1    0    0  501    0  0.00000000000E+00  0.00000000000E+00  0.21170919693E+04  0.21170919693E+04  0.25500000920E-02 0.  1.
       -2   -1    0    0    0  501  0.00000000000E+00  0.00000000000E+00 -0.17238457518E+04  0.17238457518E+04  0.25500000920E-02 0. -1.
    10030    2    1    2    0    0  0.00000000000E+00  0.00000000000E+00  0.39324621754E+03  0.38409377211E+04  0.38207538510E+04 0.  0.
        2    1    3    3  502    0  0.39636842424E+03 -0.13982176919E+04 -0.10498542034E+04  0.17928509391E+04  0.25500000920E-02 0. -1.
       -2    1    3    3    0  502 -0.39636842424E+03  0.13982176919E+04  0.14431004209E+04  0.20480867820E+04  0.25500000920E-02 0.  1.
</event>
<event>
 5   0  0.1070988E-07  0.3841673E+04  0.7818609E-02  0.8037271E-01
        1   -1    0    0  501    0  0.00000000000E+00  0.00000000000E+00  0.20604943695E+04  0.20604943695E+04  0.50400001928E-02 0.  1.
       -1   -1    0    0    0  501  0.00000000000E+00  0.00000000000E+00 -0.17906447508E+04  0.17906447509E+04  0.50400001928E-02 0. -1.
    10030    2    1    2    0    0  0.00000000000E+00  0.00000000000E+00  0.26984961861E+03  0.38511391203E+04  0.38416732952E+04 0.  0.
        3    1    3    3  502    0 -0.10397513428E+03  0.20368801698E+03  0.20467983499E+04  0.20595346883E+04  0.10100000352E+00 0.  1.
       -3    1    3    3    0  502  0.10397513428E+03 -0.20368801698E+03 -0.17769487313E+04  0.17916044320E+04  0.10100000352E+00 0. -1.
</event>
<event>
 5   0  0.1070988E-07  0.3278443E+04  0.7818609E-02  0.8168402E-01
        1   -1    0    0  501    0  0.00000000000E+00  0.00000000000E+00  0.21083964160E+04  0.21083964160E+04  0.50400001928E-02 0. -1.
       -1   -1    0    0    0  501  0.00000000000E+00  0.00000000000E+00 -0.12744506525E+04  0.12744506525E+04  0.50400001928E-02 0.  1.
    10030    2    1    2    0    0  0.00000000000E+00  0.00000000000E+00  0.83394576355E+03  0.33828470685E+04  0.32784430379E+04 0.  0.
        2    1    3    3  502    0  0.81311203108E+03 -0.80487562327E+03 -0.79432388394E+03  0.13928123982E+04  0.25500000920E-02 0.  1.
       -2    1    3    3    0  502 -0.81311203108E+03  0.80487562327E+03  0.16282696475E+04  0.19900346703E+04  0.25500000920E-02 0. -1.
</event>
<event>
 5   0  0.1084315E-07  0.3231394E+04  0.7818609E-02  0.8180575E-01
       -1   -1    0    0    0  501  0.00000000000E+00  0.00000000000E+00  0.17226569608E+04  0.17226569608E+04  0.50400001928E-02 0. -1.
        1   -1    0    0  501    0  0.00000000000E+00  0.00000000000E+00 -0.15153779040E+04  0.15153779041E+04  0.50400001928E-02 0.  1.
    10030    2    1    2    0    0  0.00000000000E+00  0.00000000000E+00  0.20727905678E+03  0.32380348649E+04  0.32313936899E+04 0.  0.
        4    1    3    3  502    0  0.40048908002E+03 -0.15648459791E+04  0.14032406241E+03  0.16213657505E+04  0.12699999809E+01 0. -1.
       -4    1    3    3    0  502 -0.40048908002E+03  0.15648459791E+04  0.66954994365E+02  0.16166691144E+04  0.12699999809E+01 0.  1.
</event>
<event>
 5   0  0.3327241E-07  0.3765776E+04  0.7818609E-02  0.8053539E-01
       -2   -1    0    0    0  501  0.00000000000E+00  0.00000000000E+00  0.15897194736E+04  0.15897194736E+04  0.25500000920E-02 0. -1.
        2   -1    0    0  501    0  0.00000000000E+00  0.00000000000E+00 -0.22301216009E+04  0.22301216009E+04  0.25500000920E-02 0.  1.
    10030    2    1    2    0    0  0.00000000000E+00  0.00000000000E+00 -0.64040212728E+03  0.38198410744E+04  0.37657762745E+04 0.  0.
        3    1    3    3  502    0  0.13484078217E+04 -0.12821756158E+04 -0.61259242794E+03  0.19589403912E+04  0.10100000352E+00 0.  1.
       -3    1    3    3    0  502 -0.13484078217E+04  0.12821756158E+04 -0.27809699348E+02  0.18609006832E+04  0.10100000352E+00 0. -1.
</event>
<event>
 5   0  0.3327241E-07  0.3860166E+04  0.7818609E-02  0.8033365E-01
        2   -1    0    0  501    0  0.00000000000E+00  0.00000000000E+00  0.14549467451E+04  0.14549467451E+04  0.25500000920E-02 0.  1.
       -2   -1    0    0    0  501  0.00000000000E+00  0.00000000000E+00 -0.25603824876E+04  0.25603824876E+04  0.25500000920E-02 0. -1.
    10030    2    1    2    0    0  0.00000000000E+00  0.00000000000E+00 -0.11054357425E+04  0.40153292327E+04  0.38601658858E+04 0.  0.
        3    1    3    3  502    0 -0.12777170765E+04 -0.96355390410E+03  0.56964501909E+03  0.16986737508E+04  0.10100000352E+00 0.  1.
       -3    1    3    3    0  502  0.12777170765E+04  0.96355390410E+03 -0.16750807616E+04  0.23166554819E+04  0.10100000352E+00 0. -1.
</event>
<event>
 5   0  0.1070988E-07  0.3820970E+04  0.7818609E-02  0.8041670E-01
        1   -1    0    0  501    0  0.00000000000E+00  0.00000000000E+00  0.16619117743E+04  0.16619117744E+04  0.50400001928E-02 0.  1.
       -1   -1    0    0    0  501  0.00000000000E+00  0.00000000000E+00 -0.21962370162E+04  0.21962370162E+04  0.50400001928E-02 0. -1.
    10030    2    1    2    0    0  0.00000000000E+00  0.00000000000E+00 -0.53432524182E+03  0.38581487905E+04  0.38209695924E+04 0.  0.
        2    1    3    3  502    0 -0.17507990751E+04 -0.52840422440E+03 -0.82520990464E+03  0.20063598412E+04  0.25500000920E-02 0. -1.
       -2    1    3    3    0  502  0.17507990751E+04  0.52840422440E+03  0.29088466283E+03  0.18517889493E+04  0.25500000920E-02 0.  1.
</event>
<event>
 5   0  0.1070988E-07  0.3806054E+04  0.7818609E-02  0.8044857E-01
       -1   -1    0    0    0  501  0.00000000000E+00  0.00000000000E+00  0.16755258697E+04  0.16755258697E+04  0.50400001928E-02 0. -1.
        1   -1    0    0  501    0  0.00000000000E+00  0.00000000000E+00 -0.21614176731E+04  0.21614176731E+04  0.50400001928E-02 0.  1.
    10030    2    1    2    0    0  0.00000000000E+00  0.00000000000E+00 -0.48589180344E+03  0.38369435428E+04  0.38060537182E+04 0.  0.
        5    1    3    3  502    0 -0.37441463521E+03 -0.16726147274E+04 -0.10764955399E+04  0.20240284293E+04  0.46999998093E+01 0.  1.
       -5    1    3    3    0  502  0.37441463521E+03  0.16726147274E+04  0.59060373644E+03  0.18129151135E+04  0.46999998093E+01 0. -1.
</event>
<event>
 5   0  0.3377396E-07  0.3609167E+04  0.7818609E-02  0.8088395E-01
        2   -1    0    0  501    0  0.00000000000E+00  0.00000000000E+00  0.22412536988E+04  0.22412536988E+04  0.25500000920E-02 0. -1.
       -2   -1    0    0    0  501  0.00000000000E+00  0.00000000000E+00 -0.14529908982E+04  0.14529908982E+04  0.25500000920E-02 0.  1.
    10030    2    1    2    0    0  0.00000000000E+00  0.00000000000E+00  0.78826280066E+03  0.36942445970E+04  0.36091667875E+04 0.  0.
        5    1    3    3  502    0 -0.43669791416E+03  0.88610882974E+03 -0.11516345997E+04  0.15172930724E+04  0.46999998093E+01 0.  1.
       -5    1    3    3    0  502  0.43669791416E+03 -0.88610882974E+03  0.19398974004E+04  0.21769515246E+04  0.46999998093E+01 0. -1.
</event>
<event>
 5   0  0.3539010E-07  0.3765512E+04  0.7818609E-02  0.8053597E-01
        2   -1    0    0  501    0  0.00000000000E+00  0.00000000000E+00  0.16855244520E+04  0.16855244520E+04  0.25500000920E-02 0.  1.
       -2   -1    0    0    0  501  0.00000000000E+00  0.00000000000E+00 -0.21030661412E+04  0.21030661412E+04  0.25500000920E-02 0. -1.
    10030    2    1    2    0    0  0.00000000000E+00  0.00000000000E+00 -0.41754168927E+03  0.37885905932E+04  0.37655116014E+04 0.  0.
        1    1    3    3  502    0 -0.40070542258E+03 -0.73742248891E+03 -0.19044528252E+04  0.20811769090E+04  0.50400001928E-02 0. -1.
       -1    1    3    3    0  502  0.40070542258E+03  0.73742248891E+03  0.14869111359E+04  0.17074136842E+04  0.50400001928E-02 0.  1.
</event>
<event>
 5   0  0.1084315E-07  0.3685554E+04  0.7818609E-02  0.8071171E-01
        1   -1    0    0  501    0  0.00000000000E+00  0.00000000000E+00  0.29928069505E+04  0.29928069505E+04  0.50400001928E-02 0.  1.
       -1   -1    0    0    0  501  0.00000000000E+00  0.00000000000E+00 -0.11346626834E+04  0.11346626834E+04  0.50400001928E-02 0. -1.
    10030    2    1    2    0    0  0.00000000000E+00  0.00000000000E+00  0.18581442671E+04  0.41274696338E+04  0.36855536166E+04 0.  0.
        4    1    3    3  502    0 -0.41716056563E+03  0.98484137016E+03  0.26096346431E+04  0.28203067289E+04  0.12699999809E+01 0.  1.
       -4    1    3    3    0  502  0.41716056563E+03 -0.98484137016E+03 -0.75149037599E+03  0.13071629049E+04  0.12699999809E+01 0. -1.
</event>
<event>
 5   0  0.3509843E-07  0.3795005E+04  0.7818609E-02  0.8047228E-01
       -2   -1    0    0    0  501  0.00000000000E+00  0.00000000000E+00  0.18864151318E+04  0.18864151318E+04  0.25500000920E-02 0. -1.
        2   -1    0    0  501    0  0.00000000000E+00  0.00000000000E+00 -0.19086550013E+04  0.19086550013E+04  0.25500000920E-02 0.  1.
    10030    2    1    2    0    0  0.00000000000E+00  0.00000000000E+00 -0.22239869478E+02  0.37950701332E+04  0.37950049676E+04 0.  0.
        4    1    3    3  502    0  0.57295095858E+03 -0.72640541063E+03  0.16455848364E+04  0.18878264455E+04  0.12699999809E+01 0. -1.
       -4    1    3    3    0  502 -0.57295095858E+03  0.72640541063E+03 -0.16678247059E+04  0.19072436877E+04  0.12699999809E+01 0.  1.
</event>
<event>
 5   0  0.3327241E-07  0.3822730E+04  0.7818609E-02  0.8041295E-01
       -2   -1    0    0    0  501  0.00000000000E+00  0.00000000000E+00  0.24150109596E+04  0.24150109596E+04  0.25500000920E-02 0. -1.
        2   -1    0    0  501    0  0.00000000000E+00  0.00000000000E+00 -0.15127532425E+04  0.15127532425E+04  0.25500000920E-02 0.  1.
    10030    2    1    2    0    0  0.00000000000E+00  0.00000000000E+00  0.90225771710E+03  0.39277642021E+04  0.38227297366E+04 0.  0.
        3    1    3    3  502    0 -0.50495309042E+03 -0.14889159510E+04 -0.66568981999E+03  0.17073345540E+04  0.10100000352E+00 0.  1.
       -3    1    3    3    0  502  0.50495309042E+03  0.14889159510E+04  0.15679475371E+04  0.22204296481E+04  0.10100000352E+00 0. -1.
</event>
<event>
 5   0  0.3377396E-07  0.3832784E+04  0.7818609E-02  0.8039156E-01
        2   -1    0    0  501    0  0.00000000000E+00  0.00000000000E+00  0.28276225226E+04  0.28276225226E+04  0.25500000920E-02 0.  1.
       -2   -1    0    0    0  501  0.00000000000E+00  0.00000000000E+00 -0.12988150139E+04  0.12988150139E+04  0.25500000920E-02 0. -1.
    10030    2    1    2    0    0  0.00000000000E+00  0.00000000000E+00  0.15288075088E+04  0.41264375365E+04  0.38327841505E+04 0.  0.
        5    1    3    3  502    0  0.15282185208E+04 -0.24770503717E+03 -0.45161357423E+03  0.16126954279E+04  0.46999998093E+01 0. -1.
       -5    1    3    3    0  502 -0.15282185208E+04  0.24770503717E+03  0.19804210830E+04  0.25137421086E+04  0.46999998093E+01 0.  1.
</event>
<event>
 5   0  0.3377396E-07  0.3812667E+04  0.7818609E-02  0.8043442E-01
       -2   -1    0    0    0  501  0.00000000000E+00  0.00000000000E+00  0.19208384417E+04  0.19208384417E+04  0.25500000920E-02 0. -1.
        2   -1    0    0  501    0  0.00000000000E+00  0.00000000000E+00 -0.18919379621E+04  0.18919379621E+04  0.25500000920E-02 0.  1.
    10030    2    1    2    0    0  0.00000000000E+00  0.00000000000E+00  0.28900479664E+02  0.38127764038E+04  0.38126668708E+04 0.  0.
        5    1    3    3  502    0 -0.10949929983E+04  0.62059552123E+03  0.14462513417E+04  0.19172411170E+04  0.46999998093E+01 0. -1.
       -5    1    3    3    0  502  0.10949929983E+04 -0.62059552123E+03 -0.14173508620E+04  0.18955352868E+04  0.46999998093E+01 0.  1.
</event>
<event>
 5   0  0.3377396E-07  0.3752750E+04  0.7818609E-02  0.8056371E-01
        2   -1    0    0  501    0  0.00000000000E+00  0.00000000000E+00  0.27083772828E+04  0.27083772828E+04  0.25500000920E-02 0.  1.
       -2   -1    0    0    0  501  0.00000000000E+00  0.00000000000E+00 -0.12999607168E+04  0.12999607168E+04  0.25500000920E-02 0. -1.
    10030    2    1    2    0    0  0.00000000000E+00  0.00000000000E+00  0.14084165660E+04  0.40083379996E+04  0.37527504974E+04 0.  0.
        5    1    3    3  502    0 -0.17026432603E+04 -0.42769330915E+03  0.14117806888E+04  0.22527899240E+04  0.46999998093E+01 0. -1.
       -5    1    3    3    0  502  0.17026432603E+04  0.42769330915E+03 -0.33641227855E+01  0.17555480756E+04  0.46999998093E+01 0.  1.
</event>
<event>
 5   0  0.1070988E-07  0.3796876E+04  0.7818609E-02  0.8046826E-01
       -1   -1    0    0    0  501  0.00000000000E+00  0.00000000000E+00  0.13551300132E+04  0.13551300132E+04  0.50400001928E-02 0. -1.
        1   -1    0    0  501    0  0.00000000000E+00  0.00000000000E+00 -0.26595723534E+04  0.26595723534E+04  0.50400001928E-02 0.  1.
    10030    2    1    2    0    0  0.00000000000E+00  0.00000000000E+00 -0.13044423402E+04  0.40147023666E+04  0.37968757253E+04 0.  0.
        5    1    3    3  502    0  0.94285518718E+02 -0.78527759495E+03 -0.24770633246E+04  0.26002721904E+04  0.46999998093E+01 0.  1.
       -5    1    3    3    0  502 -0.94285518718E+02  0.78527759495E+03  0.11726209844E+04  0.14144301762E+04  0.46999998093E+01 0. -1.
</event>
<event>
 5   0  0.3539010E-07  0.3902094E+04  0.7818609E-02  0.8024594E-01
        2   -1    0    0  501    0  0.00000000000E+00  0.00000000000E+00  0.15081114479E+04  0.15081114479E+04  0.25500000920E-02 0.  1.
       -2   -1    0    0    0  501  0.00000000000E+00  0.00000000000E+00 -0.25240736268E+04  0.25240736268E+04  0.25500000920E-02 0. -1.
    10030    2    1    2    0    0  0.00000000000E+00  0.00000000000E+00 -0.10159621789E+04  0.40321850748E+04  0.39020939671E+04 0.  0.
        1    1    3    3  502    0  0.17990262187E+04  0.21666548246E+03  0.23942012749E+03  0.18277749491E+04  0.50400001928E-02 0.  1.
       -1    1    3    3    0  502 -0.17990262187E+04 -0.21666548246E+03 -0.12553823064E+04  0.22044101257E+04  0.50400001928E-02 0. -1.
</event>
<event>
 5   0  0.1070988E-07  0.3392503E+04  0.7818609E-02  0.8139749E-01
        1   -1    0    0  501    0  0.00000000000E+00  0.00000000000E+00  0.19226436369E+04  0.19226436369E+04  0.50400001928E-02 0.  1.
       -1   -1    0    0    0  501  0.00000000000E+00  0.00000000000E+00 -0.14965172384E+04  0.14965172384E+04  0.50400001928E-02 0. -1.
    10030    2    1    2    0    0  0.00000000000E+00  0.00000000000E+00  0.42612639849E+03  0.34191608754E+04  0.33925031148E+04 0.  0.
        2    1    3    3  502    0 -0.98688832066E+03  0.11294390605E+04  0.10115564718E+04  0.18090958085E+04  0.25500000920E-02 0. -1.
       -2    1    3    3    0  502  0.98688832066E+03 -0.11294390605E+04 -0.58543007329E+03  0.16100650669E+04  0.25500000920E-02 0.  1.
</event>
<event>
 5   0  0.1084315E-07  0.3624415E+04  0.7818609E-02  0.8084922E-01
       -1   -1    0    0    0  501  0.00000000000E+00  0.00000000000E+00  0.19941660167E+04  0.19941660167E+04  0.50400001928E-02 0.  1.
        1   -1    0    0  501    0  0.00000000000E+00  0.00000000000E+00 -0.16468522106E+04  0.16468522106E+04  0.50400001928E-02 0. -1.
    10030    2    1    2    0    0  0.00000000000E+00  0.00000000000E+00  0.34731380608E+03  0.36410182274E+04  0.36244153807E+04 0.  0.
        4    1    3    3  502    0  0.25754917305E+03  0.15811279667E+04 -0.67745364517E+03  0.17393223617E+04  0.12699999809E+01 0. -1.
       -4    1    3    3    0  502 -0.25754917305E+03 -0.15811279667E+04  0.10247674512E+04  0.19016958657E+04  0.12699999809E+01 0.  1.
</event>
<event>
 5   0  0.1070988E-07  0.3795991E+04  0.7818609E-02  0.8047016E-01
        1   -1    0    0  501    0  0.00000000000E+00  0.00000000000E+00  0.12951770306E+04  0.12951770306E+04  0.50400001928E-02 0. -1.
       -1   -1    0    0    0  501  0.00000000000E+00  0.00000000000E+00 -0.27813864081E+04  0.27813864081E+04  0.50400001928E-02 0.  1.
    10030    2    1    2    0    0  0.00000000000E+00  0.00000000000E+00 -0.14862093775E+04  0.40765634388E+04  0.37959914590E+04 0.  0.
        3    1    3    3  502    0  0.11494970790E+04  0.92815188130E+03  0.53641996743E+03  0.15718001912E+04  0.10100000352E+00 0. -1.
       -3    1    3    3    0  502 -0.11494970790E+04 -0.92815188130E+03 -0.20226293449E+04  0.25047632476E+04  0.10100000352E+00 0.  1.
</event>
<event>
 5   0  0.3539010E-07  0.3614288E+04  0.7818609E-02  0.8087227E-01
        2   -1    0    0  501    0  0.00000000000E+00  0.00000000000E+00  0.19173347739E+04  0.19173347739E+04  0.25500000920E-02 0. -1.
       -2   -1    0    0    0  501  0.00000000000E+00  0.00000000000E+00 -0.17032860655E+04  0.17032860655E+04  0.25500000920E-02 0.  1.
    10030    2    1    2    0    0  0.00000000000E+00  0.00000000000E+00  0.21404870833E+03  0.36206208394E+04  0.36142880922E+04 0.  0.
        1    1    3    3  502    0  0.15335089052E+04  0.17938147212E+03 -0.83373895981E+03  0.17546931151E+04  0.50400001928E-02 0. -1.
       -1    1    3    3    0  502 -0.15335089052E+04 -0.17938147212E+03  0.10477876681E+04  0.18659277243E+04  0.50400001928E-02 0.  1.
</event>
<event>
 5   0  0.1084315E-07  0.3783869E+04  0.7818609E-02  0.8049625E-01
       -1   -1    0    0    0  501  0.00000000000E+00  0.00000000000E+00  0.13740012895E+04  0.13740012895E+04  0.50400001928E-02 0.  1.
        1   -1    0    0  501    0  0.00000000000E+00  0.00000000000E+00 -0.26051046133E+04  0.26051046133E+04  0.50400001928E-02 0. -1.
    10030    2    1    2    0    0  0.00000000000E+00  0.00000000000E+00 -0.12311033238E+04  0.39791059028E+04  0.37838694998E+04 0.  0.
        4    1    3    3  502    0  0.76668086805E+02 -0.18671293768E+04 -0.92637887355E+03  0.20857203877E+04  0.12699999809E+01 0. -1.
       -4    1    3    3    0  502 -0.76668086805E+02  0.18671293768E+04 -0.30472445023E+03  0.18933855151E+04  0.12699999809E+01 0.  1.
</event>
<event>
 5   0  0.1084315E-07  0.3776662E+04  0.7818609E-02  0.8051182E-01
       -1   -1    0    0    0  501  0.00000000000E+00  0.00000000000E+00  0.24207560035E+04  0.24207560035E+04  0.50400001928E-02 0.  1.
        1   -1    0    0  501    0  0.00000000000E+00  0.00000000000E+00 -0.14730087393E+04  0.14730087393E+04  0.50400001928E-02 0. -1.
    10030    2    1    2    0    0  0.00000000000E+00  0.00000000000E+00  0.94774726422E+03  0.38937647429E+04  0.37766624149E+04 0.  0.
        4    1    3    3  502    0  0.68893795505E+03  0.82186790284E+03 -0.11285679759E+04  0.15568460569E+04  0.12699999809E+01 0. -1.
       -4    1    3    3    0  502 -0.68893795505E+03 -0.82186790284E+03  0.20763152401E+04  0.23369186860E+04  0.12699999809E+01 0.  1.
</event>
<event>
 5   0  0.1070988E-07  0.3789058E+04  0.7818609E-02  0.8048507E-01
        1   -1    0    0  501    0  0.00000000000E+00  0.00000000000E+00  0.15952121516E+04  0.15952121516E+04  0.50400001928E-02 0.  1.
       -1   -1    0    0    0  501  0.00000000000E+00  0.00000000000E+00 -0.22500085974E+04  0.22500085974E+04  0.50400001928E-02 0. -1.
    10030    2    1    2    0    0  0.00000000000E+00  0.00000000000E+00 -0.65479644585E+03  0.38452207490E+04  0.37890584877E+04 0.  0.
        5    1    3    3  502    0 -0.12218214111E+04 -0.14440123002E+04 -0.22000009977E+03  0.19043217212E+04  0.46999998093E+01 0. -1.
       -5    1    3    3    0  502  0.12218214111E+04  0.14440123002E+04 -0.43479634608E+03  0.19408990279E+04  0.46999998093E+01 0.  1.
</event>
<event>
 5   0  0.3442126E-07  0.3768886E+04  0.7818609E-02  0.8052865E-01
       -2   -1    0    0    0  501  0.00000000000E+00  0.00000000000E+00  0.24168332372E+04  0.24168332372E+04  0.25500000920E-02 0. -1.
        2   -1    0    0  501    0  0.00000000000E+00  0.00000000000E+00 -0.14693302922E+04  0.14693302922E+04  0.25500000920E-02 0.  1.
    10030    2    1    2    0    0  0.00000000000E+00  0.00000000000E+00  0.94750294499E+03  0.38861635294E+04  0.37688864598E+04 0.  0.
        2    1    3    3  502    0 -0.14611455277E+04 -0.10330355760E+03 -0.74868061614E+03  0.16450351191E+04  0.25500000920E-02 0.  1.
       -2    1    3    3    0  502  0.14611455277E+04  0.10330355760E+03  0.16961835611E+04  0.22411284103E+04  0.25500000920E-02 0. -1.
</event>
<event>
 5   0  0.3509843E-07  0.3801671E+04  0.7818609E-02  0.8045796E-01
       -2   -1    0    0    0  501  0.00000000000E+00  0.00000000000E+00  0.15692069921E+04  0.15692069921E+04  0.25500000920E-02 0. -1.
        2   -1    0    0  501    0  0.00000000000E+00  0.00000000000E+00 -0.23025485593E+04  0.23025485593E+04  0.25500000920E-02 0.  1.
    10030    2    1    2    0    0  0.00000000000E+00  0.00000000000E+00 -0.73334156717E+03  0.38717555515E+04  0.38016708427E+04 0.  0.
        4    1    3    3  502    0  0.57553293211E+03  0.17207253964E+04 -0.94371985673E+03  0.20451755002E+04  0.12699999809E+01 0.  1.
       -4    1    3    3    0  502 -0.57553293211E+03 -0.17207253964E+04  0.21037828955E+03  0.18265800512E+04  0.12699999809E+01 0. -1.
</event>
<event>
 5   0  0.3377396E-07  0.3831731E+04  0.7818609E-02  0.8039380E-01
       -2   -1    0    0    0  501  0.00000000000E+00  0.00000000000E+00  0.14112256491E+04  0.14112256491E+04  0.25500000920E-02 0.  1.
        2   -1    0    0  501    0  0.00000000000E+00  0.00000000000E+00 -0.26009589827E+04  0.26009589827E+04  0.25500000920E-02 0. -1.
    10030    2    1    2    0    0  0.00000000000E+00  0.00000000000E+00 -0.11897333336E+04  0.40121846318E+04  0.38317306944E+04 0.  0.
        5    1    3    3  502    0  0.17717008973E+04 -0.43248514808E+03 -0.12094946834E+04  0.21883479961E+04  0.46999998093E+01 0. -1.
       -5    1    3    3    0  502 -0.17717008973E+04  0.43248514808E+03  0.19761349833E+02  0.18238366357E+04  0.46999998093E+01 0.  1.
</event>
<event>
 5   0  0.3327241E-07  0.3818226E+04  0.7818609E-02  0.8042255E-01
       -2   -1    0    0    0  501  0.00000000000E+00  0.00000000000E+00  0.19734998296E+04  0.19734998296E+04  0.25500000920E-02 0. -1.
        2   -1    0    0  501    0  0.00000000000E+00  0.00000000000E+00 -0.18468271767E+04  0.18468271767E+04  0.25500000920E-02 0.  1.
    10030    2    1    2    0    0  0.00000000000E+00  0.00000000000E+00  0.12667265287E+03  0.38203270063E+04  0.38182263519E+04 0.  0.
        3    1    3    3  502    0  0.11195123210E+04 -0.13686027255E+04  0.78368509212E+03  0.19340484976E+04  0.10100000352E+00 0. -1.
       -3    1    3    3    0  502 -0.11195123210E+04  0.13686027255E+04 -0.65701243925E+03  0.18862785088E+04  0.10100000352E+00 0.  1.
</event>
<event>
 5   0  0.3377396E-07  0.3779503E+04  0.7818609E-02  0.8050568E-01
        2   -1    0    0  501    0  0.00000000000E+00  0.00000000000E+00  0.20026289887E+04  0.20026289887E+04  0.25500000920E-02 0. -1.
       -2   -1    0    0    0  501  0.00000000000E+00  0.00000000000E+00 -0.17832365109E+04  0.17832365109E+04  0.25500000920E-02 0.  1.
    10030    2    1    2    0    0  0.00000000000E+00  0.00000000000E+00  0.21939247772E+03  0.37858654996E+04  0.37795032110E+04 0.  0.
        5    1    3    3  502    0  0.14552283169E+04 -0.11850289517E+04 -0.11238843862E+03  0.18800628505E+04  0.46999998093E+01 0.  1.
       -5    1    3    3    0  502 -0.14552283169E+04  0.11850289517E+04  0.33178091634E+03  0.19058026491E+04  0.46999998093E+01 0. -1.
</event>
<event>
 5   0  0.3442126E-07  0.3795377E+04  0.7818609E-02  0.8047148E-01
        2   -1    0    0  501    0  0.00000000000E+00  0.00000000000E+00  0.22960990316E+04  0.22960990316E+04  0.25500000920E-02 0. -1.
       -2   -1    0    0    0  501  0.00000000000E+00  0.00000000000E+00 -0.15684088599E+04  0.15684088599E+04  0.25500000920E-02 0.  1.
    10030    2    1    2    0    0  0.00000000000E+00  0.00000000000E+00  0.72769017168E+03  0.38645078915E+04  0.37953772221E+04 0.  0.
        2    1    3    3  502    0 -0.14325128060E+04  0.97734935874E+03 -0.42085239801E+03  0.17844947322E+04  0.25500000920E-02 0. -1.
       -2    1    3    3    0  502  0.14325128060E+04 -0.97734935874E+03  0.11485425697E+04  0.20800131593E+04  0.25500000920E-02 0.  1.
</event>
<event>
 5   0  0.1085771E-07  0.3812714E+04  0.7818609E-02  0.8043432E-01
       -1   -1    0    0    0  501  0.00000000000E+00  0.00000000000E+00  0.18836844923E+04  0.18836844924E+04  0.50400001928E-02 0.  1.
        1   -1    0    0  501    0  0.00000000000E+00  0.00000000000E+00 -0.19293027650E+04  0.19293027650E+04  0.50400001928E-02 0. -1.
    10030    2    1    2    0    0  0.00000000000E+00  0.00000000000E+00 -0.45618272624E+02  0.38129872573E+04  0.38127143609E+04 0.  0.
        1    1    3    3  502    0 -0.59876643066E+02 -0.10614009021E+04 -0.16053384663E+04  0.19254268822E+04  0.50400001928E-02 0. -1.
       -1    1    3    3    0  502  0.59876643066E+02  0.10614009021E+04  0.15597201937E+04  0.18875603751E+04  0.50400001928E-02 0.  1.
</event>
<event>
 5   0  0.1084315E-07  0.3806097E+04  0.7818609E-02  0.8044848E-01
        1   -1    0    0  501    0  0.00000000000E+00  0.00000000000E+00  0.29896611992E+04  0.29896611992E+04  0.50400001928E-02 0.  1.
       -1   -1    0    0    0  501  0.00000000000E+00  0.00000000000E+00 -0.12113724621E+04  0.12113724621E+04  0.50400001928E-02 0. -1.
    10030    2    1    2    0    0  0.00000000000E+00  0.00000000000E+00  0.17782887370E+04  0.42010336613E+04  0.38060968184E+04 0.  0.
        4    1    3    3  502    0 -0.20916863202E+03 -0.15176244830E+04  0.21353015801E+04  0.26280125644E+04  0.12699999809E+01 0.  1.
       -4    1    3    3    0  502  0.20916863202E+03  0.15176244830E+04 -0.35701284301E+03  0.15730210968E+04  0.12699999809E+01 0. -1.
</event>
<event>
 5   0  0.3509843E-07  0.3069074E+04  0.7818609E-02  0.8224277E-01
        2   -1    0    0  501    0  0.00000000000E+00  0.00000000000E+00  0.14584783163E+04  0.14584783163E+04  0.25500000920E-02 0. -1.
       -2   -1    0    0    0  501  0.00000000000E+00  0.00000000000E+00 -0.16145622061E+04  0.16145622061E+04  0.25500000920E-02 0.  1.
    10030    2    1    2    0    0  0.00000000000E+00  0.00000000000E+00 -0.15608388979E+03  0.30730405224E+04  0.30690741066E+04 0.  0.
        4    1    3    3  502    0 -0.11094907581E+04  0.94810732834E+03  0.39683368163E+03  0.15124006850E+04  0.12699999809E+01 0.  1.
       -4    1    3    3    0  502  0.11094907581E+04 -0.94810732834E+03 -0.55291757142E+03  0.15606398374E+04  0.12699999809E+01 0. -1.
</event>
<event>
 5   0  0.3509843E-07  0.3787503E+04  0.7818609E-02  0.8048842E-01
        2   -1    0    0  501    0  0.00000000000E+00  0.00000000000E+00  0.18393545653E+04  0.18393545653E+04  0.25500000920E-02 0. -1.
       -2   -1    0    0    0  501  0.00000000000E+00  0.00000000000E+00 -0.19497568567E+04  0.19497568567E+04  0.25500000920E-02 0.  1.
    10030    2    1    2    0    0  0.00000000000E+00  0.00000000000E+00 -0.11040229136E+03  0.37891114220E+04  0.37875027000E+04 0.  0.
        4    1    3    3  502    0  0.17826826166E+04 -0.48792237562E+03 -0.46801063853E+03  0.19065836270E+04  0.12699999809E+01 0.  1.
       -4    1    3    3    0  502 -0.17826826166E+04  0.48792237562E+03  0.35760834717E+03  0.18825277950E+04  0.12699999809E+01 0. -1.
</event>
<event>
 5   0  0.1070988E-07  0.3781240E+04  0.7818609E-02  0.8050193E-01
       -1   -1    0    0    0  501  0.00000000000E+00  0.00000000000E+00  0.28645342236E+04  0.28645342236E+04  0.50400001928E-02 0.  1.
        1   -1    0    0  501    0  0.00000000000E+00  0.00000000000E+00 -0.12478275378E+04  0.12478275378E+04  0.50400001928E-02 0. -1.
    10030    2    1    2    0    0  0.00000000000E+00  0.00000000000E+00  0.16167066858E+04  0.41123617614E+04  0.37812403717E+04 0.  0.
        2    1    3    3  502    0  0.15483258382E+04  0.19616550805E+03 -0.35216582795E+03  0.15999420546E+04  0.25500000920E-02 0. -1.
       -2    1    3    3    0  502 -0.15483258382E+04 -0.19616550805E+03  0.19688725137E+04  0.25124197068E+04  0.25500000920E-02 0.  1.
</event>
<event>
 5   0  0.1070988E-07  0.3744249E+04  0.7818609E-02  0.8058226E-01
       -1   -1    0    0    0  501  0.00000000000E+00  0.00000000000E+00  0.23165421098E+04  0.23165421098E+04  0.50400001928E-02 0.  1.
        1   -1    0    0  501    0  0.00000000000E+00  0.00000000000E+00 -0.15129663649E+04  0.15129663649E+04  0.50400001928E-02 0. -1.
    10030    2    1    2    0    0  0.00000000000E+00  0.00000000000E+00  0.80357574496E+03  0.38295084747E+04  0.37442490809E+04 0.  0.
        2    1    3    3  502    0 -0.21821419369E+03 -0.10884390140E+04  0.19436070314E+04  0.22382862226E+04  0.25500000920E-02 0.  1.
       -2    1    3    3    0  502  0.21821419369E+03  0.10884390140E+04 -0.11400312865E+04  0.15912222521E+04  0.25500000920E-02 0. -1.
</event>
<event>
 5   0  0.3442126E-07  0.3790115E+04  0.7818609E-02  0.8048280E-01
       -2   -1    0    0    0  501  0.00000000000E+00  0.00000000000E+00  0.16074907664E+04  0.16074907664E+04  0.25500000920E-02 0. -1.
        2   -1    0    0  501    0  0.00000000000E+00  0.00000000000E+00 -0.22340674482E+04  0.22340674482E+04  0.25500000920E-02 0.  1.
    10030    2    1    2    0    0  0.00000000000E+00  0.00000000000E+00 -0.62657668180E+03  0.38415582146E+04  0.37901149294E+04 0.  0.
        2    1    3    3  502    0 -0.11988111291E+04  0.10628938285E+04  0.71255139608E+03  0.17534596961E+04  0.25500000920E-02 0. -1.
       -2    1    3    3    0  502  0.11988111291E+04 -0.10628938285E+04 -0.13391280779E+04  0.20880985185E+04  0.25500000920E-02 0.  1.
</event>
<event>
 5   0  0.3327241E-07  0.3773995E+04  0.7818609E-02  0.8051759E-01
        2   -1    0    0  501    0  0.00000000000E+00  0.00000000000E+00  0.26293019949E+04  0.26293019949E+04  0.25500000920E-02 0.  1.
       -2   -1    0    0    0  501  0.00000000000E+00  0.00000000000E+00 -0.13542604929E+04  0.13542604929E+04  0.25500000920E-02 0. -1.
    10030    2    1    2    0    0  0.00000000000E+00  0.00000000000E+00  0.12750415020E+04  0.39835624879E+04  0.37739951329E+04 0.  0.
        3    1    3    3  502    0  0.14926681333E+04 -0.10561164087E+04  0.14545863788E+03  0.18342841248E+04  0.10100000352E+00 0. -1.
       -3    1    3    3    0  502 -0.14926681333E+04  0.10561164087E+04  0.11295828641E+04  0.21492783631E+04  0.10100000352E+00 0.  1.
</event>
<event>
 5   0  0.3442126E-07  0.3738143E+04  0.7818609E-02  0.8059561E-01
       -2   -1    0    0    0  501  0.00000000000E+00  0.00000000000E+00  0.16999200538E+04  0.16999200538E+04  0.25500000920E-02 0. -1.
        2   -1    0    0  501    0  0.00000000000E+00  0.00000000000E+00 -0.20550543197E+04  0.20550543197E+04  0.25500000920E-02 0.  1.
    10030    2    1    2    0    0  0.00000000000E+00  0.00000000000E+00 -0.35513426588E+03  0.37549743735E+04  0.37381428810E+04 0.  0.
        2    1    3    3  502    0  0.25149333545E+02  0.17824238096E+04 -0.74202336458E+03  0.19308717720E+04  0.25500000920E-02 0.  1.
       -2    1    3    3    0  502 -0.25149333545E+02 -0.17824238096E+04  0.38688909870E+03  0.18241026015E+04  0.25500000920E-02 0. -1.
</event>
<event>
 5   0  0.3539010E-07  0.3759554E+04  0.7818609E-02  0.8054891E-01
       -2   -1    0    0    0  501  0.00000000000E+00  0.00000000000E+00  0.11515912071E+04  0.11515912071E+04  0.25500000920E-02 0. -1.
        2   -1    0    0  501    0  0.00000000000E+00  0.00000000000E+00 -0.30684172107E+04  0.30684172107E+04  0.25500000920E-02 0.  1.
    10030    2    1    2    0    0  0.00000000000E+00  0.00000000000E+00 -0.19168260036E+04  0.42200084178E+04  0.37595543776E+04 0.  0.
        1    1    3    3  502    0 -0.56199062027E+03 -0.67556233926E+03 -0.28236637824E+04  0.29572445093E+04  0.50400001928E-02 0. -1.
       -1    1    3    3    0  502  0.56199062027E+03  0.67556233926E+03  0.90683777882E+03  0.12627639085E+04  0.50400001928E-02 0.  1.
</event>
<event>
 5   0  0.1070988E-07  0.3269477E+04  0.7818609E-02  0.8170706E-01
       -1   -1    0    0    0  501  0.00000000000E+00  0.00000000000E+00  0.91227227351E+03  0.91227227352E+03  0.50400001928E-02 0.  1.
        1   -1    0    0  501    0  0.00000000000E+00  0.00000000000E+00 -0.29293554847E+04  0.29293554847E+04  0.50400001928E-02 0. -1.
    10030    2    1    2    0    0  0.00000000000E+00  0.00000000000E+00 -0.20170832112E+04  0.38416277583E+04  0.32694768927E+04 0.  0.
        5    1    3    3  502    0  0.77547647955E+02 -0.78739327113E+03  0.67229899930E+03  0.10382725247E+04  0.46999998093E+01 0.  1.
       -5    1    3    3    0  502 -0.77547647955E+02  0.78739327113E+03 -0.26893822105E+04  0.28033552335E+04  0.46999998093E+01 0. -1.
</event>
<event>
 5   0  0.3377396E-07  0.3741291E+04  0.7818609E-02  0.8058872E-01
       -2   -1    0    0    0  501  0.00000000000E+00  0.00000000000E+00  0.17889045291E+04  0.17889045291E+04  0.25500000920E-02 0. -1.
        2   -1    0    0  501    0  0.00000000000E+00  0.00000000000E+00 -0.19561218319E+04  0.19561218319E+04  0.25500000920E-02 0.  1.
    10030    2    1    2    0    0  0.00000000000E+00  0.00000000000E+00 -0.16721730286E+03  0.37450263610E+04  0.37412913303E+04 0.  0.
        5    1    3    3  502    0  0.14316035349E+04  0.45467878226E+03  0.10324356399E+04  0.18226812439E+04  0.46999998093E+01 0. -1.
       -5    1    3    3    0  502 -0.14316035349E+04 -0.45467878226E+03 -0.11996529427E+04  0.19223451171E+04  0.46999998093E+01 0.  1.
</event>
<event>
 5   0  0.3509843E-07  0.3946660E+04  0.7818609E-02  0.8015394E-01
        2   -1    0    0  501    0  0.00000000000E+00  0.00000000000E+00  0.21660754538E+04  0.21660754538E+04  0.25500000920E-02 0. -1.
       -2   -1    0    0    0  501  0.00000000000E+00  0.00000000000E+00 -0.17977353318E+04  0.17977353318E+04  0.25500000920E-02 0.  1.
    10030    2    1    2    0    0  0.00000000000E+00  0.00000000000E+00  0.36834012201E+03  0.39638107855E+04  0.39466595366E+04 0.  0.
        4    1    3    3  502    0  0.16509937036E+03 -0.53161501931E+03 -0.17172441264E+04  0.18052150380E+04  0.12699999809E+01 0.  1.
       -4    1    3    3    0  502 -0.16509937036E+03  0.53161501931E+03  0.20855842485E+04  0.21585957475E+04  0.12699999809E+01 0. -1.
</event>
<event>
 5   0  0.3442126E-07  0.3800633E+04  0.7818609E-02  0.8046019E-01
       -2   -1    0    0    0  501  0.00000000000E+00  0.00000000000E+00  0.12550638143E+04  0.12550638143E+04  0.25500000920E-02 0.  1.
        2   -1    0    0  501    0  0.00000000000E+00  0.00000000000E+00 -0.28773063473E+04  0.28773063473E+04  0.25500000920E-02 0. -1.
    10030    2    1    2    0    0  0.00000000000E+00  0.00000000000E+00 -0.16222425331E+04  0.41323701616E+04  0.38006331468E+04 0.  0.
        2    1    3    3  502    0 -0.12861184402E+04  0.11949511679E+04 -0.20168080377E+02  0.17556809754E+04  0.25500000920E-02 0.  1.
       -2    1    3    3    0  502  0.12861184402E+04 -0.11949511679E+04 -0.16020744527E+04  0.23766891862E+04  0.25500000920E-02 0. -1.
</event>
<event>
 5   0  0.1070988E-07  0.3855701E+04  0.7818609E-02  0.8034306E-01
        1   -1    0    0  501    0  0.00000000000E+00  0.00000000000E+00  0.12979676975E+04  0.12979676976E+04  0.50400001928E-02 0. -1.
       -1   -1    0    0    0  501  0.00000000000E+00  0.00000000000E+00 -0.28634054197E+04  0.28634054197E+04  0.50400001928E-02 0.  1.
    10030    2    1    2    0    0  0.00000000000E+00  0.00000000000E+00 -0.15654377222E+04  0.41613731172E+04  0.38557010982E+04 0.  0.
        5    1    3    3  502    0  0.40626648434E+03  0.17089350890E+04  0.74661360926E+02  0.17581547154E+04  0.46999998093E+01 0. -1.
       -5    1    3    3    0  502 -0.40626648434E+03 -0.17089350890E+04 -0.16400990831E+04  0.24032184018E+04  0.46999998093E+01 0.  1.
</event>
<event>
 5   0  0.1070988E-07  0.3590335E+04  0.7818609E-02  0.8092709E-01
       -1   -1    0    0    0  501  0.00000000000E+00  0.00000000000E+00  0.26673167380E+04  0.26673167380E+04  0.50400001928E-02 0.  1.
        1   -1    0    0  501    0  0.00000000000E+00  0.00000000000E+00 -0.12081901312E+04  0.12081901312E+04  0.50400001928E-02 0. -1.
    10030    2    1    2    0    0  0.00000000000E+00  0.00000000000E+00  0.14591266068E+04  0.38755068692E+04  0.35903346695E+04 0.  0.
        5    1    3    3  502    0  0.81218111853E+03  0.10686367836E+04  0.20162941201E+04  0.24222070129E+04  0.46999998093E+01 0.  1.
       -5    1    3    3    0  502 -0.81218111853E+03 -0.10686367836E+04 -0.55716751329E+03  0.14532998564E+04  0.46999998093E+01 0. -1.
</event>
<event>
 5   0  0.3539010E-07  0.3834792E+04  0.7818609E-02  0.8038729E-01
        2   -1    0    0  501    0  0.00000000000E+00  0.00000000000E+00  0.24941377134E+04  0.24941377134E+04  0.25500000920E-02 0. -1.
       -2   -1    0    0    0  501  0.00000000000E+00  0.00000000000E+00 -0.14740197771E+04  0.14740197771E+04  0.25500000920E-02 0.  1.
    10030    2    1    2    0    0  0.00000000000E+00  0.00000000000E+00  0.10201179363E+04  0.39681574906E+04  0.38347924671E+04 0.  0.
        1    1    3    3  502    0  0.34278069623E+03  0.18787320896E+04  0.33300780012E+03  0.19385631445E+04  0.50400001928E-02 0.  1.
       -1    1    3    3    0  502 -0.34278069623E+03 -0.18787320896E+04  0.68711013620E+03  0.20295943461E+04  0.50400001928E-02 0. -1.
</event>
<event>
 5   0  0.3377396E-07  0.3754374E+04  0.7818609E-02  0.8056018E-01
       -2   -1    0    0    0  501  0.00000000000E+00  0.00000000000E+00  0.13264237352E+04  0.13264237352E+04  0.25500000920E-02 0.  1.
        2   -1    0    0  501    0  0.00000000000E+00  0.00000000000E+00 -0.26566409758E+04  0.26566409758E+04  0.25500000920E-02 0. -1.
    10030    2    1    2    0    0  0.00000000000E+00  0.00000000000E+00 -0.13302172406E+04  0.39830647110E+04  0.37543743267E+04 0.  0.
        5    1    3    3  502    0 -0.61893779157E+03 -0.58064837534E+03 -0.24414880180E+04  0.25847867141E+04  0.46999998093E+01 0. -1.
       -5    1    3    3    0  502  0.61893779157E+03  0.58064837534E+03  0.11112707774E+04  0.13982779968E+04  0.46999998093E+01 0.  1.
</event>
<event>
 5   0  0.3377396E-07  0.3881712E+04  0.7818609E-02  0.8028843E-01
       -2   -1    0    0    0  501  0.00000000000E+00  0.00000000000E+00  0.15995146221E+04  0.15995146221E+04  0.25500000920E-02 0.  1.
        2   -1    0    0  501    0  0.00000000000E+00  0.00000000000E+00 -0.23550411454E+04  0.23550411454E+04  0.25500000920E-02 0. -1.
    10030    2    1    2    0    0  0.00000000000E+00  0.00000000000E+00 -0.75552652324E+03  0.39545557675E+04  0.38817123787E+04 0.  0.
        5    1    3    3  502    0  0.92582665886E+03 -0.50480564060E+03 -0.20377316573E+04  0.22944184741E+04  0.46999998093E+01 0. -1.
       -5    1    3    3    0  502 -0.92582665886E+03  0.50480564060E+03  0.12822051341E+04  0.16601372934E+04  0.46999998093E+01 0.  1.
</event>
<event>
 5   0  0.1084315E-07  0.3773800E+04  0.7818609E-02  0.8051801E-01
       -1   -1    0    0    0  501  0.00000000000E+00  0.00000000000E+00  0.16752659568E+04  0.16752659568E+04  0.50400001928E-02 0.  1.
        1   -1    0    0  501    0  0.00000000000E+00  0.00000000000E+00 -0.21252700159E+04  0.21252700159E+04  0.50400001928E-02 0. -1.
    10030    2    1    2    0    0  0.00000000000E+00  0.00000000000E+00 -0.45000405909E+03  0.38005359727E+04  0.37738004752E+04 0.  0.
        4    1    3    3  502    0 -0.13220573534E+04  0.27354489539E+03  0.11025662500E+04  0.17430767063E+04  0.12699999809E+01 0.  1.
       -4    1    3    3    0  502  0.13220573534E+04 -0.27354489539E+03 -0.15525703091E+04  0.20574592664E+04  0.12699999809E+01 0. -1.
</event>
<event>
 5   0  0.1084315E-07  0.3141778E+04  0.7818609E-02  0.8204365E-01
       -1   -1    0    0    0  501  0.00000000000E+00  0.00000000000E+00  0.12652942724E+04  0.12652942724E+04  0.50400001928E-02 0. -1.
        1   -1    0    0  501    0  0.00000000000E+00  0.00000000000E+00 -0.19502907191E+04  0.19502907191E+04  0.50400001928E-02 0.  1.
    10030    2    1    2    0    0  0.00000000000E+00  0.00000000000E+00 -0.68499644676E+03  0.32155849915E+04  0.31417776347E+04 0.  0.
        4    1    3    3  502    0 -0.11068795377E+03  0.15097178798E+04 -0.77210920958E+03  0.16993099023E+04  0.12699999809E+01 0.  1.
       -4    1    3    3    0  502  0.11068795377E+03 -0.15097178798E+04  0.87112762818E+02  0.15162750892E+04  0.12699999809E+01 0. -1.
</event>
<event>
 5   0  0.1070988E-07  0.3781028E+04  0.7818609E-02  0.8050239E-01
        1   -1    0    0  501    0  0.00000000000E+00  0.00000000000E+00  0.13075498578E+04  0.13075498578E+04  0.50400001928E-02 0.  1.
       -1   -1    0    0    0  501  0.00000000000E+00  0.00000000000E+00 -0.27333895511E+04  0.27333895512E+04  0.50400001928E-02 0. -1.
    10030    2    1    2    0    0  0.00000000000E+00  0.00000000000E+00 -0.14258396934E+04  0.40409394090E+04  0.37810279655E+04 0.  0.
        2    1    3    3  502    0  0.78876457693E+03  0.20965937631E+03 -0.25354088180E+04  0.26635323325E+04  0.25500000920E-02 0. -1.
       -2    1    3    3    0  502 -0.78876457693E+03 -0.20965937631E+03  0.11095691246E+04  0.13774070765E+04  0.25500000920E-02 0.  1.
</event>
<event>
 5   0  0.3539010E-07  0.3776773E+04  0.7818609E-02  0.8051158E-01
       -2   -1    0    0    0  501  0.00000000000E+00  0.00000000000E+00  0.15375002179E+04  0.15375002179E+04  0.25500000920E-02 0.  1.
        2   -1    0    0  501    0  0.00000000000E+00  0.00000000000E+00 -0.23193513667E+04  0.23193513667E+04  0.25500000920E-02 0. -1.
    10030    2    1    2    0    0  0.00000000000E+00  0.00000000000E+00 -0.78185114888E+03  0.38568515846E+04  0.37767728190E+04 0.  0.
        1    1    3    3  502    0 -0.18115987402E+04 -0.52048169132E+03 -0.50830638104E+03  0.19522209310E+04  0.50400001928E-02 0. -1.
       -1    1    3    3    0  502  0.18115987402E+04  0.52048169132E+03 -0.27354476785E+03  0.19046306536E+04  0.50400001928E-02 0.  1.
</event>
<event>
 5   0  0.3377396E-07  0.3793539E+04  0.7818609E-02  0.8047543E-01
       -2   -1    0    0    0  501  0.00000000000E+00  0.00000000000E+00  0.18861551541E+04  0.18861551541E+04  0.25500000920E-02 0. -1.
        2   -1    0    0  501    0  0.00000000000E+00  0.00000000000E+00 -0.19074440476E+04  0.19074440476E+04  0.25500000920E-02 0.  1.
    10030    2    1    2    0    0  0.00000000000E+00  0.00000000000E+00 -0.21288893585E+02  0.37935992017E+04  0.37935394668E+04 0.  0.
        5    1    3    3  502    0 -0.11862496853E+04  0.98901382712E+03  0.10904526639E+04  0.18906204718E+04  0.46999998093E+01 0. -1.
       -5    1    3    3    0  502  0.11862496853E+04 -0.98901382712E+03 -0.11117415574E+04  0.19029787299E+04  0.46999998093E+01 0.  1.
</event>
<event>
 5   0  0.3327241E-07  0.3842326E+04  0.7818609E-02  0.8037132E-01
        2   -1    0    0  501    0  0.00000000000E+00  0.00000000000E+00  0.21640731885E+04  0.21640731885E+04  0.25500000920E-02 0.  1.
       -2   -1    0    0    0  501  0.00000000000E+00  0.00000000000E+00 -0.17055187963E+04  0.17055187963E+04  0.25500000920E-02 0. -1.
    10030    2    1    2    0    0  0.00000000000E+00  0.00000000000E+00  0.45855439216E+03  0.38695919848E+04  0.38423261182E+04 0.  0.
        3    1    3    3  502    0  0.27272189191E+03  0.10651693641E+04 -0.13573083146E+04  0.17467824351E+04  0.10100000352E+00 0. -1.
       -3    1    3    3    0  502 -0.27272189191E+03 -0.10651693641E+04  0.18158627067E+04  0.21228095497E+04  0.10100000352E+00 0.  1.
</event>
<event>
 5   0  0.1085771E-07  0.3801531E+04  0.7818609E-02  0.8045827E-01
        1   -1    0    0  501    0  0.00000000000E+00  0.00000000000E+00  0.24411297139E+04  0.24411297139E+04  0.50400001928E-02 0.  1.
       -1   -1    0    0    0  501  0.00000000000E+00  0.00000000000E+00 -0.14800150377E+04  0.14800150377E+04  0.50400001928E-02 0. -1.
    10030    2    1    2    0    0  0.00000000000E+00  0.00000000000E+00  0.96111467621E+03  0.39211447516E+04  0.38015305789E+04 0.  0.
        1    1    3    3  502    0 -0.13710881756E+04  0.12384239135E+04  0.94107153072E+03  0.20734493485E+04  0.50400001928E-02 0.  1.
       -1    1    3    3    0  502  0.13710881756E+04 -0.12384239135E+04  0.20043145486E+02  0.18476954031E+04  0.50400001928E-02 0. -1.
</event>
<event>
 5   0  0.3539010E-07  0.3676675E+04  0.7818609E-02  0.8073151E-01
       -2   -1    0    0    0  501  0.00000000000E+00  0.00000000000E+00  0.21026429637E+04  0.21026429637E+04  0.25500000920E-02 0.  1.
        2   -1    0    0  501    0  0.00000000000E+00  0.00000000000E+00 -0.16072559061E+04  0.16072559061E+04  0.25500000920E-02 0. -1.
    10030    2    1    2    0    0  0.00000000000E+00  0.00000000000E+00  0.49538705757E+03  0.37098988699E+04  0.36766753035E+04 0.  0.
        1    1    3    3  502    0  0.94985299085E+03  0.14322562259E+04  0.90620605426E+03  0.19428813689E+04  0.50400001928E-02 0.  1.
       -1    1    3    3    0  502 -0.94985299085E+03 -0.14322562259E+04 -0.41081899669E+03  0.17670175010E+04  0.50400001928E-02 0. -1.
</event>
<event>
 5   0  0.1084315E-07  0.3120676E+04  0.7818609E-02  0.8210086E-01
       -1   -1    0    0    0  501  0.00000000000E+00  0.00000000000E+00  0.13585136854E+04  0.13585136854E+04  0.50400001928E-02 0.  1.
        1   -1    0    0  501    0  0.00000000000E+00  0.00000000000E+00 -0.17921463097E+04  0.17921463097E+04  0.50400001928E-02 0. -1.
    10030    2    1    2    0    0  0.00000000000E+00  0.00000000000E+00 -0.43363262429E+03  0.31506599952E+04  0.31206763934E+04 0.  0.
        4    1    3    3  502    0 -0.91381430340E+03 -0.97879272768E+03 -0.10254877089E+04  0.16866293128E+04  0.12699999809E+01 0. -1.
       -4    1    3    3    0  502  0.91381430340E+03  0.97879272768E+03  0.59185508460E+03  0.14640306824E+04  0.12699999809E+01 0.  1.
</event>
<event>
 5   0  0.3327241E-07  0.3848312E+04  0.7818609E-02  0.8035866E-01
       -2   -1    0    0    0  501  0.00000000000E+00  0.00000000000E+00  0.18520787624E+04  0.18520787624E+04  0.25500000920E-02 0.  1.
        2   -1    0    0  501    0  0.00000000000E+00  0.00000000000E+00 -0.19990379944E+04  0.19990379944E+04  0.25500000920E-02 0. -1.
    10030    2    1    2    0    0  0.00000000000E+00  0.00000000000E+00 -0.14695923199E+03  0.38511167568E+04  0.38483117413E+04 0.  0.
        3    1    3    3  502    0 -0.16813926572E+04  0.53228783300E+02 -0.10082167782E+04  0.19612280981E+04  0.10100000352E+00 0. -1.
       -3    1    3    3    0  502  0.16813926572E+04 -0.53228783300E+02  0.86125754619E+03  0.18898886586E+04  0.10100000352E+00 0.  1.
</event>
<event>
 5   0  0.3509843E-07  0.3842556E+04  0.7818609E-02  0.8037084E-01
       -2   -1    0    0    0  501  0.00000000000E+00  0.00000000000E+00  0.18806965213E+04  0.18806965213E+04  0.25500000920E-02 0. -1.
        2   -1    0    0  501    0  0.00000000000E+00  0.00000000000E+00 -0.19627355741E+04  0.19627355741E+04  0.25500000920E-02 0.  1.
    10030    2    1    2    0    0  0.00000000000E+00  0.00000000000E+00 -0.82039052766E+02  0.38434320955E+04  0.38425564233E+04 0.  0.
        4    1    3    3  502    0  0.53589836717E+03 -0.18401095471E+04 -0.17565387294E+03  0.19245898527E+04  0.12699999809E+01 0.  1.
       -4    1    3    3    0  502 -0.53589836717E+03  0.18401095471E+04  0.93614820171E+02  0.19188422428E+04  0.12699999809E+01 0. -1.
</event>
<event>
 5   0  0.1070988E-07  0.3849337E+04  0.7818609E-02  0.8035649E-01
       -1   -1    0    0    0  501  0.00000000000E+00  0.00000000000E+00  0.23141792913E+04  0.23141792913E+04  0.50400001928E-02 0.  1.
        1   -1    0    0  501    0  0.00000000000E+00  0.00000000000E+00 -0.16007185220E+04  0.16007185220E+04  0.50400001928E-02 0. -1.
    10030    2    1    2    0    0  0.00000000000E+00  0.00000000000E+00  0.71346076937E+03  0.39148978133E+04  0.38493374260E+04 0.  0.
        3    1    3    3  502    0  0.25246364818E+03  0.11321171426E+04 -0.12053065088E+04  0.16727793963E+04  0.10100000352E+00 0. -1.
       -3    1    3    3    0  502 -0.25246364818E+03 -0.11321171426E+04  0.19187672782E+04  0.22421184171E+04  0.10100000352E+00 0.  1.
</event>
<event>
 5   0  0.3327241E-07  0.3803432E+04  0.7818609E-02  0.8045419E-01
       -2   -1    0    0    0  501  0.00000000000E+00  0.00000000000E+00  0.19929055607E+04  0.19929055607E+04  0.25500000920E-02 0.  1.
        2   -1    0    0  501    0  0.00000000000E+00  0.00000000000E+00 -0.18146994529E+04  0.18146994530E+04  0.25500000920E-02 0. -1.
    10030    2    1    2    0    0  0.00000000000E+00  0.00000000000E+00  0.17820610773E+03  0.38076050136E+04  0.38034324659E+04 0.  0.
        3    1    3    3  502    0  0.10466445480E+04  0.85477176075E+03  0.14286386326E+04  0.19664963579E+04  0.10100000352E+00 0.  1.
       -3    1    3    3    0  502 -0.10466445480E+04 -0.85477176075E+03 -0.12504325248E+04  0.18411086557E+04  0.10100000352E+00 0. -1.
</event>
<event>
 5   0  0.1070988E-07  0.3743037E+04  0.7818609E-02  0.8058491E-01
        1   -1    0    0  501    0  0.00000000000E+00  0.00000000000E+00  0.13750323609E+04  0.13750323610E+04  0.50400001928E-02 0. -1.
       -1   -1    0    0    0  501  0.00000000000E+00  0.00000000000E+00 -0.25472717328E+04  0.25472717328E+04  0.50400001928E-02 0.  1.
    10030    2    1    2    0    0  0.00000000000E+00  0.00000000000E+00 -0.11722393719E+04  0.39223040938E+04  0.37430367697E+04 0.  0.
        5    1    3    3  502    0  0.72641946594E+03  0.31968320436E+03 -0.23621914903E+04  0.24919577281E+04  0.46999998093E+01 0.  1.
       -5    1    3    3    0  502 -0.72641946594E+03 -0.31968320436E+03  0.11899521184E+04  0.14303463657E+04  0.46999998093E+01 0. -1.
</event>
<event>
 5   0  0.1070988E-07  0.3809015E+04  0.7818609E-02  0.8044223E-01
        1   -1    0    0  501    0  0.00000000000E+00  0.00000000000E+00  0.17473958035E+04  0.17473958035E+04  0.50400001928E-02 0.  1.
       -1   -1    0    0    0  501  0.00000000000E+00  0.00000000000E+00 -0.20757454693E+04  0.20757454693E+04  0.50400001928E-02 0. -1.
    10030    2    1    2    0    0  0.00000000000E+00  0.00000000000E+00 -0.32834966576E+03  0.38231412728E+04  0.38090150549E+04 0.  0.
        5    1    3    3  502    0 -0.15458654797E+04  0.10626544859E+04 -0.49432051514E+03  0.19399251273E+04  0.46999998093E+01 0. -1.
       -5    1    3    3    0  502  0.15458654797E+04 -0.10626544859E+04  0.16597084938E+03  0.18832161455E+04  0.46999998093E+01 0.  1.
</event>
<event>
 5   0  0.1085771E-07  0.3820399E+04  0.7818609E-02  0.8041791E-01
        1   -1    0    0  501    0  0.00000000000E+00  0.00000000000E+00  0.17169003383E+04  0.17169003383E+04  0.50400001928E-02 0.  1.
       -1   -1    0    0    0  501  0.00000000000E+00  0.00000000000E+00 -0.21252618743E+04  0.21252618743E+04  0.50400001928E-02 0. -1.
    10030    2    1    2    0    0  0.00000000000E+00  0.00000000000E+00 -0.40836153599E+03  0.38421622126E+04  0.38203993670E+04 0.  0.
        1    1    3    3  502    0  0.13283618237E+04 -0.69745948527E+02 -0.15829217657E+04  0.20676196334E+04  0.50400001928E-02 0. -1.
       -1    1    3    3    0  502 -0.13283618237E+04  0.69745948527E+02  0.11745602297E+04  0.17745425792E+04  0.50400001928E-02 0.  1.
</event>
<event>
 5   0  0.1070988E-07  0.3492241E+04  0.7818609E-02  0.8115631E-01
        1   -1    0    0  501    0  0.00000000000E+00  0.00000000000E+00  0.16665180175E+04  0.16665180175E+04  0.50400001928E-02 0.  1.
       -1   -1    0    0    0  501  0.00000000000E+00  0.00000000000E+00 -0.18295256323E+04  0.18295256323E+04  0.50400001928E-02 0. -1.
    10030    2    1    2    0    0  0.00000000000E+00  0.00000000000E+00 -0.16300761480E+03  0.34960436498E+04  0.34922413604E+04 0.  0.
        3    1    3    3  502    0 -0.10142565351E+04  0.88168088366E+03 -0.11975538960E+04  0.18000591223E+04  0.10100000352E+00 0. -1.
       -3    1    3    3    0  502  0.10142565351E+04 -0.88168088366E+03  0.10345462812E+04  0.16959845276E+04  0.10100000352E+00 0.  1.
</event>
<event>
 5   0  0.1070988E-07  0.3813930E+04  0.7818609E-02  0.8043172E-01
        1   -1    0    0  501    0  0.00000000000E+00  0.00000000000E+00  0.28381563113E+04  0.28381563113E+04  0.50400001928E-02 0.  1.
       -1   -1    0    0    0  501  0.00000000000E+00  0.00000000000E+00 -0.12812952703E+04  0.12812952703E+04  0.50400001928E-02 0. -1.
    10030    2    1    2    0    0  0.00000000000E+00  0.00000000000E+00  0.15568610410E+04  0.41194515817E+04  0.38139303917E+04 0.  0.
        3    1    3    3  502    0 -0.29774859901E+03 -0.18420549077E+04  0.12032513602E+04  0.22202779910E+04  0.10100000352E+00 0. -1.
       -3    1    3    3    0  502  0.29774859901E+03  0.18420549077E+04  0.35360968081E+03  0.18991735907E+04  0.10100000352E+00 0.  1.
</event>
<event>
 5   0  0.1084315E-07  0.3663212E+04  0.7818609E-02  0.8076164E-01
       -1   -1    0    0    0  501  0.00000000000E+00  0.00000000000E+00  0.17963104339E+04  0.17963104339E+04  0.50400001928E-02 0. -1.
        1   -1    0    0  501    0  0.00000000000E+00  0.00000000000E+00 -0.18675952317E+04  0.18675952317E+04  0.50400001928E-02 0.  1.
    10030    2    1    2    0    0  0.00000000000E+00  0.00000000000E+00 -0.71284797787E+02  0.36639056656E+04  0.36632121430E+04 0.  0.
        4    1    3    3  502    0 -0.16278228711E+04 -0.66143073916E+03 -0.55292622333E+03  0.18420170856E+04  0.12699999809E+01 0.  1.
       -4    1    3    3    0  502  0.16278228711E+04  0.66143073916E+03  0.48164142554E+03  0.18218885800E+04  0.12699999809E+01 0. -1.
</event>
<event>
 5   0  0.1070988E-07  0.3785963E+04  0.7818609E-02  0.8049174E-01
       -1   -1    0    0    0  501  0.00000000000E+00  0.00000000000E+00  0.23964421569E+04  0.23964421569E+04  0.50400001928E-02 0. -1.
        1   -1    0    0  501    0  0.00000000000E+00  0.00000000000E+00 -0.14952908994E+04  0.14952908994E+04  0.50400001928E-02 0.  1.
    10030    2    1    2    0    0  0.00000000000E+00  0.00000000000E+00  0.90115125750E+03  0.38917330563E+04  0.37859625715E+04 0.  0.
        3    1    3    3  502    0 -0.29630382211E+03 -0.15482792964E+04 -0.62675656739E+03  0.16964045920E+04  0.10100000352E+00 0.  1.
       -3    1    3    3    0  502  0.29630382211E+03  0.15482792964E+04  0.15279078249E+04  0.21953284643E+04  0.10100000352E+00 0. -1.
</event>
<event>
 5   0  0.1070988E-07  0.3722902E+04  0.7818609E-02  0.8062905E-01
        1   -1    0    0  501    0  0.00000000000E+00  0.00000000000E+00  0.14947045526E+04  0.14947045526E+04  0.50400001928E-02 0. -1.
       -1   -1    0    0    0  501  0.00000000000E+00  0.00000000000E+00 -0.23181836571E+04  0.23181836571E+04  0.50400001928E-02 0.  1.
    10030    2    1    2    0    0  0.00000000000E+00  0.00000000000E+00 -0.82347910453E+03  0.38128882098E+04  0.37229019145E+04 0.  0.
        3    1    3    3  502    0 -0.11764455249E+04  0.14299202385E+04 -0.21659883826E+03  0.18642990716E+04  0.10100000352E+00 0. -1.
       -3    1    3    3    0  502  0.11764455249E+04 -0.14299202385E+04 -0.60688026627E+03  0.19485891381E+04  0.10100000352E+00 0.  1.
</event>
<event>
 5   0  0.1070988E-07  0.3854992E+04  0.7818609E-02  0.8034456E-01
        1   -1    0    0  501    0  0.00000000000E+00  0.00000000000E+00  0.16642291299E+04  0.16642291299E+04  0.50400001928E-02 0.  1.
       -1   -1    0    0    0  501  0.00000000000E+00  0.00000000000E+00 -0.22324100177E+04  0.22324100177E+04  0.50400001928E-02 0. -1.
    10030    2    1    2    0    0  0.00000000000E+00  0.00000000000E+00 -0.56818088773E+03  0.38966391476E+04  0.38549924936E+04 0.  0.
        5    1    3    3  502    0 -0.13924242337E+04  0.76864854801E+03 -0.13846848371E+04  0.21088006129E+04  0.46999998093E+01 0. -1.
       -5    1    3    3    0  502  0.13924242337E+04 -0.76864854801E+03  0.81650394932E+03  0.17878385347E+04  0.46999998093E+01 0.  1.
</event>
<event>
 5   0  0.3327241E-07  0.3894569E+04  0.7818609E-02  0.8026160E-01
       -2   -1    0    0    0  501  0.00000000000E+00  0.00000000000E+00  0.21217602477E+04  0.21217602477E+04  0.25500000920E-02 0.  1.
        2   -1    0    0  501    0  0.00000000000E+00  0.00000000000E+00 -0.17871563972E+04  0.17871563972E+04  0.25500000920E-02 0. -1.
    10030    2    1    2    0    0  0.00000000000E+00  0.00000000000E+00  0.33460385048E+03  0.39089166449E+04  0.38945692445E+04 0.  0.
        3    1    3    3  502    0 -0.23033343896E+03 -0.19328323035E+04  0.22248796274E+03  0.19591822555E+04  0.10100000352E+00 0.  1.
       -3    1    3    3    0  502  0.23033343896E+03  0.19328323035E+04  0.11211588774E+03  0.19497343894E+04  0.10100000352E+00 0. -1.
</event>
<event>
 5   0  0.3442126E-07  0.3825920E+04  0.7818609E-02  0.8040615E-01
        2   -1    0    0  501    0  0.00000000000E+00  0.00000000000E+00  0.21032258078E+04  0.21032258078E+04  0.25500000920E-02 0.  1.
       -2   -1    0    0    0  501  0.00000000000E+00  0.00000000000E+00 -0.17399063898E+04  0.17399063898E+04  0.25500000920E-02 0. -1.
    10030    2    1    2    0    0  0.00000000000E+00  0.00000000000E+00  0.36331941806E+03  0.38431321976E+04  0.38259200317E+04 0.  0.
        2    1    3    3  502    0  0.89619610907E+03 -0.33178865921E+03  0.18462706196E+04  0.20789339530E+04  0.25500000920E-02 0.  1.
       -2    1    3    3    0  502 -0.89619610907E+03  0.33178865921E+03 -0.14829512015E+04  0.17641982446E+04  0.25500000920E-02 0. -1.
</event>
<event>
 5   0  0.1070988E-07  0.3787654E+04  0.7818609E-02  0.8048809E-01
       -3   -1    0    0    0  501  0.00000000000E+00  0.00000000000E+00  0.21550191792E+04  0.21550191816E+04  0.10100000352E+00 0.  1.
        3   -1    0    0  501    0  0.00000000000E+00  0.00000000000E+00 -0.16642921291E+04  0.16642921322E+04  0.10100000352E+00 0. -1.
    10030    2    1    2    0    0  0.00000000000E+00  0.00000000000E+00  0.49072705012E+03  0.38193113137E+04  0.37876544026E+04 0.  0.
        2    1    3    3  502    0  0.10076890473E+04 -0.12922699658E+04 -0.71187707333E+03  0.17866638878E+04  0.25500000920E-02 0. -1.
       -2    1    3    3    0  502 -0.10076890473E+04  0.12922699658E+04  0.12026041235E+04  0.20326474259E+04  0.25500000920E-02 0.  1.
</event>
<event>
 5   0  0.3327241E-07  0.3732952E+04  0.7818609E-02  0.8060698E-01
        2   -1    0    0  501    0  0.00000000000E+00  0.00000000000E+00  0.21073749612E+04  0.21073749612E+04  0.25500000920E-02 0. -1.
       -2   -1    0    0    0  501  0.00000000000E+00  0.00000000000E+00 -0.16531148098E+04  0.16531148098E+04  0.25500000920E-02 0.  1.
    10030    2    1    2    0    0  0.00000000000E+00  0.00000000000E+00  0.45426015140E+03  0.37604897709E+04  0.37329520533E+04 0.  0.
        3    1    3    3  502    0  0.12504387871E+04  0.11607923753E+04  0.98947992864E+03  0.19723353260E+04  0.10100000352E+00 0. -1.
       -3    1    3    3    0  502 -0.12504387871E+04 -0.11607923753E+04 -0.53521977724E+03  0.17881544449E+04  0.10100000352E+00 0.  1.
</event>
<event>
 5   0  0.3539010E-07  0.3743025E+04  0.7818609E-02  0.8058493E-01
       -2   -1    0    0    0  501  0.00000000000E+00  0.00000000000E+00  0.26954730970E+04  0.26954730970E+04  0.25500000920E-02 0. -1.
        2   -1    0    0  501    0  0.00000000000E+00  0.00000000000E+00 -0.12994227212E+04  0.12994227212E+04  0.25500000920E-02 0.  1.
    10030    2    1    2    0    0  0.00000000000E+00  0.00000000000E+00  0.13960503757E+04  0.39948958182E+04  0.37430249728E+04 0.  0.
        1    1    3    3  502    0 -0.28026745562E+03 -0.79678250996E+03 -0.10844291683E+04  0.13745540498E+04  0.50400001928E-02 0.  1.
       -1    1    3    3    0  502  0.28026745562E+03  0.79678250996E+03  0.24804795440E+04  0.26203417684E+04  0.50400001928E-02 0. -1.
</event>
<event>
 5   0  0.3509843E-07  0.3730483E+04  0.7818609E-02  0.8061240E-01
       -2   -1    0    0    0  501  0.00000000000E+00  0.00000000000E+00  0.11887112301E+04  0.11887112301E+04  0.25500000920E-02 0. -1.
        2   -1    0    0  501    0  0.00000000000E+00  0.00000000000E+00 -0.29268047438E+04  0.29268047438E+04  0.25500000920E-02 0.  1.
    10030    2    1    2    0    0  0.00000000000E+00  0.00000000000E+00 -0.17380935137E+04  0.41155159740E+04  0.37304829003E+04 0.  0.
        4    1    3    3  502    0 -0.59956171461E+01  0.11581087584E+03  0.11847299041E+04  0.11903926516E+04  0.12699999809E+01 0. -1.
       -4    1    3    3    0  502  0.59956171461E+01 -0.11581087584E+03 -0.29228234178E+04  0.29251233224E+04  0.12699999809E+01 0.  1.
</event>
<event>
 5   0  0.3442126E-07  0.3800060E+04  0.7818609E-02  0.8046142E-01
       -2   -1    0    0    0  501  0.00000000000E+00  0.00000000000E+00  0.18145880427E+04  0.18145880427E+04  0.25500000920E-02 0. -1.
        2   -1    0    0  501    0  0.00000000000E+00  0.00000000000E+00 -0.19894948995E+04  0.19894948995E+04  0.25500000920E-02 0.  1.
    10030    2    1    2    0    0  0.00000000000E+00  0.00000000000E+00 -0.17490685679E+03  0.38040829422E+04  0.38000598183E+04 0.  0.
        2    1    3    3  502    0  0.14125884080E+04  0.58170149428E+03  0.10434908456E+04  0.18500421033E+04  0.25500000920E-02 0. -1.
       -2    1    3    3    0  502 -0.14125884080E+04 -0.58170149428E+03 -0.12183977024E+04  0.19540408389E+04  0.25500000920E-02 0.  1.
</event>
<event>
 5   0  0.1070988E-07  0.3048619E+04  0.7818609E-02  0.8229982E-01
       -1   -1    0    0    0  501  0.00000000000E+00  0.00000000000E+00  0.19796415703E+04  0.19796415703E+04  0.50400001928E-02 0.  1.
        1   -1    0    0  501    0  0.00000000000E+00  0.00000000000E+00 -0.11737068890E+04  0.11737068890E+04  0.50400001928E-02 0. -1.
    10030    2    1    2    0    0  0.00000000000E+00  0.00000000000E+00  0.80593468129E+03  0.31533484593E+04  0.30486186700E+04 0.  0.
        5    1    3    3  502    0  0.11526831609E+04 -0.88701280126E+03 -0.68800550094E+02  0.14560995106E+04  0.46999998093E+01 0. -1.
       -5    1    3    3    0  502 -0.11526831609E+04  0.88701280126E+03  0.87473523139E+03  0.16972489487E+04  0.46999998093E+01 0.  1.
</event>
<event>
 5   0  0.3442126E-07  0.3785798E+04  0.7818609E-02  0.8049209E-01
       -2   -1    0    0    0  501  0.00000000000E+00  0.00000000000E+00  0.23988193455E+04  0.23988193455E+04  0.25500000920E-02 0.  1.
        2   -1    0    0  501    0  0.00000000000E+00  0.00000000000E+00 -0.14936795579E+04  0.14936795579E+04  0.25500000920E-02 0. -1.
    10030    2    1    2    0    0  0.00000000000E+00  0.00000000000E+00  0.90513978761E+03  0.38924989033E+04  0.37857984201E+04 0.  0.
        2    1    3    3  502    0 -0.87456884850E+03 -0.22689172060E+03  0.21627953810E+04  0.23439356611E+04  0.25500000920E-02 0.  1.
       -2    1    3    3    0  502  0.87456884850E+03  0.22689172060E+03 -0.12576555933E+04  0.15485632422E+04  0.25500000920E-02 0. -1.
</event>
<event>
 5   0  0.1070988E-07  0.3729995E+04  0.7818609E-02  0.8061347E-01
       -1   -1    0    0    0  501  0.00000000000E+00  0.00000000000E+00  0.15258641554E+04  0.15258641554E+04  0.50400001928E-02 0.  1.
        1   -1    0    0  501    0  0.00000000000E+00  0.00000000000E+00 -0.22795052759E+04  0.22795052759E+04  0.50400001928E-02 0. -1.
    10030    2    1    2    0    0  0.00000000000E+00  0.00000000000E+00 -0.75364112053E+03  0.38053694313E+04  0.37299948485E+04 0.  0.
        5    1    3    3  502    0 -0.36663098370E+03 -0.79883660426E+03  0.13013001826E+04  0.15703383246E+04  0.46999998093E+01 0.  1.
       -5    1    3    3    0  502  0.36663098370E+03  0.79883660426E+03 -0.20549413031E+04  0.22350311067E+04  0.46999998093E+01 0. -1.
</event>
<event>
 5   0  0.1084315E-07  0.3829045E+04  0.7818609E-02  0.8039950E-01
        1   -1    0    0  501    0  0.00000000000E+00  0.00000000000E+00  0.18595996923E+04  0.18595996923E+04  0.50400001928E-02 0. -1.
       -1   -1    0    0    0  501  0.00000000000E+00  0.00000000000E+00 -0.19710679408E+04  0.19710679408E+04  0.50400001928E-02 0.  1.
    10030    2    1    2    0    0  0.00000000000E+00  0.00000000000E+00 -0.11146824849E+03  0.38306676330E+04  0.38290454874E+04 0.  0.
        4    1    3    3  502    0  0.11385522312E+04  0.15079020666E+04 -0.36461384657E+03  0.19243218794E+04  0.12699999809E+01 0. -1.
       -4    1    3    3    0  502 -0.11385522312E+04 -0.15079020666E+04  0.25314559808E+03  0.19063457536E+04  0.12699999809E+01 0.  1.
</event>
<event>
 5   0  0.1070988E-07  0.3843336E+04  0.7818609E-02  0.8036919E-01
        1   -1    0    0  501    0  0.00000000000E+00  0.00000000000E+00  0.22533318216E+04  0.22533318216E+04  0.50400001928E-02 0. -1.
       -1   -1    0    0    0  501  0.00000000000E+00  0.00000000000E+00 -0.16388212872E+04  0.16388212872E+04  0.50400001928E-02 0.  1.
    10030    2    1    2    0    0  0.00000000000E+00  0.00000000000E+00  0.61451053439E+03  0.38921531089E+04  0.38433361323E+04 0.  0.
        2    1    3    3  502    0 -0.56493038820E+03  0.81362631614E+03 -0.13603769943E+04  0.16827833171E+04  0.25500000920E-02 0.  1.
       -2    1    3    3    0  502  0.56493038820E+03 -0.81362631614E+03  0.19748875287E+04  0.22093697918E+04  0.25500000920E-02 0. -1.
</event>
<event>
 5   0  0.1084315E-07  0.3551327E+04  0.7818609E-02  0.8101733E-01
       -1   -1    0    0    0  501  0.00000000000E+00  0.00000000000E+00  0.12225856932E+04  0.12225856932E+04  0.50400001928E-02 0.  1.
        1   -1    0    0  501    0  0.00000000000E+00  0.00000000000E+00 -0.25789441925E+04  0.25789441925E+04  0.50400001928E-02 0. -1.
    10030    2    1    2    0    0  0.00000000000E+00  0.00000000000E+00 -0.13563584993E+04  0.38015298857E+04  0.35513266667E+04 0.  0.
        4    1    3    3  502    0 -0.12366790096E+03  0.13309444359E+04 -0.19294069254E+04  0.23471939711E+04  0.12699999809E+01 0. -1.
       -4    1    3    3    0  502  0.12366790096E+03 -0.13309444359E+04  0.57304842609E+03  0.14543359146E+04  0.12699999809E+01 0.  1.
</event>
<event>
 5   0  0.3539010E-07  0.3819541E+04  0.7818609E-02  0.8041974E-01
       -2   -1    0    0    0  501  0.00000000000E+00  0.00000000000E+00  0.12639856106E+04  0.12639856106E+04  0.25500000920E-02 0. -1.
        2   -1    0    0  501    0  0.00000000000E+00  0.00000000000E+00 -0.28854940213E+04  0.28854940213E+04  0.25500000920E-02 0.  1.
    10030    2    1    2    0    0  0.00000000000E+00  0.00000000000E+00 -0.16215084107E+04  0.41494796318E+04  0.38195407694E+04 0.  0.
        1    1    3    3  502    0 -0.77914494915E+03 -0.23555945114E+03 -0.26876081972E+04  0.28081654026E+04  0.50400001928E-02 0.  1.
       -1    1    3    3    0  502  0.77914494915E+03  0.23555945114E+03  0.10660997865E+04  0.13413142292E+04  0.50400001928E-02 0. -1.
</event>
<event>
 5   0  0.3509843E-07  0.3818441E+04  0.7818609E-02  0.8042209E-01
        2   -1    0    0  501    0  0.00000000000E+00  0.00000000000E+00  0.19103473850E+04  0.19103473850E+04  0.25500000920E-02 0. -1.
       -2   -1    0    0    0  501  0.00000000000E+00  0.00000000000E+00 -0.19080941050E+04  0.19080941050E+04  0.25500000920E-02 0.  1.
    10030    2    1    2    0    0  0.00000000000E+00  0.00000000000E+00  0.22532799570E+01  0.38184414900E+04  0.38184408251E+04 0.  0.
        4    1    3    3  502    0 -0.51413730489E+03  0.12094239967E+04 -0.13838203145E+04  0.19084034814E+04  0.12699999809E+01 0.  1.
       -4    1    3    3    0  502  0.51413730489E+03 -0.12094239967E+04  0.13860735945E+04  0.19100380086E+04  0.12699999809E+01 0. -1.
</event>
<event>
 5   0  0.1070988E-07  0.3780255E+04  0.7818609E-02  0.8050406E-01
        1   -1    0    0  501    0  0.00000000000E+00  0.00000000000E+00  0.27027700257E+04  0.27027700257E+04  0.50400001928E-02 0. -1.
       -1   -1    0    0    0  501  0.00000000000E+00  0.00000000000E+00 -0.13218220692E+04  0.13218220692E+04  0.50400001928E-02 0.  1.
    10030    2    1    2    0    0  0.00000000000E+00  0.00000000000E+00  0.13809479565E+04  0.40245920949E+04  0.37802545247E+04 0.  0.
        3    1    3    3  502    0  0.12401769867E+04 -0.97039990909E+03  0.18034461572E+04  0.23941873348E+04  0.10100000352E+00 0. -1.
       -3    1    3    3    0  502 -0.12401769867E+04  0.97039990909E+03 -0.42249820070E+03  0.16304047601E+04  0.10100000352E+00 0.  1.
</event>
<event>
 5   0  0.3327241E-07  0.3845285E+04  0.7818609E-02  0.8036506E-01
       -2   -1    0    0    0  501  0.00000000000E+00  0.00000000000E+00  0.29453945702E+04  0.29453945702E+04  0.25500000920E-02 0.  1.
        2   -1    0    0  501    0  0.00000000000E+00  0.00000000000E+00 -0.12550285309E+04  0.12550285309E+04  0.25500000920E-02 0. -1.
    10030    2    1    2    0    0  0.00000000000E+00  0.00000000000E+00  0.16903660393E+04  0.42004231010E+04  0.38452850195E+04 0.  0.
        3    1    3    3  502    0  0.87586424350E+03 -0.13755447495E+04  0.19577218008E+04  0.25479278229E+04  0.10100000352E+00 0.  1.
       -3    1    3    3    0  502 -0.87586424350E+03  0.13755447495E+04 -0.26735576147E+03  0.16524952782E+04  0.10100000352E+00 0. -1.
</event>
<event>
 5   0  0.1070988E-07  0.3808112E+04  0.7818609E-02  0.8044416E-01
        1   -1    0    0  501    0  0.00000000000E+00  0.00000000000E+00  0.14507100652E+04  0.14507100652E+04  0.50400001928E-02 0.  1.
       -1   -1    0    0    0  501  0.00000000000E+00  0.00000000000E+00 -0.24990728089E+04  0.24990728090E+04  0.50400001928E-02 0. -1.
    10030    2    1    2    0    0  0.00000000000E+00  0.00000000000E+00 -0.10483627438E+04  0.39497828741E+04  0.38081124340E+04 0.  0.
        3    1    3    3  502    0 -0.98976032891E+03 -0.14519642110E+03  0.11561895665E+04  0.15288825440E+04  0.10100000352E+00 0.  1.
       -3    1    3    3    0  502  0.98976032891E+03  0.14519642110E+03 -0.22045523103E+04  0.24209003301E+04  0.10100000352E+00 0. -1.
</event>
<event>
 5   0  0.1070988E-07  0.3787869E+04  0.7818609E-02  0.8048763E-01
        1   -1    0    0  501    0  0.00000000000E+00  0.00000000000E+00  0.19642052183E+04  0.19642052183E+04  0.50400001928E-02 0. -1.
       -1   -1    0    0    0  501  0.00000000000E+00  0.00000000000E+00 -0.18261778756E+04  0.18261778757E+04  0.50400001928E-02 0.  1.
    10030    2    1    2    0    0  0.00000000000E+00  0.00000000000E+00  0.13802734268E+03  0.37903830940E+04  0.37878691176E+04 0.  0.
        2    1    3    3  502    0  0.67331385644E+03  0.85754792219E+03 -0.14806419597E+04  0.18387606155E+04  0.25500000920E-02 0.  1.
       -2    1    3    3    0  502 -0.67331385644E+03 -0.85754792219E+03  0.16186693024E+04  0.19516224785E+04  0.25500000920E-02 0. -1.
</event>
<event>
 5   0  0.3442126E-07  0.3906797E+04  0.7818609E-02  0.8023617E-01
        2   -1    0    0  501    0  0.00000000000E+00  0.00000000000E+00  0.24452154618E+04  0.24452154618E+04  0.25500000920E-02 0. -1.
       -2   -1    0    0    0  501  0.00000000000E+00  0.00000000000E+00 -0.15605024719E+04  0.15605024719E+04  0.25500000920E-02 0.  1.
    10030    2    1    2    0    0  0.00000000000E+00  0.00000000000E+00  0.88471298985E+03  0.40057179337E+04  0.39067965253E+04 0.  0.
        2    1    3    3  502    0 -0.19820853877E+02 -0.61689570167E+02  0.24441132900E+04  0.24449720334E+04  0.25500000920E-02 0. -1.
       -2    1    3    3    0  502  0.19820853877E+02  0.61689570167E+02 -0.15594003002E+04  0.15607459004E+04  0.25500000920E-02 0.  1.
</event>
<event>
 5   0  0.1085771E-07  0.3773238E+04  0.7818609E-02  0.8051922E-01
        1   -1    0    0  501    0  0.00000000000E+00  0.00000000000E+00  0.19416542106E+04  0.19416542106E+04  0.50400001928E-02 0. -1.
       -1   -1    0    0    0  501  0.00000000000E+00  0.00000000000E+00 -0.18331437343E+04  0.18331437343E+04  0.50400001928E-02 0.  1.
    10030    2    1    2    0    0  0.00000000000E+00  0.00000000000E+00  0.10851047632E+03  0.37747979449E+04  0.37732379996E+04 0.  0.
        1    1    3    3  502    0 -0.16720688395E+03 -0.16069550146E+04 -0.92034908473E+03  0.18593829618E+04  0.50400001928E-02 0.  1.
       -1    1    3    3    0  502  0.16720688395E+03  0.16069550146E+04  0.10288595611E+04  0.19154149831E+04  0.50400001928E-02 0. -1.
</event>
<event>
 5   0  0.3509843E-07  0.3713735E+04  0.7818609E-02  0.8064925E-01
        2   -1    0    0  501    0  0.00000000000E+00  0.00000000000E+00  0.19056124038E+04  0.19056124038E+04  0.25500000920E-02 0.  1.
       -2   -1    0    0    0  501  0.00000000000E+00  0.00000000000E+00 -0.18093694912E+04  0.18093694912E+04  0.25500000920E-02 0. -1.
    10030    2    1    2    0    0  0.00000000000E+00  0.00000000000E+00  0.96242912679E+02  0.37149818950E+04  0.37137350177E+04 0.  0.
        4    1    3    3  502    0  0.10043926349E+04  0.91683745592E+03  0.13128876214E+04  0.18902568621E+04  0.12699999809E+01 0.  1.
       -4    1    3    3    0  502 -0.10043926349E+04 -0.91683745592E+03 -0.12166447087E+04  0.18247250329E+04  0.12699999809E+01 0. -1.
</event>
<event>
 5   0  0.1085771E-07  0.3675077E+04  0.7818609E-02  0.8073508E-01
       -1   -1    0    0    0  501  0.00000000000E+00  0.00000000000E+00  0.17223051955E+04  0.17223051955E+04  0.50400001928E-02 0.  1.
        1   -1    0    0  501    0  0.00000000000E+00  0.00000000000E+00 -0.19604814103E+04  0.19604814103E+04  0.50400001928E-02 0. -1.
    10030    2    1    2    0    0  0.00000000000E+00  0.00000000000E+00 -0.23817621480E+03  0.36827866058E+04  0.36750767713E+04 0.  0.
        1    1    3    3  502    0 -0.55131837046E+03 -0.17217237101E+04  0.21063535009E+03  0.18200691553E+04  0.50400001928E-02 0.  1.
       -1    1    3    3    0  502  0.55131837046E+03  0.17217237101E+04 -0.44881156489E+03  0.18627174505E+04  0.50400001928E-02 0. -1.
</event>
<event>
 5   0  0.3509843E-07  0.3676111E+04  0.7818609E-02  0.8073277E-01
       -2   -1    0    0    0  501  0.00000000000E+00  0.00000000000E+00  0.15249016996E+04  0.15249016996E+04  0.25500000920E-02 0. -1.
        2   -1    0    0  501    0  0.00000000000E+00  0.00000000000E+00 -0.22155189909E+04  0.22155189909E+04  0.25500000920E-02 0.  1.
    10030    2    1    2    0    0  0.00000000000E+00  0.00000000000E+00 -0.69061729126E+03  0.37404206905E+04  0.36761113556E+04 0.  0.
        4    1    3    3  502    0  0.16611345635E+04 -0.10737594318E+03  0.44778158696E+03  0.17237771300E+04  0.12699999809E+01 0. -1.
       -4    1    3    3    0  502 -0.16611345635E+04  0.10737594318E+03 -0.11383988782E+04  0.20166435605E+04  0.12699999809E+01 0.  1.
</event>
<event>
 5   0  0.3377396E-07  0.3798710E+04  0.7818609E-02  0.8046432E-01
       -2   -1    0    0    0  501  0.00000000000E+00  0.00000000000E+00  0.13770514091E+04  0.13770514091E+04  0.25500000920E-02 0. -1.
        2   -1    0    0  501    0  0.00000000000E+00  0.00000000000E+00 -0.26197633526E+04  0.26197633526E+04  0.25500000920E-02 0.  1.
    10030    2    1    2    0    0  0.00000000000E+00  0.00000000000E+00 -0.12427119436E+04  0.39968147617E+04  0.37987096842E+04 0.  0.
        5    1    3    3  502    0 -0.25826666585E+02 -0.13110149201E+04 -0.20670965329E+04  0.24479251018E+04  0.46999998093E+01 0.  1.
       -5    1    3    3    0  502  0.25826666585E+02  0.13110149201E+04  0.82438458934E+03  0.15488896599E+04  0.46999998093E+01 0. -1.
</event>
<event>
 5   0  0.1084315E-07  0.3822689E+04  0.7818609E-02  0.8041303E-01
        1   -1    0    0  501    0  0.00000000000E+00  0.00000000000E+00  0.21806549190E+04  0.21806549190E+04  0.50400001928E-02 0.  1.
       -1   -1    0    0    0  501  0.00000000000E+00  0.00000000000E+00 -0.16752941068E+04  0.16752941068E+04  0.50400001928E-02 0. -1.
    10030    2    1    2    0    0  0.00000000000E+00  0.00000000000E+00  0.50536081221E+03  0.38559490258E+04  0.38226892810E+04 0.  0.
        4    1    3    3  502    0  0.12962963149E+03  0.16621802130E+04  0.11954727944E+04  0.20515369158E+04  0.12699999809E+01 0.  1.
       -4    1    3    3    0  502 -0.12962963149E+03 -0.16621802130E+04 -0.69011198221E+03  0.18044121100E+04  0.12699999809E+01 0. -1.
</event>
<event>
 5   0  0.3377396E-07  0.3748087E+04  0.7818609E-02  0.8057388E-01
        2   -1    0    0  501    0  0.00000000000E+00  0.00000000000E+00  0.15272104015E+04  0.15272104015E+04  0.25500000920E-02 0. -1.
       -2   -1    0    0    0  501  0.00000000000E+00  0.00000000000E+00 -0.22996438174E+04  0.22996438174E+04  0.25500000920E-02 0.  1.
    10030    2    1    2    0    0  0.00000000000E+00  0.00000000000E+00 -0.77243341593E+03  0.38268542189E+04  0.37480874898E+04 0.  0.
        5    1    3    3  502    0  0.11644182574E+04  0.86353381189E+03  0.82636825131E+03  0.16686722564E+04  0.46999998093E+01 0. -1.
       -5    1    3    3    0  502 -0.11644182574E+04 -0.86353381189E+03 -0.15988016672E+04  0.21581819626E+04  0.46999998093E+01 0.  1.
</event>
<event>
 5   0  0.1070988E-07  0.3787013E+04  0.7818609E-02  0.8048948E-01
       -1   -1    0    0    0  501  0.00000000000E+00  0.00000000000E+00  0.17475345597E+04  0.17475345597E+04  0.50400001928E-02 0. -1.
        1   -1    0    0  501    0  0.00000000000E+00  0.00000000000E+00 -0.20516716900E+04  0.20516716900E+04  0.50400001928E-02 0.  1.
    10030    2    1    2    0    0  0.00000000000E+00  0.00000000000E+00 -0.30413713034E+03  0.37992062497E+04  0.37870131679E+04 0.  0.
        2    1    3    3  502    0 -0.39074499932E+03  0.15067940510E+04  0.92948287889E+03  0.18130218942E+04  0.25500000920E-02 0. -1.
       -2    1    3    3    0  502  0.39074499932E+03 -0.15067940510E+04 -0.12336200092E+04  0.19861843555E+04  0.25500000920E-02 0.  1.
</event>
<event>
 5   0  0.3442126E-07  0.3300289E+04  0.7818609E-02  0.8162822E-01
        2   -1    0    0  501    0  0.00000000000E+00  0.00000000000E+00  0.10869415463E+04  0.10869415463E+04  0.25500000920E-02 0.  1.
       -2   -1    0    0    0  501  0.00000000000E+00  0.00000000000E+00 -0.25051736416E+04  0.25051736416E+04  0.25500000920E-02 0. -1.
    10030    2    1    2    0    0  0.00000000000E+00  0.00000000000E+00 -0.14182320953E+04  0.35921151878E+04  0.33002892671E+04 0.  0.
        2    1    3    3  502    0  0.11466407656E+04  0.11458717768E+04 -0.37334086338E+03  0.16634874735E+04  0.25500000920E-02 0. -1.
       -2    1    3    3    0  502 -0.11466407656E+04 -0.11458717768E+04 -0.10448912319E+04  0.19286277144E+04  0.25500000920E-02 0.  1.
</event>
<event>
 5   0  0.1070988E-07  0.3737904E+04  0.7818609E-02  0.8059613E-01
       -1   -1    0    0    0  501  0.00000000000E+00  0.00000000000E+00  0.25615845079E+04  0.25615845079E+04  0.50400001928E-02 0.  1.
        1   -1    0    0  501    0  0.00000000000E+00  0.00000000000E+00 -0.13636019584E+04  0.13636019584E+04  0.50400001928E-02 0. -1.
    10030    2    1    2    0    0  0.00000000000E+00  0.00000000000E+00  0.11979825495E+04  0.39251864663E+04  0.37379040392E+04 0.  0.
        5    1    3    3  502    0 -0.16774786709E+04  0.29148975447E+03  0.14083606846E+04  0.22096160020E+04  0.46999998093E+01 0.  1.
       -5    1    3    3    0  502  0.16774786709E+04 -0.29148975447E+03 -0.21037813513E+03  0.17155704643E+04  0.46999998093E+01 0. -1.
</event>
</LesHouchesEvents>
