<LesHouchesEvents version="3.0">
<header>
<!--
#*********************************************************************
#                                                                    *
#                        MadGraph5_aMC@NLO                           *
#                                                                    *
#                           Going Beyond                             *
#                                                                    *
#                   http://madgraph.hep.uiuc.edu                     *
#                   http://madgraph.phys.ucl.ac.be                   *
#                   http://amcatnlo.cern.ch                          *
#                                                                    *
#                     The MadGraph5_aMC@NLO team                     *
#                                                                    *
#....................................................................*
#                                                                    *
# This file contains all the information necessary to reproduce      *
# the events generated:                                              *
#                                                                    *
# 1. software version                                                *
# 2. proc_card          : code generation info including model       *
# 3. param_card         : model primary parameters in the LH format  *
# 4. run_card           : running parameters (collider and cuts)     *
# 5. pythia_card        : present only if pythia has been run        *
# 6. pgs_card           : present only if pgs has been run           *
# 7. delphes_cards      : present only if delphes has been run       *
#                                                                    *
#                                                                    *
#*********************************************************************
-->
<MGVersion>
#5.2.2.3
</MGVersion>
<MG5ProcCard>
#************************************************************
#*                     MadGraph5_aMC@NLO                    *
#*                                                          *
#*                *                       *                 *
#*                  *        * *        *                   *
#*                    * * * * 5 * * * *                     *
#*                  *        * *        *                   *
#*                *                       *                 *
#*                                                          *
#*                                                          *
#*         VERSION 2.2.3                 2015-02-10         *
#*                                                          *
#*    The MadGraph5_aMC@NLO Development Team - Find us at   *
#*    https://server06.fynu.ucl.ac.be/projects/madgraph     *
#*                                                          *
#************************************************************
#*                                                          *
#*               Command File for MadGraph5_aMC@NLO         *
#*                                                          *
#*     run as ./bin/mg5_aMC  filename                       *
#*                                                          *
#************************************************************
set group_subprocesses Auto
set ignore_six_quark_processes False
set loop_optimized_output True
set gauge unitary
set complex_mass_scheme False
import model sm
define p = g u c d s u~ c~ d~ s~
define j = g u c d s u~ c~ d~ s~
define l+ = e+ mu+
define l- = e- mu-
define vl = ve vm vt
define vl~ = ve~ vm~ vt~
import model Zprime_UFO
generate p p > zph, zph > j j
add process p p > zph, zph > b b~
output Dijet_signal
</MG5ProcCard>
<MGProcCard>
#*********************************************************************
#                        MadGraph/MadEvent                           *
#                   http://madgraph.hep.uiuc.edu                     *
#                                                                    *
#                          proc_card.dat                             *
#*********************************************************************
#                                                                    *
#            This Files is generated by MADGRAPH 5                   *
#                                                                    *
# WARNING: This Files is generated for MADEVENT (compatibility issue)*
#          This files is NOT a valid MG4 proc_card.dat               *
#          Running this in MG4 will NEVER reproduce the result of MG5*
#                                                                    *
#*********************************************************************
#*********************************************************************
# Process(es) requested : mg2 input                                  *
#*********************************************************************
# Begin PROCESS # This is TAG. Do not modify this line
p p > zph , zph > j j           #Process
# Be carefull the coupling are here in MG5 convention
          
end_coup           # End the couplings input

done               # this tells MG there are no more procs
# End PROCESS  # This is TAG. Do not modify this line
#*********************************************************************
# Model information                                                  *
#*********************************************************************
# Begin MODEL  # This is TAG. Do not modify this line
Zprime_UFO
# End   MODEL  # This is TAG. Do not modify this line
#*********************************************************************
# Start multiparticle definitions                                    *
#*********************************************************************
# Begin MULTIPARTICLES # This is TAG. Do not modify this line

# End  MULTIPARTICLES # This is TAG. Do not modify this line
</MGProcCard>
<MGRunCard>
#*********************************************************************
#                       MadGraph5_aMC@NLO                            *
#                                                                    *
#                     run_card.dat MadEvent                          *
#                                                                    *
#  This file is used to set the parameters of the run.               *
#                                                                    *
#  Some notation/conventions:                                        *
#                                                                    *
#   Lines starting with a '# ' are info or comments                  *
#                                                                    *
#   mind the format:   value    = variable     ! comment             *
#*********************************************************************
#
#*******************                                                 
# Running parameters
#*******************                                                 
#                                                                    
#*********************************************************************
# Tag name for the run (one word)                                    *
#*********************************************************************
  tag_1     = run_tag ! name of the run 
#*********************************************************************
# Run to generate the grid pack                                      *
#*********************************************************************
  .false.     = gridpack  !True = setting up the grid pack
#*********************************************************************
# Number of events and rnd seed                                      *
# Warning: Do not generate more than 1M events in a single run       *
# If you want to run Pythia, avoid more than 50k events in a run.    *
#*********************************************************************
  2000 = nevents ! Number of unweighted events requested 
 2442 = iseed   ! rnd seed (0=assigned automatically=default))
#*********************************************************************
# Collider type and energy                                           *
# lpp: 0=No PDF, 1=proton, -1=antiproton, 2=photon from proton,      *
#                                         3=photon from electron     *
#*********************************************************************
        1     = lpp1    ! beam 1 type 
        1     = lpp2    ! beam 2 type
     4000     = ebeam1  ! beam 1 total energy in GeV
     4000     = ebeam2  ! beam 2 total energy in GeV
#*********************************************************************
# Beam polarization from -100 (left-handed) to 100 (right-handed)    *
#*********************************************************************
        0     = polbeam1 ! beam polarization for beam 1
        0     = polbeam2 ! beam polarization for beam 2
#*********************************************************************
# PDF CHOICE: this automatically fixes also alpha_s and its evol.    *
#*********************************************************************
 'nn23lo1'    = pdlabel     ! PDF set                                     
 230000    = lhaid     ! if pdlabel=lhapdf, this is the lhapdf number
#*********************************************************************
# Renormalization and factorization scales                           *
#*********************************************************************
 F        = fixed_ren_scale  ! if .true. use fixed ren scale
 F        = fixed_fac_scale  ! if .true. use fixed fac scale
 91.1880  = scale            ! fixed ren scale
 91.1880  = dsqrt_q2fact1    ! fixed fact scale for pdf1
 91.1880  = dsqrt_q2fact2    ! fixed fact scale for pdf2
 1        = scalefact        ! scale factor for event-by-event scales
#*********************************************************************
# Matching - Warning! ickkw > 1 is still beta
#*********************************************************************
 0        = ickkw            ! 0 no matching, 1 MLM, 2 CKKW matching
 1        = highestmult      ! for ickkw=2, highest mult group
 1        = ktscheme         ! for ickkw=1, 1 Durham kT, 2 Pythia pTE
 1        = alpsfact         ! scale factor for QCD emission vx
 F        = chcluster        ! cluster only according to channel diag
 T        = pdfwgt           ! for ickkw=1, perform pdf reweighting
 5        = asrwgtflavor     ! highest quark flavor for a_s reweight
 T        = clusinfo         ! include clustering tag in output
 3.0      = lhe_version       ! Change the way clustering information pass to shower.        
#*********************************************************************
#**********************************************************
#
#**********************************************************
# Automatic ptj and mjj cuts if xqcut > 0
# (turn off for VBF and single top processes)
#**********************************************************
   T  = auto_ptj_mjj  ! Automatic setting of ptj and mjj
#**********************************************************
#                                                                    
#**********************************
# BW cutoff (M+/-bwcutoff*Gamma)
#**********************************
  15  = bwcutoff      ! (M+/-bwcutoff*Gamma)
#**********************************************************
# Apply pt/E/eta/dr/mij cuts on decay products or not
# (note that etmiss/ptll/ptheavy/ht/sorted cuts always apply)
#**********************************************************
   T  = cut_decays    ! Cut decay products 
#*************************************************************
# Number of helicities to sum per event (0 = all helicities)
# 0 gives more stable result, but longer run time (needed for
# long decay chains e.g.).
# Use >=2 if most helicities contribute, e.g. pure QCD.
#*************************************************************
   0  = nhel          ! Number of helicities used per event
#*******************                                                 
# Standard Cuts
#*******************                                                 
#                                                                    
#*********************************************************************
# Minimum and maximum pt's (for max, -1 means no cut)                *
#*********************************************************************
 20  = ptj       ! minimum pt for the jets 
  0  = ptb       ! minimum pt for the b 
 10  = pta       ! minimum pt for the photons 
 10  = ptl       ! minimum pt for the charged leptons 
  0  = misset    ! minimum missing Et (sum of neutrino's momenta)
  0  = ptheavy   ! minimum pt for one heavy final state
 1.0 = ptonium   ! minimum pt for the quarkonium states
 -1  = ptjmax    ! maximum pt for the jets
 -1  = ptbmax    ! maximum pt for the b
 -1  = ptamax    ! maximum pt for the photons
 -1  = ptlmax    ! maximum pt for the charged leptons
 -1  = missetmax ! maximum missing Et (sum of neutrino's momenta)
#*********************************************************************
# Minimum and maximum E's (in the center of mass frame)              *
#*********************************************************************
  0  = ej     ! minimum E for the jets 
  0  = eb     ! minimum E for the b 
  0  = ea     ! minimum E for the photons 
  0  = el     ! minimum E for the charged leptons 
 -1   = ejmax ! maximum E for the jets
 -1   = ebmax ! maximum E for the b
 -1   = eamax ! maximum E for the photons
 -1   = elmax ! maximum E for the charged leptons
#*********************************************************************
# Maximum and minimum absolute rapidity (for max, -1 means no cut)   *
#*********************************************************************
   5  = etaj    ! max rap for the jets 
  -1  = etab    ! max rap for the b
 2.5  = etaa    ! max rap for the photons 
 2.5  = etal    ! max rap for the charged leptons 
 0.6  = etaonium ! max rap for the quarkonium states
   0  = etajmin ! min rap for the jets
   0  = etabmin ! min rap for the b
   0  = etaamin ! min rap for the photons
   0  = etalmin ! main rap for the charged leptons
#*********************************************************************
# Minimum and maximum DeltaR distance                                *
#*********************************************************************
 0.4 = drjj    ! min distance between jets 
 0   = drbb    ! min distance between b's 
 0.4 = drll    ! min distance between leptons 
 0.4 = draa    ! min distance between gammas 
 0   = drbj    ! min distance between b and jet 
 0.4 = draj    ! min distance between gamma and jet 
 0.4 = drjl    ! min distance between jet and lepton 
 0   = drab    ! min distance between gamma and b 
 0   = drbl    ! min distance between b and lepton 
 0.4 = dral    ! min distance between gamma and lepton 
 -1  = drjjmax ! max distance between jets
 -1  = drbbmax ! max distance between b's
 -1  = drllmax ! max distance between leptons
 -1  = draamax ! max distance between gammas
 -1  = drbjmax ! max distance between b and jet
 -1  = drajmax ! max distance between gamma and jet
 -1  = drjlmax ! max distance between jet and lepton
 -1  = drabmax ! max distance between gamma and b
 -1  = drblmax ! max distance between b and lepton
 -1  = dralmax ! maxdistance between gamma and lepton
#*********************************************************************
# Minimum and maximum invariant mass for pairs                       *
# WARNING: for four lepton final state mmll cut require to have      *
#          different lepton masses for each flavor!                  *           
#*********************************************************************
 0   = mmjj    ! min invariant mass of a jet pair 
 0   = mmbb    ! min invariant mass of a b pair 
 0   = mmaa    ! min invariant mass of gamma gamma pair
 0   = mmll    ! min invariant mass of l+l- (same flavour) lepton pair
 -1  = mmjjmax ! max invariant mass of a jet pair
 -1  = mmbbmax ! max invariant mass of a b pair
 -1  = mmaamax ! max invariant mass of gamma gamma pair
 -1  = mmllmax ! max invariant mass of l+l- (same flavour) lepton pair
#*********************************************************************
# Minimum and maximum invariant mass for all letpons                 *
#*********************************************************************
 0   = mmnl    ! min invariant mass for all letpons (l+- and vl) 
 -1  = mmnlmax ! max invariant mass for all letpons (l+- and vl) 
#*********************************************************************
# Minimum and maximum pt for 4-momenta sum of leptons                *
#*********************************************************************
 0   = ptllmin  ! Minimum pt for 4-momenta sum of leptons(l and vl)
 -1  = ptllmax  ! Maximum pt for 4-momenta sum of leptons(l and vl)
#*********************************************************************
# Inclusive cuts                                                     *
#*********************************************************************
 0  = xptj ! minimum pt for at least one jet  
 0  = xptb ! minimum pt for at least one b 
 0  = xpta ! minimum pt for at least one photon 
 0  = xptl ! minimum pt for at least one charged lepton 
#*********************************************************************
# Control the pt's of the jets sorted by pt                          *
#*********************************************************************
 0   = ptj1min ! minimum pt for the leading jet in pt
 0   = ptj2min ! minimum pt for the second jet in pt
 0   = ptj3min ! minimum pt for the third jet in pt
 0   = ptj4min ! minimum pt for the fourth jet in pt
 -1  = ptj1max ! maximum pt for the leading jet in pt 
 -1  = ptj2max ! maximum pt for the second jet in pt
 -1  = ptj3max ! maximum pt for the third jet in pt
 -1  = ptj4max ! maximum pt for the fourth jet in pt
 0   = cutuse  ! reject event if fails any (0) / all (1) jet pt cuts
#*********************************************************************
# Control the pt's of leptons sorted by pt                           *
#*********************************************************************
 0   = ptl1min ! minimum pt for the leading lepton in pt
 0   = ptl2min ! minimum pt for the second lepton in pt
 0   = ptl3min ! minimum pt for the third lepton in pt
 0   = ptl4min ! minimum pt for the fourth lepton in pt
 -1  = ptl1max ! maximum pt for the leading lepton in pt 
 -1  = ptl2max ! maximum pt for the second lepton in pt
 -1  = ptl3max ! maximum pt for the third lepton in pt
 -1  = ptl4max ! maximum pt for the fourth lepton in pt
#*********************************************************************
# Control the Ht(k)=Sum of k leading jets                            *
#*********************************************************************
 0   = htjmin ! minimum jet HT=Sum(jet pt)
 -1  = htjmax ! maximum jet HT=Sum(jet pt)
 0   = ihtmin  !inclusive Ht for all partons (including b)
 -1  = ihtmax  !inclusive Ht for all partons (including b)
 0   = ht2min ! minimum Ht for the two leading jets
 0   = ht3min ! minimum Ht for the three leading jets
 0   = ht4min ! minimum Ht for the four leading jets
 -1  = ht2max ! maximum Ht for the two leading jets
 -1  = ht3max ! maximum Ht for the three leading jets
 -1  = ht4max ! maximum Ht for the four leading jets
#***********************************************************************
# Photon-isolation cuts, according to hep-ph/9801442                   *
# When ptgmin=0, all the other parameters are ignored                  *
# When ptgmin>0, pta and draj are not going to be used                 *
#***********************************************************************
   0 = ptgmin ! Min photon transverse momentum
 0.4 = R0gamma ! Radius of isolation code
 1.0 = xn ! n parameter of eq.(3.4) in hep-ph/9801442
 1.0 = epsgamma ! epsilon_gamma parameter of eq.(3.4) in hep-ph/9801442
 .true. = isoEM ! isolate photons from EM energy (photons and leptons)
#*********************************************************************
# WBF cuts                                                           *
#*********************************************************************
 0   = xetamin ! minimum rapidity for two jets in the WBF case  
 0   = deltaeta ! minimum rapidity for two jets in the WBF case 
#*********************************************************************
# KT DURHAM CUT                                                      *
#*********************************************************************
 -1    =  ktdurham        
 0.4  =  dparameter 
#*********************************************************************
# maximal pdg code for quark to be considered as a light jet         *
# (otherwise b cuts are applied)                                     *
#*********************************************************************
 4 = maxjetflavor    ! Maximum jet pdg code
#*********************************************************************
# Jet measure cuts                                                   *
#*********************************************************************
 0   = xqcut   ! minimum kt jet measure between partons
#*********************************************************************
#
#*********************************************************************
# Store info for systematics studies                                 *
# WARNING: If use_syst is T, matched Pythia output is                *
#          meaningful ONLY if plotted taking matchscale              *
#          reweighting into account!                                 *
#*********************************************************************
   F  = use_syst      ! Enable systematics studies
#
#**************************************
# Parameter of the systematics study
#  will be used by SysCalc (if installed)
#**************************************                                  
#
0.5 1 2 = sys_scalefact  # factorization/renormalization scale factor
0.5 1 2 = sys_alpsfact  # \alpha_s emission scale factors
30 50 = sys_matchscale # variation of merging scale
# PDF sets and number of members (0 or none for all members).
CT10nlo.LHgrid = sys_pdf # matching scales
# MSTW2008nlo68cl.LHgrid 1  = sys_pdf
</MGRunCard>
<slha>
######################################################################
## PARAM_CARD AUTOMATICALY GENERATED BY MG5 FOLLOWING UFO MODEL   ####
######################################################################
##                                                                  ##
##  Width set on Auto will be computed following the information    ##
##        present in the decay.py files of the model.               ##
##        See  arXiv:1402.1178 for more details.                    ##
##                                                                  ##
######################################################################

###################################
## INFORMATION FOR CKMBLOCK
###################################
Block ckmblock 
    1 2.277360e-01 # cabi 

###################################
## INFORMATION FOR FRBLOCK
###################################
Block frblock 
    1 1.400000e+00 # gz 

###################################
## INFORMATION FOR MASS
###################################
Block mass 
    1 5.040000e-03 # MD 
    2 2.550000e-03 # MU 
    3 1.010000e-01 # MS 
    4 1.270000e+00 # MC 
    5 4.700000e+00 # MB 
    6 1.720000e+02 # MT 
   11 5.110000e-04 # Me 
   13 1.056600e-01 # MM 
   15 1.777000e+00 # MTA 
   23 9.118760e+01 # MZ 
   25 1.200000e+02 # MH 
  10030 5.000000e+02 # MZph 
  10031 3.000000e+02 # MZpl 
## Dependent parameters, given by model restrictions.
## Those values should be edited following the 
## analytical expression. MG5 ignores those values 
## but they are important for interfacing the output of MG5
## to external program such as Pythia.
  12 0.000000 # ve : 0.0 
  14 0.000000 # vm : 0.0 
  16 0.000000 # vt : 0.0 
  21 0.000000 # g : 0.0 
  22 0.000000 # a : 0.0 
  24 79.824360 # w+ : cmath.sqrt(MZ__exp__2/2. + cmath.sqrt(MZ__exp__4/4. - (aEW*cmath.pi*MZ__exp__2)/(Gf*sqrt__2))) 

###################################
## INFORMATION FOR SMINPUTS
###################################
Block sminputs 
    1 1.279000e+02 # aEWM1 
    2 1.166370e-05 # Gf 
    3 1.184000e-01 # aS 

###################################
## INFORMATION FOR YUKAWA
###################################
Block yukawa 
    1 5.040000e-03 # ymdo 
    2 2.550000e-03 # ymup 
    3 1.010000e-01 # yms 
    4 1.270000e+00 # ymc 
    5 4.700000e+00 # ymb 
    6 1.720000e+02 # ymt 
   11 5.110000e-04 # yme 
   13 1.056600e-01 # ymm 
   15 1.777000e+00 # ymtau 

###################################
## INFORMATION FOR DECAY
###################################
DECAY   6 1.508336e+00 # WT 
DECAY  23 2.495200e+00 # WZ 
DECAY  24 2.085000e+00 # WW 
DECAY  25 5.753088e-03 # WH 
## Dependent parameters, given by model restrictions.
## Those values should be edited following the 
## analytical expression. MG5 ignores those values 
## but they are important for interfacing the output of MG5
## to external program such as Pythia.
DECAY  1 0.000000 # d : 0.0 
DECAY  2 0.000000 # u : 0.0 
DECAY  3 0.000000 # s : 0.0 
DECAY  4 0.000000 # c : 0.0 
DECAY  5 0.000000 # b : 0.0 
DECAY  11 0.000000 # e- : 0.0 
DECAY  12 0.000000 # ve : 0.0 
DECAY  13 0.000000 # mu- : 0.0 
DECAY  14 0.000000 # vm : 0.0 
DECAY  15 0.000000 # ta- : 0.0 
DECAY  16 0.000000 # vt : 0.0 
DECAY  21 0.000000 # g : 0.0 
DECAY  22 0.000000 # a : 0.0 
DECAY  10030 0.308725 # zph : (gz__exp__2*MZph*(5 + cmath.sqrt(1 - (4*MT__exp__2)/MZph__exp__2)))/(144.*cmath.pi) 
DECAY  10031 0.132629 # zpl : (5*gz__exp__2*MZpl)/(144.*cmath.pi) 
#===========================================================
# QUANTUM NUMBERS OF NEW STATE(S) (NON SM PDG CODE)
#===========================================================

Block QNUMBERS 10030  # zph 
        1 0  # 3 times electric charge
        2 3  # number of spin states (2S+1)
        3 1  # colour rep (1: singlet, 3: triplet, 8: octet)
        4 0  # Particle/Antiparticle distinction (0=own anti)
Block QNUMBERS 10031  # zpl 
        1 0  # 3 times electric charge
        2 3  # number of spin states (2S+1)
        3 1  # colour rep (1: singlet, 3: triplet, 8: octet)
        4 0  # Particle/Antiparticle distinction (0=own anti)
</slha>
## END BANNER##
<MGGenerationInfo>
#  Number of Events        :         4240
#  Integrated weight (pb)  :  0.78948E+02
#  Max wgt                 :  0.25119E-01
#  Average wgt             :  0.18620E-01
</MGGenerationInfo>
</header>
<init>
     2212     2212  0.40000000000E+04  0.40000000000E+04 0 0  247000  247000 2   1
  0.78886953670E+02  0.15104311593E+00  0.25119440000E-01   0
</init>
<event>
 5   0  0.2511944E-01  0.4853081E+03  0.7818609E-02  0.1017686E+00
        2   -1    0    0  501    0  0.00000000000E+00  0.00000000000E+00  0.18678417590E+04  0.18678417590E+04  0.25500000920E-02 0. -1.
       -2   -1    0    0    0  501  0.00000000000E+00  0.00000000000E+00 -0.31523535882E+02  0.31523535985E+02  0.25500000920E-02 0.  1.
    10030    2    1    2    0    0  0.00000000000E+00  0.00000000000E+00  0.18363182232E+04  0.18993652950E+04  0.48530805397E+03 0.  0.
        1    1    3    3  502    0  0.10920263060E+03  0.13643237099E+03  0.15770386485E+04  0.15866914966E+04  0.50400001928E-02 0. -1.
       -1    1    3    3    0  502 -0.10920263060E+03 -0.13643237099E+03  0.25927957465E+03  0.31267379845E+03  0.50400001928E-02 0.  1.
</event>
<event>
 5   0  0.9868500E-02  0.5923839E+03  0.7818609E-02  0.9921334E-01
       -3   -1    0    0    0  501  0.00000000000E+00  0.00000000000E+00  0.20317805722E+03  0.20317808233E+03  0.10100000352E+00 0.  1.
        3   -1    0    0  501    0  0.00000000000E+00  0.00000000000E+00 -0.43178700453E+03  0.43178701634E+03  0.10100000352E+00 0. -1.
    10030    2    1    2    0    0  0.00000000000E+00  0.00000000000E+00 -0.22860894731E+03  0.63496509867E+03  0.59238385000E+03 0.  0.
        4    1    3    3  502    0  0.14981387567E+03  0.25463500188E+03 -0.91696621520E+02  0.30934295664E+03  0.12699999809E+01 0. -1.
       -4    1    3    3    0  502 -0.14981387567E+03 -0.25463500188E+03 -0.13691232579E+03  0.32562214203E+03  0.12699999809E+01 0.  1.
</event>
<event>
 5   0  0.2511944E-01  0.5080052E+03  0.7818609E-02  0.1011710E+00
        2   -1    0    0  501    0  0.00000000000E+00  0.00000000000E+00  0.68287959712E+03  0.68287959713E+03  0.25500000920E-02 0. -1.
       -2   -1    0    0    0  501  0.00000000000E+00  0.00000000000E+00 -0.94478317829E+02  0.94478317864E+02  0.25500000920E-02 0.  1.
    10030    2    1    2    0    0  0.00000000000E+00  0.00000000000E+00  0.58840127929E+03  0.77735791499E+03  0.50800517962E+03 0.  0.
        1    1    3    3  502    0 -0.74812308436E+02  0.22715178951E+03  0.16325756504E+03  0.28956493148E+03  0.50400001928E-02 0.  1.
       -1    1    3    3    0  502  0.74812308436E+02 -0.22715178951E+03  0.42514371425E+03  0.48779298351E+03  0.50400001928E-02 0. -1.
</event>
<event>
 5   0  0.2466034E-01  0.4784171E+03  0.7818609E-02  0.1019571E+00
        2   -1    0    0  501    0  0.00000000000E+00  0.00000000000E+00  0.36044482999E+03  0.36044483000E+03  0.25500000920E-02 0.  1.
       -2   -1    0    0    0  501  0.00000000000E+00  0.00000000000E+00 -0.15875033111E+03  0.15875033113E+03  0.25500000920E-02 0. -1.
    10030    2    1    2    0    0  0.00000000000E+00  0.00000000000E+00  0.20169449888E+03  0.51919516113E+03  0.47841712392E+03 0.  0.
        3    1    3    3  502    0 -0.22139119198E+03 -0.51085867187E+02  0.19658154177E+02  0.22805762197E+03  0.10100000352E+00 0. -1.
       -3    1    3    3    0  502  0.22139119198E+03  0.51085867187E+02  0.18203634470E+03  0.29113753916E+03  0.10100000352E+00 0.  1.
</event>
<event>
 5   0  0.2511944E-01  0.5069835E+03  0.7818609E-02  0.1011972E+00
        2   -1    0    0  501    0  0.00000000000E+00  0.00000000000E+00  0.11442851721E+04  0.11442851721E+04  0.25500000920E-02 0.  1.
       -2   -1    0    0    0  501  0.00000000000E+00  0.00000000000E+00 -0.56155643637E+02  0.56155643695E+02  0.25500000920E-02 0. -1.
    10030    2    1    2    0    0  0.00000000000E+00  0.00000000000E+00  0.10881295284E+04  0.12004408158E+04  0.50698351207E+03 0.  0.
        1    1    3    3  502    0 -0.90954421292E+02 -0.31249521575E+02  0.10994100961E+04  0.11036085351E+04  0.50400001928E-02 0.  1.
       -1    1    3    3    0  502  0.90954421292E+02  0.31249521575E+02 -0.11280567632E+02  0.96832280685E+02  0.50400001928E-02 0. -1.
</event>
<event>
 5   0  0.2466034E-01  0.5123638E+03  0.7818609E-02  0.1010601E+00
        2   -1    0    0  501    0  0.00000000000E+00  0.00000000000E+00  0.20258507756E+03  0.20258507757E+03  0.25500000920E-02 0.  1.
       -2   -1    0    0    0  501  0.00000000000E+00  0.00000000000E+00 -0.32395855868E+03  0.32395855869E+03  0.25500000920E-02 0. -1.
    10030    2    1    2    0    0  0.00000000000E+00  0.00000000000E+00 -0.12137348113E+03  0.52654363627E+03  0.51236381505E+03 0.  0.
        3    1    3    3  502    0 -0.83904752927E+02 -0.34633266034E+02  0.18550464508E+03  0.20652228506E+03  0.10100000352E+00 0.  1.
       -3    1    3    3    0  502  0.83904752927E+02  0.34633266034E+02 -0.30687812621E+03  0.32002135120E+03  0.10100000352E+00 0. -1.
</event>
<event>
 5   0  0.1529146E-01  0.4876316E+03  0.7818609E-02  0.1017059E+00
       -1   -1    0    0    0  501  0.00000000000E+00  0.00000000000E+00  0.19075769022E+03  0.19075769028E+03  0.50400001928E-02 0.  1.
        1   -1    0    0  501    0  0.00000000000E+00  0.00000000000E+00 -0.31163174108E+03  0.31163174112E+03  0.50400001928E-02 0. -1.
    10030    2    1    2    0    0  0.00000000000E+00  0.00000000000E+00 -0.12087405086E+03  0.50238943141E+03  0.48763162799E+03 0.  0.
        1    1    3    3  502    0 -0.21096223194E+03 -0.32595142407E+02  0.60935993485E+02  0.22199257182E+03  0.50400001928E-02 0.  1.
       -1    1    3    3    0  502  0.21096223194E+03  0.32595142407E+02 -0.18181004435E+03  0.28039685959E+03  0.50400001928E-02 0. -1.
</event>
<event>
 5   0  0.1413361E-01  0.5038312E+03  0.7818609E-02  0.1012784E+00
        1   -1    0    0  501    0  0.00000000000E+00  0.00000000000E+00  0.74749941514E+03  0.74749941516E+03  0.50400001928E-02 0.  1.
       -1   -1    0    0    0  501  0.00000000000E+00  0.00000000000E+00 -0.84898354046E+02  0.84898354196E+02  0.50400001928E-02 0. -1.
    10030    2    1    2    0    0  0.00000000000E+00  0.00000000000E+00  0.66260106110E+03  0.83239776936E+03  0.50383120215E+03 0.  0.
        3    1    3    3  502    0 -0.16260847234E+03  0.10014090246E+03  0.59868357844E+02  0.20013481979E+03  0.10100000352E+00 0. -1.
       -3    1    3    3    0  502  0.16260847234E+03 -0.10014090246E+03  0.60273270325E+03  0.63226294957E+03  0.10100000352E+00 0.  1.
</event>
<event>
 5   0  0.2511944E-01  0.5026417E+03  0.7818609E-02  0.1013092E+00
        2   -1    0    0  501    0  0.00000000000E+00  0.00000000000E+00  0.18582498726E+04  0.18582498726E+04  0.25500000920E-02 0. -1.
       -2   -1    0    0    0  501  0.00000000000E+00  0.00000000000E+00 -0.33990142955E+02  0.33990143050E+02  0.25500000920E-02 0.  1.
    10030    2    1    2    0    0  0.00000000000E+00  0.00000000000E+00  0.18242597296E+04  0.18922400156E+04  0.50264173685E+03 0.  0.
        1    1    3    3  502    0  0.11572871574E+03  0.63020226219E+02  0.10649447846E+03  0.16942773837E+03  0.50400001928E-02 0.  1.
       -1    1    3    3    0  502 -0.11572871574E+03 -0.63020226219E+02  0.17177652512E+04  0.17228122773E+04  0.50400001928E-02 0. -1.
</event>
<event>
 5   0  0.9868500E-02  0.4870337E+03  0.7818609E-02  0.1017220E+00
        4   -1    0    0  501    0  0.00000000000E+00  0.00000000000E+00  0.24668613368E+03  0.24668940280E+03  0.12699999809E+01 0.  1.
       -4   -1    0    0    0  501  0.00000000000E+00  0.00000000000E+00 -0.24038176119E+03  0.24038511603E+03  0.12699999809E+01 0. -1.
    10030    2    1    2    0    0  0.00000000000E+00  0.00000000000E+00  0.63043724982E+01  0.48707451883E+03  0.48703371729E+03 0.  0.
        3    1    3    3  502    0 -0.74029591605E+02 -0.89862278337E+02 -0.21074616734E+03  0.24076869969E+03  0.10100000352E+00 0. -1.
       -3    1    3    3    0  502  0.74029591605E+02  0.89862278337E+02  0.21705053983E+03  0.24630581914E+03  0.10100000352E+00 0.  1.
</event>
<event>
 5   0  0.2511944E-01  0.4990352E+03  0.7818609E-02  0.1014031E+00
        2   -1    0    0  501    0  0.00000000000E+00  0.00000000000E+00  0.35071111001E+03  0.35071111002E+03  0.25500000920E-02 0. -1.
       -2   -1    0    0    0  501  0.00000000000E+00  0.00000000000E+00 -0.17752228340E+03  0.17752228342E+03  0.25500000920E-02 0.  1.
    10030    2    1    2    0    0  0.00000000000E+00  0.00000000000E+00  0.17318882661E+03  0.52823339344E+03  0.49903521747E+03 0.  0.
        1    1    3    3  502    0 -0.17022945346E+03  0.16175150375E+03 -0.27065189299E+01  0.23483811672E+03  0.50400001928E-02 0.  1.
       -1    1    3    3    0  502  0.17022945346E+03 -0.16175150375E+03  0.17589534554E+03  0.29339527672E+03  0.50400001928E-02 0. -1.
</event>
<event>
 5   0  0.9868500E-02  0.4965066E+03  0.7818609E-02  0.1014695E+00
        4   -1    0    0  501    0  0.00000000000E+00  0.00000000000E+00  0.17587885373E+03  0.17588343893E+03  0.12699999809E+01 0.  1.
       -4   -1    0    0    0  501  0.00000000000E+00  0.00000000000E+00 -0.35039963164E+03  0.35040193314E+03  0.12699999809E+01 0. -1.
    10030    2    1    2    0    0  0.00000000000E+00  0.00000000000E+00 -0.17452077791E+03  0.52628537207E+03  0.49650658700E+03 0.  0.
        4    1    3    3  502    0  0.10593115706E+03 -0.22166291149E+03 -0.12506796542E+03  0.27568000515E+03  0.12699999809E+01 0. -1.
       -4    1    3    3    0  502 -0.10593115706E+03  0.22166291149E+03 -0.49452812490E+02  0.25060536692E+03  0.12699999809E+01 0.  1.
</event>
<event>
 5   0  0.2504064E-01  0.4945509E+03  0.7818609E-02  0.1015211E+00
        2   -1    0    0  501    0  0.00000000000E+00  0.00000000000E+00  0.21078083647E+03  0.21078083648E+03  0.25500000920E-02 0.  1.
       -2   -1    0    0    0  501  0.00000000000E+00  0.00000000000E+00 -0.29008876333E+03  0.29008876334E+03  0.25500000920E-02 0. -1.
    10030    2    1    2    0    0  0.00000000000E+00  0.00000000000E+00 -0.79307926863E+02  0.50086959982E+03  0.49455091625E+03 0.  0.
        5    1    3    3  502    0 -0.32503597300E+02 -0.12959552329E+02 -0.28752289855E+03  0.28968248311E+03  0.46999998093E+01 0. -1.
       -5    1    3    3    0  502  0.32503597300E+02  0.12959552329E+02  0.20821497168E+03  0.21118711671E+03  0.46999998093E+01 0.  1.
</event>
<event>
 5   0  0.1448458E-01  0.5006520E+03  0.7818609E-02  0.1013609E+00
        1   -1    0    0  501    0  0.00000000000E+00  0.00000000000E+00  0.94002249344E+03  0.94002249345E+03  0.50400001928E-02 0. -1.
       -1   -1    0    0    0  501  0.00000000000E+00  0.00000000000E+00 -0.66661276083E+02  0.66661276273E+02  0.50400001928E-02 0.  1.
    10030    2    1    2    0    0  0.00000000000E+00  0.00000000000E+00  0.87336121735E+03  0.10066837697E+04  0.50065197118E+03 0.  0.
        5    1    3    3  502    0  0.36043129808E+02 -0.62957953274E+02 -0.44968308931E+02  0.85481283876E+02  0.46999998093E+01 0.  1.
       -5    1    3    3    0  502 -0.36043129808E+02  0.62957953274E+02  0.91832952628E+03  0.92120248585E+03  0.46999998093E+01 0. -1.
</event>
<event>
 5   0  0.1448458E-01  0.4997957E+03  0.7818609E-02  0.1013832E+00
        1   -1    0    0  501    0  0.00000000000E+00  0.00000000000E+00  0.95067066754E+03  0.95067066756E+03  0.50400001928E-02 0. -1.
       -1   -1    0    0    0  501  0.00000000000E+00  0.00000000000E+00 -0.65689355224E+02  0.65689355417E+02  0.50400001928E-02 0.  1.
    10030    2    1    2    0    0  0.00000000000E+00  0.00000000000E+00  0.88498131232E+03  0.10163600230E+04  0.49979573142E+03 0.  0.
        5    1    3    3  502    0  0.14651638119E+03 -0.81391095291E+02  0.81930325075E+03  0.83628432189E+03  0.46999998093E+01 0. -1.
       -5    1    3    3    0  502 -0.14651638119E+03  0.81391095291E+02  0.65678061568E+02  0.18007570108E+03  0.46999998093E+01 0.  1.
</event>
<event>
 5   0  0.9868500E-02  0.4839029E+03  0.7818609E-02  0.1018068E+00
       -3   -1    0    0    0  501  0.00000000000E+00  0.00000000000E+00  0.10815466038E+03  0.10815470754E+03  0.10100000352E+00 0. -1.
        3   -1    0    0  501    0  0.00000000000E+00  0.00000000000E+00 -0.54126645170E+03  0.54126646113E+03  0.10100000352E+00 0.  1.
    10030    2    1    2    0    0  0.00000000000E+00  0.00000000000E+00 -0.43311179133E+03  0.64942116867E+03  0.48390291436E+03 0.  0.
        3    1    3    3  502    0 -0.98137453998E+02  0.20823237935E+03 -0.31652556987E+03  0.39138233259E+03  0.10100000352E+00 0.  1.
       -3    1    3    3    0  502  0.98137453998E+02 -0.20823237935E+03 -0.11658622146E+03  0.25803883607E+03  0.10100000352E+00 0. -1.
</event>
<event>
 5   0  0.1529146E-01  0.4967351E+03  0.7818609E-02  0.1014635E+00
       -1   -1    0    0    0  501  0.00000000000E+00  0.00000000000E+00  0.18521838192E+03  0.18521838199E+03  0.50400001928E-02 0.  1.
        1   -1    0    0  501    0  0.00000000000E+00  0.00000000000E+00 -0.33304709678E+03  0.33304709682E+03  0.50400001928E-02 0. -1.
    10030    2    1    2    0    0  0.00000000000E+00  0.00000000000E+00 -0.14782871486E+03  0.51826547881E+03  0.49673511814E+03 0.  0.
        1    1    3    3  502    0 -0.13786757819E+03 -0.89363235991E+02 -0.26824868301E+03  0.31456416360E+03  0.50400001928E-02 0. -1.
       -1    1    3    3    0  502  0.13786757819E+03  0.89363235991E+02  0.12041996815E+03  0.20370131521E+03  0.50400001928E-02 0.  1.
</event>
<event>
 5   0  0.1413361E-01  0.4981673E+03  0.7818609E-02  0.1014258E+00
       -1   -1    0    0    0  501  0.00000000000E+00  0.00000000000E+00  0.35288361841E+03  0.35288361844E+03  0.50400001928E-02 0.  1.
        1   -1    0    0  501    0  0.00000000000E+00  0.00000000000E+00 -0.17581619052E+03  0.17581619059E+03  0.50400001928E-02 0. -1.
    10030    2    1    2    0    0  0.00000000000E+00  0.00000000000E+00  0.17706742789E+03  0.52869980903E+03  0.49816725510E+03 0.  0.
        3    1    3    3  502    0 -0.10196055242E+03  0.53706472094E+01 -0.15258666159E+03  0.18359601738E+03  0.10100000352E+00 0. -1.
       -3    1    3    3    0  502  0.10196055242E+03 -0.53706472094E+01  0.32965408948E+03  0.34510379165E+03  0.10100000352E+00 0.  1.
</event>
<event>
 5   0  0.1413361E-01  0.5220937E+03  0.7818609E-02  0.1008168E+00
       -1   -1    0    0    0  501  0.00000000000E+00  0.00000000000E+00  0.40252166424E+02  0.40252166739E+02  0.50400001928E-02 0. -1.
        1   -1    0    0  501    0  0.00000000000E+00  0.00000000000E+00 -0.16929638005E+04  0.16929638006E+04  0.50400001928E-02 0.  1.
    10030    2    1    2    0    0  0.00000000000E+00  0.00000000000E+00 -0.16527116341E+04  0.17332159673E+04  0.52209371162E+03 0.  0.
        3    1    3    3  502    0 -0.25831424329E+03  0.33682213789E+02 -0.77034056731E+03  0.81319452756E+03  0.10100000352E+00 0. -1.
       -3    1    3    3    0  502  0.25831424329E+03 -0.33682213789E+02 -0.88237106682E+03  0.92002143973E+03  0.10100000352E+00 0.  1.
</event>
<event>
 5   0  0.2511944E-01  0.4982227E+03  0.7818609E-02  0.1014244E+00
       -2   -1    0    0    0  501  0.00000000000E+00  0.00000000000E+00  0.14608800933E+03  0.14608800935E+03  0.25500000920E-02 0.  1.
        2   -1    0    0  501    0  0.00000000000E+00  0.00000000000E+00 -0.42478822613E+03  0.42478822613E+03  0.25500000920E-02 0. -1.
    10030    2    1    2    0    0  0.00000000000E+00  0.00000000000E+00 -0.27870021680E+03  0.57087623549E+03  0.49822270663E+03 0.  0.
        1    1    3    3  502    0 -0.12811413925E+03  0.16755714056E+03 -0.29122207281E+03  0.35958159539E+03  0.50400001928E-02 0. -1.
       -1    1    3    3    0  502  0.12811413925E+03 -0.16755714056E+03  0.12521856012E+02  0.21129464009E+03  0.50400001928E-02 0.  1.
</event>
<event>
 5   0  0.1439814E-01  0.5027420E+03  0.7818609E-02  0.1013066E+00
        1   -1    0    0  501    0  0.00000000000E+00  0.00000000000E+00  0.49766593535E+03  0.49766593537E+03  0.50400001928E-02 0. -1.
       -1   -1    0    0    0  501  0.00000000000E+00  0.00000000000E+00 -0.12696745864E+03  0.12696745874E+03  0.50400001928E-02 0.  1.
    10030    2    1    2    0    0  0.00000000000E+00  0.00000000000E+00  0.37069847671E+03  0.62463339411E+03  0.50274199785E+03 0.  0.
        4    1    3    3  502    0  0.72881209663E+02 -0.18723707035E+03 -0.23244351043E+01  0.20093881440E+03  0.12699999809E+01 0. -1.
       -4    1    3    3    0  502 -0.72881209663E+02  0.18723707035E+03  0.37302291182E+03  0.42369457971E+03  0.12699999809E+01 0.  1.
</event>
<event>
 5   0  0.1529146E-01  0.4945015E+03  0.7818609E-02  0.1015224E+00
        1   -1    0    0  501    0  0.00000000000E+00  0.00000000000E+00  0.32335843730E+03  0.32335843734E+03  0.50400001928E-02 0. -1.
       -1   -1    0    0    0  501  0.00000000000E+00  0.00000000000E+00 -0.18905621316E+03  0.18905621323E+03  0.50400001928E-02 0.  1.
    10030    2    1    2    0    0  0.00000000000E+00  0.00000000000E+00  0.13430222415E+03  0.51241465057E+03  0.49450145269E+03 0.  0.
        1    1    3    3  502    0  0.24443529662E+03 -0.11325835387E+02  0.30426732333E+02  0.24658198402E+03  0.50400001928E-02 0. -1.
       -1    1    3    3    0  502 -0.24443529662E+03  0.11325835387E+02  0.10387549181E+03  0.26583266655E+03  0.50400001928E-02 0.  1.
</event>
<event>
 5   0  0.2488968E-01  0.5351160E+03  0.7818609E-02  0.1004999E+00
        2   -1    0    0  501    0  0.00000000000E+00  0.00000000000E+00  0.12852871558E+04  0.12852871558E+04  0.25500000920E-02 0.  1.
       -2   -1    0    0    0  501  0.00000000000E+00  0.00000000000E+00 -0.55697493636E+02  0.55697493695E+02  0.25500000920E-02 0. -1.
    10030    2    1    2    0    0  0.00000000000E+00  0.00000000000E+00  0.12295896621E+04  0.13409846495E+04  0.53511596209E+03 0.  0.
        2    1    3    3  502    0  0.24625144831E+03 -0.70824010722E+02  0.42179515013E+03  0.49352503986E+03  0.25500000920E-02 0.  1.
       -2    1    3    3    0  502 -0.24625144831E+03  0.70824010722E+02  0.80779451201E+03  0.84745960962E+03  0.25500000920E-02 0. -1.
</event>
<event>
 5   0  0.1413361E-01  0.4829855E+03  0.7818609E-02  0.1018318E+00
        1   -1    0    0  501    0  0.00000000000E+00  0.00000000000E+00  0.71098130579E+03  0.71098130581E+03  0.50400001928E-02 0.  1.
       -1   -1    0    0    0  501  0.00000000000E+00  0.00000000000E+00 -0.82025705699E+02  0.82025705854E+02  0.50400001928E-02 0. -1.
    10030    2    1    2    0    0  0.00000000000E+00  0.00000000000E+00  0.62895560009E+03  0.79300701167E+03  0.48298547976E+03 0.  0.
        3    1    3    3  502    0  0.97164081559E+02 -0.51756834524E+01  0.67737203393E+03  0.68432487095E+03  0.10100000352E+00 0.  1.
       -3    1    3    3    0  502 -0.97164081559E+02  0.51756834524E+01 -0.48416433837E+02  0.10868214072E+03  0.10100000352E+00 0. -1.
</event>
<event>
 5   0  0.1448458E-01  0.5697731E+03  0.7818609E-02  0.9970181E-01
       -1   -1    0    0    0  501  0.00000000000E+00  0.00000000000E+00  0.31046164503E+03  0.31046164507E+03  0.50400001928E-02 0.  1.
        1   -1    0    0  501    0  0.00000000000E+00  0.00000000000E+00 -0.26141825953E+03  0.26141825958E+03  0.50400001928E-02 0. -1.
    10030    2    1    2    0    0  0.00000000000E+00  0.00000000000E+00  0.49043385499E+02  0.57187990465E+03  0.56977308789E+03 0.  0.
        5    1    3    3  502    0 -0.19755230830E+03 -0.98583011071E+02 -0.15612360788E+03  0.27044813832E+03  0.46999998093E+01 0. -1.
       -5    1    3    3    0  502  0.19755230830E+03  0.98583011071E+02  0.20516699338E+03  0.30143176633E+03  0.46999998093E+01 0.  1.
</event>
<event>
 5   0  0.2466034E-01  0.4986597E+03  0.7818609E-02  0.1014129E+00
        2   -1    0    0  501    0  0.00000000000E+00  0.00000000000E+00  0.67583763716E+03  0.67583763716E+03  0.25500000920E-02 0. -1.
       -2   -1    0    0    0  501  0.00000000000E+00  0.00000000000E+00 -0.91982701091E+02  0.91982701126E+02  0.25500000920E-02 0.  1.
    10030    2    1    2    0    0  0.00000000000E+00  0.00000000000E+00  0.58385493607E+03  0.76782033829E+03  0.49865968909E+03 0.  0.
        3    1    3    3  502    0  0.47298718461E+02 -0.12764954555E+03  0.61356505712E+03  0.62848521443E+03  0.10100000352E+00 0. -1.
       -3    1    3    3    0  502 -0.47298718461E+02  0.12764954555E+03 -0.29710121047E+02  0.13933512386E+03  0.10100000352E+00 0.  1.
</event>
<event>
 5   0  0.1439814E-01  0.4962217E+03  0.7818609E-02  0.1014770E+00
        1   -1    0    0  501    0  0.00000000000E+00  0.00000000000E+00  0.37929515254E+03  0.37929515257E+03  0.50400001928E-02 0. -1.
       -1   -1    0    0    0  501  0.00000000000E+00  0.00000000000E+00 -0.16229836676E+03  0.16229836683E+03  0.50400001928E-02 0.  1.
    10030    2    1    2    0    0  0.00000000000E+00  0.00000000000E+00  0.21699678578E+03  0.54159351940E+03  0.49622165936E+03 0.  0.
        4    1    3    3  502    0  0.12491340848E+03  0.16683949106E+03 -0.38414532667E+02  0.21193410442E+03  0.12699999809E+01 0.  1.
       -4    1    3    3    0  502 -0.12491340848E+03 -0.16683949106E+03  0.25541131845E+03  0.32965941498E+03  0.12699999809E+01 0. -1.
</event>
<event>
 5   0  0.2488968E-01  0.5353452E+03  0.7818609E-02  0.1004944E+00
        2   -1    0    0  501    0  0.00000000000E+00  0.00000000000E+00  0.46909208017E+03  0.46909208018E+03  0.25500000920E-02 0. -1.
       -2   -1    0    0    0  501  0.00000000000E+00  0.00000000000E+00 -0.15273890277E+03  0.15273890279E+03  0.25500000920E-02 0.  1.
    10030    2    1    2    0    0  0.00000000000E+00  0.00000000000E+00  0.31635317740E+03  0.62183098297E+03  0.53534515832E+03 0.  0.
        2    1    3    3  502    0  0.15543150545E+03  0.16704625464E+03  0.32073241681E+03  0.39361489717E+03  0.25500000920E-02 0. -1.
       -2    1    3    3    0  502 -0.15543150545E+03 -0.16704625464E+03 -0.43792394050E+01  0.22821608580E+03  0.25500000920E-02 0.  1.
</event>
<event>
 5   0  0.1453602E-01  0.4928277E+03  0.7818609E-02  0.1015668E+00
       -1   -1    0    0    0  501  0.00000000000E+00  0.00000000000E+00  0.78400922298E+02  0.78400922460E+02  0.50400001928E-02 0. -1.
        1   -1    0    0  501    0  0.00000000000E+00  0.00000000000E+00 -0.77447796883E+03  0.77447796885E+03  0.50400001928E-02 0.  1.
    10030    2    1    2    0    0  0.00000000000E+00  0.00000000000E+00 -0.69607704654E+03  0.85287889131E+03  0.49282770674E+03 0.  0.
        2    1    3    3  502    0  0.12023758598E+03  0.16442107371E+03 -0.10806459755E+03  0.23058474324E+03  0.25500000920E-02 0. -1.
       -2    1    3    3    0  502 -0.12023758598E+03 -0.16442107371E+03 -0.58801244898E+03  0.62229414807E+03  0.25500000920E-02 0.  1.
</event>
<event>
 5   0  0.2466034E-01  0.5061903E+03  0.7818609E-02  0.1012176E+00
       -2   -1    0    0    0  501  0.00000000000E+00  0.00000000000E+00  0.19559852941E+03  0.19559852943E+03  0.25500000920E-02 0.  1.
        2   -1    0    0  501    0  0.00000000000E+00  0.00000000000E+00 -0.32749299681E+03  0.32749299682E+03  0.25500000920E-02 0. -1.
    10030    2    1    2    0    0  0.00000000000E+00  0.00000000000E+00 -0.13189446740E+03  0.52309152625E+03  0.50619027481E+03 0.  0.
        3    1    3    3  502    0 -0.16801339335E+03  0.16381439586E+03  0.32053159094E+02  0.23683553755E+03  0.10100000352E+00 0. -1.
       -3    1    3    3    0  502  0.16801339335E+03 -0.16381439586E+03 -0.16394762649E+03  0.28625598871E+03  0.10100000352E+00 0.  1.
</event>
<event>
 5   0  0.2504064E-01  0.4887046E+03  0.7818609E-02  0.1016770E+00
       -2   -1    0    0    0  501  0.00000000000E+00  0.00000000000E+00  0.49606444164E+02  0.49606444230E+02  0.25500000920E-02 0. -1.
        2   -1    0    0  501    0  0.00000000000E+00  0.00000000000E+00 -0.12036348205E+04  0.12036348205E+04  0.25500000920E-02 0.  1.
    10030    2    1    2    0    0  0.00000000000E+00  0.00000000000E+00 -0.11540283763E+04  0.12532412647E+04  0.48870458790E+03 0.  0.
        5    1    3    3  502    0  0.51702352340E+02  0.18615549016E+03 -0.96046883882E+03  0.97971908224E+03  0.46999998093E+01 0.  1.
       -5    1    3    3    0  502 -0.51702352340E+02 -0.18615549016E+03 -0.19355953751E+03  0.27352218249E+03  0.46999998093E+01 0. -1.
</event>
<event>
 5   0  0.1453602E-01  0.5106862E+03  0.7818609E-02  0.1011027E+00
       -1   -1    0    0    0  501  0.00000000000E+00  0.00000000000E+00  0.38673725457E+03  0.38673725460E+03  0.50400001928E-02 0. -1.
        1   -1    0    0  501    0  0.00000000000E+00  0.00000000000E+00 -0.16859014540E+03  0.16859014547E+03  0.50400001928E-02 0.  1.
    10030    2    1    2    0    0  0.00000000000E+00  0.00000000000E+00  0.21814710917E+03  0.55532740007E+03  0.51068616589E+03 0.  0.
        2    1    3    3  502    0 -0.18389907288E+03 -0.66951687856E+02 -0.69271304073E+02  0.20760518078E+03  0.25500000920E-02 0.  1.
       -2    1    3    3    0  502  0.18389907288E+03  0.66951687856E+02  0.28741841324E+03  0.34772221929E+03  0.25500000920E-02 0. -1.
</event>
<event>
 5   0  0.2466034E-01  0.5056149E+03  0.7818609E-02  0.1012324E+00
        2   -1    0    0  501    0  0.00000000000E+00  0.00000000000E+00  0.69901214539E+03  0.69901214540E+03  0.25500000920E-02 0.  1.
       -2   -1    0    0    0  501  0.00000000000E+00  0.00000000000E+00 -0.91431309758E+02  0.91431309794E+02  0.25500000920E-02 0. -1.
    10030    2    1    2    0    0  0.00000000000E+00  0.00000000000E+00  0.60758083564E+03  0.79044345519E+03  0.50561485740E+03 0.  0.
        3    1    3    3  502    0 -0.11249830114E+03  0.51403314027E+02 -0.40899877823E+02  0.13027270881E+03  0.10100000352E+00 0. -1.
       -3    1    3    3    0  502  0.11249830114E+03 -0.51403314027E+02  0.64848071346E+03  0.66017074638E+03  0.10100000352E+00 0.  1.
</event>
<event>
 5   0  0.2511944E-01  0.4843924E+03  0.7818609E-02  0.1017935E+00
        2   -1    0    0  501    0  0.00000000000E+00  0.00000000000E+00  0.45460236487E+03  0.45460236488E+03  0.25500000920E-02 0.  1.
       -2   -1    0    0    0  501  0.00000000000E+00  0.00000000000E+00 -0.12903366025E+03  0.12903366028E+03  0.25500000920E-02 0. -1.
    10030    2    1    2    0    0  0.00000000000E+00  0.00000000000E+00  0.32556870462E+03  0.58363602516E+03  0.48439243226E+03 0.  0.
        1    1    3    3  502    0 -0.22799070623E+03 -0.60002693859E+02  0.95927786775E+02  0.25452352681E+03  0.50400001928E-02 0. -1.
       -1    1    3    3    0  502  0.22799070623E+03  0.60002693859E+02  0.22964091784E+03  0.32911249835E+03  0.50400001928E-02 0.  1.
</event>
<event>
 5   0  0.1413361E-01  0.5162089E+03  0.7818609E-02  0.1009633E+00
       -1   -1    0    0    0  501  0.00000000000E+00  0.00000000000E+00  0.44564451077E+03  0.44564451080E+03  0.50400001928E-02 0.  1.
        1   -1    0    0  501    0  0.00000000000E+00  0.00000000000E+00 -0.14948665323E+03  0.14948665332E+03  0.50400001928E-02 0. -1.
    10030    2    1    2    0    0  0.00000000000E+00  0.00000000000E+00  0.29615785754E+03  0.59513116412E+03  0.51620889757E+03 0.  0.
        3    1    3    3  502    0  0.12918628997E+03 -0.10165989052E+03  0.37748359898E+03  0.41172528287E+03  0.10100000352E+00 0.  1.
       -3    1    3    3    0  502 -0.12918628997E+03  0.10165989052E+03 -0.81325741436E+02  0.18340588125E+03  0.10100000352E+00 0. -1.
</event>
<event>
 5   0  0.2466034E-01  0.4946635E+03  0.7818609E-02  0.1015181E+00
        2   -1    0    0  501    0  0.00000000000E+00  0.00000000000E+00  0.85952506517E+03  0.85952506517E+03  0.25500000920E-02 0.  1.
       -2   -1    0    0    0  501  0.00000000000E+00  0.00000000000E+00 -0.71170698554E+02  0.71170698600E+02  0.25500000920E-02 0. -1.
    10030    2    1    2    0    0  0.00000000000E+00  0.00000000000E+00  0.78835436661E+03  0.93069576377E+03  0.49466351932E+03 0.  0.
        3    1    3    3  502    0 -0.21274752443E+03 -0.11039758936E+03  0.27936338762E+03  0.36809380521E+03  0.10100000352E+00 0. -1.
       -3    1    3    3    0  502  0.21274752443E+03  0.11039758936E+03  0.50899097899E+03  0.56260195856E+03  0.10100000352E+00 0.  1.
</event>
<event>
 5   0  0.1439814E-01  0.5037667E+03  0.7818609E-02  0.1012800E+00
       -1   -1    0    0    0  501  0.00000000000E+00  0.00000000000E+00  0.31094564297E+03  0.31094564301E+03  0.50400001928E-02 0.  1.
        1   -1    0    0  501    0  0.00000000000E+00  0.00000000000E+00 -0.20403956728E+03  0.20403956734E+03  0.50400001928E-02 0. -1.
    10030    2    1    2    0    0  0.00000000000E+00  0.00000000000E+00  0.10690607569E+03  0.51498521035E+03  0.50376667006E+03 0.  0.
        4    1    3    3  502    0 -0.12754241405E+03  0.15788751834E+03  0.20593253669E+03  0.28914591194E+03  0.12699999809E+01 0.  1.
       -4    1    3    3    0  502  0.12754241405E+03 -0.15788751834E+03 -0.99026461002E+02  0.22583929841E+03  0.12699999809E+01 0. -1.
</event>
<event>
 5   0  0.1439814E-01  0.4936578E+03  0.7818609E-02  0.1015448E+00
        1   -1    0    0  501    0  0.00000000000E+00  0.00000000000E+00  0.13537439301E+03  0.13537439310E+03  0.50400001928E-02 0.  1.
       -1   -1    0    0    0  501  0.00000000000E+00  0.00000000000E+00 -0.45004449060E+03  0.45004449062E+03  0.50400001928E-02 0. -1.
    10030    2    1    2    0    0  0.00000000000E+00  0.00000000000E+00 -0.31467009759E+03  0.58541888372E+03  0.49365777529E+03 0.  0.
        4    1    3    3  502    0  0.44210876925E+02  0.19008251082E+03  0.21873842029E+02  0.19638238318E+03  0.12699999809E+01 0.  1.
       -4    1    3    3    0  502 -0.44210876925E+02 -0.19008251082E+03 -0.33654393962E+03  0.38903650054E+03  0.12699999809E+01 0. -1.
</event>
<event>
 5   0  0.1413361E-01  0.5036539E+03  0.7818609E-02  0.1012830E+00
       -1   -1    0    0    0  501  0.00000000000E+00  0.00000000000E+00  0.46107581620E+02  0.46107581896E+02  0.50400001928E-02 0.  1.
        1   -1    0    0  501    0  0.00000000000E+00  0.00000000000E+00 -0.13754098166E+04  0.13754098166E+04  0.50400001928E-02 0. -1.
    10030    2    1    2    0    0  0.00000000000E+00  0.00000000000E+00 -0.13293022349E+04  0.14215173985E+04  0.50365393111E+03 0.  0.
        3    1    3    3  502    0  0.41237022689E+02  0.24835634758E+03 -0.68145404366E+03  0.72647160388E+03  0.10100000352E+00 0. -1.
       -3    1    3    3    0  502 -0.41237022689E+02 -0.24835634758E+03 -0.64784819127E+03  0.69504579458E+03  0.10100000352E+00 0.  1.
</event>
<event>
 5   0  0.2413301E-01  0.4934964E+03  0.7818609E-02  0.1015491E+00
        2   -1    0    0  501    0  0.00000000000E+00  0.00000000000E+00  0.85590620246E+03  0.85590620246E+03  0.25500000920E-02 0. -1.
       -2   -1    0    0    0  501  0.00000000000E+00  0.00000000000E+00 -0.71134745003E+02  0.71134745048E+02  0.25500000920E-02 0.  1.
    10030    2    1    2    0    0  0.00000000000E+00  0.00000000000E+00  0.78477145746E+03  0.92704094751E+03  0.49349638086E+03 0.  0.
        4    1    3    3  502    0  0.16834324432E+03 -0.76464882041E+02  0.85452446259E+02  0.20369108858E+03  0.12699999809E+01 0.  1.
       -4    1    3    3    0  502 -0.16834324432E+03  0.76464882041E+02  0.69931901120E+03  0.72334985893E+03  0.12699999809E+01 0. -1.
</event>
<event>
 5   0  0.2413301E-01  0.4947437E+03  0.7818609E-02  0.1015160E+00
       -2   -1    0    0    0  501  0.00000000000E+00  0.00000000000E+00  0.32475250784E+02  0.32475250884E+02  0.25500000920E-02 0. -1.
        2   -1    0    0  501    0  0.00000000000E+00  0.00000000000E+00 -0.18842915228E+04  0.18842915228E+04  0.25500000920E-02 0.  1.
    10030    2    1    2    0    0  0.00000000000E+00  0.00000000000E+00 -0.18518162720E+04  0.19167667737E+04  0.49474373104E+03 0.  0.
        4    1    3    3  502    0 -0.13602741903E+03 -0.19606561902E+03 -0.11783614509E+04  0.12022822080E+04  0.12699999809E+01 0.  1.
       -4    1    3    3    0  502  0.13602741903E+03  0.19606561902E+03 -0.67345482107E+03  0.71448456569E+03  0.12699999809E+01 0. -1.
</event>
<event>
 5   0  0.9868500E-02  0.5005296E+03  0.7818609E-02  0.1013641E+00
       -4   -1    0    0    0  501  0.00000000000E+00  0.00000000000E+00  0.25261890289E+03  0.25262209523E+03  0.12699999809E+01 0.  1.
        4   -1    0    0  501    0  0.00000000000E+00  0.00000000000E+00 -0.24792625810E+03  0.24792951086E+03  0.12699999809E+01 0. -1.
    10030    2    1    2    0    0  0.00000000000E+00  0.00000000000E+00  0.46926447917E+01  0.50055160608E+03  0.50052960895E+03 0.  0.
        1    1    3    3  502    0 -0.25023036027E+03  0.12927749886E+01  0.62921094722E+01  0.25031279459E+03  0.50400001928E-02 0. -1.
       -1    1    3    3    0  502  0.25023036027E+03 -0.12927749886E+01 -0.15994646805E+01  0.25023881150E+03  0.50400001928E-02 0.  1.
</event>
<event>
 5   0  0.1413361E-01  0.5058509E+03  0.7818609E-02  0.1012263E+00
       -1   -1    0    0    0  501  0.00000000000E+00  0.00000000000E+00  0.70018498912E+03  0.70018498914E+03  0.50400001928E-02 0.  1.
        1   -1    0    0  501    0  0.00000000000E+00  0.00000000000E+00 -0.91363385670E+02  0.91363385809E+02  0.50400001928E-02 0. -1.
    10030    2    1    2    0    0  0.00000000000E+00  0.00000000000E+00  0.60882160345E+03  0.79154837495E+03  0.50585085258E+03 0.  0.
        3    1    3    3  502    0  0.36057096484E+02  0.86166760309E+02 -0.63385289682E+02  0.11288281507E+03  0.10100000352E+00 0. -1.
       -3    1    3    3    0  502 -0.36057096484E+02 -0.86166760309E+02  0.67220689314E+03  0.67866555988E+03  0.10100000352E+00 0.  1.
</event>
<event>
 5   0  0.1448458E-01  0.4907541E+03  0.7818609E-02  0.1016221E+00
       -1   -1    0    0    0  501  0.00000000000E+00  0.00000000000E+00  0.31530108054E+03  0.31530108058E+03  0.50400001928E-02 0.  1.
        1   -1    0    0  501    0  0.00000000000E+00  0.00000000000E+00 -0.19096004285E+03  0.19096004291E+03  0.50400001928E-02 0. -1.
    10030    2    1    2    0    0  0.00000000000E+00  0.00000000000E+00  0.12434103770E+03  0.50626112349E+03  0.49075414568E+03 0.  0.
        5    1    3    3  502    0  0.15930564059E+03 -0.57891934676E+01 -0.13020531488E+03  0.20588180081E+03  0.46999998093E+01 0. -1.
       -5    1    3    3    0  502 -0.15930564059E+03  0.57891934676E+01  0.25454635258E+03  0.30037932268E+03  0.46999998093E+01 0.  1.
</event>
<event>
 5   0  0.2488968E-01  0.4983171E+03  0.7818609E-02  0.1014219E+00
       -2   -1    0    0    0  501  0.00000000000E+00  0.00000000000E+00  0.13046831693E+03  0.13046831696E+03  0.25500000920E-02 0. -1.
        2   -1    0    0  501    0  0.00000000000E+00  0.00000000000E+00 -0.47582419391E+03  0.47582419392E+03  0.25500000920E-02 0.  1.
    10030    2    1    2    0    0  0.00000000000E+00  0.00000000000E+00 -0.34535587698E+03  0.60629251088E+03  0.49831709481E+03 0.  0.
        2    1    3    3  502    0 -0.13805978524E+03 -0.17441565209E+03 -0.36113206481E+02  0.22535635709E+03  0.25500000920E-02 0. -1.
       -2    1    3    3    0  502  0.13805978524E+03  0.17441565209E+03 -0.30924267050E+03  0.38093615378E+03  0.25500000920E-02 0.  1.
</event>
<event>
 5   0  0.2466034E-01  0.4952045E+03  0.7818609E-02  0.1015038E+00
        2   -1    0    0  501    0  0.00000000000E+00  0.00000000000E+00  0.10066723278E+04  0.10066723278E+04  0.25500000920E-02 0.  1.
       -2   -1    0    0    0  501  0.00000000000E+00  0.00000000000E+00 -0.60900536658E+02  0.60900536712E+02  0.25500000920E-02 0. -1.
    10030    2    1    2    0    0  0.00000000000E+00  0.00000000000E+00  0.94577179109E+03  0.10675728645E+04  0.49520454372E+03 0.  0.
        3    1    3    3  502    0 -0.10496343880E+01  0.23982404331E+03  0.60560824053E+03  0.65136627537E+03  0.10100000352E+00 0.  1.
       -3    1    3    3    0  502  0.10496343880E+01 -0.23982404331E+03  0.34016355056E+03  0.41620658910E+03  0.10100000352E+00 0. -1.
</event>
<event>
 5   0  0.2511944E-01  0.5035719E+03  0.7818609E-02  0.1012851E+00
        2   -1    0    0  501    0  0.00000000000E+00  0.00000000000E+00  0.16932641791E+03  0.16932641793E+03  0.25500000920E-02 0. -1.
       -2   -1    0    0    0  501  0.00000000000E+00  0.00000000000E+00 -0.37440201520E+03  0.37440201521E+03  0.25500000920E-02 0.  1.
    10030    2    1    2    0    0  0.00000000000E+00  0.00000000000E+00 -0.20507559729E+03  0.54372843314E+03  0.50357185029E+03 0.  0.
        1    1    3    3  502    0  0.14768267397E+03 -0.72899360085E+02 -0.30817625450E+03  0.34942394417E+03  0.50400001928E-02 0.  1.
       -1    1    3    3    0  502 -0.14768267397E+03  0.72899360085E+02  0.10310065721E+03  0.19430448897E+03  0.50400001928E-02 0. -1.
</event>
<event>
 5   0  0.2488968E-01  0.5016821E+03  0.7818609E-02  0.1013341E+00
       -2   -1    0    0    0  501  0.00000000000E+00  0.00000000000E+00  0.12709918425E+03  0.12709918427E+03  0.25500000920E-02 0. -1.
        2   -1    0    0  501    0  0.00000000000E+00  0.00000000000E+00 -0.49505617246E+03  0.49505617247E+03  0.25500000920E-02 0.  1.
    10030    2    1    2    0    0  0.00000000000E+00  0.00000000000E+00 -0.36795698822E+03  0.62215535674E+03  0.50168211324E+03 0.  0.
        2    1    3    3  502    0  0.28993748087E+02  0.62204295121E+02  0.11522977577E+03  0.13411902546E+03  0.25500000920E-02 0. -1.
       -2    1    3    3    0  502 -0.28993748087E+02 -0.62204295121E+02 -0.48318676398E+03  0.48803633129E+03  0.25500000920E-02 0.  1.
</event>
<event>
 5   0  0.2466034E-01  0.4960419E+03  0.7818609E-02  0.1014817E+00
       -2   -1    0    0    0  501  0.00000000000E+00  0.00000000000E+00  0.50315726466E+02  0.50315726530E+02  0.25500000920E-02 0.  1.
        2   -1    0    0  501    0  0.00000000000E+00  0.00000000000E+00 -0.12225676837E+04  0.12225676837E+04  0.25500000920E-02 0. -1.
    10030    2    1    2    0    0  0.00000000000E+00  0.00000000000E+00 -0.11722519572E+04  0.12728834102E+04  0.49604185791E+03 0.  0.
        3    1    3    3  502    0 -0.13821393763E+03 -0.21662769422E+02 -0.60599160239E+02  0.15246191838E+03  0.10100000352E+00 0.  1.
       -3    1    3    3    0  502  0.13821393763E+03  0.21662769422E+02 -0.11116527970E+04  0.11204214918E+04  0.10100000352E+00 0. -1.
</event>
<event>
 5   0  0.1413361E-01  0.4985016E+03  0.7818609E-02  0.1014171E+00
       -1   -1    0    0    0  501  0.00000000000E+00  0.00000000000E+00  0.49180241010E+02  0.49180241268E+02  0.50400001928E-02 0. -1.
        1   -1    0    0  501    0  0.00000000000E+00  0.00000000000E+00 -0.12632300811E+04  0.12632300811E+04  0.50400001928E-02 0.  1.
    10030    2    1    2    0    0  0.00000000000E+00  0.00000000000E+00 -0.12140498400E+04  0.13124103223E+04  0.49850159484E+03 0.  0.
        3    1    3    3  502    0 -0.62166700895E+02 -0.12113665229E+03 -0.57379789621E+02  0.14775397689E+03  0.10100000352E+00 0. -1.
       -3    1    3    3    0  502  0.62166700895E+02  0.12113665229E+03 -0.11566700504E+04  0.11646563454E+04  0.10100000352E+00 0.  1.
</event>
<event>
 5   0  0.2504064E-01  0.5030543E+03  0.7818609E-02  0.1012985E+00
        2   -1    0    0  501    0  0.00000000000E+00  0.00000000000E+00  0.10570883393E+04  0.10570883393E+04  0.25500000920E-02 0. -1.
       -2   -1    0    0    0  501  0.00000000000E+00  0.00000000000E+00 -0.59849208975E+02  0.59849209029E+02  0.25500000920E-02 0.  1.
    10030    2    1    2    0    0  0.00000000000E+00  0.00000000000E+00  0.99723913032E+03  0.11169375483E+04  0.50305427522E+03 0.  0.
        5    1    3    3  502    0 -0.92758957021E+01 -0.11934327469E+01  0.10566045842E+04  0.10566564266E+04  0.46999998093E+01 0. -1.
       -5    1    3    3    0  502  0.92758957021E+01  0.11934327469E+01 -0.59365453886E+02  0.60281121722E+02  0.46999998093E+01 0.  1.
</event>
<event>
 5   0  0.1448458E-01  0.4958698E+03  0.7818609E-02  0.1014863E+00
        1   -1    0    0  501    0  0.00000000000E+00  0.00000000000E+00  0.44842464282E+03  0.44842464285E+03  0.50400001928E-02 0. -1.
       -1   -1    0    0    0  501  0.00000000000E+00  0.00000000000E+00 -0.13708370320E+03  0.13708370329E+03  0.50400001928E-02 0.  1.
    10030    2    1    2    0    0  0.00000000000E+00  0.00000000000E+00  0.31134093962E+03  0.58550834614E+03  0.49586978403E+03 0.  0.
        5    1    3    3  502    0  0.56055857493E+02  0.22037484330E+03  0.39124846047E+02  0.23078165936E+03  0.46999998093E+01 0.  1.
       -5    1    3    3    0  502 -0.56055857493E+02 -0.22037484330E+03  0.27221609358E+03  0.35472668679E+03  0.46999998093E+01 0. -1.
</event>
<event>
 5   0  0.1413361E-01  0.5094566E+03  0.7818609E-02  0.1011340E+00
        1   -1    0    0  501    0  0.00000000000E+00  0.00000000000E+00  0.25530770891E+03  0.25530770896E+03  0.50400001928E-02 0.  1.
       -1   -1    0    0    0  501  0.00000000000E+00  0.00000000000E+00 -0.25415020659E+03  0.25415020664E+03  0.50400001928E-02 0. -1.
    10030    2    1    2    0    0  0.00000000000E+00  0.00000000000E+00  0.11575023201E+01  0.50945791560E+03  0.50945660066E+03 0.  0.
        3    1    3    3  502    0 -0.39620463700E+02  0.24245176683E+03  0.67912842147E+02  0.25488194270E+03  0.10100000352E+00 0.  1.
       -3    1    3    3    0  502  0.39620463700E+02 -0.24245176683E+03 -0.66755339827E+02  0.25457597291E+03  0.10100000352E+00 0. -1.
</event>
<event>
 5   0  0.9868500E-02  0.5085686E+03  0.7818609E-02  0.1011566E+00
       -3   -1    0    0    0  501  0.00000000000E+00  0.00000000000E+00  0.95773941751E+02  0.95773995006E+02  0.10100000352E+00 0.  1.
        3   -1    0    0  501    0  0.00000000000E+00  0.00000000000E+00 -0.67513634698E+03  0.67513635454E+03  0.10100000352E+00 0. -1.
    10030    2    1    2    0    0  0.00000000000E+00  0.00000000000E+00 -0.57936240523E+03  0.77091034954E+03  0.50856855038E+03 0.  0.
        1    1    3    3  502    0  0.15880335662E+03  0.71540963272E+02 -0.88453536695E+01  0.17439855448E+03  0.50400001928E-02 0.  1.
       -1    1    3    3    0  502 -0.15880335662E+03 -0.71540963272E+02 -0.57051705156E+03  0.59651179506E+03  0.50400001928E-02 0. -1.
</event>
<event>
 5   0  0.2466034E-01  0.4994488E+03  0.7818609E-02  0.1013923E+00
       -2   -1    0    0    0  501  0.00000000000E+00  0.00000000000E+00  0.43508217049E+02  0.43508217124E+02  0.25500000920E-02 0.  1.
        2   -1    0    0  501    0  0.00000000000E+00  0.00000000000E+00 -0.14333447195E+04  0.14333447195E+04  0.25500000920E-02 0. -1.
    10030    2    1    2    0    0  0.00000000000E+00  0.00000000000E+00 -0.13898365025E+04  0.14768529366E+04  0.49944878904E+03 0.  0.
        3    1    3    3  502    0 -0.11913127541E+03  0.10993884248E+03 -0.13322354267E+03  0.20982691055E+03  0.10100000352E+00 0. -1.
       -3    1    3    3    0  502  0.11913127541E+03 -0.10993884248E+03 -0.12566129598E+04  0.12670260261E+04  0.10100000352E+00 0.  1.
</event>
<event>
 5   0  0.1529146E-01  0.4941841E+03  0.7818609E-02  0.1015308E+00
       -1   -1    0    0    0  501  0.00000000000E+00  0.00000000000E+00  0.58221874739E+02  0.58221874957E+02  0.50400001928E-02 0.  1.
        1   -1    0    0  501    0  0.00000000000E+00  0.00000000000E+00 -0.10486520303E+04  0.10486520303E+04  0.50400001928E-02 0. -1.
    10030    2    1    2    0    0  0.00000000000E+00  0.00000000000E+00 -0.99043015560E+03  0.11068739053E+04  0.49418412472E+03 0.  0.
        1    1    3    3  502    0 -0.42205874347E+02 -0.23252703978E+03 -0.65679658527E+03  0.69801999578E+03  0.50400001928E-02 0. -1.
       -1    1    3    3    0  502  0.42205874347E+02  0.23252703978E+03 -0.33363357033E+03  0.40885390953E+03  0.50400001928E-02 0.  1.
</event>
<event>
 5   0  0.1413361E-01  0.5026135E+03  0.7818609E-02  0.1013099E+00
       -1   -1    0    0    0  501  0.00000000000E+00  0.00000000000E+00  0.85677783785E+02  0.85677783933E+02  0.50400001928E-02 0.  1.
        1   -1    0    0  501    0  0.00000000000E+00  0.00000000000E+00 -0.73712330709E+03  0.73712330711E+03  0.50400001928E-02 0. -1.
    10030    2    1    2    0    0  0.00000000000E+00  0.00000000000E+00 -0.65144552330E+03  0.82280109104E+03  0.50261353502E+03 0.  0.
        3    1    3    3  502    0  0.18175266756E+03  0.12365925261E+03 -0.12636964508E+03  0.25356446975E+03  0.10100000352E+00 0.  1.
       -3    1    3    3    0  502 -0.18175266756E+03 -0.12365925261E+03 -0.52507587822E+03  0.56923662129E+03  0.10100000352E+00 0. -1.
</event>
<event>
 5   0  0.1453602E-01  0.5417010E+03  0.7818609E-02  0.1003433E+00
        1   -1    0    0  501    0  0.00000000000E+00  0.00000000000E+00  0.16567921748E+04  0.16567921748E+04  0.50400001928E-02 0.  1.
       -1   -1    0    0    0  501  0.00000000000E+00  0.00000000000E+00 -0.44278330731E+02  0.44278331018E+02  0.50400001928E-02 0. -1.
    10030    2    1    2    0    0  0.00000000000E+00  0.00000000000E+00  0.16125138441E+04  0.17010705058E+04  0.54170099545E+03 0.  0.
        2    1    3    3  502    0 -0.13820561371E+03  0.22495446449E+03  0.99609700507E+03  0.10304923805E+04  0.25500000920E-02 0.  1.
       -2    1    3    3    0  502  0.13820561371E+03 -0.22495446449E+03  0.61641683899E+03  0.67057812531E+03  0.25500000920E-02 0. -1.
</event>
<event>
 5   0  0.1413361E-01  0.5413235E+03  0.7818609E-02  0.1003522E+00
       -1   -1    0    0    0  501  0.00000000000E+00  0.00000000000E+00  0.83241892272E+03  0.83241892274E+03  0.50400001928E-02 0.  1.
        1   -1    0    0  501    0  0.00000000000E+00  0.00000000000E+00 -0.88005899730E+02  0.88005899874E+02  0.50400001928E-02 0. -1.
    10030    2    1    2    0    0  0.00000000000E+00  0.00000000000E+00  0.74441302299E+03  0.92042482261E+03  0.54132347564E+03 0.  0.
        3    1    3    3  502    0  0.14994614572E+03  0.21158715098E+03  0.24044740913E+03  0.35364945333E+03  0.10100000352E+00 0. -1.
       -3    1    3    3    0  502 -0.14994614572E+03 -0.21158715098E+03  0.50396561386E+03  0.56677536928E+03  0.10100000352E+00 0.  1.
</event>
<event>
 5   0  0.2413301E-01  0.4980911E+03  0.7818609E-02  0.1014278E+00
        2   -1    0    0  501    0  0.00000000000E+00  0.00000000000E+00  0.11805780247E+04  0.11805780247E+04  0.25500000920E-02 0.  1.
       -2   -1    0    0    0  501  0.00000000000E+00  0.00000000000E+00 -0.52536712845E+02  0.52536712907E+02  0.25500000920E-02 0. -1.
    10030    2    1    2    0    0  0.00000000000E+00  0.00000000000E+00  0.11280413119E+04  0.12331147376E+04  0.49809111100E+03 0.  0.
        4    1    3    3  502    0  0.10317365723E+03  0.12953033916E+03  0.10245183889E+04  0.10378161949E+04  0.12699999809E+01 0.  1.
       -4    1    3    3    0  502 -0.10317365723E+03 -0.12953033916E+03  0.10352292296E+03  0.19529854272E+03  0.12699999809E+01 0. -1.
</event>
<event>
 5   0  0.2511944E-01  0.4920170E+03  0.7818609E-02  0.1015884E+00
        2   -1    0    0  501    0  0.00000000000E+00  0.00000000000E+00  0.48347684177E+03  0.48347684178E+03  0.25500000920E-02 0.  1.
       -2   -1    0    0    0  501  0.00000000000E+00  0.00000000000E+00 -0.12517698492E+03  0.12517698495E+03  0.25500000920E-02 0. -1.
    10030    2    1    2    0    0  0.00000000000E+00  0.00000000000E+00  0.35829985685E+03  0.60865382673E+03  0.49201696452E+03 0.  0.
        1    1    3    3  502    0 -0.23810281650E+03 -0.36524924679E+02  0.24091808713E+03  0.34068834157E+03  0.50400001928E-02 0. -1.
       -1    1    3    3    0  502  0.23810281650E+03  0.36524924679E+02  0.11738176972E+03  0.26796548516E+03  0.50400001928E-02 0.  1.
</event>
<event>
 5   0  0.1439814E-01  0.4669557E+03  0.7818609E-02  0.1022783E+00
       -1   -1    0    0    0  501  0.00000000000E+00  0.00000000000E+00  0.58825354277E+03  0.58825354279E+03  0.50400001928E-02 0.  1.
        1   -1    0    0  501    0  0.00000000000E+00  0.00000000000E+00 -0.92667379021E+02  0.92667379158E+02  0.50400001928E-02 0. -1.
    10030    2    1    2    0    0  0.00000000000E+00  0.00000000000E+00  0.49558616375E+03  0.68092092195E+03  0.46695573265E+03 0.  0.
        4    1    3    3  502    0 -0.19994690647E+03 -0.14437973701E+02  0.73275500295E+02  0.21344351088E+03  0.12699999809E+01 0. -1.
       -4    1    3    3    0  502  0.19994690647E+03  0.14437973701E+02  0.42231066346E+03  0.46747741107E+03  0.12699999809E+01 0.  1.
</event>
<event>
 5   0  0.2488968E-01  0.4779197E+03  0.7818609E-02  0.1019708E+00
       -2   -1    0    0    0  501  0.00000000000E+00  0.00000000000E+00  0.29754737025E+02  0.29754737134E+02  0.25500000920E-02 0. -1.
        2   -1    0    0  501    0  0.00000000000E+00  0.00000000000E+00 -0.19190829198E+04  0.19190829198E+04  0.25500000920E-02 0.  1.
    10030    2    1    2    0    0  0.00000000000E+00  0.00000000000E+00 -0.18893281828E+04  0.19488376570E+04  0.47791969081E+03 0.  0.
        2    1    3    3  502    0  0.46657040603E+02  0.36212742071E+02 -0.47694471490E+00  0.59063267848E+02  0.25500000920E-02 0. -1.
       -2    1    3    3    0  502 -0.46657040603E+02 -0.36212742071E+02 -0.18888512381E+04  0.18897743891E+04  0.25500000920E-02 0.  1.
</event>
<event>
 5   0  0.1413361E-01  0.4936001E+03  0.7818609E-02  0.1015463E+00
       -1   -1    0    0    0  501  0.00000000000E+00  0.00000000000E+00  0.38872834564E+03  0.38872834568E+03  0.50400001928E-02 0. -1.
        1   -1    0    0  501    0  0.00000000000E+00  0.00000000000E+00 -0.15669108172E+03  0.15669108180E+03  0.50400001928E-02 0.  1.
    10030    2    1    2    0    0  0.00000000000E+00  0.00000000000E+00  0.23203726392E+03  0.54541942748E+03  0.49360010132E+03 0.  0.
        3    1    3    3  502    0  0.74157051720E+02  0.37031354243E+02 -0.14085036402E+03  0.16343018314E+03  0.10100000352E+00 0.  1.
       -3    1    3    3    0  502 -0.74157051720E+02 -0.37031354243E+02  0.37288762794E+03  0.38198924434E+03  0.10100000352E+00 0. -1.
</event>
<event>
 5   0  0.2488968E-01  0.5104943E+03  0.7818609E-02  0.1011075E+00
        2   -1    0    0  501    0  0.00000000000E+00  0.00000000000E+00  0.13195238557E+04  0.13195238557E+04  0.25500000920E-02 0.  1.
       -2   -1    0    0    0  501  0.00000000000E+00  0.00000000000E+00 -0.49374715456E+02  0.49374715522E+02  0.25500000920E-02 0. -1.
    10030    2    1    2    0    0  0.00000000000E+00  0.00000000000E+00  0.12701491403E+04  0.13688985713E+04  0.51049432891E+03 0.  0.
        2    1    3    3  502    0  0.17049606325E+03  0.11819688785E+03  0.10338160766E+04  0.10544264280E+04  0.25500000920E-02 0.  1.
       -2    1    3    3    0  502 -0.17049606325E+03 -0.11819688785E+03  0.23633306372E+03  0.31447214328E+03  0.25500000920E-02 0. -1.
</event>
<event>
 5   0  0.1453602E-01  0.4995021E+03  0.7818609E-02  0.1013909E+00
       -1   -1    0    0    0  501  0.00000000000E+00  0.00000000000E+00  0.11903165932E+03  0.11903165942E+03  0.50400001928E-02 0.  1.
        1   -1    0    0  501    0  0.00000000000E+00  0.00000000000E+00 -0.52402511145E+03  0.52402511147E+03  0.50400001928E-02 0. -1.
    10030    2    1    2    0    0  0.00000000000E+00  0.00000000000E+00 -0.40499345213E+03  0.64305677089E+03  0.49950206638E+03 0.  0.
        2    1    3    3  502    0  0.37710766311E+02  0.37422836766E+02  0.11167267007E+03  0.12366630848E+03  0.25500000920E-02 0.  1.
       -2    1    3    3    0  502 -0.37710766311E+02 -0.37422836766E+02 -0.51666612220E+03  0.51939046241E+03  0.25500000920E-02 0. -1.
</event>
<event>
 5   0  0.1453602E-01  0.4221166E+03  0.7818609E-02  0.1036380E+00
        1   -1    0    0  501    0  0.00000000000E+00  0.00000000000E+00  0.11345294765E+04  0.11345294765E+04  0.50400001928E-02 0. -1.
       -1   -1    0    0    0  501  0.00000000000E+00  0.00000000000E+00 -0.39263504853E+02  0.39263505177E+02  0.50400001928E-02 0.  1.
    10030    2    1    2    0    0  0.00000000000E+00  0.00000000000E+00  0.10952659717E+04  0.11737929817E+04  0.42211658960E+03 0.  0.
        2    1    3    3  502    0  0.71377390061E+02 -0.97457616593E+02  0.66374481534E+02  0.13783428691E+03  0.25500000920E-02 0.  1.
       -2    1    3    3    0  502 -0.71377390061E+02  0.97457616593E+02  0.10288914901E+04  0.10359586948E+04  0.25500000920E-02 0. -1.
</event>
<event>
 5   0  0.1453602E-01  0.5261399E+03  0.7818609E-02  0.1007173E+00
        1   -1    0    0  501    0  0.00000000000E+00  0.00000000000E+00  0.27548723604E+03  0.27548723609E+03  0.50400001928E-02 0.  1.
       -1   -1    0    0    0  501  0.00000000000E+00  0.00000000000E+00 -0.25121231551E+03  0.25121231556E+03  0.50400001928E-02 0. -1.
    10030    2    1    2    0    0  0.00000000000E+00  0.00000000000E+00  0.24274920535E+02  0.52669955164E+03  0.52613985397E+03 0.  0.
        2    1    3    3  502    0 -0.10175693288E+03  0.21453229585E+03 -0.10124028147E+03  0.25812433816E+03  0.25500000920E-02 0. -1.
       -2    1    3    3    0  502  0.10175693288E+03 -0.21453229585E+03  0.12551520200E+03  0.26857521348E+03  0.25500000920E-02 0.  1.
</event>
<event>
 5   0  0.2413301E-01  0.5067525E+03  0.7818609E-02  0.1012031E+00
       -2   -1    0    0    0  501  0.00000000000E+00  0.00000000000E+00  0.64305555507E+02  0.64305555558E+02  0.25500000920E-02 0. -1.
        2   -1    0    0  501    0  0.00000000000E+00  0.00000000000E+00 -0.99835118579E+03  0.99835118579E+03  0.25500000920E-02 0.  1.
    10030    2    1    2    0    0  0.00000000000E+00  0.00000000000E+00 -0.93404563028E+03  0.10626567414E+04  0.50675251404E+03 0.  0.
        4    1    3    3  502    0  0.48307920368E+02  0.21726129569E+03 -0.21310652070E+03  0.30814303146E+03  0.12699999809E+01 0.  1.
       -4    1    3    3    0  502 -0.48307920368E+02 -0.21726129569E+03 -0.72093910959E+03  0.75451370989E+03  0.12699999809E+01 0. -1.
</event>
<event>
 5   0  0.1448458E-01  0.4636568E+03  0.7818609E-02  0.1023726E+00
       -1   -1    0    0    0  501  0.00000000000E+00  0.00000000000E+00  0.19827397376E+03  0.19827397383E+03  0.50400001928E-02 0. -1.
        1   -1    0    0  501    0  0.00000000000E+00  0.00000000000E+00 -0.27106128366E+03  0.27106128371E+03  0.50400001928E-02 0.  1.
    10030    2    1    2    0    0  0.00000000000E+00  0.00000000000E+00 -0.72787309896E+02  0.46933525753E+03  0.46365676042E+03 0.  0.
        5    1    3    3  502    0 -0.10631300562E+03  0.50381488451E+02 -0.23854314213E+03  0.26601817645E+03  0.46999998093E+01 0.  1.
       -5    1    3    3    0  502  0.10631300562E+03 -0.50381488451E+02  0.16575583224E+03  0.20331708109E+03  0.46999998093E+01 0. -1.
</event>
<event>
 5   0  0.2504064E-01  0.5044781E+03  0.7818609E-02  0.1012617E+00
       -2   -1    0    0    0  501  0.00000000000E+00  0.00000000000E+00  0.22726309692E+02  0.22726309835E+02  0.25500000920E-02 0. -1.
        2   -1    0    0  501    0  0.00000000000E+00  0.00000000000E+00 -0.27995987459E+04  0.27995987459E+04  0.25500000920E-02 0.  1.
    10030    2    1    2    0    0  0.00000000000E+00  0.00000000000E+00 -0.27768724362E+04  0.28223250558E+04  0.50447813954E+03 0.  0.
        5    1    3    3  502    0  0.25698956089E+02  0.10146845954E+01  0.15125364954E+02  0.30204843851E+02  0.46999998093E+01 0. -1.
       -5    1    3    3    0  502 -0.25698956089E+02 -0.10146845954E+01 -0.27919978012E+04  0.27921202119E+04  0.46999998093E+01 0.  1.
</event>
<event>
 5   0  0.2504064E-01  0.4701575E+03  0.7818609E-02  0.1021876E+00
       -2   -1    0    0    0  501  0.00000000000E+00  0.00000000000E+00  0.26353548810E+03  0.26353548811E+03  0.25500000920E-02 0.  1.
        2   -1    0    0  501    0  0.00000000000E+00  0.00000000000E+00 -0.20969477470E+03  0.20969477471E+03  0.25500000920E-02 0. -1.
    10030    2    1    2    0    0  0.00000000000E+00  0.00000000000E+00  0.53840713397E+02  0.47323026282E+03  0.47015748344E+03 0.  0.
        5    1    3    3  502    0 -0.59616465011E+02 -0.22681350991E+03  0.42560043060E+02  0.23839450170E+03  0.46999998093E+01 0.  1.
       -5    1    3    3    0  502  0.59616465011E+02  0.22681350991E+03  0.11280670338E+02  0.23483576112E+03  0.46999998093E+01 0. -1.
</event>
<event>
 5   0  0.2413301E-01  0.5087252E+03  0.7818609E-02  0.1011526E+00
        2   -1    0    0  501    0  0.00000000000E+00  0.00000000000E+00  0.16813163421E+03  0.16813163423E+03  0.25500000920E-02 0. -1.
       -2   -1    0    0    0  501  0.00000000000E+00  0.00000000000E+00 -0.38481957763E+03  0.38481957764E+03  0.25500000920E-02 0.  1.
    10030    2    1    2    0    0  0.00000000000E+00  0.00000000000E+00 -0.21668794342E+03  0.55295121187E+03  0.50872524794E+03 0.  0.
        4    1    3    3  502    0 -0.10211259043E+03  0.67082269848E+02  0.13414659285E+03  0.18144953383E+03  0.12699999809E+01 0. -1.
       -4    1    3    3    0  502  0.10211259043E+03 -0.67082269848E+02 -0.35083453627E+03  0.37150167805E+03  0.12699999809E+01 0.  1.
</event>
<event>
 5   0  0.1439814E-01  0.4900362E+03  0.7818609E-02  0.1016413E+00
        1   -1    0    0  501    0  0.00000000000E+00  0.00000000000E+00  0.64725942791E+03  0.64725942793E+03  0.50400001928E-02 0. -1.
       -1   -1    0    0    0  501  0.00000000000E+00  0.00000000000E+00 -0.92750850709E+02  0.92750850846E+02  0.50400001928E-02 0.  1.
    10030    2    1    2    0    0  0.00000000000E+00  0.00000000000E+00  0.55450857720E+03  0.74001027878E+03  0.49003617265E+03 0.  0.
        4    1    3    3  502    0  0.12606725938E+03  0.16342744722E+03  0.77880601298E+02  0.22060935010E+03  0.12699999809E+01 0.  1.
       -4    1    3    3    0  502 -0.12606725938E+03 -0.16342744722E+03  0.47662797590E+03  0.51940092867E+03  0.12699999809E+01 0. -1.
</event>
<event>
 5   0  0.9868500E-02  0.4692744E+03  0.7818609E-02  0.1022125E+00
        4   -1    0    0  501    0  0.00000000000E+00  0.00000000000E+00  0.38595880605E+03  0.38596089551E+03  0.12699999809E+01 0. -1.
       -4   -1    0    0    0  501  0.00000000000E+00  0.00000000000E+00 -0.14263846899E+03  0.14264412268E+03  0.12699999809E+01 0.  1.
    10030    2    1    2    0    0  0.00000000000E+00  0.00000000000E+00  0.24332033706E+03  0.52860501820E+03  0.46927441741E+03 0.  0.
        5    1    3    3  502    0  0.21645479187E+02  0.22892546673E+03  0.69343157178E+02  0.24022064760E+03  0.46999998093E+01 0.  1.
       -5    1    3    3    0  502 -0.21645479187E+02 -0.22892546673E+03  0.17397717988E+03  0.28838437060E+03  0.46999998093E+01 0. -1.
</event>
<event>
 5   0  0.9868500E-02  0.4964732E+03  0.7818609E-02  0.1014704E+00
       -3   -1    0    0    0  501  0.00000000000E+00  0.00000000000E+00  0.11809594527E+03  0.11809598846E+03  0.10100000352E+00 0. -1.
        3   -1    0    0  501    0  0.00000000000E+00  0.00000000000E+00 -0.52179090684E+03  0.52179091662E+03  0.10100000352E+00 0.  1.
    10030    2    1    2    0    0  0.00000000000E+00  0.00000000000E+00 -0.40369496157E+03  0.63988690508E+03  0.49647319091E+03 0.  0.
        2    1    3    3  502    0  0.12053855809E+03 -0.73006754456E+02  0.61541393640E+02  0.15377539894E+03  0.25500000920E-02 0. -1.
       -2    1    3    3    0  502 -0.12053855809E+03  0.73006754456E+02 -0.46523635521E+03  0.48611150614E+03  0.25500000920E-02 0.  1.
</event>
<event>
 5   0  0.2488968E-01  0.5163299E+03  0.7818609E-02  0.1009602E+00
        2   -1    0    0  501    0  0.00000000000E+00  0.00000000000E+00  0.28477768696E+03  0.28477768697E+03  0.25500000920E-02 0.  1.
       -2   -1    0    0    0  501  0.00000000000E+00  0.00000000000E+00 -0.23403923825E+03  0.23403923827E+03  0.25500000920E-02 0. -1.
    10030    2    1    2    0    0  0.00000000000E+00  0.00000000000E+00  0.50738448703E+02  0.51881692523E+03  0.51632994464E+03 0.  0.
        2    1    3    3  502    0  0.19128633899E+03  0.15186294848E+02 -0.14817068635E+03  0.24243687702E+03  0.25500000920E-02 0. -1.
       -2    1    3    3    0  502 -0.19128633899E+03 -0.15186294848E+02  0.19890913505E+03  0.27638004822E+03  0.25500000920E-02 0.  1.
</event>
<event>
 5   0  0.1453602E-01  0.6629351E+03  0.7818609E-02  0.9782806E-01
        1   -1    0    0  501    0  0.00000000000E+00  0.00000000000E+00  0.53882957364E+03  0.53882957367E+03  0.50400001928E-02 0. -1.
       -1   -1    0    0    0  501  0.00000000000E+00  0.00000000000E+00 -0.20390627296E+03  0.20390627302E+03  0.50400001928E-02 0.  1.
    10030    2    1    2    0    0  0.00000000000E+00  0.00000000000E+00  0.33492330069E+03  0.74273584669E+03  0.66293508024E+03 0.  0.
        2    1    3    3  502    0 -0.71996767207E+00  0.25263791487E+03 -0.72947670330E+02  0.26295968702E+03  0.25500000920E-02 0.  1.
       -2    1    3    3    0  502  0.71996767207E+00 -0.25263791487E+03  0.40787097102E+03  0.47977615967E+03  0.25500000920E-02 0. -1.
</event>
<event>
 5   0  0.2466034E-01  0.5212256E+03  0.7818609E-02  0.1008383E+00
        2   -1    0    0  501    0  0.00000000000E+00  0.00000000000E+00  0.36176304849E+03  0.36176304850E+03  0.25500000920E-02 0. -1.
       -2   -1    0    0    0  501  0.00000000000E+00  0.00000000000E+00 -0.18774455580E+03  0.18774455582E+03  0.25500000920E-02 0.  1.
    10030    2    1    2    0    0  0.00000000000E+00  0.00000000000E+00  0.17401849269E+03  0.54950760431E+03  0.52122564346E+03 0.  0.
        3    1    3    3  502    0 -0.53392067574E+02 -0.20886366221E+03  0.24139377361E+03  0.32364441353E+03  0.10100000352E+00 0. -1.
       -3    1    3    3    0  502  0.53392067574E+02  0.20886366221E+03 -0.67375280921E+02  0.22586319078E+03  0.10100000352E+00 0.  1.
</event>
<event>
 5   0  0.2504064E-01  0.4993197E+03  0.7818609E-02  0.1013957E+00
        2   -1    0    0  501    0  0.00000000000E+00  0.00000000000E+00  0.31939102757E+03  0.31939102758E+03  0.25500000920E-02 0.  1.
       -2   -1    0    0    0  501  0.00000000000E+00  0.00000000000E+00 -0.19515276940E+03  0.19515276942E+03  0.25500000920E-02 0. -1.
    10030    2    1    2    0    0  0.00000000000E+00  0.00000000000E+00  0.12423825816E+03  0.51454379700E+03  0.49931971145E+03 0.  0.
        5    1    3    3  502    0 -0.15879186398E+03 -0.10730058739E+03  0.22693202938E+03  0.29706650447E+03  0.46999998093E+01 0.  1.
       -5    1    3    3    0  502  0.15879186398E+03  0.10730058739E+03 -0.10269377122E+03  0.21747729253E+03  0.46999998093E+01 0. -1.
</event>
<event>
 5   0  0.1448458E-01  0.5542441E+03  0.7818609E-02  0.1000516E+00
       -1   -1    0    0    0  501  0.00000000000E+00  0.00000000000E+00  0.95161371172E+02  0.95161371306E+02  0.50400001928E-02 0. -1.
        1   -1    0    0  501    0  0.00000000000E+00  0.00000000000E+00 -0.80701470566E+03  0.80701470567E+03  0.50400001928E-02 0.  1.
    10030    2    1    2    0    0  0.00000000000E+00  0.00000000000E+00 -0.71185333448E+03  0.90217607698E+03  0.55424408346E+03 0.  0.
        5    1    3    3  502    0 -0.19766406198E+03 -0.10609479278E+03 -0.91209980346E+02  0.24221588917E+03  0.46999998093E+01 0. -1.
       -5    1    3    3    0  502  0.19766406198E+03  0.10609479278E+03 -0.62064335414E+03  0.65996018780E+03  0.46999998093E+01 0.  1.
</event>
<event>
 5   0  0.1413361E-01  0.5287092E+03  0.7818609E-02  0.1006546E+00
        1   -1    0    0  501    0  0.00000000000E+00  0.00000000000E+00  0.11501014893E+04  0.11501014893E+04  0.50400001928E-02 0. -1.
       -1   -1    0    0    0  501  0.00000000000E+00  0.00000000000E+00 -0.60762763170E+02  0.60762763379E+02  0.50400001928E-02 0.  1.
    10030    2    1    2    0    0  0.00000000000E+00  0.00000000000E+00  0.10893387261E+04  0.12108642527E+04  0.52870916220E+03 0.  0.
        3    1    3    3  502    0 -0.60750663992E+02 -0.25561909308E+03  0.47783667841E+03  0.54530694600E+03  0.10100000352E+00 0.  1.
       -3    1    3    3    0  502  0.60750663992E+02  0.25561909308E+03  0.61150204774E+03  0.66555730670E+03  0.10100000352E+00 0. -1.
</event>
<event>
 5   0  0.2466034E-01  0.5032219E+03  0.7818609E-02  0.1012941E+00
        2   -1    0    0  501    0  0.00000000000E+00  0.00000000000E+00  0.46529131938E+03  0.46529131939E+03  0.25500000920E-02 0. -1.
       -2   -1    0    0    0  501  0.00000000000E+00  0.00000000000E+00 -0.13606113621E+03  0.13606113624E+03  0.25500000920E-02 0.  1.
    10030    2    1    2    0    0  0.00000000000E+00  0.00000000000E+00  0.32923018317E+03  0.60135245563E+03  0.50322188186E+03 0.  0.
        3    1    3    3  502    0 -0.95729834794E+02  0.24455187003E+02 -0.11190855074E+03  0.14928426364E+03  0.10100000352E+00 0.  1.
       -3    1    3    3    0  502  0.95729834794E+02 -0.24455187003E+02  0.44113873392E+03  0.45206819198E+03  0.10100000352E+00 0. -1.
</event>
<event>
 5   0  0.2511944E-01  0.5739145E+03  0.7818609E-02  0.9961054E-01
        2   -1    0    0  501    0  0.00000000000E+00  0.00000000000E+00  0.76357997066E+03  0.76357997066E+03  0.25500000920E-02 0. -1.
       -2   -1    0    0    0  501  0.00000000000E+00  0.00000000000E+00 -0.10784001401E+03  0.10784001404E+03  0.25500000920E-02 0.  1.
    10030    2    1    2    0    0  0.00000000000E+00  0.00000000000E+00  0.65573995665E+03  0.87141998470E+03  0.57391453979E+03 0.  0.
        1    1    3    3  502    0 -0.67037192943E+02 -0.24169997870E+03  0.53952797358E+03  0.59498176379E+03  0.50400001928E-02 0. -1.
       -1    1    3    3    0  502  0.67037192943E+02  0.24169997870E+03  0.11621198307E+03  0.27643822090E+03  0.50400001928E-02 0.  1.
</event>
<event>
 5   0  0.2511944E-01  0.4998031E+03  0.7818609E-02  0.1013830E+00
       -2   -1    0    0    0  501  0.00000000000E+00  0.00000000000E+00  0.41885504458E+02  0.41885504536E+02  0.25500000920E-02 0. -1.
        2   -1    0    0  501    0  0.00000000000E+00  0.00000000000E+00 -0.14909879452E+04  0.14909879452E+04  0.25500000920E-02 0.  1.
    10030    2    1    2    0    0  0.00000000000E+00  0.00000000000E+00 -0.14491024407E+04  0.15328734497E+04  0.49980309037E+03 0.  0.
        1    1    3    3  502    0 -0.12783290882E+03 -0.40249641310E+02 -0.77652773952E+02  0.15489105697E+03  0.50400001928E-02 0. -1.
       -1    1    3    3    0  502  0.12783290882E+03  0.40249641310E+02 -0.13714496668E+04  0.13779823928E+04  0.50400001928E-02 0.  1.
</event>
<event>
 5   0  0.2488968E-01  0.4898361E+03  0.7818609E-02  0.1016466E+00
       -2   -1    0    0    0  501  0.00000000000E+00  0.00000000000E+00  0.28772059462E+02  0.28772059575E+02  0.25500000920E-02 0.  1.
        2   -1    0    0  501    0  0.00000000000E+00  0.00000000000E+00 -0.20848301977E+04  0.20848301977E+04  0.25500000920E-02 0. -1.
    10030    2    1    2    0    0  0.00000000000E+00  0.00000000000E+00 -0.20560581383E+04  0.21136022573E+04  0.48983612990E+03 0.  0.
        2    1    3    3  502    0 -0.11924525004E+03  0.50892154982E+02 -0.19246125264E+04  0.19289745509E+04  0.25500000920E-02 0. -1.
       -2    1    3    3    0  502  0.11924525004E+03 -0.50892154982E+02 -0.13144561181E+03  0.18462770638E+03  0.25500000920E-02 0.  1.
</event>
<event>
 5   0  0.1529146E-01  0.4629452E+03  0.7818609E-02  0.1023930E+00
        1   -1    0    0  501    0  0.00000000000E+00  0.00000000000E+00  0.14824476521E+04  0.14824476521E+04  0.50400001928E-02 0.  1.
       -1   -1    0    0    0  501  0.00000000000E+00  0.00000000000E+00 -0.36142632156E+02  0.36142632508E+02  0.50400001928E-02 0. -1.
    10030    2    1    2    0    0  0.00000000000E+00  0.00000000000E+00  0.14463050199E+04  0.15185902846E+04  0.46294518230E+03 0.  0.
        1    1    3    3  502    0  0.98933193152E+02  0.19167134187E+03  0.99865472500E+03  0.10216833853E+04  0.50400001928E-02 0.  1.
       -1    1    3    3    0  502 -0.98933193152E+02 -0.19167134187E+03  0.44765029493E+03  0.49690689930E+03  0.50400001928E-02 0. -1.
</event>
<event>
 5   0  0.2511944E-01  0.5045634E+03  0.7818609E-02  0.1012595E+00
        2   -1    0    0  501    0  0.00000000000E+00  0.00000000000E+00  0.19869644579E+03  0.19869644580E+03  0.25500000920E-02 0. -1.
       -2   -1    0    0    0  501  0.00000000000E+00  0.00000000000E+00 -0.32031801609E+03  0.32031801610E+03  0.25500000920E-02 0.  1.
    10030    2    1    2    0    0  0.00000000000E+00  0.00000000000E+00 -0.12162157030E+03  0.51901446191E+03  0.50456338086E+03 0.  0.
        1    1    3    3  502    0 -0.75717142287E+02  0.29038737636E+02  0.18492397426E+03  0.20192377324E+03  0.50400001928E-02 0. -1.
       -1    1    3    3    0  502  0.75717142287E+02 -0.29038737636E+02 -0.30654554456E+03  0.31709068866E+03  0.50400001928E-02 0.  1.
</event>
<event>
 5   0  0.2413301E-01  0.5008487E+03  0.7818609E-02  0.1013558E+00
       -2   -1    0    0    0  501  0.00000000000E+00  0.00000000000E+00  0.13718411795E+03  0.13718411798E+03  0.25500000920E-02 0.  1.
        2   -1    0    0  501    0  0.00000000000E+00  0.00000000000E+00 -0.45714003666E+03  0.45714003667E+03  0.25500000920E-02 0. -1.
    10030    2    1    2    0    0  0.00000000000E+00  0.00000000000E+00 -0.31995591871E+03  0.59432415465E+03  0.50084869060E+03 0.  0.
        4    1    3    3  502    0 -0.10679213953E+03  0.46805319909E+02  0.10300394234E+03  0.15558510236E+03  0.12699999809E+01 0.  1.
       -4    1    3    3    0  502  0.10679213953E+03 -0.46805319909E+02 -0.42295986105E+03  0.43873905229E+03  0.12699999809E+01 0. -1.
</event>
<event>
 5   0  0.2466034E-01  0.4960802E+03  0.7818609E-02  0.1014807E+00
       -2   -1    0    0    0  501  0.00000000000E+00  0.00000000000E+00  0.24829250082E+02  0.24829250213E+02  0.25500000920E-02 0.  1.
        2   -1    0    0  501    0  0.00000000000E+00  0.00000000000E+00 -0.24778798864E+04  0.24778798864E+04  0.25500000920E-02 0. -1.
    10030    2    1    2    0    0  0.00000000000E+00  0.00000000000E+00 -0.24530506363E+04  0.25027091366E+04  0.49608023358E+03 0.  0.
        3    1    3    3  502    0 -0.11872062198E+03  0.11821502935E+03 -0.30377162200E+03  0.34691005719E+03  0.10100000352E+00 0.  1.
       -3    1    3    3    0  502  0.11872062198E+03 -0.11821502935E+03 -0.21492790143E+04  0.21557990794E+04  0.10100000352E+00 0. -1.
</event>
<event>
 5   0  0.1413361E-01  0.5076815E+03  0.7818609E-02  0.1011793E+00
       -1   -1    0    0    0  501  0.00000000000E+00  0.00000000000E+00  0.30750300068E+03  0.30750300072E+03  0.50400001928E-02 0. -1.
        1   -1    0    0  501    0  0.00000000000E+00  0.00000000000E+00 -0.20954306105E+03  0.20954306111E+03  0.50400001928E-02 0.  1.
    10030    2    1    2    0    0  0.00000000000E+00  0.00000000000E+00  0.97959939626E+02  0.51704606183E+03  0.50768147522E+03 0.  0.
        3    1    3    3  502    0  0.20540986987E+02  0.11312581066E+03  0.27946334013E+03  0.30219058533E+03  0.10100000352E+00 0. -1.
       -3    1    3    3    0  502 -0.20540986987E+02 -0.11312581066E+03 -0.18150340051E+03  0.21485547650E+03  0.10100000352E+00 0.  1.
</event>
<event>
 5   0  0.9868500E-02  0.4907668E+03  0.7818609E-02  0.1016217E+00
        4   -1    0    0  501    0  0.00000000000E+00  0.00000000000E+00  0.85360544331E+02  0.85369991381E+02  0.12699999809E+01 0. -1.
       -4   -1    0    0    0  501  0.00000000000E+00  0.00000000000E+00 -0.70534740005E+03  0.70534854338E+03  0.12699999809E+01 0.  1.
    10030    2    1    2    0    0  0.00000000000E+00  0.00000000000E+00 -0.61998685572E+03  0.79071853476E+03  0.49076684888E+03 0.  0.
        1    1    3    3  502    0 -0.92156759301E+02  0.13565056468E+03 -0.60409219730E+03  0.62595632983E+03  0.50400001928E-02 0.  1.
       -1    1    3    3    0  502  0.92156759301E+02 -0.13565056468E+03 -0.15894658413E+02  0.16476220494E+03  0.50400001928E-02 0. -1.
</event>
<event>
 5   0  0.2511944E-01  0.5194391E+03  0.7818609E-02  0.1008826E+00
       -2   -1    0    0    0  501  0.00000000000E+00  0.00000000000E+00  0.85503454987E+02  0.85503455025E+02  0.25500000920E-02 0. -1.
        2   -1    0    0  501    0  0.00000000000E+00  0.00000000000E+00 -0.78890669998E+03  0.78890669998E+03  0.25500000920E-02 0.  1.
    10030    2    1    2    0    0  0.00000000000E+00  0.00000000000E+00 -0.70340324499E+03  0.87441015501E+03  0.51943911493E+03 0.  0.
        1    1    3    3  502    0 -0.61768423296E+02 -0.20000597930E+03 -0.61050640538E+03  0.64539584823E+03  0.50400001928E-02 0.  1.
       -1    1    3    3    0  502  0.61768423296E+02  0.20000597930E+03 -0.92896839608E+02  0.22901430678E+03  0.50400001928E-02 0. -1.
</event>
<event>
 5   0  0.9868500E-02  0.5011659E+03  0.7818609E-02  0.1013475E+00
        3   -1    0    0  501    0  0.00000000000E+00  0.00000000000E+00  0.16370657101E+03  0.16370660217E+03  0.10100000352E+00 0. -1.
       -3   -1    0    0    0  501  0.00000000000E+00  0.00000000000E+00 -0.38356306971E+03  0.38356308301E+03  0.10100000352E+00 0.  1.
    10030    2    1    2    0    0  0.00000000000E+00  0.00000000000E+00 -0.21985649870E+03  0.54726968518E+03  0.50116586904E+03 0.  0.
        5    1    3    3  502    0  0.16736191034E+03 -0.28694332495E+02 -0.31109325228E+03  0.35444953853E+03  0.46999998093E+01 0.  1.
       -5    1    3    3    0  502 -0.16736191034E+03  0.28694332495E+02  0.91236753580E+02  0.19282014665E+03  0.46999998093E+01 0. -1.
</event>
<event>
 5   0  0.2413301E-01  0.4629301E+03  0.7818609E-02  0.1023935E+00
        2   -1    0    0  501    0  0.00000000000E+00  0.00000000000E+00  0.48339419785E+03  0.48339419786E+03  0.25500000920E-02 0.  1.
       -2   -1    0    0    0  501  0.00000000000E+00  0.00000000000E+00 -0.11083309079E+03  0.11083309082E+03  0.25500000920E-02 0. -1.
    10030    2    1    2    0    0  0.00000000000E+00  0.00000000000E+00  0.37256110706E+03  0.59422728868E+03  0.46293011580E+03 0.  0.
        4    1    3    3  502    0  0.20632434476E+03  0.52867627671E+02  0.30258647545E+03  0.37003365972E+03  0.12699999809E+01 0.  1.
       -4    1    3    3    0  502 -0.20632434476E+03 -0.52867627671E+02  0.69974631609E+02  0.22419362896E+03  0.12699999809E+01 0. -1.
</event>
<event>
 5   0  0.2466034E-01  0.4648683E+03  0.7818609E-02  0.1023379E+00
        2   -1    0    0  501    0  0.00000000000E+00  0.00000000000E+00  0.11996743734E+03  0.11996743737E+03  0.25500000920E-02 0. -1.
       -2   -1    0    0    0  501  0.00000000000E+00  0.00000000000E+00 -0.45033574782E+03  0.45033574783E+03  0.25500000920E-02 0.  1.
    10030    2    1    2    0    0  0.00000000000E+00  0.00000000000E+00 -0.33036831048E+03  0.57030318520E+03  0.46486826358E+03 0.  0.
        3    1    3    3  502    0  0.21062973169E+03  0.34679442180E-01 -0.44602600514E+02  0.21530045808E+03  0.10100000352E+00 0. -1.
       -3    1    3    3    0  502 -0.21062973169E+03 -0.34679442180E-01 -0.28576570996E+03  0.35500272712E+03  0.10100000352E+00 0.  1.
</event>
<event>
 5   0  0.1529146E-01  0.5123920E+03  0.7818609E-02  0.1010594E+00
       -1   -1    0    0    0  501  0.00000000000E+00  0.00000000000E+00  0.81320785178E+03  0.81320785179E+03  0.50400001928E-02 0.  1.
        1   -1    0    0  501    0  0.00000000000E+00  0.00000000000E+00 -0.80712939119E+02  0.80712939276E+02  0.50400001928E-02 0. -1.
    10030    2    1    2    0    0  0.00000000000E+00  0.00000000000E+00  0.73249491266E+03  0.89392079107E+03  0.51239202144E+03 0.  0.
        1    1    3    3  502    0  0.21710840970E+03  0.46962877536E+02  0.58894811223E+03  0.62944535295E+03  0.50400001928E-02 0.  1.
       -1    1    3    3    0  502 -0.21710840970E+03 -0.46962877536E+02  0.14354680043E+03  0.26447543812E+03  0.50400001928E-02 0. -1.
</event>
<event>
 5   0  0.2488968E-01  0.4937684E+03  0.7818609E-02  0.1015418E+00
       -2   -1    0    0    0  501  0.00000000000E+00  0.00000000000E+00  0.26930014220E+03  0.26930014221E+03  0.25500000920E-02 0. -1.
        2   -1    0    0  501    0  0.00000000000E+00  0.00000000000E+00 -0.22633407583E+03  0.22633407584E+03  0.25500000920E-02 0.  1.
    10030    2    1    2    0    0  0.00000000000E+00  0.00000000000E+00  0.42966066367E+02  0.49563421805E+03  0.49376836193E+03 0.  0.
        2    1    3    3  502    0  0.19867908125E+03  0.37137680609E+02  0.16379045859E+03  0.26015360651E+03  0.25500000920E-02 0. -1.
       -2    1    3    3    0  502 -0.19867908125E+03 -0.37137680609E+02 -0.12082439222E+03  0.23548061154E+03  0.25500000920E-02 0.  1.
</event>
<event>
 5   0  0.1439814E-01  0.4102536E+03  0.7818609E-02  0.1040286E+00
       -1   -1    0    0    0  501  0.00000000000E+00  0.00000000000E+00  0.15736267815E+03  0.15736267823E+03  0.50400001928E-02 0.  1.
        1   -1    0    0  501    0  0.00000000000E+00  0.00000000000E+00 -0.26738867950E+03  0.26738867955E+03  0.50400001928E-02 0. -1.
    10030    2    1    2    0    0  0.00000000000E+00  0.00000000000E+00 -0.11002600135E+03  0.42475135779E+03  0.41025357399E+03 0.  0.
        4    1    3    3  502    0  0.77263443148E+02 -0.15933056947E+03 -0.16220687984E+03  0.24014277999E+03  0.12699999809E+01 0. -1.
       -4    1    3    3    0  502 -0.77263443148E+02  0.15933056947E+03  0.52180878492E+02  0.18460857779E+03  0.12699999809E+01 0.  1.
</event>
<event>
 5   0  0.1453602E-01  0.5096982E+03  0.7818609E-02  0.1011278E+00
       -1   -1    0    0    0  501  0.00000000000E+00  0.00000000000E+00  0.11356074061E+03  0.11356074072E+03  0.50400001928E-02 0.  1.
        1   -1    0    0  501    0  0.00000000000E+00  0.00000000000E+00 -0.57192364629E+03  0.57192364632E+03  0.50400001928E-02 0. -1.
    10030    2    1    2    0    0  0.00000000000E+00  0.00000000000E+00 -0.45836290568E+03  0.68548438704E+03  0.50969823578E+03 0.  0.
        2    1    3    3  502    0  0.43772462301E+02  0.57357696723E+02  0.99537557938E+02  0.12293762352E+03  0.25500000920E-02 0.  1.
       -2    1    3    3    0  502 -0.43772462301E+02 -0.57357696723E+02 -0.55790046362E+03  0.56254676352E+03  0.25500000920E-02 0. -1.
</event>
<event>
 5   0  0.2504064E-01  0.5052665E+03  0.7818609E-02  0.1012413E+00
        2   -1    0    0  501    0  0.00000000000E+00  0.00000000000E+00  0.62694235660E+03  0.62694235661E+03  0.25500000920E-02 0. -1.
       -2   -1    0    0    0  501  0.00000000000E+00  0.00000000000E+00 -0.10180133874E+03  0.10180133877E+03  0.25500000920E-02 0.  1.
    10030    2    1    2    0    0  0.00000000000E+00  0.00000000000E+00  0.52514101786E+03  0.72874369538E+03  0.50526654839E+03 0.  0.
        5    1    3    3  502    0  0.51930848015E+02 -0.29245566503E+02  0.61659271298E+03  0.61948428538E+03  0.46999998093E+01 0. -1.
       -5    1    3    3    0  502 -0.51930848015E+02  0.29245566503E+02 -0.91451695118E+02  0.10925941000E+03  0.46999998093E+01 0.  1.
</event>
<event>
 5   0  0.1529146E-01  0.4954361E+03  0.7818609E-02  0.1014977E+00
       -1   -1    0    0    0  501  0.00000000000E+00  0.00000000000E+00  0.23495150818E+03  0.23495150824E+03  0.50400001928E-02 0.  1.
        1   -1    0    0  501    0  0.00000000000E+00  0.00000000000E+00 -0.26117827331E+03  0.26117827336E+03  0.50400001928E-02 0. -1.
    10030    2    1    2    0    0  0.00000000000E+00  0.00000000000E+00 -0.26226765131E+02  0.49612978160E+03  0.49543608768E+03 0.  0.
        1    1    3    3  502    0 -0.41481008392E+02 -0.22796857624E+03 -0.10083674268E+03  0.25270218541E+03  0.50400001928E-02 0. -1.
       -1    1    3    3    0  502  0.41481008392E+02  0.22796857624E+03  0.74609977545E+02  0.24342759619E+03  0.50400001928E-02 0.  1.
</event>
<event>
 5   0  0.2413301E-01  0.5011743E+03  0.7818609E-02  0.1013473E+00
       -2   -1    0    0    0  501  0.00000000000E+00  0.00000000000E+00  0.16814391074E+03  0.16814391076E+03  0.25500000920E-02 0.  1.
        2   -1    0    0  501    0  0.00000000000E+00  0.00000000000E+00 -0.37345347604E+03  0.37345347605E+03  0.25500000920E-02 0. -1.
    10030    2    1    2    0    0  0.00000000000E+00  0.00000000000E+00 -0.20530956530E+03  0.54159738681E+03  0.50117433274E+03 0.  0.
        4    1    3    3  502    0 -0.62245871688E+02 -0.21035233001E+02 -0.36397554396E+03  0.36986056707E+03  0.12699999809E+01 0. -1.
       -4    1    3    3    0  502  0.62245871688E+02  0.21035233001E+02  0.15866597866E+03  0.17173681974E+03  0.12699999809E+01 0.  1.
</event>
<event>
 5   0  0.1448458E-01  0.5211220E+03  0.7818609E-02  0.1008408E+00
       -1   -1    0    0    0  501  0.00000000000E+00  0.00000000000E+00  0.17271726708E+03  0.17271726716E+03  0.50400001928E-02 0.  1.
        1   -1    0    0  501    0  0.00000000000E+00  0.00000000000E+00 -0.39308193164E+03  0.39308193167E+03  0.50400001928E-02 0. -1.
    10030    2    1    2    0    0  0.00000000000E+00  0.00000000000E+00 -0.22036466455E+03  0.56579919883E+03  0.52112200876E+03 0.  0.
        5    1    3    3  502    0  0.17284239488E+02  0.25581937707E+03 -0.16026331496E+03  0.30240489205E+03  0.46999998093E+01 0. -1.
       -5    1    3    3    0  502 -0.17284239488E+02 -0.25581937707E+03 -0.60101349595E+02  0.26339430677E+03  0.46999998093E+01 0.  1.
</event>
<event>
 5   0  0.2466034E-01  0.4966498E+03  0.7818609E-02  0.1014657E+00
        2   -1    0    0  501    0  0.00000000000E+00  0.00000000000E+00  0.63353629765E+03  0.63353629765E+03  0.25500000920E-02 0. -1.
       -2   -1    0    0    0  501  0.00000000000E+00  0.00000000000E+00 -0.97334983191E+02  0.97334983225E+02  0.25500000920E-02 0.  1.
    10030    2    1    2    0    0  0.00000000000E+00  0.00000000000E+00  0.53620131446E+03  0.73087128088E+03  0.49664975545E+03 0.  0.
        3    1    3    3  502    0 -0.21994852747E+03  0.11434235460E+03  0.28961355593E+03  0.38121850791E+03  0.10100000352E+00 0.  1.
       -3    1    3    3    0  502  0.21994852747E+03 -0.11434235460E+03  0.24658775853E+03  0.34965277297E+03  0.10100000352E+00 0. -1.
</event>
<event>
 5   0  0.2504064E-01  0.4985636E+03  0.7818609E-02  0.1014155E+00
       -2   -1    0    0    0  501  0.00000000000E+00  0.00000000000E+00  0.36628040057E+02  0.36628040146E+02  0.25500000920E-02 0. -1.
        2   -1    0    0  501    0  0.00000000000E+00  0.00000000000E+00 -0.16965530970E+04  0.16965530970E+04  0.25500000920E-02 0.  1.
    10030    2    1    2    0    0  0.00000000000E+00  0.00000000000E+00 -0.16599250570E+04  0.17331811372E+04  0.49856359625E+03 0.  0.
        5    1    3    3  502    0  0.13385926434E+03  0.61050190303E+01 -0.99401728040E+02  0.16690826055E+03  0.46999998093E+01 0. -1.
       -5    1    3    3    0  502 -0.13385926434E+03 -0.61050190303E+01 -0.15605233289E+04  0.15662728766E+04  0.46999998093E+01 0.  1.
</event>
<event>
 5   0  0.1413361E-01  0.4767140E+03  0.7818609E-02  0.1020042E+00
       -1   -1    0    0    0  501  0.00000000000E+00  0.00000000000E+00  0.63293899871E+02  0.63293900071E+02  0.50400001928E-02 0. -1.
        1   -1    0    0  501    0  0.00000000000E+00  0.00000000000E+00 -0.89762314986E+03  0.89762314987E+03  0.50400001928E-02 0.  1.
    10030    2    1    2    0    0  0.00000000000E+00  0.00000000000E+00 -0.83432924999E+03  0.96091704994E+03  0.47671404373E+03 0.  0.
        3    1    3    3  502    0  0.34240230930E+02 -0.32602777245E+02 -0.88807650500E+03  0.88933414611E+03  0.10100000352E+00 0.  1.
       -3    1    3    3    0  502 -0.34240230930E+02  0.32602777245E+02  0.53747255017E+02  0.71582903832E+02  0.10100000352E+00 0. -1.
</event>
<event>
 5   0  0.2488968E-01  0.4993098E+03  0.7818609E-02  0.1013959E+00
        2   -1    0    0  501    0  0.00000000000E+00  0.00000000000E+00  0.84713789786E+03  0.84713789786E+03  0.25500000920E-02 0. -1.
       -2   -1    0    0    0  501  0.00000000000E+00  0.00000000000E+00 -0.73574302498E+02  0.73574302542E+02  0.25500000920E-02 0.  1.
    10030    2    1    2    0    0  0.00000000000E+00  0.00000000000E+00  0.77356359536E+03  0.92071220040E+03  0.49930984359E+03 0.  0.
        2    1    3    3  502    0  0.16267418189E+03 -0.12972228957E+03  0.64120162306E+03  0.67411444376E+03  0.25500000920E-02 0. -1.
       -2    1    3    3    0  502 -0.16267418189E+03  0.12972228957E+03  0.13236197230E+03  0.24659775665E+03  0.25500000920E-02 0.  1.
</event>
<event>
 5   0  0.2413301E-01  0.4998943E+03  0.7818609E-02  0.1013806E+00
        2   -1    0    0  501    0  0.00000000000E+00  0.00000000000E+00  0.12451311669E+04  0.12451311669E+04  0.25500000920E-02 0. -1.
       -2   -1    0    0    0  501  0.00000000000E+00  0.00000000000E+00 -0.50174301348E+02  0.50174301413E+02  0.25500000920E-02 0.  1.
    10030    2    1    2    0    0  0.00000000000E+00  0.00000000000E+00  0.11949568655E+04  0.12953054683E+04  0.49989433454E+03 0.  0.
        4    1    3    3  502    0 -0.18079981904E+03  0.15887130040E+03  0.77213306776E+03  0.80877670088E+03  0.12699999809E+01 0. -1.
       -4    1    3    3    0  502  0.18079981904E+03 -0.15887130040E+03  0.42282379775E+03  0.48652876739E+03  0.12699999809E+01 0.  1.
</event>
<event>
 5   0  0.2413301E-01  0.4901096E+03  0.7818609E-02  0.1016393E+00
        2   -1    0    0  501    0  0.00000000000E+00  0.00000000000E+00  0.58413437492E+03  0.58413437492E+03  0.25500000920E-02 0. -1.
       -2   -1    0    0    0  501  0.00000000000E+00  0.00000000000E+00 -0.10280485689E+03  0.10280485692E+03  0.25500000920E-02 0.  1.
    10030    2    1    2    0    0  0.00000000000E+00  0.00000000000E+00  0.48132951803E+03  0.68693923185E+03  0.49010958298E+03 0.  0.
        4    1    3    3  502    0 -0.17234173554E+03  0.13019222356E+03  0.78426225871E+02  0.22979115451E+03  0.12699999809E+01 0.  1.
       -4    1    3    3    0  502  0.17234173554E+03 -0.13019222356E+03  0.40290329216E+03  0.45714807734E+03  0.12699999809E+01 0. -1.
</event>
<event>
 5   0  0.1453602E-01  0.5123056E+03  0.7818609E-02  0.1010616E+00
        1   -1    0    0  501    0  0.00000000000E+00  0.00000000000E+00  0.25351812791E+03  0.25351812796E+03  0.50400001928E-02 0.  1.
       -1   -1    0    0    0  501  0.00000000000E+00  0.00000000000E+00 -0.25881483087E+03  0.25881483092E+03  0.50400001928E-02 0. -1.
    10030    2    1    2    0    0  0.00000000000E+00  0.00000000000E+00 -0.52967029619E+01  0.51233295887E+03  0.51230557842E+03 0.  0.
        2    1    3    3  502    0  0.24039302413E+03  0.43272517880E+02  0.74511034823E+02  0.25536877485E+03  0.25500000920E-02 0.  1.
       -2    1    3    3    0  502 -0.24039302413E+03 -0.43272517880E+02 -0.79807737785E+02  0.25696418402E+03  0.25500000920E-02 0. -1.
</event>
<event>
 5   0  0.1413361E-01  0.4964754E+03  0.7818609E-02  0.1014703E+00
       -1   -1    0    0    0  501  0.00000000000E+00  0.00000000000E+00  0.51409300564E+03  0.51409300566E+03  0.50400001928E-02 0.  1.
        1   -1    0    0  501    0  0.00000000000E+00  0.00000000000E+00 -0.11986538840E+03  0.11986538851E+03  0.50400001928E-02 0. -1.
    10030    2    1    2    0    0  0.00000000000E+00  0.00000000000E+00  0.39422761723E+03  0.63395839417E+03  0.49647540861E+03 0.  0.
        3    1    3    3  502    0  0.22175189481E+03  0.88722814130E+02  0.28349527896E+03  0.37069559479E+03  0.10100000352E+00 0.  1.
       -3    1    3    3    0  502 -0.22175189481E+03 -0.88722814130E+02  0.11073233827E+03  0.26326279939E+03  0.10100000352E+00 0. -1.
</event>
<event>
 5   0  0.1529146E-01  0.4747742E+03  0.7818609E-02  0.1020581E+00
        1   -1    0    0  501    0  0.00000000000E+00  0.00000000000E+00  0.12150827333E+03  0.12150827344E+03  0.50400001928E-02 0.  1.
       -1   -1    0    0    0  501  0.00000000000E+00  0.00000000000E+00 -0.46377607417E+03  0.46377607420E+03  0.50400001928E-02 0. -1.
    10030    2    1    2    0    0  0.00000000000E+00  0.00000000000E+00 -0.34226780084E+03  0.58528434764E+03  0.47477417800E+03 0.  0.
        1    1    3    3  502    0 -0.12430168146E+03 -0.12669661229E+03 -0.36546410623E+03  0.40628432476E+03  0.50400001928E-02 0. -1.
       -1    1    3    3    0  502  0.12430168146E+03  0.12669661229E+03  0.23196305388E+02  0.17900002288E+03  0.50400001928E-02 0.  1.
</event>
<event>
 5   0  0.1453602E-01  0.5018774E+03  0.7818609E-02  0.1013290E+00
        1   -1    0    0  501    0  0.00000000000E+00  0.00000000000E+00  0.41762717000E+03  0.41762717003E+03  0.50400001928E-02 0. -1.
       -1   -1    0    0    0  501  0.00000000000E+00  0.00000000000E+00 -0.15078094975E+03  0.15078094983E+03  0.50400001928E-02 0.  1.
    10030    2    1    2    0    0  0.00000000000E+00  0.00000000000E+00  0.26684622025E+03  0.56840811986E+03  0.50187736098E+03 0.  0.
        2    1    3    3  502    0  0.16039904029E+03 -0.33161191208E+01  0.35195619245E+03  0.38679711759E+03  0.25500000920E-02 0. -1.
       -2    1    3    3    0  502 -0.16039904029E+03  0.33161191208E+01 -0.85109972196E+02  0.18161100227E+03  0.25500000920E-02 0.  1.
</event>
<event>
 5   0  0.1529146E-01  0.4934162E+03  0.7818609E-02  0.1015512E+00
        1   -1    0    0  501    0  0.00000000000E+00  0.00000000000E+00  0.41585726870E+03  0.41585726873E+03  0.50400001928E-02 0.  1.
       -1   -1    0    0    0  501  0.00000000000E+00  0.00000000000E+00 -0.14636006911E+03  0.14636006920E+03  0.50400001928E-02 0. -1.
    10030    2    1    2    0    0  0.00000000000E+00  0.00000000000E+00  0.26949719959E+03  0.56221733793E+03  0.49341624870E+03 0.  0.
        1    1    3    3  502    0 -0.55382689934E+02 -0.67474305997E+02 -0.12817507296E+03  0.15507699271E+03  0.50400001928E-02 0. -1.
       -1    1    3    3    0  502  0.55382689934E+02  0.67474305997E+02  0.39767227256E+03  0.40714034521E+03  0.50400001928E-02 0.  1.
</event>
<event>
 5   0  0.2488968E-01  0.5080729E+03  0.7818609E-02  0.1011693E+00
       -2   -1    0    0    0  501  0.00000000000E+00  0.00000000000E+00  0.25553869757E+03  0.25553869758E+03  0.25500000920E-02 0.  1.
        2   -1    0    0  501    0  0.00000000000E+00  0.00000000000E+00 -0.25254300314E+03  0.25254300315E+03  0.25500000920E-02 0. -1.
    10030    2    1    2    0    0  0.00000000000E+00  0.00000000000E+00  0.29956944244E+01  0.50808170073E+03  0.50807286922E+03 0.  0.
        2    1    3    3  502    0 -0.10902968753E+03  0.22176905177E+03  0.60367580481E+02  0.25438795149E+03  0.25500000920E-02 0. -1.
       -2    1    3    3    0  502  0.10902968753E+03 -0.22176905177E+03 -0.57371886057E+02  0.25369374924E+03  0.25500000920E-02 0.  1.
</event>
<event>
 5   0  0.1439814E-01  0.5005640E+03  0.7818609E-02  0.1013632E+00
       -1   -1    0    0    0  501  0.00000000000E+00  0.00000000000E+00  0.25160060944E+03  0.25160060949E+03  0.50400001928E-02 0.  1.
        1   -1    0    0  501    0  0.00000000000E+00  0.00000000000E+00 -0.24897033705E+03  0.24897033710E+03  0.50400001928E-02 0. -1.
    10030    2    1    2    0    0  0.00000000000E+00  0.00000000000E+00  0.26302723930E+01  0.50057094659E+03  0.50056403610E+03 0.  0.
        4    1    3    3  502    0  0.77168827929E+02  0.76789085642E+02  0.22667992112E+03  0.25146966262E+03  0.12699999809E+01 0.  1.
       -4    1    3    3    0  502 -0.77168827929E+02 -0.76789085642E+02 -0.22404964873E+03  0.24910128397E+03  0.12699999809E+01 0. -1.
</event>
<event>
 5   0  0.2413301E-01  0.4720045E+03  0.7818609E-02  0.1021356E+00
        2   -1    0    0  501    0  0.00000000000E+00  0.00000000000E+00  0.10594675277E+03  0.10594675280E+03  0.25500000920E-02 0.  1.
       -2   -1    0    0    0  501  0.00000000000E+00  0.00000000000E+00 -0.52570795669E+03  0.52570795670E+03  0.25500000920E-02 0. -1.
    10030    2    1    2    0    0  0.00000000000E+00  0.00000000000E+00 -0.41976120393E+03  0.63165470949E+03  0.47200445306E+03 0.  0.
        4    1    3    3  502    0 -0.17279239332E+03 -0.13072750518E+03 -0.84710216974E+02  0.23264635299E+03  0.12699999809E+01 0. -1.
       -4    1    3    3    0  502  0.17279239332E+03  0.13072750518E+03 -0.33505098695E+03  0.39900835650E+03  0.12699999809E+01 0.  1.
</event>
<event>
 5   0  0.1439814E-01  0.5027246E+03  0.7818609E-02  0.1013070E+00
        1   -1    0    0  501    0  0.00000000000E+00  0.00000000000E+00  0.17257242859E+04  0.17257242859E+04  0.50400001928E-02 0. -1.
       -1   -1    0    0    0  501  0.00000000000E+00  0.00000000000E+00 -0.36612453519E+02  0.36612453866E+02  0.50400001928E-02 0.  1.
    10030    2    1    2    0    0  0.00000000000E+00  0.00000000000E+00  0.16891118323E+04  0.17623367397E+04  0.50272457873E+03 0.  0.
        4    1    3    3  502    0  0.17147887666E+03  0.65416517275E+02  0.24248429804E+03  0.30411276456E+03  0.12699999809E+01 0.  1.
       -4    1    3    3    0  502 -0.17147887666E+03 -0.65416517275E+02  0.14466275343E+04  0.14582239752E+04  0.12699999809E+01 0. -1.
</event>
<event>
 5   0  0.1413361E-01  0.6168945E+03  0.7818609E-02  0.9870962E-01
        1   -1    0    0  501    0  0.00000000000E+00  0.00000000000E+00  0.63100749347E+03  0.63100749349E+03  0.50400001928E-02 0. -1.
       -1   -1    0    0    0  501  0.00000000000E+00  0.00000000000E+00 -0.15077427887E+03  0.15077427895E+03  0.50400001928E-02 0.  1.
    10030    2    1    2    0    0  0.00000000000E+00  0.00000000000E+00  0.48023321460E+03  0.78178177244E+03  0.61689447989E+03 0.  0.
        3    1    3    3  502    0 -0.70884853296E+02 -0.15127157505E+03 -0.88479542755E+02  0.18904071395E+03  0.10100000352E+00 0.  1.
       -3    1    3    3    0  502  0.70884853296E+02  0.15127157505E+03  0.56871275736E+03  0.59274105850E+03  0.10100000352E+00 0. -1.
</event>
<event>
 5   0  0.2488968E-01  0.3945439E+03  0.7818609E-02  0.1045685E+00
        2   -1    0    0  501    0  0.00000000000E+00  0.00000000000E+00  0.95123362220E+03  0.95123362220E+03  0.25500000920E-02 0. -1.
       -2   -1    0    0    0  501  0.00000000000E+00  0.00000000000E+00 -0.40911310233E+02  0.40911310312E+02  0.25500000920E-02 0.  1.
    10030    2    1    2    0    0  0.00000000000E+00  0.00000000000E+00  0.91032231196E+03  0.99214493251E+03  0.39454385745E+03 0.  0.
        2    1    3    3  502    0  0.35777177528E+02 -0.46743986202E+02  0.92863429563E+03  0.93049807184E+03  0.25500000920E-02 0. -1.
       -2    1    3    3    0  502 -0.35777177528E+02  0.46743986202E+02 -0.18311983666E+02  0.61646860668E+02  0.25500000920E-02 0.  1.
</event>
<event>
 5   0  0.2466034E-01  0.5010454E+03  0.7818609E-02  0.1013506E+00
       -2   -1    0    0    0  501  0.00000000000E+00  0.00000000000E+00  0.50273296492E+02  0.50273296557E+02  0.25500000920E-02 0.  1.
        2   -1    0    0  501    0  0.00000000000E+00  0.00000000000E+00 -0.12484088784E+04  0.12484088784E+04  0.25500000920E-02 0. -1.
    10030    2    1    2    0    0  0.00000000000E+00  0.00000000000E+00 -0.11981355819E+04  0.12986821750E+04  0.50104542601E+03 0.  0.
        3    1    3    3  502    0 -0.20600162457E+03  0.14160901335E+03 -0.55633310691E+03  0.60991500886E+03  0.10100000352E+00 0. -1.
       -3    1    3    3    0  502  0.20600162457E+03 -0.14160901335E+03 -0.64180247499E+03  0.68876716609E+03  0.10100000352E+00 0.  1.
</event>
<event>
 5   0  0.2504064E-01  0.4767393E+03  0.7818609E-02  0.1020035E+00
       -2   -1    0    0    0  501  0.00000000000E+00  0.00000000000E+00  0.59496107594E+02  0.59496107649E+02  0.25500000920E-02 0. -1.
        2   -1    0    0  501    0  0.00000000000E+00  0.00000000000E+00 -0.95502183354E+03  0.95502183354E+03  0.25500000920E-02 0.  1.
    10030    2    1    2    0    0  0.00000000000E+00  0.00000000000E+00 -0.89552572594E+03  0.10145179412E+04  0.47673926539E+03 0.  0.
        5    1    3    3  502    0  0.10070848537E+03 -0.20013871644E+03 -0.27487670733E+03  0.35465053091E+03  0.46999998093E+01 0. -1.
       -5    1    3    3    0  502 -0.10070848537E+03  0.20013871644E+03 -0.62064901861E+03  0.65986741028E+03  0.46999998093E+01 0.  1.
</event>
<event>
 5   0  0.1439814E-01  0.5006563E+03  0.7818609E-02  0.1013608E+00
       -1   -1    0    0    0  501  0.00000000000E+00  0.00000000000E+00  0.77477359327E+02  0.77477359491E+02  0.50400001928E-02 0.  1.
        1   -1    0    0  501    0  0.00000000000E+00  0.00000000000E+00 -0.80880632084E+03  0.80880632085E+03  0.50400001928E-02 0. -1.
    10030    2    1    2    0    0  0.00000000000E+00  0.00000000000E+00 -0.73132896151E+03  0.88628368035E+03  0.50065628139E+03 0.  0.
        4    1    3    3  502    0  0.14183114517E+03 -0.17800812658E+03 -0.55014051876E+03  0.59536473708E+03  0.12699999809E+01 0. -1.
       -4    1    3    3    0  502 -0.14183114517E+03  0.17800812658E+03 -0.18118844275E+03  0.29091894327E+03  0.12699999809E+01 0.  1.
</event>
<event>
 5   0  0.1529146E-01  0.5216096E+03  0.7818609E-02  0.1008287E+00
       -1   -1    0    0    0  501  0.00000000000E+00  0.00000000000E+00  0.17873588055E+03  0.17873588063E+03  0.50400001928E-02 0.  1.
        1   -1    0    0  501    0  0.00000000000E+00  0.00000000000E+00 -0.38055679388E+03  0.38055679392E+03  0.50400001928E-02 0. -1.
    10030    2    1    2    0    0  0.00000000000E+00  0.00000000000E+00 -0.20182091333E+03  0.55929267454E+03  0.52160963827E+03 0.  0.
        1    1    3    3  502    0  0.35646241062E+02  0.25513554366E+02 -0.37657837691E+03  0.37912118107E+03  0.50400001928E-02 0. -1.
       -1    1    3    3    0  502 -0.35646241062E+02 -0.25513554366E+02  0.17475746358E+03  0.18017149347E+03  0.50400001928E-02 0.  1.
</event>
<event>
 5   0  0.1413361E-01  0.5008998E+03  0.7818609E-02  0.1013544E+00
        1   -1    0    0  501    0  0.00000000000E+00  0.00000000000E+00  0.16783117693E+03  0.16783117700E+03  0.50400001928E-02 0. -1.
       -1   -1    0    0    0  501  0.00000000000E+00  0.00000000000E+00 -0.37373964147E+03  0.37373964151E+03  0.50400001928E-02 0.  1.
    10030    2    1    2    0    0  0.00000000000E+00  0.00000000000E+00 -0.20590846455E+03  0.54157081851E+03  0.50089984597E+03 0.  0.
        3    1    3    3  502    0  0.41616940808E+02  0.16684800990E+03 -0.29982370838E+03  0.34563636163E+03  0.10100000352E+00 0.  1.
       -3    1    3    3    0  502 -0.41616940808E+02 -0.16684800990E+03  0.93915243836E+02  0.19593445688E+03  0.10100000352E+00 0. -1.
</event>
<event>
 5   0  0.2466034E-01  0.5034911E+03  0.7818609E-02  0.1012872E+00
       -2   -1    0    0    0  501  0.00000000000E+00  0.00000000000E+00  0.86626074660E+02  0.86626074697E+02  0.25500000920E-02 0. -1.
        2   -1    0    0  501    0  0.00000000000E+00  0.00000000000E+00 -0.73160220456E+03  0.73160220457E+03  0.25500000920E-02 0.  1.
    10030    2    1    2    0    0  0.00000000000E+00  0.00000000000E+00 -0.64497612990E+03  0.81822827926E+03  0.50349112092E+03 0.  0.
        3    1    3    3  502    0  0.69854769287E+02  0.85143348277E+01  0.70316886723E+02  0.99481945343E+02  0.10100000352E+00 0. -1.
       -3    1    3    3    0  502 -0.69854769287E+02 -0.85143348277E+01 -0.71529301663E+03  0.71874633392E+03  0.10100000352E+00 0.  1.
</event>
<event>
 5   0  0.2488968E-01  0.5066785E+03  0.7818609E-02  0.1012050E+00
        2   -1    0    0  501    0  0.00000000000E+00  0.00000000000E+00  0.13591986482E+04  0.13591986482E+04  0.25500000920E-02 0.  1.
       -2   -1    0    0    0  501  0.00000000000E+00  0.00000000000E+00 -0.47219573953E+02  0.47219574022E+02  0.25500000920E-02 0. -1.
    10030    2    1    2    0    0  0.00000000000E+00  0.00000000000E+00  0.13119790742E+04  0.14064182222E+04  0.50667852189E+03 0.  0.
        2    1    3    3  502    0  0.18844474058E+03 -0.62319104886E+02  0.10929906037E+04  0.11108661264E+04  0.25500000920E-02 0.  1.
       -2    1    3    3    0  502 -0.18844474058E+03  0.62319104886E+02  0.21898847056E+03  0.29555209580E+03  0.25500000920E-02 0. -1.
</event>
<event>
 5   0  0.9868500E-02  0.5103282E+03  0.7818609E-02  0.1011118E+00
        4   -1    0    0  501    0  0.00000000000E+00  0.00000000000E+00  0.25336160532E+03  0.25336478830E+03  0.12699999809E+01 0.  1.
       -4   -1    0    0    0  501  0.00000000000E+00  0.00000000000E+00 -0.25697307750E+03  0.25697621575E+03  0.12699999809E+01 0. -1.
    10030    2    1    2    0    0  0.00000000000E+00  0.00000000000E+00 -0.36114721780E+01  0.51034100405E+03  0.51032822544E+03 0.  0.
        1    1    3    3  502    0 -0.25801046436E+02  0.50459193159E+02 -0.25060284230E+03  0.25693113623E+03  0.50400001928E-02 0. -1.
       -1    1    3    3    0  502  0.25801046436E+02 -0.50459193159E+02  0.24699137012E+03  0.25340986782E+03  0.50400001928E-02 0.  1.
</event>
<event>
 5   0  0.1453602E-01  0.5010149E+03  0.7818609E-02  0.1013514E+00
        1   -1    0    0  501    0  0.00000000000E+00  0.00000000000E+00  0.24962201026E+03  0.24962201031E+03  0.50400001928E-02 0. -1.
       -1   -1    0    0    0  501  0.00000000000E+00  0.00000000000E+00 -0.25139600111E+03  0.25139600116E+03  0.50400001928E-02 0.  1.
    10030    2    1    2    0    0  0.00000000000E+00  0.00000000000E+00 -0.17739908576E+01  0.50101801147E+03  0.50101487081E+03 0.  0.
        2    1    3    3  502    0  0.10310248030E+03 -0.40060172281E+02 -0.22565280624E+03  0.25130485036E+03  0.25500000920E-02 0.  1.
       -2    1    3    3    0  502 -0.10310248030E+03  0.40060172281E+02  0.22387881538E+03  0.24971316111E+03  0.25500000920E-02 0. -1.
</event>
<event>
 5   0  0.2511944E-01  0.5099859E+03  0.7818609E-02  0.1011205E+00
        2   -1    0    0  501    0  0.00000000000E+00  0.00000000000E+00  0.16348170425E+04  0.16348170425E+04  0.25500000920E-02 0. -1.
       -2   -1    0    0    0  501  0.00000000000E+00  0.00000000000E+00 -0.39772889279E+02  0.39772889361E+02  0.25500000920E-02 0.  1.
    10030    2    1    2    0    0  0.00000000000E+00  0.00000000000E+00  0.15950441532E+04  0.16745899319E+04  0.50998587154E+03 0.  0.
        1    1    3    3  502    0 -0.25306605233E+03  0.28777654579E+02  0.75719697127E+03  0.79888536948E+03  0.50400001928E-02 0. -1.
       -1    1    3    3    0  502  0.25306605233E+03 -0.28777654579E+02  0.83784718197E+03  0.87570456240E+03  0.50400001928E-02 0.  1.
</event>
<event>
 5   0  0.1413361E-01  0.5088444E+03  0.7818609E-02  0.1011496E+00
       -1   -1    0    0    0  501  0.00000000000E+00  0.00000000000E+00  0.27983888661E+03  0.27983888666E+03  0.50400001928E-02 0.  1.
        1   -1    0    0  501    0  0.00000000000E+00  0.00000000000E+00 -0.23131397300E+03  0.23131397305E+03  0.50400001928E-02 0. -1.
    10030    2    1    2    0    0  0.00000000000E+00  0.00000000000E+00  0.48524913614E+02  0.51115285971E+03  0.50884435611E+03 0.  0.
        3    1    3    3  502    0 -0.18638657253E+03 -0.13786695295E+03 -0.81014640942E+02  0.24558223345E+03  0.10100000352E+00 0. -1.
       -3    1    3    3    0  502  0.18638657253E+03  0.13786695295E+03  0.12953955456E+03  0.26557062626E+03  0.10100000352E+00 0.  1.
</event>
<event>
 5   0  0.2511944E-01  0.5104305E+03  0.7818609E-02  0.1011092E+00
        2   -1    0    0  501    0  0.00000000000E+00  0.00000000000E+00  0.10603459790E+04  0.10603459790E+04  0.25500000920E-02 0.  1.
       -2   -1    0    0    0  501  0.00000000000E+00  0.00000000000E+00 -0.61427902608E+02  0.61427902660E+02  0.25500000920E-02 0. -1.
    10030    2    1    2    0    0  0.00000000000E+00  0.00000000000E+00  0.99891807639E+03  0.11217738817E+04  0.51043052244E+03 0.  0.
        1    1    3    3  502    0  0.60913378396E+02  0.24530603123E+03  0.42177904694E+03  0.49171440196E+03  0.50400001928E-02 0. -1.
       -1    1    3    3    0  502 -0.60913378396E+02 -0.24530603123E+03  0.57713902945E+03  0.63005947971E+03  0.50400001928E-02 0.  1.
</event>
<event>
 5   0  0.9868500E-02  0.4979261E+03  0.7818609E-02  0.1014322E+00
       -4   -1    0    0    0  501  0.00000000000E+00  0.00000000000E+00  0.51780372063E+03  0.51780527807E+03  0.12699999809E+01 0.  1.
        4   -1    0    0  501    0  0.00000000000E+00  0.00000000000E+00 -0.11969776169E+03  0.11970449889E+03  0.12699999809E+01 0. -1.
    10030    2    1    2    0    0  0.00000000000E+00  0.00000000000E+00  0.39810595894E+03  0.63750977696E+03  0.49792605995E+03 0.  0.
        3    1    3    3  502    0 -0.87918311535E+02 -0.13960242988E+03 -0.39666338088E+02  0.16968175067E+03  0.10100000352E+00 0. -1.
       -3    1    3    3    0  502  0.87918311535E+02  0.13960242988E+03  0.43777229703E+03  0.46782802629E+03  0.10100000352E+00 0.  1.
</event>
<event>
 5   0  0.1453602E-01  0.4282719E+03  0.7818609E-02  0.1034407E+00
       -1   -1    0    0    0  501  0.00000000000E+00  0.00000000000E+00  0.19707152333E+03  0.19707152340E+03  0.50400001928E-02 0.  1.
        1   -1    0    0  501    0  0.00000000000E+00  0.00000000000E+00 -0.23267803129E+03  0.23267803135E+03  0.50400001928E-02 0. -1.
    10030    2    1    2    0    0  0.00000000000E+00  0.00000000000E+00 -0.35606507961E+02  0.42974955474E+03  0.42827194210E+03 0.  0.
        2    1    3    3  502    0  0.19011571441E+03 -0.98320942271E+02 -0.24400245249E+02  0.21542136508E+03  0.25500000920E-02 0.  1.
       -2    1    3    3    0  502 -0.19011571441E+03  0.98320942271E+02 -0.11206262713E+02  0.21432818967E+03  0.25500000920E-02 0. -1.
</event>
<event>
 5   0  0.2413301E-01  0.4973288E+03  0.7818609E-02  0.1014478E+00
        2   -1    0    0  501    0  0.00000000000E+00  0.00000000000E+00  0.28340621804E+03  0.28340621805E+03  0.25500000920E-02 0. -1.
       -2   -1    0    0    0  501  0.00000000000E+00  0.00000000000E+00 -0.21818148776E+03  0.21818148777E+03  0.25500000920E-02 0.  1.
    10030    2    1    2    0    0  0.00000000000E+00  0.00000000000E+00  0.65224730284E+02  0.50158770582E+03  0.49732882602E+03 0.  0.
        4    1    3    3  502    0  0.22737921753E+03  0.46016850118E+02  0.12289721255E+03  0.26253418217E+03  0.12699999809E+01 0. -1.
       -4    1    3    3    0  502 -0.22737921753E+03 -0.46016850118E+02 -0.57672482265E+02  0.23905352365E+03  0.12699999809E+01 0.  1.
</event>
<event>
 5   0  0.2488968E-01  0.5120936E+03  0.7818609E-02  0.1010670E+00
        2   -1    0    0  501    0  0.00000000000E+00  0.00000000000E+00  0.25433624068E+03  0.25433624070E+03  0.25500000920E-02 0. -1.
       -2   -1    0    0    0  501  0.00000000000E+00  0.00000000000E+00 -0.25776883840E+03  0.25776883842E+03  0.25500000920E-02 0.  1.
    10030    2    1    2    0    0  0.00000000000E+00  0.00000000000E+00 -0.34325977205E+01  0.51210507911E+03  0.51209357477E+03 0.  0.
        2    1    3    3  502    0  0.13307587435E+03  0.30569473707E+02  0.21489022059E+03  0.25460064408E+03  0.25500000920E-02 0. -1.
       -2    1    3    3    0  502 -0.13307587435E+03 -0.30569473707E+02 -0.21832281831E+03  0.25750443503E+03  0.25500000920E-02 0.  1.
</event>
<event>
 5   0  0.1448458E-01  0.5090242E+03  0.7818609E-02  0.1011450E+00
       -1   -1    0    0    0  501  0.00000000000E+00  0.00000000000E+00  0.18112503368E+03  0.18112503375E+03  0.50400001928E-02 0. -1.
        1   -1    0    0  501    0  0.00000000000E+00  0.00000000000E+00 -0.35763367970E+03  0.35763367974E+03  0.50400001928E-02 0.  1.
    10030    2    1    2    0    0  0.00000000000E+00  0.00000000000E+00 -0.17650864602E+03  0.53875871349E+03  0.50902421283E+03 0.  0.
        5    1    3    3  502    0 -0.18625186314E+03 -0.16594014298E+03 -0.14147516490E+03  0.28681561997E+03  0.46999998093E+01 0.  1.
       -5    1    3    3    0  502  0.18625186314E+03  0.16594014298E+03 -0.35033481120E+02  0.25194309352E+03  0.46999998093E+01 0. -1.
</event>
<event>
 5   0  0.2504064E-01  0.4979045E+03  0.7818609E-02  0.1014327E+00
       -2   -1    0    0    0  501  0.00000000000E+00  0.00000000000E+00  0.21342900182E+03  0.21342900183E+03  0.25500000920E-02 0.  1.
        2   -1    0    0  501    0  0.00000000000E+00  0.00000000000E+00 -0.29038803866E+03  0.29038803867E+03  0.25500000920E-02 0. -1.
    10030    2    1    2    0    0  0.00000000000E+00  0.00000000000E+00 -0.76959036839E+02  0.50381704050E+03  0.49790452593E+03 0.  0.
        5    1    3    3  502    0 -0.45357590350E+02 -0.11540062917E+03 -0.25686761282E+03  0.28526772816E+03  0.46999998093E+01 0. -1.
       -5    1    3    3    0  502  0.45357590350E+02  0.11540062917E+03  0.17990857598E+03  0.21854931234E+03  0.46999998093E+01 0.  1.
</event>
<event>
 5   0  0.2488968E-01  0.4945473E+03  0.7818609E-02  0.1015212E+00
       -2   -1    0    0    0  501  0.00000000000E+00  0.00000000000E+00  0.11407302470E+03  0.11407302473E+03  0.25500000920E-02 0. -1.
        2   -1    0    0  501    0  0.00000000000E+00  0.00000000000E+00 -0.53600987901E+03  0.53600987902E+03  0.25500000920E-02 0.  1.
    10030    2    1    2    0    0  0.00000000000E+00  0.00000000000E+00 -0.42193685431E+03  0.65008290374E+03  0.49454734123E+03 0.  0.
        2    1    3    3  502    0  0.46773845965E+02 -0.14792952474E+03 -0.46406815555E+03  0.48931604302E+03  0.25500000920E-02 0.  1.
       -2    1    3    3    0  502 -0.46773845965E+02  0.14792952474E+03  0.42131301239E+02  0.16076686072E+03  0.25500000920E-02 0. -1.
</event>
<event>
 5   0  0.9868500E-02  0.5008560E+03  0.7818609E-02  0.1013556E+00
       -4   -1    0    0    0  501  0.00000000000E+00  0.00000000000E+00  0.30094051015E+03  0.30094318990E+03  0.12699999809E+01 0.  1.
        4   -1    0    0  501    0  0.00000000000E+00  0.00000000000E+00 -0.20838841544E+03  0.20839228534E+03  0.12699999809E+01 0. -1.
    10030    2    1    2    0    0  0.00000000000E+00  0.00000000000E+00  0.92552094703E+02  0.50933547524E+03  0.50085600336E+03 0.  0.
        4    1    3    3  502    0 -0.19253290625E+03  0.10429148624E+03 -0.77300555930E+02  0.23221245216E+03  0.12699999809E+01 0. -1.
       -4    1    3    3    0  502  0.19253290625E+03 -0.10429148624E+03  0.16985265063E+03  0.27712302308E+03  0.12699999809E+01 0.  1.
</event>
<event>
 5   0  0.9868500E-02  0.5236698E+03  0.7818609E-02  0.1007779E+00
        3   -1    0    0  501    0  0.00000000000E+00  0.00000000000E+00  0.18892696271E+03  0.18892698971E+03  0.10100000352E+00 0. -1.
       -3   -1    0    0    0  501  0.00000000000E+00  0.00000000000E+00 -0.36287831676E+03  0.36287833082E+03  0.10100000352E+00 0.  1.
    10030    2    1    2    0    0  0.00000000000E+00  0.00000000000E+00 -0.17395135406E+03  0.55180532053E+03  0.52366977971E+03 0.  0.
        5    1    3    3  502    0  0.13438480801E+03 -0.13523488594E+03 -0.27602413177E+03  0.33549837901E+03  0.46999998093E+01 0.  1.
       -5    1    3    3    0  502 -0.13438480801E+03  0.13523488594E+03  0.10207277772E+03  0.21630694152E+03  0.46999998093E+01 0. -1.
</event>
<event>
 5   0  0.1413361E-01  0.5009678E+03  0.7818609E-02  0.1013527E+00
        1   -1    0    0  501    0  0.00000000000E+00  0.00000000000E+00  0.79997157055E+02  0.79997157214E+02  0.50400001928E-02 0.  1.
       -1   -1    0    0    0  501  0.00000000000E+00  0.00000000000E+00 -0.78430527135E+03  0.78430527136E+03  0.50400001928E-02 0. -1.
    10030    2    1    2    0    0  0.00000000000E+00  0.00000000000E+00 -0.70430811429E+03  0.86430242858E+03  0.50096783149E+03 0.  0.
        3    1    3    3  502    0  0.14092269047E+03 -0.15281340370E+03 -0.11104218929E+03  0.23567248258E+03  0.10100000352E+00 0.  1.
       -3    1    3    3    0  502 -0.14092269047E+03  0.15281340370E+03 -0.59326592500E+03  0.62862994600E+03  0.10100000352E+00 0. -1.
</event>
<event>
 5   0  0.2511944E-01  0.4856652E+03  0.7818609E-02  0.1017590E+00
       -2   -1    0    0    0  501  0.00000000000E+00  0.00000000000E+00  0.14715141163E+03  0.14715141165E+03  0.25500000920E-02 0. -1.
        2   -1    0    0  501    0  0.00000000000E+00  0.00000000000E+00 -0.40072783115E+03  0.40072783116E+03  0.25500000920E-02 0.  1.
    10030    2    1    2    0    0  0.00000000000E+00  0.00000000000E+00 -0.25357641953E+03  0.54787924281E+03  0.48566517701E+03 0.  0.
        1    1    3    3  502    0  0.64844393137E+02  0.22549032815E+03 -0.56185120633E+02  0.24126220429E+03  0.50400001928E-02 0. -1.
       -1    1    3    3    0  502 -0.64844393137E+02 -0.22549032815E+03 -0.19739129889E+03  0.30661703853E+03  0.50400001928E-02 0.  1.
</event>
<event>
 5   0  0.1413361E-01  0.4943404E+03  0.7818609E-02  0.1015267E+00
       -1   -1    0    0    0  501  0.00000000000E+00  0.00000000000E+00  0.62522528617E+03  0.62522528619E+03  0.50400001928E-02 0. -1.
        1   -1    0    0  501    0  0.00000000000E+00  0.00000000000E+00 -0.97713753682E+02  0.97713753812E+02  0.50400001928E-02 0.  1.
    10030    2    1    2    0    0  0.00000000000E+00  0.00000000000E+00  0.52751153249E+03  0.72293904000E+03  0.49434040767E+03 0.  0.
        3    1    3    3  502    0  0.94057814822E+02  0.22855144860E+03  0.26848606634E+03  0.36492110819E+03  0.10100000352E+00 0.  1.
       -3    1    3    3    0  502 -0.94057814822E+02 -0.22855144860E+03  0.25902546615E+03  0.35801793181E+03  0.10100000352E+00 0. -1.
</event>
<event>
 5   0  0.2488968E-01  0.5065293E+03  0.7818609E-02  0.1012089E+00
        2   -1    0    0  501    0  0.00000000000E+00  0.00000000000E+00  0.57382348831E+02  0.57382348888E+02  0.25500000920E-02 0.  1.
       -2   -1    0    0    0  501  0.00000000000E+00  0.00000000000E+00 -0.11178174916E+04  0.11178174916E+04  0.25500000920E-02 0. -1.
    10030    2    1    2    0    0  0.00000000000E+00  0.00000000000E+00 -0.10604351427E+04  0.11751998405E+04  0.50652934077E+03 0.  0.
        2    1    3    3  502    0  0.24261327483E+03  0.62045717287E+02 -0.61801807131E+03  0.66682622071E+03  0.25500000920E-02 0. -1.
       -2    1    3    3    0  502 -0.24261327483E+03 -0.62045717287E+02 -0.44241707143E+03  0.50837361975E+03  0.25500000920E-02 0.  1.
</event>
<event>
 5   0  0.2466034E-01  0.5066668E+03  0.7818609E-02  0.1012053E+00
       -2   -1    0    0    0  501  0.00000000000E+00  0.00000000000E+00  0.16404361958E+03  0.16404361960E+03  0.25500000920E-02 0. -1.
        2   -1    0    0  501    0  0.00000000000E+00  0.00000000000E+00 -0.39122405790E+03  0.39122405791E+03  0.25500000920E-02 0.  1.
    10030    2    1    2    0    0  0.00000000000E+00  0.00000000000E+00 -0.22718043832E+03  0.55526767750E+03  0.50666679595E+03 0.  0.
        3    1    3    3  502    0 -0.14508624503E+03  0.11215677439E+03 -0.30513745465E+03  0.35600286090E+03  0.10100000352E+00 0.  1.
       -3    1    3    3    0  502  0.14508624503E+03 -0.11215677439E+03  0.77957016326E+02  0.19926481660E+03  0.10100000352E+00 0. -1.
</event>
<event>
 5   0  0.2511944E-01  0.5049137E+03  0.7818609E-02  0.1012504E+00
        2   -1    0    0  501    0  0.00000000000E+00  0.00000000000E+00  0.88439493399E+03  0.88439493400E+03  0.25500000920E-02 0. -1.
       -2   -1    0    0    0  501  0.00000000000E+00  0.00000000000E+00 -0.72065611737E+02  0.72065611782E+02  0.25500000920E-02 0.  1.
    10030    2    1    2    0    0  0.00000000000E+00  0.00000000000E+00  0.81232932226E+03  0.95646054578E+03  0.50491370335E+03 0.  0.
        1    1    3    3  502    0  0.12821508954E+03  0.18072170528E+03  0.63532873423E+03  0.67286108856E+03  0.50400001928E-02 0. -1.
       -1    1    3    3    0  502 -0.12821508954E+03 -0.18072170528E+03  0.17700058803E+03  0.28359945722E+03  0.50400001928E-02 0.  1.
</event>
<event>
 5   0  0.2504064E-01  0.4912922E+03  0.7818609E-02  0.1016077E+00
        2   -1    0    0  501    0  0.00000000000E+00  0.00000000000E+00  0.20547832245E+03  0.20547832246E+03  0.25500000920E-02 0. -1.
       -2   -1    0    0    0  501  0.00000000000E+00  0.00000000000E+00 -0.29366608005E+03  0.29366608006E+03  0.25500000920E-02 0.  1.
    10030    2    1    2    0    0  0.00000000000E+00  0.00000000000E+00 -0.88187757600E+02  0.49914440252E+03  0.49129222870E+03 0.  0.
        5    1    3    3  502    0  0.20172191455E+03 -0.13819255629E+03 -0.67505834315E+02  0.25370857512E+03  0.46999998093E+01 0. -1.
       -5    1    3    3    0  502 -0.20172191455E+03  0.13819255629E+03 -0.20681923285E+02  0.24543582740E+03  0.46999998093E+01 0.  1.
</event>
<event>
 5   0  0.1439814E-01  0.5001899E+03  0.7818609E-02  0.1013729E+00
       -1   -1    0    0    0  501  0.00000000000E+00  0.00000000000E+00  0.73441755838E+03  0.73441755840E+03  0.50400001928E-02 0.  1.
        1   -1    0    0  501    0  0.00000000000E+00  0.00000000000E+00 -0.85166090352E+02  0.85166090501E+02  0.50400001928E-02 0. -1.
    10030    2    1    2    0    0  0.00000000000E+00  0.00000000000E+00  0.64925146803E+03  0.81958364890E+03  0.50018985276E+03 0.  0.
        4    1    3    3  502    0 -0.57717357209E+02  0.10405386685E+03  0.68505858472E+03  0.69531674648E+03  0.12699999809E+01 0.  1.
       -4    1    3    3    0  502  0.57717357209E+02 -0.10405386685E+03 -0.35807116698E+02  0.12426690242E+03  0.12699999809E+01 0. -1.
</event>
<event>
 5   0  0.1413361E-01  0.5021882E+03  0.7818609E-02  0.1013209E+00
       -1   -1    0    0    0  501  0.00000000000E+00  0.00000000000E+00  0.97791482384E+02  0.97791482514E+02  0.50400001928E-02 0. -1.
        1   -1    0    0  501    0  0.00000000000E+00  0.00000000000E+00 -0.64472137108E+03  0.64472137110E+03  0.50400001928E-02 0.  1.
    10030    2    1    2    0    0  0.00000000000E+00  0.00000000000E+00 -0.54692988870E+03  0.74251285361E+03  0.50218824621E+03 0.  0.
        3    1    3    3  502    0 -0.17965148787E+03 -0.15711814855E+03 -0.15810470145E+03  0.28628286103E+03  0.10100000352E+00 0. -1.
       -3    1    3    3    0  502  0.17965148787E+03  0.15711814855E+03 -0.38882518725E+03  0.45622999259E+03  0.10100000352E+00 0.  1.
</event>
<event>
 5   0  0.9868500E-02  0.5038417E+03  0.7818609E-02  0.1012781E+00
       -3   -1    0    0    0  501  0.00000000000E+00  0.00000000000E+00  0.68639307196E+03  0.68639307939E+03  0.10100000352E+00 0. -1.
        3   -1    0    0  501    0  0.00000000000E+00  0.00000000000E+00 -0.92460269066E+02  0.92460324231E+02  0.10100000352E+00 0.  1.
    10030    2    1    2    0    0  0.00000000000E+00  0.00000000000E+00  0.59393280290E+03  0.77885340362E+03  0.50384169139E+03 0.  0.
        2    1    3    3  502    0 -0.21783251062E+03  0.26126910682E+02  0.10556738551E+03  0.24347092441E+03  0.25500000920E-02 0.  1.
       -2    1    3    3    0  502  0.21783251062E+03 -0.26126910682E+02  0.48836541739E+03  0.53538247922E+03  0.25500000920E-02 0. -1.
</event>
<event>
 5   0  0.2413301E-01  0.5035265E+03  0.7818609E-02  0.1012863E+00
        2   -1    0    0  501    0  0.00000000000E+00  0.00000000000E+00  0.12589581362E+04  0.12589581362E+04  0.25500000920E-02 0. -1.
       -2   -1    0    0    0  501  0.00000000000E+00  0.00000000000E+00 -0.50346967498E+02  0.50346967563E+02  0.25500000920E-02 0.  1.
    10030    2    1    2    0    0  0.00000000000E+00  0.00000000000E+00  0.12086111687E+04  0.13093051038E+04  0.50352646171E+03 0.  0.
        4    1    3    3  502    0 -0.11468034051E+03 -0.51659215234E+02  0.37214882508E+02  0.13117475137E+03  0.12699999809E+01 0.  1.
       -4    1    3    3    0  502  0.11468034051E+03  0.51659215234E+02  0.11713962862E+04  0.11781303524E+04  0.12699999809E+01 0. -1.
</event>
<event>
 5   0  0.1439814E-01  0.4597468E+03  0.7818609E-02  0.1024855E+00
       -1   -1    0    0    0  501  0.00000000000E+00  0.00000000000E+00  0.11185214217E+03  0.11185214228E+03  0.50400001928E-02 0.  1.
        1   -1    0    0  501    0  0.00000000000E+00  0.00000000000E+00 -0.47242529911E+03  0.47242529914E+03  0.50400001928E-02 0. -1.
    10030    2    1    2    0    0  0.00000000000E+00  0.00000000000E+00 -0.36057315695E+03  0.58427744142E+03  0.45974680754E+03 0.  0.
        4    1    3    3  502    0 -0.16389204357E+02  0.47489127053E+02  0.10478567089E+03  0.11621304975E+03  0.12699999809E+01 0.  1.
       -4    1    3    3    0  502  0.16389204357E+02 -0.47489127053E+02 -0.46535882784E+03  0.46806439167E+03  0.12699999809E+01 0. -1.
</event>
<event>
 5   0  0.9868500E-02  0.4980746E+03  0.7818609E-02  0.1014283E+00
        3   -1    0    0  501    0  0.00000000000E+00  0.00000000000E+00  0.27177524587E+03  0.27177526464E+03  0.10100000352E+00 0. -1.
       -3   -1    0    0    0  501  0.00000000000E+00  0.00000000000E+00 -0.22820165516E+03  0.22820167751E+03  0.10100000352E+00 0.  1.
    10030    2    1    2    0    0  0.00000000000E+00  0.00000000000E+00  0.43573590716E+02  0.49997694215E+03  0.49807457762E+03 0.  0.
        2    1    3    3  502    0 -0.31302533839E+02 -0.17464459228E+03  0.19720833900E+03  0.26527666919E+03  0.25500000920E-02 0. -1.
       -2    1    3    3    0  502  0.31302533839E+02  0.17464459228E+03 -0.15363474829E+03  0.23470027296E+03  0.25500000920E-02 0.  1.
</event>
<event>
 5   0  0.1529146E-01  0.5091774E+03  0.7818609E-02  0.1011411E+00
       -1   -1    0    0    0  501  0.00000000000E+00  0.00000000000E+00  0.13284806400E+03  0.13284806410E+03  0.50400001928E-02 0.  1.
        1   -1    0    0  501    0  0.00000000000E+00  0.00000000000E+00 -0.48789130058E+03  0.48789130061E+03  0.50400001928E-02 0. -1.
    10030    2    1    2    0    0  0.00000000000E+00  0.00000000000E+00 -0.35504323658E+03  0.62073936470E+03  0.50917743376E+03 0.  0.
        1    1    3    3  502    0  0.76040376322E+02 -0.34546138933E+02 -0.47071467526E+03  0.47806681549E+03  0.50400001928E-02 0. -1.
       -1    1    3    3    0  502 -0.76040376322E+02  0.34546138933E+02  0.11567143868E+03  0.14267254921E+03  0.50400001928E-02 0.  1.
</event>
<event>
 5   0  0.2511944E-01  0.5010621E+03  0.7818609E-02  0.1013502E+00
       -2   -1    0    0    0  501  0.00000000000E+00  0.00000000000E+00  0.20019391919E+03  0.20019391921E+03  0.25500000920E-02 0.  1.
        2   -1    0    0  501    0  0.00000000000E+00  0.00000000000E+00 -0.31352505655E+03  0.31352505656E+03  0.25500000920E-02 0. -1.
    10030    2    1    2    0    0  0.00000000000E+00  0.00000000000E+00 -0.11333113736E+03  0.51371897577E+03  0.50106211129E+03 0.  0.
        1    1    3    3  502    0 -0.24178130140E+03 -0.64466599388E+02 -0.44039056027E+02  0.25407396291E+03  0.50400001928E-02 0.  1.
       -1    1    3    3    0  502  0.24178130140E+03  0.64466599388E+02 -0.69292081332E+02  0.25964501287E+03  0.50400001928E-02 0. -1.
</event>
<event>
 5   0  0.1413361E-01  0.4843668E+03  0.7818609E-02  0.1017942E+00
       -1   -1    0    0    0  501  0.00000000000E+00  0.00000000000E+00  0.12945251541E+03  0.12945251550E+03  0.50400001928E-02 0.  1.
        1   -1    0    0  501    0  0.00000000000E+00  0.00000000000E+00 -0.45308353407E+03  0.45308353410E+03  0.50400001928E-02 0. -1.
    10030    2    1    2    0    0  0.00000000000E+00  0.00000000000E+00 -0.32363101867E+03  0.58253604960E+03  0.48436681642E+03 0.  0.
        3    1    3    3  502    0  0.11615502193E+03  0.88673916914E+02 -0.39408367209E+03  0.42030584515E+03  0.10100000352E+00 0. -1.
       -3    1    3    3    0  502 -0.11615502193E+03 -0.88673916914E+02  0.70452653426E+02  0.16223020445E+03  0.10100000352E+00 0.  1.
</event>
<event>
 5   0  0.2413301E-01  0.4984697E+03  0.7818609E-02  0.1014179E+00
        2   -1    0    0  501    0  0.00000000000E+00  0.00000000000E+00  0.67332557984E+03  0.67332557984E+03  0.25500000920E-02 0. -1.
       -2   -1    0    0    0  501  0.00000000000E+00  0.00000000000E+00 -0.92255535350E+02  0.92255535386E+02  0.25500000920E-02 0.  1.
    10030    2    1    2    0    0  0.00000000000E+00  0.00000000000E+00  0.58107004449E+03  0.76558111523E+03  0.49846970559E+03 0.  0.
        4    1    3    3  502    0  0.21564669653E+03 -0.47678683913E+01  0.98766266903E+02  0.23723958074E+03  0.12699999809E+01 0.  1.
       -4    1    3    3    0  502 -0.21564669653E+03  0.47678683913E+01  0.48230377759E+03  0.52834153449E+03  0.12699999809E+01 0. -1.
</event>
<event>
 5   0  0.2511944E-01  0.5004584E+03  0.7818609E-02  0.1013659E+00
       -2   -1    0    0    0  501  0.00000000000E+00  0.00000000000E+00  0.14661645894E+03  0.14661645896E+03  0.25500000920E-02 0.  1.
        2   -1    0    0  501    0  0.00000000000E+00  0.00000000000E+00 -0.42706426882E+03  0.42706426883E+03  0.25500000920E-02 0. -1.
    10030    2    1    2    0    0  0.00000000000E+00  0.00000000000E+00 -0.28044780988E+03  0.57368072779E+03  0.50045839324E+03 0.  0.
        1    1    3    3  502    0 -0.12102699980E+03  0.45949808076E+02 -0.38569428501E+03  0.40684026479E+03  0.50400001928E-02 0. -1.
       -1    1    3    3    0  502  0.12102699980E+03 -0.45949808076E+02  0.10524647512E+03  0.16684046300E+03  0.50400001928E-02 0.  1.
</event>
<event>
 5   0  0.2466034E-01  0.4917606E+03  0.7818609E-02  0.1015952E+00
       -2   -1    0    0    0  501  0.00000000000E+00  0.00000000000E+00  0.73661609759E+02  0.73661609803E+02  0.25500000920E-02 0.  1.
        2   -1    0    0  501    0  0.00000000000E+00  0.00000000000E+00 -0.82074124678E+03  0.82074124679E+03  0.25500000920E-02 0. -1.
    10030    2    1    2    0    0  0.00000000000E+00  0.00000000000E+00 -0.74707963702E+03  0.89440285659E+03  0.49176059808E+03 0.  0.
        3    1    3    3  502    0 -0.18530392243E+03 -0.74475967067E+02 -0.11266798844E+03  0.22929958386E+03  0.10100000352E+00 0.  1.
       -3    1    3    3    0  502  0.18530392243E+03  0.74475967067E+02 -0.63441164858E+03  0.66510327273E+03  0.10100000352E+00 0. -1.
</event>
<event>
 5   0  0.2488968E-01  0.4983689E+03  0.7818609E-02  0.1014206E+00
        2   -1    0    0  501    0  0.00000000000E+00  0.00000000000E+00  0.46490766463E+03  0.46490766464E+03  0.25500000920E-02 0.  1.
       -2   -1    0    0    0  501  0.00000000000E+00  0.00000000000E+00 -0.13355962761E+03  0.13355962764E+03  0.25500000920E-02 0. -1.
    10030    2    1    2    0    0  0.00000000000E+00  0.00000000000E+00  0.33134803702E+03  0.59846729227E+03  0.49836891786E+03 0.  0.
        2    1    3    3  502    0  0.38915443587E+02 -0.22480852588E+03  0.45351231692E+02  0.23261560412E+03  0.25500000920E-02 0. -1.
       -2    1    3    3    0  502 -0.38915443587E+02  0.22480852588E+03  0.28599680533E+03  0.36585168815E+03  0.25500000920E-02 0.  1.
</event>
<event>
 5   0  0.2511944E-01  0.4961984E+03  0.7818609E-02  0.1014776E+00
        2   -1    0    0  501    0  0.00000000000E+00  0.00000000000E+00  0.34594841630E+03  0.34594841631E+03  0.25500000920E-02 0.  1.
       -2   -1    0    0    0  501  0.00000000000E+00  0.00000000000E+00 -0.17792597622E+03  0.17792597624E+03  0.25500000920E-02 0. -1.
    10030    2    1    2    0    0  0.00000000000E+00  0.00000000000E+00  0.16802244009E+03  0.52387439255E+03  0.49619838653E+03 0.  0.
        1    1    3    3  502    0  0.17706404881E+03  0.80387468044E+02 -0.78658446055E+02  0.20976409025E+03  0.50400001928E-02 0. -1.
       -1    1    3    3    0  502 -0.17706404881E+03 -0.80387468044E+02  0.24668088614E+03  0.31411030230E+03  0.50400001928E-02 0.  1.
</event>
<event>
 5   0  0.2504064E-01  0.3738286E+03  0.7818609E-02  0.1053239E+00
       -2   -1    0    0    0  501  0.00000000000E+00  0.00000000000E+00  0.45995842595E+02  0.45995842666E+02  0.25500000920E-02 0.  1.
        2   -1    0    0  501    0  0.00000000000E+00  0.00000000000E+00 -0.75956775958E+03  0.75956775959E+03  0.25500000920E-02 0. -1.
    10030    2    1    2    0    0  0.00000000000E+00  0.00000000000E+00 -0.71357191699E+03  0.80556360225E+03  0.37382861924E+03 0.  0.
        5    1    3    3  502    0  0.12331371315E+03  0.88975626372E+02 -0.59078809931E+03  0.61006196589E+03  0.46999998093E+01 0. -1.
       -5    1    3    3    0  502 -0.12331371315E+03 -0.88975626372E+02 -0.12278381768E+03  0.19550163636E+03  0.46999998093E+01 0.  1.
</event>
<event>
 5   0  0.9868500E-02  0.4982589E+03  0.7818609E-02  0.1014234E+00
        3   -1    0    0  501    0  0.00000000000E+00  0.00000000000E+00  0.19383035261E+03  0.19383037892E+03  0.10100000352E+00 0. -1.
       -3   -1    0    0    0  501  0.00000000000E+00  0.00000000000E+00 -0.32020517288E+03  0.32020518880E+03  0.10100000352E+00 0.  1.
    10030    2    1    2    0    0  0.00000000000E+00  0.00000000000E+00 -0.12637482027E+03  0.51403556773E+03  0.49825893840E+03 0.  0.
        1    1    3    3  502    0  0.10138895012E+03  0.20508426083E+03  0.38556891998E+02  0.23200411029E+03  0.50400001928E-02 0. -1.
       -1    1    3    3    0  502 -0.10138895012E+03 -0.20508426083E+03 -0.16493171227E+03  0.28203145743E+03  0.50400001928E-02 0.  1.
</event>
<event>
 5   0  0.2488968E-01  0.5044009E+03  0.7818609E-02  0.1012637E+00
       -2   -1    0    0    0  501  0.00000000000E+00  0.00000000000E+00  0.77424847193E+02  0.77424847235E+02  0.25500000920E-02 0.  1.
        2   -1    0    0  501    0  0.00000000000E+00  0.00000000000E+00 -0.82150704610E+03  0.82150704611E+03  0.25500000920E-02 0. -1.
    10030    2    1    2    0    0  0.00000000000E+00  0.00000000000E+00 -0.74408219891E+03  0.89893189334E+03  0.50440086254E+03 0.  0.
        2    1    3    3  502    0  0.91388027316E+02  0.23009602417E+03 -0.28640184645E+03  0.37857888152E+03  0.25500000920E-02 0.  1.
       -2    1    3    3    0  502 -0.91388027316E+02 -0.23009602417E+03 -0.45768035246E+03  0.52035301182E+03  0.25500000920E-02 0. -1.
</event>
<event>
 5   0  0.1413361E-01  0.4806257E+03  0.7818609E-02  0.1018963E+00
        1   -1    0    0  501    0  0.00000000000E+00  0.00000000000E+00  0.56378858878E+03  0.56378858880E+03  0.50400001928E-02 0. -1.
       -1   -1    0    0    0  501  0.00000000000E+00  0.00000000000E+00 -0.10243249133E+03  0.10243249146E+03  0.50400001928E-02 0.  1.
    10030    2    1    2    0    0  0.00000000000E+00  0.00000000000E+00  0.46135609745E+03  0.66622108026E+03  0.48062571626E+03 0.  0.
        3    1    3    3  502    0 -0.20610925512E+03 -0.58013836797E+01  0.59581661111E+02  0.21462680550E+03  0.10100000352E+00 0.  1.
       -3    1    3    3    0  502  0.20610925512E+03  0.58013836797E+01  0.40177443634E+03  0.45159427476E+03  0.10100000352E+00 0. -1.
</event>
<event>
 5   0  0.1529146E-01  0.5172058E+03  0.7818609E-02  0.1009383E+00
        1   -1    0    0  501    0  0.00000000000E+00  0.00000000000E+00  0.72984062415E+03  0.72984062417E+03  0.50400001928E-02 0. -1.
       -1   -1    0    0    0  501  0.00000000000E+00  0.00000000000E+00 -0.91630210953E+02  0.91630211092E+02  0.50400001928E-02 0.  1.
    10030    2    1    2    0    0  0.00000000000E+00  0.00000000000E+00  0.63821041320E+03  0.82147083526E+03  0.51720576338E+03 0.  0.
        1    1    3    3  502    0  0.14124622550E+02 -0.15487275860E+03 -0.90609371361E+01  0.15577925705E+03  0.50400001928E-02 0.  1.
       -1    1    3    3    0  502 -0.14124622550E+02  0.15487275860E+03  0.64727135033E+03  0.66569157821E+03  0.50400001928E-02 0. -1.
</event>
<event>
 5   0  0.2413301E-01  0.4957488E+03  0.7818609E-02  0.1014895E+00
       -2   -1    0    0    0  501  0.00000000000E+00  0.00000000000E+00  0.31026687238E+02  0.31026687343E+02  0.25500000920E-02 0. -1.
        2   -1    0    0  501    0  0.00000000000E+00  0.00000000000E+00 -0.19802864836E+04  0.19802864836E+04  0.25500000920E-02 0.  1.
    10030    2    1    2    0    0  0.00000000000E+00  0.00000000000E+00 -0.19492597963E+04  0.20113131709E+04  0.49574884558E+03 0.  0.
        4    1    3    3  502    0 -0.45933834870E+02 -0.15666039043E+03 -0.21791727626E+03  0.27229018952E+03  0.12699999809E+01 0. -1.
       -4    1    3    3    0  502  0.45933834870E+02  0.15666039043E+03 -0.17313425201E+04  0.17390229814E+04  0.12699999809E+01 0.  1.
</event>
<event>
 5   0  0.2504064E-01  0.4972873E+03  0.7818609E-02  0.1014489E+00
        2   -1    0    0  501    0  0.00000000000E+00  0.00000000000E+00  0.53928387505E+03  0.53928387505E+03  0.25500000920E-02 0.  1.
       -2   -1    0    0    0  501  0.00000000000E+00  0.00000000000E+00 -0.11464027687E+03  0.11464027690E+03  0.25500000920E-02 0. -1.
    10030    2    1    2    0    0  0.00000000000E+00  0.00000000000E+00  0.42464359818E+03  0.65392415195E+03  0.49728725204E+03 0.  0.
        5    1    3    3  502    0  0.20013731508E+03 -0.11879711581E+03  0.32721444649E+03  0.40157077035E+03  0.46999998093E+01 0.  1.
       -5    1    3    3    0  502 -0.20013731508E+03  0.11879711581E+03  0.97429151685E+02  0.25235338160E+03  0.46999998093E+01 0. -1.
</event>
<event>
 5   0  0.2504064E-01  0.4990625E+03  0.7818609E-02  0.1014024E+00
       -2   -1    0    0    0  501  0.00000000000E+00  0.00000000000E+00  0.15902879193E+03  0.15902879195E+03  0.25500000920E-02 0.  1.
        2   -1    0    0  501    0  0.00000000000E+00  0.00000000000E+00 -0.39153821836E+03  0.39153821837E+03  0.25500000920E-02 0. -1.
    10030    2    1    2    0    0  0.00000000000E+00  0.00000000000E+00 -0.23250942642E+03  0.55056701032E+03  0.49906252061E+03 0.  0.
        5    1    3    3  502    0 -0.29048539529E+02 -0.11772052934E+03 -0.35679793716E+03  0.37686708351E+03  0.46999998093E+01 0. -1.
       -5    1    3    3    0  502  0.29048539529E+02  0.11772052934E+03  0.12428851073E+03  0.17369992681E+03  0.46999998093E+01 0.  1.
</event>
<event>
 5   0  0.1439814E-01  0.5370885E+03  0.7818609E-02  0.1004527E+00
       -1   -1    0    0    0  501  0.00000000000E+00  0.00000000000E+00  0.12062209341E+03  0.12062209352E+03  0.50400001928E-02 0.  1.
        1   -1    0    0  501    0  0.00000000000E+00  0.00000000000E+00 -0.59786730687E+03  0.59786730689E+03  0.50400001928E-02 0. -1.
    10030    2    1    2    0    0  0.00000000000E+00  0.00000000000E+00 -0.47724521346E+03  0.71848940040E+03  0.53708847011E+03 0.  0.
        4    1    3    3  502    0 -0.18695671976E+03 -0.11445428528E+03 -0.31112838359E+02  0.22140962060E+03  0.12699999809E+01 0.  1.
       -4    1    3    3    0  502  0.18695671976E+03  0.11445428528E+03 -0.44613237510E+03  0.49707977981E+03  0.12699999809E+01 0. -1.
</event>
<event>
 5   0  0.1448458E-01  0.4997723E+03  0.7818609E-02  0.1013838E+00
       -1   -1    0    0    0  501  0.00000000000E+00  0.00000000000E+00  0.13113593434E+03  0.13113593444E+03  0.50400001928E-02 0.  1.
        1   -1    0    0  501    0  0.00000000000E+00  0.00000000000E+00 -0.47617061382E+03  0.47617061385E+03  0.50400001928E-02 0. -1.
    10030    2    1    2    0    0  0.00000000000E+00  0.00000000000E+00 -0.34503467948E+03  0.60730654829E+03  0.49977226168E+03 0.  0.
        5    1    3    3  502    0 -0.17850702095E+03  0.99303313609E+02 -0.34732860249E+03  0.40297041173E+03  0.46999998093E+01 0.  1.
       -5    1    3    3    0  502  0.17850702095E+03 -0.99303313609E+02  0.22939230096E+01  0.20433613656E+03  0.46999998093E+01 0. -1.
</event>
<event>
 5   0  0.2511944E-01  0.4986581E+03  0.7818609E-02  0.1014130E+00
       -2   -1    0    0    0  501  0.00000000000E+00  0.00000000000E+00  0.15314320386E+03  0.15314320388E+03  0.25500000920E-02 0.  1.
        2   -1    0    0  501    0  0.00000000000E+00  0.00000000000E+00 -0.40592707353E+03  0.40592707354E+03  0.25500000920E-02 0. -1.
    10030    2    1    2    0    0  0.00000000000E+00  0.00000000000E+00 -0.25278386967E+03  0.55907027742E+03  0.49865808961E+03 0.  0.
        1    1    3    3  502    0  0.58965576353E+02 -0.16645785764E+03  0.70942531246E+02  0.19031027384E+03  0.50400001928E-02 0.  1.
       -1    1    3    3    0  502 -0.58965576353E+02  0.16645785764E+03 -0.32372640092E+03  0.36876000358E+03  0.50400001928E-02 0. -1.
</event>
<event>
 5   0  0.2413301E-01  0.4787770E+03  0.7818609E-02  0.1019472E+00
       -2   -1    0    0    0  501  0.00000000000E+00  0.00000000000E+00  0.68515880123E+03  0.68515880124E+03  0.25500000920E-02 0. -1.
        2   -1    0    0  501    0  0.00000000000E+00  0.00000000000E+00 -0.83640242177E+02  0.83640242216E+02  0.25500000920E-02 0.  1.
    10030    2    1    2    0    0  0.00000000000E+00  0.00000000000E+00  0.60151855906E+03  0.76879904346E+03  0.47877697556E+03 0.  0.
        4    1    3    3  502    0  0.13412819627E+03 -0.52961388356E+02 -0.60618166456E+01  0.14433863035E+03  0.12699999809E+01 0.  1.
       -4    1    3    3    0  502 -0.13412819627E+03  0.52961388356E+02  0.60758037570E+03  0.62446041310E+03  0.12699999809E+01 0. -1.
</event>
<event>
 5   0  0.2488968E-01  0.3611884E+03  0.7818609E-02  0.1058114E+00
        2   -1    0    0  501    0  0.00000000000E+00  0.00000000000E+00  0.10306617136E+04  0.10306617136E+04  0.25500000920E-02 0. -1.
       -2   -1    0    0    0  501  0.00000000000E+00  0.00000000000E+00 -0.31644006313E+02  0.31644006416E+02  0.25500000920E-02 0.  1.
    10030    2    1    2    0    0  0.00000000000E+00  0.00000000000E+00  0.99901770732E+03  0.10623057201E+04  0.36118840418E+03 0.  0.
        2    1    3    3  502    0 -0.13100767649E+03 -0.12392525019E+03  0.52799192291E+03  0.55793901960E+03  0.25500000920E-02 0.  1.
       -2    1    3    3    0  502  0.13100767649E+03  0.12392525019E+03  0.47102578441E+03  0.50436670045E+03  0.25500000920E-02 0. -1.
</event>
<event>
 5   0  0.2488968E-01  0.5019771E+03  0.7818609E-02  0.1013264E+00
        2   -1    0    0  501    0  0.00000000000E+00  0.00000000000E+00  0.14627804042E+04  0.14627804042E+04  0.25500000920E-02 0.  1.
       -2   -1    0    0    0  501  0.00000000000E+00  0.00000000000E+00 -0.43065424906E+02  0.43065424981E+02  0.25500000920E-02 0. -1.
    10030    2    1    2    0    0  0.00000000000E+00  0.00000000000E+00  0.14197149793E+04  0.15058458292E+04  0.50197712980E+03 0.  0.
        2    1    3    3  502    0 -0.77186822802E+02 -0.97623324470E+02  0.13637043237E+04  0.13693712431E+04  0.25500000920E-02 0.  1.
       -2    1    3    3    0  502  0.77186822802E+02  0.97623324470E+02  0.56010655655E+02  0.13647458609E+03  0.25500000920E-02 0. -1.
</event>
<event>
 5   0  0.9868500E-02  0.5025674E+03  0.7818609E-02  0.1013111E+00
        4   -1    0    0  501    0  0.00000000000E+00  0.00000000000E+00  0.17253853440E+03  0.17254320837E+03  0.12699999809E+01 0.  1.
       -4   -1    0    0    0  501  0.00000000000E+00  0.00000000000E+00 -0.36595672337E+03  0.36595892704E+03  0.12699999809E+01 0. -1.
    10030    2    1    2    0    0  0.00000000000E+00  0.00000000000E+00 -0.19341818897E+03  0.53850213540E+03  0.50256736266E+03 0.  0.
        1    1    3    3  502    0  0.42417338846E+01  0.92240223366E+02  0.15370456373E+03  0.17930795869E+03  0.50400001928E-02 0.  1.
       -1    1    3    3    0  502 -0.42417338846E+01 -0.92240223366E+02 -0.34712275270E+03  0.35919417671E+03  0.50400001928E-02 0. -1.
</event>
<event>
 5   0  0.1529146E-01  0.5005164E+03  0.7818609E-02  0.1013644E+00
       -1   -1    0    0    0  501  0.00000000000E+00  0.00000000000E+00  0.28437499231E+03  0.28437499235E+03  0.50400001928E-02 0. -1.
        1   -1    0    0  501    0  0.00000000000E+00  0.00000000000E+00 -0.22023441062E+03  0.22023441068E+03  0.50400001928E-02 0.  1.
    10030    2    1    2    0    0  0.00000000000E+00  0.00000000000E+00  0.64140581685E+02  0.50460940303E+03  0.50051636877E+03 0.  0.
        1    1    3    3  502    0  0.11592294037E+02  0.66923165134E+02  0.27490524370E+03  0.28317129860E+03  0.50400001928E-02 0. -1.
       -1    1    3    3    0  502 -0.11592294037E+02 -0.66923165134E+02 -0.21076466202E+03  0.22143810443E+03  0.50400001928E-02 0.  1.
</event>
<event>
 5   0  0.2504064E-01  0.5182818E+03  0.7818609E-02  0.1009114E+00
        2   -1    0    0  501    0  0.00000000000E+00  0.00000000000E+00  0.24791562627E+03  0.24791562628E+03  0.25500000920E-02 0. -1.
       -2   -1    0    0    0  501  0.00000000000E+00  0.00000000000E+00 -0.27087447313E+03  0.27087447314E+03  0.25500000920E-02 0.  1.
    10030    2    1    2    0    0  0.00000000000E+00  0.00000000000E+00 -0.22958846860E+02  0.51879009942E+03  0.51828183318E+03 0.  0.
        5    1    3    3  502    0 -0.49638816569E+02 -0.88385966895E+01  0.24291502837E+03  0.24813692573E+03  0.46999998093E+01 0. -1.
       -5    1    3    3    0  502  0.49638816569E+02  0.88385966895E+01 -0.26587387523E+03  0.27065317369E+03  0.46999998093E+01 0.  1.
</event>
<event>
 5   0  0.2511944E-01  0.4418949E+03  0.7818609E-02  0.1030167E+00
       -2   -1    0    0    0  501  0.00000000000E+00  0.00000000000E+00  0.12840224438E+03  0.12840224441E+03  0.25500000920E-02 0.  1.
        2   -1    0    0  501    0  0.00000000000E+00  0.00000000000E+00 -0.38019408993E+03  0.38019408994E+03  0.25500000920E-02 0. -1.
    10030    2    1    2    0    0  0.00000000000E+00  0.00000000000E+00 -0.25179184555E+03  0.50859633435E+03  0.44189489455E+03 0.  0.
        1    1    3    3  502    0  0.11468827473E+03  0.18884912527E+03 -0.12518461115E+03  0.25394601665E+03  0.50400001928E-02 0.  1.
       -1    1    3    3    0  502 -0.11468827473E+03 -0.18884912527E+03 -0.12660723439E+03  0.25465031770E+03  0.50400001928E-02 0. -1.
</event>
<event>
 5   0  0.1439814E-01  0.5035996E+03  0.7818609E-02  0.1012844E+00
       -1   -1    0    0    0  501  0.00000000000E+00  0.00000000000E+00  0.15049256116E+03  0.15049256125E+03  0.50400001928E-02 0.  1.
        1   -1    0    0  501    0  0.00000000000E+00  0.00000000000E+00 -0.42130409122E+03  0.42130409125E+03  0.50400001928E-02 0. -1.
    10030    2    1    2    0    0  0.00000000000E+00  0.00000000000E+00 -0.27081153006E+03  0.57179665250E+03  0.50359957009E+03 0.  0.
        4    1    3    3  502    0  0.90506060843E+02  0.17554842399E+03  0.41926669752E+02  0.20191100701E+03  0.12699999809E+01 0.  1.
       -4    1    3    3    0  502 -0.90506060843E+02 -0.17554842399E+03 -0.31273819981E+03  0.36988564549E+03  0.12699999809E+01 0. -1.
</event>
<event>
 5   0  0.1413361E-01  0.5127115E+03  0.7818609E-02  0.1010513E+00
        1   -1    0    0  501    0  0.00000000000E+00  0.00000000000E+00  0.35730346242E+03  0.35730346245E+03  0.50400001928E-02 0.  1.
       -1   -1    0    0    0  501  0.00000000000E+00  0.00000000000E+00 -0.18392848105E+03  0.18392848112E+03  0.50400001928E-02 0. -1.
    10030    2    1    2    0    0  0.00000000000E+00  0.00000000000E+00  0.17337498137E+03  0.54123194357E+03  0.51271154909E+03 0.  0.
        3    1    3    3  502    0  0.17906390960E+03  0.17140426997E+03  0.15570775617E+03  0.29272550797E+03  0.10100000352E+00 0.  1.
       -3    1    3    3    0  502 -0.17906390960E+03 -0.17140426997E+03  0.17667225200E+02  0.24850643560E+03  0.10100000352E+00 0. -1.
</event>
<event>
 5   0  0.2504064E-01  0.5057580E+03  0.7818609E-02  0.1012287E+00
       -2   -1    0    0    0  501  0.00000000000E+00  0.00000000000E+00  0.68896335508E+02  0.68896335555E+02  0.25500000920E-02 0.  1.
        2   -1    0    0  501    0  0.00000000000E+00  0.00000000000E+00 -0.92817402072E+03  0.92817402073E+03  0.25500000920E-02 0. -1.
    10030    2    1    2    0    0  0.00000000000E+00  0.00000000000E+00 -0.85927768522E+03  0.99707035628E+03  0.50575800050E+03 0.  0.
        5    1    3    3  502    0 -0.41320578444E+02  0.21173205879E+03 -0.16967921350E+03  0.27450133044E+03  0.46999998093E+01 0.  1.
       -5    1    3    3    0  502  0.41320578444E+02 -0.21173205879E+03 -0.68959847171E+03  0.72256902584E+03  0.46999998093E+01 0. -1.
</event>
<event>
 5   0  0.9868500E-02  0.5055812E+03  0.7818609E-02  0.1012332E+00
        4   -1    0    0  501    0  0.00000000000E+00  0.00000000000E+00  0.21970549530E+03  0.21970916586E+03  0.12699999809E+01 0. -1.
       -4   -1    0    0    0  501  0.00000000000E+00  0.00000000000E+00 -0.29085043319E+03  0.29085320591E+03  0.12699999809E+01 0.  1.
    10030    2    1    2    0    0  0.00000000000E+00  0.00000000000E+00 -0.71144937890E+02  0.51056237177E+03  0.50558118367E+03 0.  0.
        2    1    3    3  502    0 -0.37909462658E+02 -0.18570945084E+03  0.13334162658E+03  0.23174364474E+03  0.25500000920E-02 0. -1.
       -2    1    3    3    0  502  0.37909462658E+02  0.18570945084E+03 -0.20448656447E+03  0.27881872703E+03  0.25500000920E-02 0.  1.
</event>
<event>
 5   0  0.2488968E-01  0.5640467E+03  0.7818609E-02  0.9982940E-01
        2   -1    0    0  501    0  0.00000000000E+00  0.00000000000E+00  0.46258713905E+03  0.46258713906E+03  0.25500000920E-02 0. -1.
       -2   -1    0    0    0  501  0.00000000000E+00  0.00000000000E+00 -0.17193989216E+03  0.17193989218E+03  0.25500000920E-02 0.  1.
    10030    2    1    2    0    0  0.00000000000E+00  0.00000000000E+00  0.29064724689E+03  0.63452703124E+03  0.56404674562E+03 0.  0.
        2    1    3    3  502    0  0.17444545865E+03  0.19983900738E+03  0.25305138896E+03  0.36660858197E+03  0.25500000920E-02 0. -1.
       -2    1    3    3    0  502 -0.17444545865E+03 -0.19983900738E+03  0.37595857929E+02  0.26791844926E+03  0.25500000920E-02 0.  1.
</event>
<event>
 5   0  0.2413301E-01  0.4156085E+03  0.7818609E-02  0.1038505E+00
        2   -1    0    0  501    0  0.00000000000E+00  0.00000000000E+00  0.17763442733E+03  0.17763442735E+03  0.25500000920E-02 0.  1.
       -2   -1    0    0    0  501  0.00000000000E+00  0.00000000000E+00 -0.24309823051E+03  0.24309823052E+03  0.25500000920E-02 0. -1.
    10030    2    1    2    0    0  0.00000000000E+00  0.00000000000E+00 -0.65463803177E+02  0.42073265787E+03  0.41560854162E+03 0.  0.
        4    1    3    3  502    0 -0.12179073833E+03  0.10879373460E+03 -0.16281498693E+03  0.23060657731E+03  0.12699999809E+01 0. -1.
       -4    1    3    3    0  502  0.12179073833E+03 -0.10879373460E+03  0.97351183751E+02  0.19012608056E+03  0.12699999809E+01 0.  1.
</event>
<event>
 5   0  0.1529146E-01  0.4971462E+03  0.7818609E-02  0.1014526E+00
       -1   -1    0    0    0  501  0.00000000000E+00  0.00000000000E+00  0.16689753987E+03  0.16689753995E+03  0.50400001928E-02 0. -1.
        1   -1    0    0  501    0  0.00000000000E+00  0.00000000000E+00 -0.37021868974E+03  0.37021868977E+03  0.50400001928E-02 0.  1.
    10030    2    1    2    0    0  0.00000000000E+00  0.00000000000E+00 -0.20332114987E+03  0.53711622972E+03  0.49714621013E+03 0.  0.
        1    1    3    3  502    0 -0.15440238580E+03  0.15389675396E+03 -0.23069603777E+03  0.31740348059E+03  0.50400001928E-02 0.  1.
       -1    1    3    3    0  502  0.15440238580E+03 -0.15389675396E+03  0.27374887906E+02  0.21971274914E+03  0.50400001928E-02 0. -1.
</event>
<event>
 5   0  0.1529146E-01  0.5068654E+03  0.7818609E-02  0.1012002E+00
        1   -1    0    0  501    0  0.00000000000E+00  0.00000000000E+00  0.48463375365E+03  0.48463375368E+03  0.50400001928E-02 0.  1.
       -1   -1    0    0    0  501  0.00000000000E+00  0.00000000000E+00 -0.13252921284E+03  0.13252921294E+03  0.50400001928E-02 0. -1.
    10030    2    1    2    0    0  0.00000000000E+00  0.00000000000E+00  0.35210454080E+03  0.61716296662E+03  0.50686538618E+03 0.  0.
        1    1    3    3  502    0  0.23497215557E+03  0.79262636268E+02  0.23971404170E+03  0.34490187187E+03  0.50400001928E-02 0. -1.
       -1    1    3    3    0  502 -0.23497215557E+03 -0.79262636268E+02  0.11239049910E+03  0.27226109475E+03  0.50400001928E-02 0.  1.
</event>
<event>
 5   0  0.1413361E-01  0.4784705E+03  0.7818609E-02  0.1019556E+00
        1   -1    0    0  501    0  0.00000000000E+00  0.00000000000E+00  0.47511546452E+03  0.47511546455E+03  0.50400001928E-02 0.  1.
       -1   -1    0    0    0  501  0.00000000000E+00  0.00000000000E+00 -0.12046229365E+03  0.12046229375E+03  0.50400001928E-02 0. -1.
    10030    2    1    2    0    0  0.00000000000E+00  0.00000000000E+00  0.35465317087E+03  0.59557775830E+03  0.47847047408E+03 0.  0.
        3    1    3    3  502    0  0.55523214991E+02  0.10558692380E+03  0.43545033850E+03  0.45149577338E+03  0.10100000352E+00 0.  1.
       -3    1    3    3    0  502 -0.55523214991E+02 -0.10558692380E+03 -0.80797167626E+02  0.14408198492E+03  0.10100000352E+00 0. -1.
</event>
<event>
 5   0  0.2511944E-01  0.4754681E+03  0.7818609E-02  0.1020388E+00
       -2   -1    0    0    0  501  0.00000000000E+00  0.00000000000E+00  0.10739583919E+03  0.10739583922E+03  0.25500000920E-02 0.  1.
        2   -1    0    0  501    0  0.00000000000E+00  0.00000000000E+00 -0.52625393733E+03  0.52625393733E+03  0.25500000920E-02 0. -1.
    10030    2    1    2    0    0  0.00000000000E+00  0.00000000000E+00 -0.41885809814E+03  0.63364977656E+03  0.47546811981E+03 0.  0.
        1    1    3    3  502    0  0.18273144803E+03  0.15024768844E+03 -0.17810856457E+03  0.29612127714E+03  0.50400001928E-02 0.  1.
       -1    1    3    3    0  502 -0.18273144803E+03 -0.15024768844E+03 -0.24074953357E+03  0.33752849942E+03  0.50400001928E-02 0. -1.
</event>
<event>
 5   0  0.1448458E-01  0.4990398E+03  0.7818609E-02  0.1014030E+00
       -1   -1    0    0    0  501  0.00000000000E+00  0.00000000000E+00  0.69672820569E+02  0.69672820751E+02  0.50400001928E-02 0. -1.
        1   -1    0    0  501    0  0.00000000000E+00  0.00000000000E+00 -0.89360797466E+03  0.89360797467E+03  0.50400001928E-02 0.  1.
    10030    2    1    2    0    0  0.00000000000E+00  0.00000000000E+00 -0.82393515409E+03  0.96328079542E+03  0.49903983076E+03 0.  0.
        5    1    3    3  502    0 -0.24475255597E+03 -0.18723136076E+01 -0.31877780777E+03  0.40193121294E+03  0.46999998093E+01 0. -1.
       -5    1    3    3    0  502  0.24475255597E+03  0.18723136076E+01 -0.50515734632E+03  0.56134958248E+03  0.46999998093E+01 0.  1.
</event>
<event>
 5   0  0.2413301E-01  0.4790213E+03  0.7818609E-02  0.1019404E+00
       -2   -1    0    0    0  501  0.00000000000E+00  0.00000000000E+00  0.63787511102E+02  0.63787511153E+02  0.25500000920E-02 0. -1.
        2   -1    0    0  501    0  0.00000000000E+00  0.00000000000E+00 -0.89931961657E+03  0.89931961657E+03  0.25500000920E-02 0.  1.
    10030    2    1    2    0    0  0.00000000000E+00  0.00000000000E+00 -0.83553210547E+03  0.96310712773E+03  0.47902133586E+03 0.  0.
        4    1    3    3  502    0 -0.79871246594E+02  0.16373043126E+03 -0.73038697761E+03  0.75276411984E+03  0.12699999809E+01 0.  1.
       -4    1    3    3    0  502  0.79871246594E+02 -0.16373043126E+03 -0.10514512785E+03  0.21034300788E+03  0.12699999809E+01 0. -1.
</event>
<event>
 5   0  0.1439814E-01  0.5020375E+03  0.7818609E-02  0.1013248E+00
       -1   -1    0    0    0  501  0.00000000000E+00  0.00000000000E+00  0.24303085125E+03  0.24303085130E+03  0.50400001928E-02 0. -1.
        1   -1    0    0  501    0  0.00000000000E+00  0.00000000000E+00 -0.25926920806E+03  0.25926920811E+03  0.50400001928E-02 0.  1.
    10030    2    1    2    0    0  0.00000000000E+00  0.00000000000E+00 -0.16238356811E+02  0.50230005941E+03  0.50203751398E+03 0.  0.
        4    1    3    3  502    0  0.24848262468E+03  0.34659099290E+02 -0.16119329711E+02  0.25140865860E+03  0.12699999809E+01 0. -1.
       -4    1    3    3    0  502 -0.24848262468E+03 -0.34659099290E+02 -0.11902709926E+00  0.25089140080E+03  0.12699999809E+01 0.  1.
</event>
<event>
 5   0  0.1448458E-01  0.5013153E+03  0.7818609E-02  0.1013436E+00
        1   -1    0    0  501    0  0.00000000000E+00  0.00000000000E+00  0.53723515991E+03  0.53723515993E+03  0.50400001928E-02 0. -1.
       -1   -1    0    0    0  501  0.00000000000E+00  0.00000000000E+00 -0.11694924786E+03  0.11694924797E+03  0.50400001928E-02 0.  1.
    10030    2    1    2    0    0  0.00000000000E+00  0.00000000000E+00  0.42028591205E+03  0.65418440790E+03  0.50131526176E+03 0.  0.
        5    1    3    3  502    0  0.19912267549E+03  0.45241795315E+02  0.20542882427E+02  0.20528214719E+03  0.46999998093E+01 0.  1.
       -5    1    3    3    0  502 -0.19912267549E+03 -0.45241795315E+02  0.39974302962E+03  0.44890226071E+03  0.46999998093E+01 0. -1.
</event>
<event>
 5   0  0.2511944E-01  0.4924820E+03  0.7818609E-02  0.1015760E+00
        2   -1    0    0  501    0  0.00000000000E+00  0.00000000000E+00  0.97923416885E+03  0.97923416885E+03  0.25500000920E-02 0.  1.
       -2   -1    0    0    0  501  0.00000000000E+00  0.00000000000E+00 -0.61920463879E+02  0.61920463932E+02  0.25500000920E-02 0. -1.
    10030    2    1    2    0    0  0.00000000000E+00  0.00000000000E+00  0.91731370497E+03  0.10411546328E+04  0.49248201596E+03 0.  0.
        1    1    3    3  502    0  0.52186851432E+02 -0.20514997069E+03  0.72460195661E+03  0.75488937831E+03  0.50400001928E-02 0.  1.
       -1    1    3    3    0  502 -0.52186851432E+02  0.20514997069E+03  0.19271174835E+03  0.28626525447E+03  0.50400001928E-02 0. -1.
</event>
<event>
 5   0  0.1413361E-01  0.5003994E+03  0.7818609E-02  0.1013675E+00
       -1   -1    0    0    0  501  0.00000000000E+00  0.00000000000E+00  0.36509532904E+02  0.36509533252E+02  0.50400001928E-02 0.  1.
        1   -1    0    0  501    0  0.00000000000E+00  0.00000000000E+00 -0.17146174934E+04  0.17146174934E+04  0.50400001928E-02 0. -1.
    10030    2    1    2    0    0  0.00000000000E+00  0.00000000000E+00 -0.16781079605E+04  0.17511270267E+04  0.50039937691E+03 0.  0.
        3    1    3    3  502    0 -0.50233607664E+02  0.18544457172E+03 -0.27819247401E+03  0.33808899319E+03  0.10100000352E+00 0.  1.
       -3    1    3    3    0  502  0.50233607664E+02 -0.18544457172E+03 -0.13999154865E+04  0.14130380335E+04  0.10100000352E+00 0. -1.
</event>
<event>
 5   0  0.2488968E-01  0.5091012E+03  0.7818609E-02  0.1011430E+00
       -2   -1    0    0    0  501  0.00000000000E+00  0.00000000000E+00  0.21597986403E+03  0.21597986404E+03  0.25500000920E-02 0.  1.
        2   -1    0    0  501    0  0.00000000000E+00  0.00000000000E+00 -0.30000943560E+03  0.30000943561E+03  0.25500000920E-02 0. -1.
    10030    2    1    2    0    0  0.00000000000E+00  0.00000000000E+00 -0.84029571568E+02  0.51598929965E+03  0.50910115739E+03 0.  0.
        2    1    3    3  502    0 -0.24055824501E+03  0.27824176956E+02 -0.12152066280E+03  0.27094229193E+03  0.25500000920E-02 0. -1.
       -2    1    3    3    0  502  0.24055824501E+03 -0.27824176956E+02  0.37491091234E+02  0.24504700772E+03  0.25500000920E-02 0.  1.
</event>
<event>
 5   0  0.2488968E-01  0.4991203E+03  0.7818609E-02  0.1014009E+00
       -2   -1    0    0    0  501  0.00000000000E+00  0.00000000000E+00  0.35145657473E+03  0.35145657474E+03  0.25500000920E-02 0.  1.
        2   -1    0    0  501    0  0.00000000000E+00  0.00000000000E+00 -0.17720613735E+03  0.17720613737E+03  0.25500000920E-02 0. -1.
    10030    2    1    2    0    0  0.00000000000E+00  0.00000000000E+00  0.17425043738E+03  0.52866271211E+03  0.49912027433E+03 0.  0.
        2    1    3    3  502    0  0.14168359122E+03 -0.90553391886E+02  0.28244755737E+03  0.32871078393E+03  0.25500000920E-02 0.  1.
       -2    1    3    3    0  502 -0.14168359122E+03  0.90553391886E+02 -0.10819711998E+03  0.19995192818E+03  0.25500000920E-02 0. -1.
</event>
<event>
 5   0  0.2413301E-01  0.5042113E+03  0.7818609E-02  0.1012686E+00
        2   -1    0    0  501    0  0.00000000000E+00  0.00000000000E+00  0.73296480728E+03  0.73296480728E+03  0.25500000920E-02 0. -1.
       -2   -1    0    0    0  501  0.00000000000E+00  0.00000000000E+00 -0.86712573363E+02  0.86712573401E+02  0.25500000920E-02 0.  1.
    10030    2    1    2    0    0  0.00000000000E+00  0.00000000000E+00  0.64625223391E+03  0.81967738068E+03  0.50421132332E+03 0.  0.
        4    1    3    3  502    0  0.19233778363E+03 -0.83659222229E+02  0.55050371575E+03  0.58910834524E+03  0.12699999809E+01 0. -1.
       -4    1    3    3    0  502 -0.19233778363E+03  0.83659222229E+02  0.95748518159E+02  0.23056903544E+03  0.12699999809E+01 0.  1.
</event>
<event>
 5   0  0.2504064E-01  0.5002697E+03  0.7818609E-02  0.1013709E+00
        2   -1    0    0  501    0  0.00000000000E+00  0.00000000000E+00  0.51228528934E+03  0.51228528934E+03  0.25500000920E-02 0. -1.
       -2   -1    0    0    0  501  0.00000000000E+00  0.00000000000E+00 -0.12213396345E+03  0.12213396348E+03  0.25500000920E-02 0.  1.
    10030    2    1    2    0    0  0.00000000000E+00  0.00000000000E+00  0.39015132588E+03  0.63441925282E+03  0.50026965855E+03 0.  0.
        5    1    3    3  502    0  0.18806771386E+03 -0.13893500388E+02 -0.13237200007E+02  0.18910263830E+03  0.46999998093E+01 0.  1.
       -5    1    3    3    0  502 -0.18806771386E+03  0.13893500388E+02  0.40338852589E+03  0.44531661452E+03  0.46999998093E+01 0. -1.
</event>
<event>
 5   0  0.2511944E-01  0.5009301E+03  0.7818609E-02  0.1013536E+00
        2   -1    0    0  501    0  0.00000000000E+00  0.00000000000E+00  0.18555206307E+04  0.18555206307E+04  0.25500000920E-02 0. -1.
       -2   -1    0    0    0  501  0.00000000000E+00  0.00000000000E+00 -0.33808700391E+02  0.33808700487E+02  0.25500000920E-02 0.  1.
    10030    2    1    2    0    0  0.00000000000E+00  0.00000000000E+00  0.18217119303E+04  0.18893293312E+04  0.50093009957E+03 0.  0.
        1    1    3    3  502    0  0.17229252432E+03  0.35627533816E+02  0.23850095778E+03  0.29637264042E+03  0.50400001928E-02 0.  1.
       -1    1    3    3    0  502 -0.17229252432E+03 -0.35627533816E+02  0.15832109725E+04  0.15929566908E+04  0.50400001928E-02 0. -1.
</event>
<event>
 5   0  0.2504064E-01  0.4890673E+03  0.7818609E-02  0.1016673E+00
       -2   -1    0    0    0  501  0.00000000000E+00  0.00000000000E+00  0.79542753505E+02  0.79542753546E+02  0.25500000920E-02 0. -1.
        2   -1    0    0  501    0  0.00000000000E+00  0.00000000000E+00 -0.75175539795E+03  0.75175539795E+03  0.25500000920E-02 0.  1.
    10030    2    1    2    0    0  0.00000000000E+00  0.00000000000E+00 -0.67221264444E+03  0.83129815150E+03  0.48906725236E+03 0.  0.
        5    1    3    3  502    0  0.18235299854E+03 -0.23229346193E+02 -0.62120718367E+02  0.19409609025E+03  0.46999998093E+01 0. -1.
       -5    1    3    3    0  502 -0.18235299854E+03  0.23229346193E+02 -0.61009192607E+03  0.63720206125E+03  0.46999998093E+01 0.  1.
</event>
<event>
 5   0  0.1439814E-01  0.5178141E+03  0.7818609E-02  0.1009231E+00
       -1   -1    0    0    0  501  0.00000000000E+00  0.00000000000E+00  0.26798467669E+03  0.26798467674E+03  0.50400001928E-02 0. -1.
        1   -1    0    0  501    0  0.00000000000E+00  0.00000000000E+00 -0.25013693199E+03  0.25013693204E+03  0.50400001928E-02 0.  1.
    10030    2    1    2    0    0  0.00000000000E+00  0.00000000000E+00  0.17847744705E+02  0.51812160878E+03  0.51781411674E+03 0.  0.
        4    1    3    3  502    0  0.49334790053E+02 -0.62655013049E+02 -0.23753861601E+03  0.25057090647E+03  0.12699999809E+01 0.  1.
       -4    1    3    3    0  502 -0.49334790053E+02  0.62655013049E+02  0.25538636072E+03  0.26755070232E+03  0.12699999809E+01 0. -1.
</event>
<event>
 5   0  0.1413361E-01  0.4610711E+03  0.7818609E-02  0.1024471E+00
        1   -1    0    0  501    0  0.00000000000E+00  0.00000000000E+00  0.29830802349E+03  0.29830802354E+03  0.50400001928E-02 0.  1.
       -1   -1    0    0    0  501  0.00000000000E+00  0.00000000000E+00 -0.17816031041E+03  0.17816031048E+03  0.50400001928E-02 0. -1.
    10030    2    1    2    0    0  0.00000000000E+00  0.00000000000E+00  0.12014771309E+03  0.47646833401E+03  0.46107114457E+03 0.  0.
        3    1    3    3  502    0 -0.21607377280E+03  0.70055990079E+02  0.10077074415E+03  0.24849641872E+03  0.10100000352E+00 0.  1.
       -3    1    3    3    0  502  0.21607377280E+03 -0.70055990079E+02  0.19376968936E+02  0.22797191530E+03  0.10100000352E+00 0. -1.
</event>
<event>
 5   0  0.2413301E-01  0.5142689E+03  0.7818609E-02  0.1010120E+00
       -2   -1    0    0    0  501  0.00000000000E+00  0.00000000000E+00  0.67957469793E+02  0.67957469841E+02  0.25500000920E-02 0. -1.
        2   -1    0    0  501    0  0.00000000000E+00  0.00000000000E+00 -0.97293404226E+03  0.97293404226E+03  0.25500000920E-02 0.  1.
    10030    2    1    2    0    0  0.00000000000E+00  0.00000000000E+00 -0.90497657246E+03  0.10408915121E+04  0.51426894059E+03 0.  0.
        4    1    3    3  502    0  0.10841183358E+03  0.10136735886E+03 -0.27501286547E+02  0.15095165043E+03  0.12699999809E+01 0. -1.
       -4    1    3    3    0  502 -0.10841183358E+03 -0.10136735886E+03 -0.87747528592E+03  0.88993986167E+03  0.12699999809E+01 0.  1.
</event>
<event>
 5   0  0.2488968E-01  0.4893355E+03  0.7818609E-02  0.1016601E+00
        2   -1    0    0  501    0  0.00000000000E+00  0.00000000000E+00  0.57682220207E+03  0.57682220208E+03  0.25500000920E-02 0. -1.
       -2   -1    0    0    0  501  0.00000000000E+00  0.00000000000E+00 -0.10377948785E+03  0.10377948788E+03  0.25500000920E-02 0.  1.
    10030    2    1    2    0    0  0.00000000000E+00  0.00000000000E+00  0.47304271422E+03  0.68060168996E+03  0.48933551976E+03 0.  0.
        2    1    3    3  502    0 -0.22941206521E+03  0.83606055243E+02  0.21486464502E+03  0.32524864923E+03  0.25500000920E-02 0.  1.
       -2    1    3    3    0  502  0.22941206521E+03 -0.83606055243E+02  0.25817806920E+03  0.35535304073E+03  0.25500000920E-02 0. -1.
</event>
<event>
 5   0  0.1448458E-01  0.6011846E+03  0.7818609E-02  0.9902951E-01
       -1   -1    0    0    0  501  0.00000000000E+00  0.00000000000E+00  0.34828875905E+03  0.34828875909E+03  0.50400001928E-02 0. -1.
        1   -1    0    0  501    0  0.00000000000E+00  0.00000000000E+00 -0.25942765514E+03  0.25942765518E+03  0.50400001928E-02 0.  1.
    10030    2    1    2    0    0  0.00000000000E+00  0.00000000000E+00  0.88861103917E+02  0.60771641427E+03  0.60118461756E+03 0.  0.
        5    1    3    3  502    0  0.13059667526E+03  0.13090412826E+03  0.28394850243E+03  0.33888084103E+03  0.46999998093E+01 0. -1.
       -5    1    3    3    0  502 -0.13059667526E+03 -0.13090412826E+03 -0.19508739852E+03  0.26883557324E+03  0.46999998093E+01 0.  1.
</event>
<event>
 5   0  0.1453602E-01  0.4873737E+03  0.7818609E-02  0.1017128E+00
       -1   -1    0    0    0  501  0.00000000000E+00  0.00000000000E+00  0.14773810758E+03  0.14773810766E+03  0.50400001928E-02 0.  1.
        1   -1    0    0  501    0  0.00000000000E+00  0.00000000000E+00 -0.40194963648E+03  0.40194963651E+03  0.50400001928E-02 0. -1.
    10030    2    1    2    0    0  0.00000000000E+00  0.00000000000E+00 -0.25421152890E+03  0.54968774418E+03  0.48737369099E+03 0.  0.
        2    1    3    3  502    0  0.38149449210E+02 -0.18812029634E+03 -0.29642954016E+03  0.35315024941E+03  0.25500000920E-02 0. -1.
       -2    1    3    3    0  502 -0.38149449210E+02  0.18812029634E+03  0.42218011258E+02  0.19653749477E+03  0.25500000920E-02 0.  1.
</event>
<event>
 5   0  0.2504064E-01  0.4922425E+03  0.7818609E-02  0.1015824E+00
       -2   -1    0    0    0  501  0.00000000000E+00  0.00000000000E+00  0.28475958256E+02  0.28475958370E+02  0.25500000920E-02 0.  1.
        2   -1    0    0  501    0  0.00000000000E+00  0.00000000000E+00 -0.21272566059E+04  0.21272566060E+04  0.25500000920E-02 0. -1.
    10030    2    1    2    0    0  0.00000000000E+00  0.00000000000E+00 -0.20987806477E+04  0.21557325643E+04  0.49224250298E+03 0.  0.
        5    1    3    3  502    0 -0.50923933113E+02 -0.10331624679E+03 -0.97071303329E+02  0.15070640910E+03  0.46999998093E+01 0.  1.
       -5    1    3    3    0  502  0.50923933113E+02  0.10331624679E+03 -0.20017093444E+04  0.20050261552E+04  0.46999998093E+01 0. -1.
</event>
<event>
 5   0  0.1453602E-01  0.4666924E+03  0.7818609E-02  0.1022858E+00
        1   -1    0    0  501    0  0.00000000000E+00  0.00000000000E+00  0.13850839333E+04  0.13850839333E+04  0.50400001928E-02 0.  1.
       -1   -1    0    0    0  501  0.00000000000E+00  0.00000000000E+00 -0.39312017721E+02  0.39312018044E+02  0.50400001928E-02 0. -1.
    10030    2    1    2    0    0  0.00000000000E+00  0.00000000000E+00  0.13457719156E+04  0.14243959514E+04  0.46669237992E+03 0.  0.
        2    1    3    3  502    0  0.83284834674E+02 -0.13311059957E+03  0.14604874291E+03  0.21444120574E+03  0.25500000920E-02 0. -1.
       -2    1    3    3    0  502 -0.83284834674E+02  0.13311059957E+03  0.11997231727E+04  0.12099547456E+04  0.25500000920E-02 0.  1.
</event>
<event>
 5   0  0.1529146E-01  0.4328392E+03  0.7818609E-02  0.1032967E+00
        1   -1    0    0  501    0  0.00000000000E+00  0.00000000000E+00  0.50129415012E+03  0.50129415015E+03  0.50400001928E-02 0.  1.
       -1   -1    0    0    0  501  0.00000000000E+00  0.00000000000E+00 -0.93433049535E+02  0.93433049671E+02  0.50400001928E-02 0. -1.
    10030    2    1    2    0    0  0.00000000000E+00  0.00000000000E+00  0.40786110059E+03  0.59472719982E+03  0.43283919050E+03 0.  0.
        1    1    3    3  502    0 -0.11744202104E+03  0.12347926640E+03  0.20626117826E+02  0.17165428715E+03  0.50400001928E-02 0. -1.
       -1    1    3    3    0  502  0.11744202104E+03 -0.12347926640E+03  0.38723498276E+03  0.42307291267E+03  0.50400001928E-02 0.  1.
</event>
<event>
 5   0  0.1529146E-01  0.4998126E+03  0.7818609E-02  0.1013828E+00
       -1   -1    0    0    0  501  0.00000000000E+00  0.00000000000E+00  0.21668534781E+03  0.21668534787E+03  0.50400001928E-02 0.  1.
        1   -1    0    0  501    0  0.00000000000E+00  0.00000000000E+00 -0.28822051044E+03  0.28822051049E+03  0.50400001928E-02 0. -1.
    10030    2    1    2    0    0  0.00000000000E+00  0.00000000000E+00 -0.71535162637E+02  0.50490585835E+03  0.49981261119E+03 0.  0.
        1    1    3    3  502    0 -0.10990507396E+01 -0.61601889779E+02  0.20889283973E+03  0.21778939196E+03  0.50400001928E-02 0.  1.
       -1    1    3    3    0  502  0.10990507396E+01  0.61601889779E+02 -0.28042800237E+03  0.28711646639E+03  0.50400001928E-02 0. -1.
</event>
<event>
 5   0  0.2511944E-01  0.4908109E+03  0.7818609E-02  0.1016206E+00
       -2   -1    0    0    0  501  0.00000000000E+00  0.00000000000E+00  0.32601344425E+03  0.32601344426E+03  0.25500000920E-02 0. -1.
        2   -1    0    0  501    0  0.00000000000E+00  0.00000000000E+00 -0.18472806186E+03  0.18472806188E+03  0.25500000920E-02 0.  1.
    10030    2    1    2    0    0  0.00000000000E+00  0.00000000000E+00  0.14128538238E+03  0.51074150614E+03  0.49081088702E+03 0.  0.
        1    1    3    3  502    0  0.91373496957E+02 -0.22123270492E+02 -0.16524556223E+03  0.19011746607E+03  0.50400001928E-02 0.  1.
       -1    1    3    3    0  502 -0.91373496957E+02  0.22123270492E+02  0.30653094461E+03  0.32062404007E+03  0.50400001928E-02 0. -1.
</event>
<event>
 5   0  0.1448458E-01  0.5151975E+03  0.7818609E-02  0.1009887E+00
        1   -1    0    0  501    0  0.00000000000E+00  0.00000000000E+00  0.18334547774E+03  0.18334547781E+03  0.50400001928E-02 0. -1.
       -1   -1    0    0    0  501  0.00000000000E+00  0.00000000000E+00 -0.36192395886E+03  0.36192395890E+03  0.50400001928E-02 0.  1.
    10030    2    1    2    0    0  0.00000000000E+00  0.00000000000E+00 -0.17857848112E+03  0.54526943670E+03  0.51519752007E+03 0.  0.
        5    1    3    3  502    0 -0.10144262381E+03 -0.97474586483E+02 -0.31762040195E+03  0.34741432133E+03  0.46999998093E+01 0.  1.
       -5    1    3    3    0  502  0.10144262381E+03  0.97474586483E+02  0.13904192083E+03  0.19785511537E+03  0.46999998093E+01 0. -1.
</event>
<event>
 5   0  0.2466034E-01  0.4557385E+03  0.7818609E-02  0.1026024E+00
        2   -1    0    0  501    0  0.00000000000E+00  0.00000000000E+00  0.11041449775E+04  0.11041449775E+04  0.25500000920E-02 0. -1.
       -2   -1    0    0    0  501  0.00000000000E+00  0.00000000000E+00 -0.47026789121E+02  0.47026789190E+02  0.25500000920E-02 0.  1.
    10030    2    1    2    0    0  0.00000000000E+00  0.00000000000E+00  0.10571181884E+04  0.11511717667E+04  0.45573849106E+03 0.  0.
        3    1    3    3  502    0 -0.98375518675E+02  0.74797446880E+02  0.44973725239E+02  0.13151063416E+03  0.10100000352E+00 0.  1.
       -3    1    3    3    0  502  0.98375518675E+02 -0.74797446880E+02  0.10121444632E+04  0.10196611326E+04  0.10100000352E+00 0. -1.
</event>
<event>
 5   0  0.2504064E-01  0.5018770E+03  0.7818609E-02  0.1013290E+00
        2   -1    0    0  501    0  0.00000000000E+00  0.00000000000E+00  0.92336993324E+03  0.92336993324E+03  0.25500000920E-02 0.  1.
       -2   -1    0    0    0  501  0.00000000000E+00  0.00000000000E+00 -0.68195995634E+02  0.68195995682E+02  0.25500000920E-02 0. -1.
    10030    2    1    2    0    0  0.00000000000E+00  0.00000000000E+00  0.85517393760E+03  0.99156592892E+03  0.50187700470E+03 0.  0.
        5    1    3    3  502    0  0.10094849567E+02 -0.19278409378E+03  0.11097637897E+03  0.22272283109E+03  0.46999998093E+01 0. -1.
       -5    1    3    3    0  502 -0.10094849567E+02  0.19278409378E+03  0.74419755863E+03  0.76884309783E+03  0.46999998093E+01 0.  1.
</event>
<event>
 5   0  0.2413301E-01  0.5038449E+03  0.7818609E-02  0.1012780E+00
       -2   -1    0    0    0  501  0.00000000000E+00  0.00000000000E+00  0.21118876953E+03  0.21118876955E+03  0.25500000920E-02 0.  1.
        2   -1    0    0  501    0  0.00000000000E+00  0.00000000000E+00 -0.30051279916E+03  0.30051279917E+03  0.25500000920E-02 0. -1.
    10030    2    1    2    0    0  0.00000000000E+00  0.00000000000E+00 -0.89324029632E+02  0.51170156872E+03  0.50384492968E+03 0.  0.
        4    1    3    3  502    0 -0.84219527110E+02  0.17296567038E+03 -0.20984278432E+03  0.28468519264E+03  0.12699999809E+01 0. -1.
       -4    1    3    3    0  502  0.84219527110E+02 -0.17296567038E+03  0.12051875469E+03  0.22701637608E+03  0.12699999809E+01 0.  1.
</event>
<event>
 5   0  0.2511944E-01  0.4984086E+03  0.7818609E-02  0.1014195E+00
       -2   -1    0    0    0  501  0.00000000000E+00  0.00000000000E+00  0.32691103784E+03  0.32691103785E+03  0.25500000920E-02 0.  1.
        2   -1    0    0  501    0  0.00000000000E+00  0.00000000000E+00 -0.18996843759E+03  0.18996843761E+03  0.25500000920E-02 0. -1.
    10030    2    1    2    0    0  0.00000000000E+00  0.00000000000E+00  0.13694260024E+03  0.51687947546E+03  0.49840858378E+03 0.  0.
        1    1    3    3  502    0 -0.18154086487E+03 -0.14954598837E+03  0.15387422938E+03  0.28106648102E+03  0.50400001928E-02 0. -1.
       -1    1    3    3    0  502  0.18154086487E+03  0.14954598837E+03 -0.16931629140E+02  0.23581299444E+03  0.50400001928E-02 0.  1.
</event>
<event>
 5   0  0.1453602E-01  0.4991996E+03  0.7818609E-02  0.1013988E+00
       -1   -1    0    0    0  501  0.00000000000E+00  0.00000000000E+00  0.16125781854E+03  0.16125781862E+03  0.50400001928E-02 0. -1.
        1   -1    0    0  501    0  0.00000000000E+00  0.00000000000E+00 -0.38633827246E+03  0.38633827249E+03  0.50400001928E-02 0.  1.
    10030    2    1    2    0    0  0.00000000000E+00  0.00000000000E+00 -0.22508045392E+03  0.54759609111E+03  0.49919962767E+03 0.  0.
        2    1    3    3  502    0 -0.11173946470E+03 -0.21719660589E+03 -0.16890237204E+03  0.29696478726E+03  0.25500000920E-02 0.  1.
       -2    1    3    3    0  502  0.11173946470E+03  0.21719660589E+03 -0.56178081873E+02  0.25063130385E+03  0.25500000920E-02 0. -1.
</event>
<event>
 5   0  0.1413361E-01  0.4943746E+03  0.7818609E-02  0.1015258E+00
        1   -1    0    0  501    0  0.00000000000E+00  0.00000000000E+00  0.45085513883E+03  0.45085513886E+03  0.50400001928E-02 0. -1.
       -1   -1    0    0    0  501  0.00000000000E+00  0.00000000000E+00 -0.13552371165E+03  0.13552371174E+03  0.50400001928E-02 0.  1.
    10030    2    1    2    0    0  0.00000000000E+00  0.00000000000E+00  0.31533142719E+03  0.58637885060E+03  0.49437460236E+03 0.  0.
        3    1    3    3  502    0  0.21307562176E+02  0.22319169106E+03  0.34214123456E+02  0.22680202735E+03  0.10100000352E+00 0.  1.
       -3    1    3    3    0  502 -0.21307562176E+02 -0.22319169106E+03  0.28111730373E+03  0.35957682325E+03  0.10100000352E+00 0. -1.
</event>
<event>
 5   0  0.9868500E-02  0.4894801E+03  0.7818609E-02  0.1016562E+00
        3   -1    0    0  501    0  0.00000000000E+00  0.00000000000E+00  0.23858981075E+03  0.23858983213E+03  0.10100000352E+00 0.  1.
       -3   -1    0    0    0  501  0.00000000000E+00  0.00000000000E+00 -0.25104878681E+03  0.25104880712E+03  0.10100000352E+00 0. -1.
    10030    2    1    2    0    0  0.00000000000E+00  0.00000000000E+00 -0.12458976058E+02  0.48963863925E+03  0.48948010272E+03 0.  0.
        2    1    3    3  502    0  0.61091436989E+02 -0.23124841169E+02 -0.24216764274E+03  0.25082282422E+03  0.25500000920E-02 0. -1.
       -2    1    3    3    0  502 -0.61091436989E+02  0.23124841169E+02  0.22970866668E+03  0.23881581503E+03  0.25500000920E-02 0.  1.
</event>
<event>
 5   0  0.2466034E-01  0.4894504E+03  0.7818609E-02  0.1016570E+00
        2   -1    0    0  501    0  0.00000000000E+00  0.00000000000E+00  0.13521422875E+04  0.13521422875E+04  0.25500000920E-02 0.  1.
       -2   -1    0    0    0  501  0.00000000000E+00  0.00000000000E+00 -0.44292993314E+02  0.44292993388E+02  0.25500000920E-02 0. -1.
    10030    2    1    2    0    0  0.00000000000E+00  0.00000000000E+00  0.13078492942E+04  0.13964352809E+04  0.48945042385E+03 0.  0.
        3    1    3    3  502    0 -0.89238980161E+02 -0.13986933932E+03  0.11671866533E+04  0.11789197265E+04  0.10100000352E+00 0.  1.
       -3    1    3    3    0  502  0.89238980161E+02  0.13986933932E+03  0.14066264087E+03  0.21751555439E+03  0.10100000352E+00 0. -1.
</event>
<event>
 5   0  0.2466034E-01  0.4844992E+03  0.7818609E-02  0.1017906E+00
        2   -1    0    0  501    0  0.00000000000E+00  0.00000000000E+00  0.15373825376E+04  0.15373825376E+04  0.25500000920E-02 0.  1.
       -2   -1    0    0    0  501  0.00000000000E+00  0.00000000000E+00 -0.38171938064E+02  0.38171938149E+02  0.25500000920E-02 0. -1.
    10030    2    1    2    0    0  0.00000000000E+00  0.00000000000E+00  0.14992105995E+04  0.15755544757E+04  0.48449920980E+03 0.  0.
        3    1    3    3  502    0  0.18180580114E+03 -0.11314429581E+03  0.38126295726E+03  0.43728301336E+03  0.10100000352E+00 0. -1.
       -3    1    3    3    0  502 -0.18180580114E+03  0.11314429581E+03  0.11179476422E+04  0.11382714623E+04  0.10100000352E+00 0.  1.
</event>
<event>
 5   0  0.1453602E-01  0.4978979E+03  0.7818609E-02  0.1014329E+00
       -1   -1    0    0    0  501  0.00000000000E+00  0.00000000000E+00  0.73930342588E+02  0.73930342760E+02  0.50400001928E-02 0. -1.
        1   -1    0    0  501    0  0.00000000000E+00  0.00000000000E+00 -0.83829679025E+03  0.83829679027E+03  0.50400001928E-02 0.  1.
    10030    2    1    2    0    0  0.00000000000E+00  0.00000000000E+00 -0.76436644766E+03  0.91222713303E+03  0.49789785691E+03 0.  0.
        2    1    3    3  502    0  0.22411427014E+03 -0.80446200386E+02 -0.24909277716E+03  0.34459542782E+03  0.25500000920E-02 0.  1.
       -2    1    3    3    0  502 -0.22411427014E+03  0.80446200386E+02 -0.51527367050E+03  0.56763170520E+03  0.25500000920E-02 0. -1.
</event>
<event>
 5   0  0.1529146E-01  0.5073579E+03  0.7818609E-02  0.1011876E+00
        1   -1    0    0  501    0  0.00000000000E+00  0.00000000000E+00  0.17117021941E+03  0.17117021948E+03  0.50400001928E-02 0. -1.
       -1   -1    0    0    0  501  0.00000000000E+00  0.00000000000E+00 -0.37595916550E+03  0.37595916553E+03  0.50400001928E-02 0.  1.
    10030    2    1    2    0    0  0.00000000000E+00  0.00000000000E+00 -0.20478894609E+03  0.54712938502E+03  0.50735791263E+03 0.  0.
        1    1    3    3  502    0 -0.21847621565E+03  0.44274604072E+02 -0.23296830437E+03  0.32243809985E+03  0.50400001928E-02 0.  1.
       -1    1    3    3    0  502  0.21847621565E+03 -0.44274604072E+02  0.28179358278E+02  0.22469128516E+03  0.50400001928E-02 0. -1.
</event>
<event>
 5   0  0.2504064E-01  0.4966407E+03  0.7818609E-02  0.1014659E+00
       -2   -1    0    0    0  501  0.00000000000E+00  0.00000000000E+00  0.18689060073E+03  0.18689060075E+03  0.25500000920E-02 0. -1.
        2   -1    0    0  501    0  0.00000000000E+00  0.00000000000E+00 -0.32994170853E+03  0.32994170854E+03  0.25500000920E-02 0.  1.
    10030    2    1    2    0    0  0.00000000000E+00  0.00000000000E+00 -0.14305110780E+03  0.51683230929E+03  0.49664073180E+03 0.  0.
        5    1    3    3  502    0 -0.46752719806E+02 -0.11279239675E+03  0.15344155297E+03  0.19614877453E+03  0.46999998093E+01 0. -1.
       -5    1    3    3    0  502  0.46752719806E+02  0.11279239675E+03 -0.29649266078E+03  0.32068353476E+03  0.46999998093E+01 0.  1.
</event>
<event>
 5   0  0.9868500E-02  0.4871550E+03  0.7818609E-02  0.1017187E+00
        3   -1    0    0  501    0  0.00000000000E+00  0.00000000000E+00  0.39117410185E+03  0.39117411489E+03  0.10100000352E+00 0.  1.
       -3   -1    0    0    0  501  0.00000000000E+00  0.00000000000E+00 -0.15167153631E+03  0.15167156994E+03  0.10100000352E+00 0. -1.
    10030    2    1    2    0    0  0.00000000000E+00  0.00000000000E+00  0.23950256554E+03  0.54284568483E+03  0.48715496368E+03 0.  0.
        3    1    3    3  502    0 -0.17933538976E+03 -0.15948103474E+03  0.73341605009E+02  0.25094697386E+03  0.10100000352E+00 0. -1.
       -3    1    3    3    0  502  0.17933538976E+03  0.15948103474E+03  0.16616096054E+03  0.29189871097E+03  0.10100000352E+00 0.  1.
</event>
<event>
 5   0  0.1439814E-01  0.4943741E+03  0.7818609E-02  0.1015258E+00
        1   -1    0    0  501    0  0.00000000000E+00  0.00000000000E+00  0.27834591911E+03  0.27834591916E+03  0.50400001928E-02 0. -1.
       -1   -1    0    0    0  501  0.00000000000E+00  0.00000000000E+00 -0.21951621431E+03  0.21951621437E+03  0.50400001928E-02 0.  1.
    10030    2    1    2    0    0  0.00000000000E+00  0.00000000000E+00  0.58829704804E+02  0.49786213353E+03  0.49437411930E+03 0.  0.
        4    1    3    3  502    0 -0.41657785541E+01 -0.14610236990E+03 -0.17133192185E+03  0.22520989443E+03  0.12699999809E+01 0.  1.
       -4    1    3    3    0  502  0.41657785541E+01  0.14610236990E+03  0.23016162666E+03  0.27265223910E+03  0.12699999809E+01 0. -1.
</event>
<event>
 5   0  0.1439814E-01  0.5059592E+03  0.7818609E-02  0.1012235E+00
        1   -1    0    0  501    0  0.00000000000E+00  0.00000000000E+00  0.59374492298E+03  0.59374492300E+03  0.50400001928E-02 0.  1.
       -1   -1    0    0    0  501  0.00000000000E+00  0.00000000000E+00 -0.10778817311E+03  0.10778817323E+03  0.50400001928E-02 0. -1.
    10030    2    1    2    0    0  0.00000000000E+00  0.00000000000E+00  0.48595674987E+03  0.70153309623E+03  0.50595921017E+03 0.  0.
        4    1    3    3  502    0  0.20952536535E+03 -0.13671490072E+03  0.19100204927E+03  0.31476219361E+03  0.12699999809E+01 0.  1.
       -4    1    3    3    0  502 -0.20952536535E+03  0.13671490072E+03  0.29495470060E+03  0.38677090261E+03  0.12699999809E+01 0. -1.
</event>
<event>
 5   0  0.2413301E-01  0.4840660E+03  0.7818609E-02  0.1018024E+00
       -2   -1    0    0    0  501  0.00000000000E+00  0.00000000000E+00  0.40263074266E+02  0.40263074346E+02  0.25500000920E-02 0. -1.
        2   -1    0    0  501    0  0.00000000000E+00  0.00000000000E+00 -0.14549306458E+04  0.14549306458E+04  0.25500000920E-02 0.  1.
    10030    2    1    2    0    0  0.00000000000E+00  0.00000000000E+00 -0.14146675715E+04  0.14951937201E+04  0.48406603146E+03 0.  0.
        4    1    3    3  502    0  0.81484063517E+02 -0.18850234094E+03 -0.31170426844E+03  0.37327462947E+03  0.12699999809E+01 0. -1.
       -4    1    3    3    0  502 -0.81484063517E+02  0.18850234094E+03 -0.11029633031E+04  0.11219190906E+04  0.12699999809E+01 0.  1.
</event>
<event>
 5   0  0.1529146E-01  0.5040754E+03  0.7818609E-02  0.1012721E+00
       -1   -1    0    0    0  501  0.00000000000E+00  0.00000000000E+00  0.66818619257E+02  0.66818619447E+02  0.50400001928E-02 0.  1.
        1   -1    0    0  501    0  0.00000000000E+00  0.00000000000E+00 -0.95067830886E+03  0.95067830887E+03  0.50400001928E-02 0. -1.
    10030    2    1    2    0    0  0.00000000000E+00  0.00000000000E+00 -0.88385968960E+03  0.10174969283E+04  0.50407543903E+03 0.  0.
        1    1    3    3  502    0 -0.23151879816E+03  0.83500819065E+01 -0.24157163679E+03  0.33470514411E+03  0.50400001928E-02 0.  1.
       -1    1    3    3    0  502  0.23151879816E+03 -0.83500819065E+01 -0.64228805282E+03  0.68279178421E+03  0.50400001928E-02 0. -1.
</event>
<event>
 5   0  0.1529146E-01  0.4826898E+03  0.7818609E-02  0.1018399E+00
        1   -1    0    0  501    0  0.00000000000E+00  0.00000000000E+00  0.20192622758E+03  0.20192622764E+03  0.50400001928E-02 0.  1.
       -1   -1    0    0    0  501  0.00000000000E+00  0.00000000000E+00 -0.28845857218E+03  0.28845857223E+03  0.50400001928E-02 0. -1.
    10030    2    1    2    0    0  0.00000000000E+00  0.00000000000E+00 -0.86532344606E+02  0.49038479987E+03  0.48268976090E+03 0.  0.
        1    1    3    3  502    0 -0.12828859450E+03 -0.26409492474E+02 -0.24920923410E+03  0.28153271064E+03  0.50400001928E-02 0. -1.
       -1    1    3    3    0  502  0.12828859450E+03  0.26409492474E+02  0.16267688950E+03  0.20885208923E+03  0.50400001928E-02 0.  1.
</event>
<event>
 5   0  0.1529146E-01  0.5471067E+03  0.7818609E-02  0.1002166E+00
       -1   -1    0    0    0  501  0.00000000000E+00  0.00000000000E+00  0.21548895053E+03  0.21548895059E+03  0.50400001928E-02 0. -1.
        1   -1    0    0  501    0  0.00000000000E+00  0.00000000000E+00 -0.34726346106E+03  0.34726346110E+03  0.50400001928E-02 0.  1.
    10030    2    1    2    0    0  0.00000000000E+00  0.00000000000E+00 -0.13177451053E+03  0.56275241169E+03  0.54710671284E+03 0.  0.
        1    1    3    3  502    0  0.17117507333E+03 -0.49040930081E+02 -0.27949278676E+03  0.33139423114E+03  0.50400001928E-02 0.  1.
       -1    1    3    3    0  502 -0.17117507333E+03  0.49040930081E+02  0.14771827623E+03  0.23135818056E+03  0.50400001928E-02 0. -1.
</event>
<event>
 5   0  0.1448458E-01  0.5057842E+03  0.7818609E-02  0.1012280E+00
       -1   -1    0    0    0  501  0.00000000000E+00  0.00000000000E+00  0.36093277783E+03  0.36093277786E+03  0.50400001928E-02 0.  1.
        1   -1    0    0  501    0  0.00000000000E+00  0.00000000000E+00 -0.17719204735E+03  0.17719204742E+03  0.50400001928E-02 0. -1.
    10030    2    1    2    0    0  0.00000000000E+00  0.00000000000E+00  0.18374073048E+03  0.53812482528E+03  0.50578421441E+03 0.  0.
        5    1    3    3  502    0 -0.17792364063E+02 -0.16749272594E+03 -0.10876640061E+03  0.20055573132E+03  0.46999998093E+01 0. -1.
       -5    1    3    3    0  502  0.17792364063E+02  0.16749272594E+03  0.29250713109E+03  0.33756909397E+03  0.46999998093E+01 0.  1.
</event>
<event>
 5   0  0.1413361E-01  0.4897648E+03  0.7818609E-02  0.1016486E+00
       -1   -1    0    0    0  501  0.00000000000E+00  0.00000000000E+00  0.82004484125E+02  0.82004484280E+02  0.50400001928E-02 0.  1.
        1   -1    0    0  501    0  0.00000000000E+00  0.00000000000E+00 -0.73126964431E+03  0.73126964433E+03  0.50400001928E-02 0. -1.
    10030    2    1    2    0    0  0.00000000000E+00  0.00000000000E+00 -0.64926516018E+03  0.81327412861E+03  0.48976480073E+03 0.  0.
        3    1    3    3  502    0  0.13617117689E+03  0.14974201048E+03 -0.95730139197E+02  0.22389624577E+03  0.10100000352E+00 0.  1.
       -3    1    3    3    0  502 -0.13617117689E+03 -0.14974201048E+03 -0.55353502099E+03  0.58937788284E+03  0.10100000352E+00 0. -1.
</event>
<event>
 5   0  0.1453602E-01  0.4946560E+03  0.7818609E-02  0.1015183E+00
       -1   -1    0    0    0  501  0.00000000000E+00  0.00000000000E+00  0.33313980844E+03  0.33313980848E+03  0.50400001928E-02 0. -1.
        1   -1    0    0  501    0  0.00000000000E+00  0.00000000000E+00 -0.18362003204E+03  0.18362003211E+03  0.50400001928E-02 0.  1.
    10030    2    1    2    0    0  0.00000000000E+00  0.00000000000E+00  0.14951977640E+03  0.51675984059E+03  0.49465601110E+03 0.  0.
        2    1    3    3  502    0  0.29369897545E+02  0.20070914138E+03 -0.73070982168E+02  0.21560639777E+03  0.25500000920E-02 0.  1.
       -2    1    3    3    0  502 -0.29369897545E+02 -0.20070914138E+03  0.22259075857E+03  0.30115344282E+03  0.25500000920E-02 0. -1.
</event>
<event>
 5   0  0.1453602E-01  0.5060503E+03  0.7818609E-02  0.1012212E+00
        1   -1    0    0  501    0  0.00000000000E+00  0.00000000000E+00  0.13183874825E+04  0.13183874825E+04  0.50400001928E-02 0.  1.
       -1   -1    0    0    0  501  0.00000000000E+00  0.00000000000E+00 -0.48560633620E+02  0.48560633882E+02  0.50400001928E-02 0. -1.
    10030    2    1    2    0    0  0.00000000000E+00  0.00000000000E+00  0.12698268489E+04  0.13669481164E+04  0.50605032039E+03 0.  0.
        2    1    3    3  502    0 -0.13730465033E+03  0.20991087449E+03  0.54505649163E+03  0.60000143442E+03  0.25500000920E-02 0.  1.
       -2    1    3    3    0  502  0.13730465033E+03 -0.20991087449E+03  0.72477035724E+03  0.76694668196E+03  0.25500000920E-02 0. -1.
</event>
<event>
 5   0  0.1453602E-01  0.4994959E+03  0.7818609E-02  0.1013911E+00
       -1   -1    0    0    0  501  0.00000000000E+00  0.00000000000E+00  0.90310928358E+02  0.90310928499E+02  0.50400001928E-02 0. -1.
        1   -1    0    0  501    0  0.00000000000E+00  0.00000000000E+00 -0.69065879677E+03  0.69065879679E+03  0.50400001928E-02 0.  1.
    10030    2    1    2    0    0  0.00000000000E+00  0.00000000000E+00 -0.60034786841E+03  0.78096972529E+03  0.49949589459E+03 0.  0.
        2    1    3    3  502    0 -0.13612053348E+03 -0.17311680261E+03 -0.48434926166E+03  0.53206431403E+03  0.25500000920E-02 0.  1.
       -2    1    3    3    0  502  0.13612053348E+03  0.17311680261E+03 -0.11599860675E+03  0.24890541126E+03  0.25500000920E-02 0. -1.
</event>
<event>
 5   0  0.2504064E-01  0.5151883E+03  0.7818609E-02  0.1009889E+00
        2   -1    0    0  501    0  0.00000000000E+00  0.00000000000E+00  0.13322091582E+04  0.13322091582E+04  0.25500000920E-02 0. -1.
       -2   -1    0    0    0  501  0.00000000000E+00  0.00000000000E+00 -0.49808044921E+02  0.49808044986E+02  0.25500000920E-02 0.  1.
    10030    2    1    2    0    0  0.00000000000E+00  0.00000000000E+00  0.12824011133E+04  0.13820172032E+04  0.51518825158E+03 0.  0.
        5    1    3    3  502    0 -0.16865854827E+03 -0.77056268748E+02  0.11206887994E+04  0.11359352313E+04  0.46999998093E+01 0. -1.
       -5    1    3    3    0  502  0.16865854827E+03  0.77056268748E+02  0.16171231385E+03  0.24608197192E+03  0.46999998093E+01 0.  1.
</event>
<event>
 5   0  0.1529146E-01  0.5025848E+03  0.7818609E-02  0.1013106E+00
        1   -1    0    0  501    0  0.00000000000E+00  0.00000000000E+00  0.11128064853E+04  0.11128064853E+04  0.50400001928E-02 0.  1.
       -1   -1    0    0    0  501  0.00000000000E+00  0.00000000000E+00 -0.56746507926E+02  0.56746508150E+02  0.50400001928E-02 0. -1.
    10030    2    1    2    0    0  0.00000000000E+00  0.00000000000E+00  0.10560599773E+04  0.11695529934E+04  0.50258484726E+03 0.  0.
        1    1    3    3  502    0 -0.84992305072E+02  0.18048799577E+03  0.17244951739E+03  0.26370143081E+03  0.50400001928E-02 0. -1.
       -1    1    3    3    0  502  0.84992305072E+02 -0.18048799577E+03  0.88361045994E+03  0.90585156260E+03  0.50400001928E-02 0.  1.
</event>
<event>
 5   0  0.1448458E-01  0.4957049E+03  0.7818609E-02  0.1014906E+00
        1   -1    0    0  501    0  0.00000000000E+00  0.00000000000E+00  0.68719903387E+03  0.68719903388E+03  0.50400001928E-02 0. -1.
       -1   -1    0    0    0  501  0.00000000000E+00  0.00000000000E+00 -0.89393062995E+02  0.89393063137E+02  0.50400001928E-02 0.  1.
    10030    2    1    2    0    0  0.00000000000E+00  0.00000000000E+00  0.59780597087E+03  0.77659209702E+03  0.49570485810E+03 0.  0.
        5    1    3    3  502    0 -0.20847493722E+03  0.12513214440E+03  0.22395125861E+03  0.33059962075E+03  0.46999998093E+01 0. -1.
       -5    1    3    3    0  502  0.20847493722E+03 -0.12513214440E+03  0.37385471226E+03  0.44599247627E+03  0.46999998093E+01 0.  1.
</event>
<event>
 5   0  0.2504064E-01  0.4962482E+03  0.7818609E-02  0.1014763E+00
       -2   -1    0    0    0  501  0.00000000000E+00  0.00000000000E+00  0.58341180564E+02  0.58341180619E+02  0.25500000920E-02 0.  1.
        2   -1    0    0  501    0  0.00000000000E+00  0.00000000000E+00 -0.10552679546E+04  0.10552679546E+04  0.25500000920E-02 0. -1.
    10030    2    1    2    0    0  0.00000000000E+00  0.00000000000E+00 -0.99692677404E+03  0.11136091352E+04  0.49624823754E+03 0.  0.
        5    1    3    3  502    0 -0.15019196933E+03 -0.17473439337E+03 -0.29213519601E+03  0.37209514727E+03  0.46999998093E+01 0.  1.
       -5    1    3    3    0  502  0.15019196933E+03  0.17473439337E+03 -0.70479157803E+03  0.74151398796E+03  0.46999998093E+01 0. -1.
</event>
<event>
 5   0  0.1439814E-01  0.5133719E+03  0.7818609E-02  0.1010346E+00
        1   -1    0    0  501    0  0.00000000000E+00  0.00000000000E+00  0.25845787671E+03  0.25845787676E+03  0.50400001928E-02 0. -1.
       -1   -1    0    0    0  501  0.00000000000E+00  0.00000000000E+00 -0.25492620833E+03  0.25492620838E+03  0.50400001928E-02 0.  1.
    10030    2    1    2    0    0  0.00000000000E+00  0.00000000000E+00  0.35316683822E+01  0.51338408513E+03  0.51337193747E+03 0.  0.
        4    1    3    3  502    0  0.13914539012E+02 -0.25621792748E+03  0.84617293158E+01  0.25673810492E+03  0.12699999809E+01 0.  1.
       -4    1    3    3    0  502 -0.13914539012E+02  0.25621792748E+03 -0.49300609335E+01  0.25664598021E+03  0.12699999809E+01 0. -1.
</event>
<event>
 5   0  0.2413301E-01  0.4986186E+03  0.7818609E-02  0.1014140E+00
        2   -1    0    0  501    0  0.00000000000E+00  0.00000000000E+00  0.20852327986E+04  0.20852327986E+04  0.25500000920E-02 0. -1.
       -2   -1    0    0    0  501  0.00000000000E+00  0.00000000000E+00 -0.29807288499E+02  0.29807288608E+02  0.25500000920E-02 0.  1.
    10030    2    1    2    0    0  0.00000000000E+00  0.00000000000E+00  0.20554255101E+04  0.21150400872E+04  0.49861863476E+03 0.  0.
        4    1    3    3  502    0  0.16100270234E+03 -0.12440533715E+03  0.41661442342E+03  0.46364614608E+03  0.12699999809E+01 0.  1.
       -4    1    3    3    0  502 -0.16100270234E+03  0.12440533715E+03  0.16388110867E+04  0.16513939412E+04  0.12699999809E+01 0. -1.
</event>
<event>
 5   0  0.2511944E-01  0.6509102E+03  0.7818609E-02  0.9805073E-01
        2   -1    0    0  501    0  0.00000000000E+00  0.00000000000E+00  0.78362435490E+03  0.78362435490E+03  0.25500000920E-02 0. -1.
       -2   -1    0    0    0  501  0.00000000000E+00  0.00000000000E+00 -0.13516811292E+03  0.13516811294E+03  0.25500000920E-02 0.  1.
    10030    2    1    2    0    0  0.00000000000E+00  0.00000000000E+00  0.64845624198E+03  0.91879246784E+03  0.65091020978E+03 0.  0.
        1    1    3    3  502    0 -0.23046082797E+03  0.20771036700E+03  0.18545589252E+03  0.36145494586E+03  0.50400001928E-02 0.  1.
       -1    1    3    3    0  502  0.23046082797E+03 -0.20771036700E+03  0.46300034945E+03  0.55733752198E+03  0.50400001928E-02 0. -1.
</event>
<event>
 5   0  0.1413361E-01  0.4834713E+03  0.7818609E-02  0.1018186E+00
        1   -1    0    0  501    0  0.00000000000E+00  0.00000000000E+00  0.11280189932E+03  0.11280189944E+03  0.50400001928E-02 0. -1.
       -1   -1    0    0    0  501  0.00000000000E+00  0.00000000000E+00 -0.51804199501E+03  0.51804199503E+03  0.50400001928E-02 0.  1.
    10030    2    1    2    0    0  0.00000000000E+00  0.00000000000E+00 -0.40524009568E+03  0.63084389447E+03  0.48347128564E+03 0.  0.
        3    1    3    3  502    0  0.15490511738E+03 -0.16997174763E+03 -0.29982814052E+03  0.37786626527E+03  0.10100000352E+00 0. -1.
       -3    1    3    3    0  502 -0.15490511738E+03  0.16997174763E+03 -0.10541195517E+03  0.25297762920E+03  0.10100000352E+00 0.  1.
</event>
<event>
 5   0  0.2466034E-01  0.5063300E+03  0.7818609E-02  0.1012140E+00
       -2   -1    0    0    0  501  0.00000000000E+00  0.00000000000E+00  0.61033220190E+02  0.61033220244E+02  0.25500000920E-02 0. -1.
        2   -1    0    0  501    0  0.00000000000E+00  0.00000000000E+00 -0.10501250878E+04  0.10501250879E+04  0.25500000920E-02 0.  1.
    10030    2    1    2    0    0  0.00000000000E+00  0.00000000000E+00 -0.98909186766E+03  0.11111583081E+04  0.50632999415E+03 0.  0.
        3    1    3    3  502    0 -0.85010754591E+02  0.23392049635E+03 -0.39286347966E+03  0.46506703911E+03  0.10100000352E+00 0. -1.
       -3    1    3    3    0  502  0.85010754591E+02 -0.23392049635E+03 -0.59622838800E+03  0.64609126899E+03  0.10100000352E+00 0.  1.
</event>
<event>
 5   0  0.1439814E-01  0.5172820E+03  0.7818609E-02  0.1009364E+00
        1   -1    0    0  501    0  0.00000000000E+00  0.00000000000E+00  0.49514248510E+03  0.49514248513E+03  0.50400001928E-02 0. -1.
       -1   -1    0    0    0  501  0.00000000000E+00  0.00000000000E+00 -0.13510288631E+03  0.13510288640E+03  0.50400001928E-02 0.  1.
    10030    2    1    2    0    0  0.00000000000E+00  0.00000000000E+00  0.36003959879E+03  0.63024537153E+03  0.51728204651E+03 0.  0.
        4    1    3    3  502    0  0.85593402905E+01 -0.46623858409E+02  0.48980083945E+03  0.49209096893E+03  0.12699999809E+01 0. -1.
       -4    1    3    3    0  502 -0.85593402905E+01  0.46623858409E+02 -0.12976124066E+03  0.13815440260E+03  0.12699999809E+01 0.  1.
</event>
<event>
 5   0  0.2488968E-01  0.3793213E+03  0.7818609E-02  0.1051185E+00
        2   -1    0    0  501    0  0.00000000000E+00  0.00000000000E+00  0.82839643018E+03  0.82839643019E+03  0.25500000920E-02 0.  1.
       -2   -1    0    0    0  501  0.00000000000E+00  0.00000000000E+00 -0.43422640304E+02  0.43422640379E+02  0.25500000920E-02 0. -1.
    10030    2    1    2    0    0  0.00000000000E+00  0.00000000000E+00  0.78497378988E+03  0.87181907057E+03  0.37932128995E+03 0.  0.
        2    1    3    3  502    0 -0.47192653264E+02  0.16443803443E+03  0.58067444818E+03  0.60535099609E+03  0.25500000920E-02 0.  1.
       -2    1    3    3    0  502  0.47192653264E+02 -0.16443803443E+03  0.20429934170E+03  0.26646807447E+03  0.25500000920E-02 0. -1.
</event>
<event>
 5   0  0.1439814E-01  0.4972271E+03  0.7818609E-02  0.1014505E+00
       -1   -1    0    0    0  501  0.00000000000E+00  0.00000000000E+00  0.55361269062E+02  0.55361269291E+02  0.50400001928E-02 0. -1.
        1   -1    0    0  501    0  0.00000000000E+00  0.00000000000E+00 -0.11164611769E+04  0.11164611769E+04  0.50400001928E-02 0.  1.
    10030    2    1    2    0    0  0.00000000000E+00  0.00000000000E+00 -0.10610999078E+04  0.11718224462E+04  0.49722714227E+03 0.  0.
        4    1    3    3  502    0  0.16603686364E+02  0.19471777197E+03 -0.89272110133E+03  0.91386173504E+03  0.12699999809E+01 0.  1.
       -4    1    3    3    0  502 -0.16603686364E+02 -0.19471777197E+03 -0.16837880651E+03  0.25796071116E+03  0.12699999809E+01 0. -1.
</event>
<event>
 5   0  0.1439814E-01  0.5017324E+03  0.7818609E-02  0.1013328E+00
        1   -1    0    0  501    0  0.00000000000E+00  0.00000000000E+00  0.98744167235E+03  0.98744167236E+03  0.50400001928E-02 0. -1.
       -1   -1    0    0    0  501  0.00000000000E+00  0.00000000000E+00 -0.63734255338E+02  0.63734255537E+02  0.50400001928E-02 0.  1.
    10030    2    1    2    0    0  0.00000000000E+00  0.00000000000E+00  0.92370741701E+03  0.10511759279E+04  0.50173243781E+03 0.  0.
        4    1    3    3  502    0  0.23052869519E+03 -0.97524803496E+02  0.49676579065E+03  0.55626651010E+03  0.12699999809E+01 0. -1.
       -4    1    3    3    0  502 -0.23052869519E+03  0.97524803496E+02  0.42694162636E+03  0.49490941779E+03  0.12699999809E+01 0.  1.
</event>
<event>
 5   0  0.1453602E-01  0.4914965E+03  0.7818609E-02  0.1016023E+00
        1   -1    0    0  501    0  0.00000000000E+00  0.00000000000E+00  0.11026431199E+03  0.11026431211E+03  0.50400001928E-02 0.  1.
       -1   -1    0    0    0  501  0.00000000000E+00  0.00000000000E+00 -0.54770391187E+03  0.54770391189E+03  0.50400001928E-02 0. -1.
    10030    2    1    2    0    0  0.00000000000E+00  0.00000000000E+00 -0.43743959988E+03  0.65796822400E+03  0.49149647023E+03 0.  0.
        2    1    3    3  502    0  0.16052499802E+03  0.13814978092E+03 -0.38559426057E+03  0.43992791540E+03  0.25500000920E-02 0.  1.
       -2    1    3    3    0  502 -0.16052499802E+03 -0.13814978092E+03 -0.51845339305E+02  0.21804030859E+03  0.25500000920E-02 0. -1.
</event>
<event>
 5   0  0.2488968E-01  0.5022012E+03  0.7818609E-02  0.1013206E+00
       -2   -1    0    0    0  501  0.00000000000E+00  0.00000000000E+00  0.32223246489E+03  0.32223246490E+03  0.25500000920E-02 0. -1.
        2   -1    0    0  501    0  0.00000000000E+00  0.00000000000E+00 -0.19567090808E+03  0.19567090809E+03  0.25500000920E-02 0.  1.
    10030    2    1    2    0    0  0.00000000000E+00  0.00000000000E+00  0.12656155681E+03  0.51790337299E+03  0.50220123068E+03 0.  0.
        2    1    3    3  502    0 -0.21297632572E+03  0.96759597888E+02  0.15740432039E+03  0.28195293080E+03  0.25500000920E-02 0. -1.
       -2    1    3    3    0  502  0.21297632572E+03 -0.96759597888E+02 -0.30842763571E+02  0.23595044220E+03  0.25500000920E-02 0.  1.
</event>
<event>
 5   0  0.2511944E-01  0.5071270E+03  0.7818609E-02  0.1011935E+00
       -2   -1    0    0    0  501  0.00000000000E+00  0.00000000000E+00  0.25298651581E+03  0.25298651583E+03  0.25500000920E-02 0. -1.
        2   -1    0    0  501    0  0.00000000000E+00  0.00000000000E+00 -0.25414183098E+03  0.25414183099E+03  0.25500000920E-02 0.  1.
    10030    2    1    2    0    0  0.00000000000E+00  0.00000000000E+00 -0.11553151673E+01  0.50712834682E+03  0.50712703083E+03 0.  0.
        1    1    3    3  502    0 -0.45697627070E+01  0.12481093374E+03 -0.22124948891E+03  0.25406689726E+03  0.50400001928E-02 0.  1.
       -1    1    3    3    0  502  0.45697627070E+01 -0.12481093374E+03  0.22009417374E+03  0.25306144956E+03  0.50400001928E-02 0. -1.
</event>
<event>
 5   0  0.9868500E-02  0.5013037E+03  0.7818609E-02  0.1013439E+00
       -4   -1    0    0    0  501  0.00000000000E+00  0.00000000000E+00  0.55601841794E+03  0.55601986834E+03  0.12699999809E+01 0. -1.
        4   -1    0    0  501    0  0.00000000000E+00  0.00000000000E+00 -0.11298813186E+03  0.11299526911E+03  0.12699999809E+01 0.  1.
    10030    2    1    2    0    0  0.00000000000E+00  0.00000000000E+00  0.44303028608E+03  0.66901513745E+03  0.50130372007E+03 0.  0.
        4    1    3    3  502    0  0.13680015156E+03  0.15661849232E+03  0.40826215137E+03  0.45817379972E+03  0.12699999809E+01 0. -1.
       -4    1    3    3    0  502 -0.13680015156E+03 -0.15661849232E+03  0.34768134707E+02  0.21084133773E+03  0.12699999809E+01 0.  1.
</event>
<event>
 5   0  0.2511944E-01  0.4807049E+03  0.7818609E-02  0.1018942E+00
        2   -1    0    0  501    0  0.00000000000E+00  0.00000000000E+00  0.38159009522E+03  0.38159009523E+03  0.25500000920E-02 0.  1.
       -2   -1    0    0    0  501  0.00000000000E+00  0.00000000000E+00 -0.15139096589E+03  0.15139096592E+03  0.25500000920E-02 0. -1.
    10030    2    1    2    0    0  0.00000000000E+00  0.00000000000E+00  0.23019912933E+03  0.53298106114E+03  0.48070487037E+03 0.  0.
        1    1    3    3  502    0 -0.13238015924E+03  0.25205539359E+02 -0.10556508025E+03  0.17118356221E+03  0.50400001928E-02 0. -1.
       -1    1    3    3    0  502  0.13238015924E+03 -0.25205539359E+02  0.33576420958E+03  0.36179749894E+03  0.50400001928E-02 0.  1.
</event>
<event>
 5   0  0.1529146E-01  0.5155536E+03  0.7818609E-02  0.1009797E+00
       -1   -1    0    0    0  501  0.00000000000E+00  0.00000000000E+00  0.14662209420E+03  0.14662209428E+03  0.50400001928E-02 0.  1.
        1   -1    0    0  501    0  0.00000000000E+00  0.00000000000E+00 -0.45319832727E+03  0.45319832730E+03  0.50400001928E-02 0. -1.
    10030    2    1    2    0    0  0.00000000000E+00  0.00000000000E+00 -0.30657623307E+03  0.59982042158E+03  0.51555363587E+03 0.  0.
        1    1    3    3  502    0 -0.11040810518E+03  0.12025726130E+03 -0.38538711506E+03  0.41853911055E+03  0.50400001928E-02 0. -1.
       -1    1    3    3    0  502  0.11040810518E+03 -0.12025726130E+03  0.78810881982E+02  0.18128131103E+03  0.50400001928E-02 0.  1.
</event>
<event>
 5   0  0.2504064E-01  0.4601415E+03  0.7818609E-02  0.1024740E+00
       -2   -1    0    0    0  501  0.00000000000E+00  0.00000000000E+00  0.78255857125E+02  0.78255857167E+02  0.25500000920E-02 0.  1.
        2   -1    0    0  501    0  0.00000000000E+00  0.00000000000E+00 -0.67640359332E+03  0.67640359333E+03  0.25500000920E-02 0. -1.
    10030    2    1    2    0    0  0.00000000000E+00  0.00000000000E+00 -0.59814773620E+03  0.75465945049E+03  0.46014146944E+03 0.  0.
        5    1    3    3  502    0  0.10421447877E+03 -0.20118769249E+03 -0.36412674166E+03  0.42889103417E+03  0.46999998093E+01 0. -1.
       -5    1    3    3    0  502 -0.10421447877E+03  0.20118769249E+03 -0.23402099453E+03  0.32576841633E+03  0.46999998093E+01 0.  1.
</event>
<event>
 5   0  0.1448458E-01  0.5010699E+03  0.7818609E-02  0.1013500E+00
        1   -1    0    0  501    0  0.00000000000E+00  0.00000000000E+00  0.79399086118E+02  0.79399086278E+02  0.50400001928E-02 0. -1.
       -1   -1    0    0    0  501  0.00000000000E+00  0.00000000000E+00 -0.79053498022E+03  0.79053498024E+03  0.50400001928E-02 0.  1.
    10030    2    1    2    0    0  0.00000000000E+00  0.00000000000E+00 -0.71113589410E+03  0.86993406651E+03  0.50106987557E+03 0.  0.
        5    1    3    3  502    0 -0.21043495004E+02 -0.21705477404E+02 -0.78727949743E+03  0.78787375480E+03  0.46999998093E+01 0.  1.
       -5    1    3    3    0  502  0.21043495004E+02  0.21705477404E+02  0.76143603332E+02  0.82060311710E+02  0.46999998093E+01 0. -1.
</event>
<event>
 5   0  0.2413301E-01  0.4984768E+03  0.7818609E-02  0.1014177E+00
       -2   -1    0    0    0  501  0.00000000000E+00  0.00000000000E+00  0.93463102486E+02  0.93463102521E+02  0.25500000920E-02 0. -1.
        2   -1    0    0  501    0  0.00000000000E+00  0.00000000000E+00 -0.66464504712E+03  0.66464504712E+03  0.25500000920E-02 0.  1.
    10030    2    1    2    0    0  0.00000000000E+00  0.00000000000E+00 -0.57118194463E+03  0.75810814964E+03  0.49847683264E+03 0.  0.
        4    1    3    3  502    0 -0.23755820056E+03 -0.52915890011E+02 -0.20391435203E+03  0.31751640262E+03  0.12699999809E+01 0. -1.
       -4    1    3    3    0  502  0.23755820056E+03  0.52915890011E+02 -0.36726759260E+03  0.44059174702E+03  0.12699999809E+01 0.  1.
</event>
<event>
 5   0  0.2413301E-01  0.5423797E+03  0.7818609E-02  0.1003273E+00
       -2   -1    0    0    0  501  0.00000000000E+00  0.00000000000E+00  0.14871471069E+03  0.14871471071E+03  0.25500000920E-02 0.  1.
        2   -1    0    0  501    0  0.00000000000E+00  0.00000000000E+00 -0.49453035775E+03  0.49453035776E+03  0.25500000920E-02 0. -1.
    10030    2    1    2    0    0  0.00000000000E+00  0.00000000000E+00 -0.34581564706E+03  0.64324506847E+03  0.54237971603E+03 0.  0.
        4    1    3    3  502    0 -0.21124297018E+03  0.16924047933E+03 -0.15319098642E+03  0.31102254503E+03  0.12699999809E+01 0. -1.
       -4    1    3    3    0  502  0.21124297018E+03 -0.16924047933E+03 -0.19262466064E+03  0.33222252344E+03  0.12699999809E+01 0.  1.
</event>
<event>
 5   0  0.9868500E-02  0.4863549E+03  0.7818609E-02  0.1017403E+00
       -4   -1    0    0    0  501  0.00000000000E+00  0.00000000000E+00  0.10090520725E+03  0.10091319909E+03  0.12699999809E+01 0. -1.
        4   -1    0    0  501    0  0.00000000000E+00  0.00000000000E+00 -0.58601584161E+03  0.58601721777E+03  0.12699999809E+01 0.  1.
    10030    2    1    2    0    0  0.00000000000E+00  0.00000000000E+00 -0.48511063436E+03  0.68693041686E+03  0.48635488076E+03 0.  0.
        5    1    3    3  502    0 -0.75396109788E+02  0.11183366449E+03  0.43162301504E+02  0.14169127056E+03  0.46999998093E+01 0. -1.
       -5    1    3    3    0  502  0.75396109788E+02 -0.11183366449E+03 -0.52827293586E+03  0.54523914629E+03  0.46999998093E+01 0.  1.
</event>
<event>
 5   0  0.9868500E-02  0.4752510E+03  0.7818609E-02  0.1020449E+00
        3   -1    0    0  501    0  0.00000000000E+00  0.00000000000E+00  0.18305525166E+03  0.18305527952E+03  0.10100000352E+00 0.  1.
       -3   -1    0    0    0  501  0.00000000000E+00  0.00000000000E+00 -0.30846350482E+03  0.30846352135E+03  0.10100000352E+00 0. -1.
    10030    2    1    2    0    0  0.00000000000E+00  0.00000000000E+00 -0.12540825315E+03  0.49151880088E+03  0.47525098806E+03 0.  0.
        4    1    3    3  502    0  0.17074951360E+03 -0.13040940038E+03  0.42270234807E+02  0.21897578349E+03  0.12699999809E+01 0.  1.
       -4    1    3    3    0  502 -0.17074951360E+03  0.13040940038E+03 -0.16767848796E+03  0.27254301739E+03  0.12699999809E+01 0. -1.
</event>
<event>
 5   0  0.1529146E-01  0.4991238E+03  0.7818609E-02  0.1014008E+00
        1   -1    0    0  501    0  0.00000000000E+00  0.00000000000E+00  0.70356021614E+03  0.70356021616E+03  0.50400001928E-02 0.  1.
       -1   -1    0    0    0  501  0.00000000000E+00  0.00000000000E+00 -0.88522828864E+02  0.88522829008E+02  0.50400001928E-02 0. -1.
    10030    2    1    2    0    0  0.00000000000E+00  0.00000000000E+00  0.61503738728E+03  0.79208304517E+03  0.49912379496E+03 0.  0.
        1    1    3    3  502    0  0.15667900359E+03  0.19109358906E+03  0.25217834957E+03  0.35307080021E+03  0.50400001928E-02 0. -1.
       -1    1    3    3    0  502 -0.15667900359E+03 -0.19109358906E+03  0.36285903771E+03  0.43901224495E+03  0.50400001928E-02 0.  1.
</event>
<event>
 5   0  0.1448458E-01  0.4876375E+03  0.7818609E-02  0.1017057E+00
       -1   -1    0    0    0  501  0.00000000000E+00  0.00000000000E+00  0.13296698617E+03  0.13296698626E+03  0.50400001928E-02 0. -1.
        1   -1    0    0  501    0  0.00000000000E+00  0.00000000000E+00 -0.44708524191E+03  0.44708524193E+03  0.50400001928E-02 0.  1.
    10030    2    1    2    0    0  0.00000000000E+00  0.00000000000E+00 -0.31411825574E+03  0.58005222820E+03  0.48763747687E+03 0.  0.
        5    1    3    3  502    0 -0.12561451991E+02 -0.96973172053E+02  0.10856232629E+03  0.14618294997E+03  0.46999998093E+01 0. -1.
       -5    1    3    3    0  502  0.12561451991E+02  0.96973172053E+02 -0.42268058202E+03  0.43386927823E+03  0.46999998093E+01 0.  1.
</event>
<event>
 5   0  0.2413301E-01  0.4892896E+03  0.7818609E-02  0.1016613E+00
        2   -1    0    0  501    0  0.00000000000E+00  0.00000000000E+00  0.10531323240E+04  0.10531323240E+04  0.25500000920E-02 0.  1.
       -2   -1    0    0    0  501  0.00000000000E+00  0.00000000000E+00 -0.56831481396E+02  0.56831481454E+02  0.25500000920E-02 0. -1.
    10030    2    1    2    0    0  0.00000000000E+00  0.00000000000E+00  0.99630084259E+03  0.11099638054E+04  0.48928956707E+03 0.  0.
        4    1    3    3  502    0 -0.17775334197E+03 -0.15340370536E+03  0.65401136949E+03  0.69488231502E+03  0.12699999809E+01 0. -1.
       -4    1    3    3    0  502  0.17775334197E+03  0.15340370536E+03  0.34228947310E+03  0.41508149042E+03  0.12699999809E+01 0.  1.
</event>
<event>
 5   0  0.2504064E-01  0.4650672E+03  0.7818609E-02  0.1023322E+00
       -2   -1    0    0    0  501  0.00000000000E+00  0.00000000000E+00  0.48928325963E+02  0.48928326029E+02  0.25500000920E-02 0. -1.
        2   -1    0    0  501    0  0.00000000000E+00  0.00000000000E+00 -0.11051243133E+04  0.11051243133E+04  0.25500000920E-02 0.  1.
    10030    2    1    2    0    0  0.00000000000E+00  0.00000000000E+00 -0.10561959873E+04  0.11540526393E+04  0.46506723243E+03 0.  0.
        5    1    3    3  502    0 -0.18621012006E+02  0.10494502814E+03 -0.15389068479E+02  0.10779199620E+03  0.46999998093E+01 0. -1.
       -5    1    3    3    0  502  0.18621012006E+02 -0.10494502814E+03 -0.10408069188E+04  0.10462606431E+04  0.46999998093E+01 0.  1.
</event>
<event>
 5   0  0.2511944E-01  0.4937602E+03  0.7818609E-02  0.1015421E+00
       -2   -1    0    0    0  501  0.00000000000E+00  0.00000000000E+00  0.10251900320E+03  0.10251900323E+03  0.25500000920E-02 0. -1.
        2   -1    0    0  501    0  0.00000000000E+00  0.00000000000E+00 -0.59452183148E+03  0.59452183149E+03  0.25500000920E-02 0.  1.
    10030    2    1    2    0    0  0.00000000000E+00  0.00000000000E+00 -0.49200282829E+03  0.69704083472E+03  0.49376020721E+03 0.  0.
        1    1    3    3  502    0  0.89581296788E+02  0.22528807261E+03 -0.18023591343E+03  0.30210016371E+03  0.50400001928E-02 0.  1.
       -1    1    3    3    0  502 -0.89581296788E+02 -0.22528807261E+03 -0.31176691486E+03  0.39494067102E+03  0.50400001928E-02 0. -1.
</event>
<event>
 5   0  0.2511944E-01  0.5027108E+03  0.7818609E-02  0.1013074E+00
        2   -1    0    0  501    0  0.00000000000E+00  0.00000000000E+00  0.50503204891E+03  0.50503204892E+03  0.25500000920E-02 0.  1.
       -2   -1    0    0    0  501  0.00000000000E+00  0.00000000000E+00 -0.12510004681E+03  0.12510004683E+03  0.25500000920E-02 0. -1.
    10030    2    1    2    0    0  0.00000000000E+00  0.00000000000E+00  0.37993200210E+03  0.63013209575E+03  0.50271078352E+03 0.  0.
        1    1    3    3  502    0 -0.12400523099E+03 -0.35716243085E+02 -0.80407416744E+02  0.15204703229E+03  0.50400001928E-02 0. -1.
       -1    1    3    3    0  502  0.12400523099E+03  0.35716243085E+02  0.46033941885E+03  0.47808506346E+03  0.50400001928E-02 0.  1.
</event>
<event>
 5   0  0.9868500E-02  0.4978965E+03  0.7818609E-02  0.1014329E+00
       -3   -1    0    0    0  501  0.00000000000E+00  0.00000000000E+00  0.15906503808E+03  0.15906507015E+03  0.10100000352E+00 0.  1.
        3   -1    0    0  501    0  0.00000000000E+00  0.00000000000E+00 -0.38962182928E+03  0.38962184237E+03  0.10100000352E+00 0. -1.
    10030    2    1    2    0    0  0.00000000000E+00  0.00000000000E+00 -0.23055679120E+03  0.54868691252E+03  0.49789646916E+03 0.  0.
        5    1    3    3  502    0  0.70543232855E+02 -0.21019139453E+03 -0.23993888815E+03  0.32672546592E+03  0.46999998093E+01 0. -1.
       -5    1    3    3    0  502 -0.70543232855E+02  0.21019139453E+03  0.93820969519E+01  0.22196144660E+03  0.46999998093E+01 0.  1.
</event>
<event>
 5   0  0.1448458E-01  0.4753777E+03  0.7818609E-02  0.1020413E+00
       -1   -1    0    0    0  501  0.00000000000E+00  0.00000000000E+00  0.17936417209E+03  0.17936417217E+03  0.50400001928E-02 0.  1.
        1   -1    0    0  501    0  0.00000000000E+00  0.00000000000E+00 -0.31497921663E+03  0.31497921667E+03  0.50400001928E-02 0. -1.
    10030    2    1    2    0    0  0.00000000000E+00  0.00000000000E+00 -0.13561504453E+03  0.49434338883E+03  0.47537768751E+03 0.  0.
        5    1    3    3  502    0  0.10835571884E+03  0.24861703628E+02  0.15060736833E+03  0.18725313217E+03  0.46999998093E+01 0.  1.
       -5    1    3    3    0  502 -0.10835571884E+03 -0.24861703628E+02 -0.28622241287E+03  0.30709025667E+03  0.46999998093E+01 0. -1.
</event>
<event>
 5   0  0.1448458E-01  0.5578109E+03  0.7818609E-02  0.9997020E-01
        1   -1    0    0  501    0  0.00000000000E+00  0.00000000000E+00  0.39385423383E+03  0.39385423386E+03  0.50400001928E-02 0. -1.
       -1   -1    0    0    0  501  0.00000000000E+00  0.00000000000E+00 -0.19750517300E+03  0.19750517307E+03  0.50400001928E-02 0.  1.
    10030    2    1    2    0    0  0.00000000000E+00  0.00000000000E+00  0.19634906083E+03  0.59135940693E+03  0.55781089491E+03 0.  0.
        5    1    3    3  502    0 -0.26081756837E+03  0.40705953419E+02  0.19348947838E+03  0.32732712515E+03  0.46999998093E+01 0. -1.
       -5    1    3    3    0  502  0.26081756837E+03 -0.40705953419E+02  0.28595824476E+01  0.26403228178E+03  0.46999998093E+01 0.  1.
</event>
<event>
 5   0  0.2413301E-01  0.5085129E+03  0.7818609E-02  0.1011581E+00
        2   -1    0    0  501    0  0.00000000000E+00  0.00000000000E+00  0.29668714750E+03  0.29668714751E+03  0.25500000920E-02 0.  1.
       -2   -1    0    0    0  501  0.00000000000E+00  0.00000000000E+00 -0.21789397820E+03  0.21789397821E+03  0.25500000920E-02 0. -1.
    10030    2    1    2    0    0  0.00000000000E+00  0.00000000000E+00  0.78793169305E+02  0.51458112572E+03  0.50851290192E+03 0.  0.
        4    1    3    3  502    0  0.42650392287E+02 -0.29188398530E+01 -0.21422779973E+03  0.21845534707E+03  0.12699999809E+01 0. -1.
       -4    1    3    3    0  502 -0.42650392287E+02  0.29188398530E+01  0.29302096903E+03  0.29612577865E+03  0.12699999809E+01 0.  1.
</event>
<event>
 5   0  0.1439814E-01  0.4988686E+03  0.7818609E-02  0.1014075E+00
        1   -1    0    0  501    0  0.00000000000E+00  0.00000000000E+00  0.15210377985E+03  0.15210377993E+03  0.50400001928E-02 0.  1.
       -1   -1    0    0    0  501  0.00000000000E+00  0.00000000000E+00 -0.40904621042E+03  0.40904621045E+03  0.50400001928E-02 0. -1.
    10030    2    1    2    0    0  0.00000000000E+00  0.00000000000E+00 -0.25694243057E+03  0.56114999039E+03  0.49886861906E+03 0.  0.
        4    1    3    3  502    0 -0.84691603850E+02  0.12753415360E+02 -0.39198417553E+03  0.40123375248E+03  0.12699999809E+01 0. -1.
       -4    1    3    3    0  502  0.84691603850E+02 -0.12753415360E+02  0.13504174495E+03  0.15991623791E+03  0.12699999809E+01 0.  1.
</event>
<event>
 5   0  0.2413301E-01  0.4601863E+03  0.7818609E-02  0.1024727E+00
        2   -1    0    0  501    0  0.00000000000E+00  0.00000000000E+00  0.11220851635E+04  0.11220851635E+04  0.25500000920E-02 0.  1.
       -2   -1    0    0    0  501  0.00000000000E+00  0.00000000000E+00 -0.47182556681E+02  0.47182556749E+02  0.25500000920E-02 0. -1.
    10030    2    1    2    0    0  0.00000000000E+00  0.00000000000E+00  0.10749026069E+04  0.11692677203E+04  0.46018625304E+03 0.  0.
        4    1    3    3  502    0  0.70664558523E+02 -0.31432233882E+02  0.10880602889E+04  0.10908062479E+04  0.12699999809E+01 0.  1.
       -4    1    3    3    0  502 -0.70664558523E+02  0.31432233882E+02 -0.13157682061E+02  0.78461472426E+02  0.12699999809E+01 0. -1.
</event>
<event>
 5   0  0.1413361E-01  0.5063689E+03  0.7818609E-02  0.1012130E+00
        1   -1    0    0  501    0  0.00000000000E+00  0.00000000000E+00  0.56857080416E+03  0.56857080418E+03  0.50400001928E-02 0.  1.
       -1   -1    0    0    0  501  0.00000000000E+00  0.00000000000E+00 -0.11274297158E+03  0.11274297169E+03  0.50400001928E-02 0. -1.
    10030    2    1    2    0    0  0.00000000000E+00  0.00000000000E+00  0.45582783258E+03  0.68131377587E+03  0.50636888553E+03 0.  0.
        3    1    3    3  502    0 -0.18573805266E+03 -0.91085993897E+02  0.31513674506E+02  0.20925679050E+03  0.10100000352E+00 0. -1.
       -3    1    3    3    0  502  0.18573805266E+03  0.91085993897E+02  0.42431415808E+03  0.47205698537E+03  0.10100000352E+00 0.  1.
</event>
<event>
 5   0  0.1439814E-01  0.5021827E+03  0.7818609E-02  0.1013211E+00
        1   -1    0    0  501    0  0.00000000000E+00  0.00000000000E+00  0.50582060250E+03  0.50582060252E+03  0.50400001928E-02 0. -1.
       -1   -1    0    0    0  501  0.00000000000E+00  0.00000000000E+00 -0.12464273586E+03  0.12464273596E+03  0.50400001928E-02 0.  1.
    10030    2    1    2    0    0  0.00000000000E+00  0.00000000000E+00  0.38117786664E+03  0.63046333849E+03  0.50218269102E+03 0.  0.
        4    1    3    3  502    0  0.18744575275E+03  0.10824292671E+03  0.35034567743E+03  0.41182052887E+03  0.12699999809E+01 0. -1.
       -4    1    3    3    0  502 -0.18744575275E+03 -0.10824292671E+03  0.30832189204E+02  0.21864280961E+03  0.12699999809E+01 0.  1.
</event>
<event>
 5   0  0.1453602E-01  0.4967888E+03  0.7818609E-02  0.1014621E+00
       -1   -1    0    0    0  501  0.00000000000E+00  0.00000000000E+00  0.14734188498E+03  0.14734188507E+03  0.50400001928E-02 0.  1.
        1   -1    0    0  501    0  0.00000000000E+00  0.00000000000E+00 -0.41875244027E+03  0.41875244031E+03  0.50400001928E-02 0. -1.
    10030    2    1    2    0    0  0.00000000000E+00  0.00000000000E+00 -0.27141055529E+03  0.56609432537E+03  0.49678878379E+03 0.  0.
        2    1    3    3  502    0  0.14784299119E+02  0.22490457629E+03 -0.16741996124E+02  0.22601092535E+03  0.25500000920E-02 0.  1.
       -2    1    3    3    0  502 -0.14784299119E+02 -0.22490457629E+03 -0.25466855917E+03  0.34008340002E+03  0.25500000920E-02 0. -1.
</event>
<event>
 5   0  0.2511944E-01  0.5072230E+03  0.7818609E-02  0.1011911E+00
       -2   -1    0    0    0  501  0.00000000000E+00  0.00000000000E+00  0.13011169605E+03  0.13011169607E+03  0.25500000920E-02 0. -1.
        2   -1    0    0  501    0  0.00000000000E+00  0.00000000000E+00 -0.49433515455E+03  0.49433515455E+03  0.25500000920E-02 0.  1.
    10030    2    1    2    0    0  0.00000000000E+00  0.00000000000E+00 -0.36422345850E+03  0.62444685062E+03  0.50722297024E+03 0.  0.
        1    1    3    3  502    0 -0.11275757934E+03  0.10247293861E+03 -0.43170772236E+03  0.45780621710E+03  0.50400001928E-02 0.  1.
       -1    1    3    3    0  502  0.11275757934E+03 -0.10247293861E+03  0.67484263866E+02  0.16664063352E+03  0.50400001928E-02 0. -1.
</event>
<event>
 5   0  0.1529146E-01  0.4996118E+03  0.7818609E-02  0.1013880E+00
        1   -1    0    0  501    0  0.00000000000E+00  0.00000000000E+00  0.49331928275E+03  0.49331928278E+03  0.50400001928E-02 0. -1.
       -1   -1    0    0    0  501  0.00000000000E+00  0.00000000000E+00 -0.12649616535E+03  0.12649616545E+03  0.50400001928E-02 0.  1.
    10030    2    1    2    0    0  0.00000000000E+00  0.00000000000E+00  0.36682311740E+03  0.61981544823E+03  0.49961183973E+03 0.  0.
        1    1    3    3  502    0 -0.68224010888E+02  0.22939183884E+02 -0.11335313928E+03  0.13427455466E+03  0.50400001928E-02 0.  1.
       -1    1    3    3    0  502  0.68224010888E+02 -0.22939183884E+02  0.48017625668E+03  0.48554089357E+03  0.50400001928E-02 0. -1.
</event>
<event>
 5   0  0.2466034E-01  0.4961244E+03  0.7818609E-02  0.1014795E+00
        2   -1    0    0  501    0  0.00000000000E+00  0.00000000000E+00  0.11520439324E+04  0.11520439324E+04  0.25500000920E-02 0.  1.
       -2   -1    0    0    0  501  0.00000000000E+00  0.00000000000E+00 -0.53413633179E+02  0.53413633240E+02  0.25500000920E-02 0. -1.
    10030    2    1    2    0    0  0.00000000000E+00  0.00000000000E+00  0.10986302992E+04  0.12054575657E+04  0.49612438784E+03 0.  0.
        3    1    3    3  502    0 -0.19945125513E+02 -0.61069593766E+02  0.11314797770E+04  0.11333021660E+04  0.10100000352E+00 0.  1.
       -3    1    3    3    0  502  0.19945125513E+02  0.61069593766E+02 -0.32849477796E+02  0.72155399708E+02  0.10100000352E+00 0. -1.
</event>
<event>
 5   0  0.2488968E-01  0.4985419E+03  0.7818609E-02  0.1014160E+00
       -2   -1    0    0    0  501  0.00000000000E+00  0.00000000000E+00  0.19341093998E+03  0.19341094000E+03  0.25500000920E-02 0. -1.
        2   -1    0    0  501    0  0.00000000000E+00  0.00000000000E+00 -0.32126414609E+03  0.32126414610E+03  0.25500000920E-02 0.  1.
    10030    2    1    2    0    0  0.00000000000E+00  0.00000000000E+00 -0.12785320611E+03  0.51467508610E+03  0.49854187581E+03 0.  0.
        2    1    3    3  502    0  0.17163835146E+03 -0.17380335697E+03 -0.12633022908E+02  0.24459542894E+03  0.25500000920E-02 0. -1.
       -2    1    3    3    0  502 -0.17163835146E+03  0.17380335697E+03 -0.11522018320E+03  0.27007965716E+03  0.25500000920E-02 0.  1.
</event>
<event>
 5   0  0.2413301E-01  0.5081290E+03  0.7818609E-02  0.1011679E+00
        2   -1    0    0  501    0  0.00000000000E+00  0.00000000000E+00  0.64241125107E+03  0.64241125108E+03  0.25500000920E-02 0.  1.
       -2   -1    0    0    0  501  0.00000000000E+00  0.00000000000E+00 -0.10047889450E+03  0.10047889454E+03  0.25500000920E-02 0. -1.
    10030    2    1    2    0    0  0.00000000000E+00  0.00000000000E+00  0.54193235657E+03  0.74289014561E+03  0.50812900857E+03 0.  0.
        4    1    3    3  502    0  0.13003328985E+03  0.20562440218E+03  0.37797407243E+03  0.44950646666E+03  0.12699999809E+01 0.  1.
       -4    1    3    3    0  502 -0.13003328985E+03 -0.20562440218E+03  0.16395828414E+03  0.29338367896E+03  0.12699999809E+01 0. -1.
</event>
<event>
 5   0  0.1453602E-01  0.4985499E+03  0.7818609E-02  0.1014158E+00
        1   -1    0    0  501    0  0.00000000000E+00  0.00000000000E+00  0.78776969245E+03  0.78776969246E+03  0.50400001928E-02 0. -1.
       -1   -1    0    0    0  501  0.00000000000E+00  0.00000000000E+00 -0.78878372365E+02  0.78878372526E+02  0.50400001928E-02 0.  1.
    10030    2    1    2    0    0  0.00000000000E+00  0.00000000000E+00  0.70889132008E+03  0.86664806499E+03  0.49854986196E+03 0.  0.
        2    1    3    3  502    0 -0.12869506815E+03 -0.98447285852E+02  0.25152435119E+02  0.16397235638E+03  0.25500000920E-02 0.  1.
       -2    1    3    3    0  502  0.12869506815E+03  0.98447285852E+02  0.68373888496E+03  0.70267570861E+03  0.25500000920E-02 0. -1.
</event>
<event>
 5   0  0.1529146E-01  0.5040708E+03  0.7818609E-02  0.1012722E+00
       -1   -1    0    0    0  501  0.00000000000E+00  0.00000000000E+00  0.51068518631E+03  0.51068518634E+03  0.50400001928E-02 0. -1.
        1   -1    0    0  501    0  0.00000000000E+00  0.00000000000E+00 -0.12438549826E+03  0.12438549837E+03  0.50400001928E-02 0.  1.
    10030    2    1    2    0    0  0.00000000000E+00  0.00000000000E+00  0.38629968805E+03  0.63507068470E+03  0.50407075454E+03 0.  0.
        1    1    3    3  502    0  0.13470249574E+03  0.15735558869E+03  0.37404869075E+03  0.42757217722E+03  0.50400001928E-02 0. -1.
       -1    1    3    3    0  502 -0.13470249574E+03 -0.15735558869E+03  0.12250997295E+02  0.20749850749E+03  0.50400001928E-02 0.  1.
</event>
<event>
 5   0  0.2413301E-01  0.5035889E+03  0.7818609E-02  0.1012846E+00
        2   -1    0    0  501    0  0.00000000000E+00  0.00000000000E+00  0.14021257993E+04  0.14021257993E+04  0.25500000920E-02 0.  1.
       -2   -1    0    0    0  501  0.00000000000E+00  0.00000000000E+00 -0.45217368593E+02  0.45217368665E+02  0.25500000920E-02 0. -1.
    10030    2    1    2    0    0  0.00000000000E+00  0.00000000000E+00  0.13569084307E+04  0.14473431679E+04  0.50358887650E+03 0.  0.
        4    1    3    3  502    0 -0.22199601116E+03 -0.10431091281E+03  0.51496531059E+03  0.57039800097E+03  0.12699999809E+01 0. -1.
       -4    1    3    3    0  502  0.22199601116E+03  0.10431091281E+03  0.84194312009E+03  0.87694516697E+03  0.12699999809E+01 0.  1.
</event>
<event>
 5   0  0.2504064E-01  0.5014849E+03  0.7818609E-02  0.1013392E+00
        2   -1    0    0  501    0  0.00000000000E+00  0.00000000000E+00  0.41796174509E+03  0.41796174509E+03  0.25500000920E-02 0.  1.
       -2   -1    0    0    0  501  0.00000000000E+00  0.00000000000E+00 -0.15042469190E+03  0.15042469192E+03  0.25500000920E-02 0. -1.
    10030    2    1    2    0    0  0.00000000000E+00  0.00000000000E+00  0.26753705319E+03  0.56838643702E+03  0.50148486214E+03 0.  0.
        5    1    3    3  502    0 -0.13232790861E+03 -0.17646118992E+03 -0.12946402910E+01  0.22061956631E+03  0.46999998093E+01 0. -1.
       -5    1    3    3    0  502  0.13232790861E+03  0.17646118992E+03  0.26883169348E+03  0.34776687071E+03  0.46999998093E+01 0.  1.
</event>
<event>
 5   0  0.9868500E-02  0.4295386E+03  0.7818609E-02  0.1034006E+00
        4   -1    0    0  501    0  0.00000000000E+00  0.00000000000E+00  0.37668495583E+03  0.37668709674E+03  0.12699999809E+01 0.  1.
       -4   -1    0    0    0  501  0.00000000000E+00  0.00000000000E+00 -0.12244630935E+03  0.12245289533E+03  0.12699999809E+01 0. -1.
    10030    2    1    2    0    0  0.00000000000E+00  0.00000000000E+00  0.25423864648E+03  0.49913999207E+03  0.42953863891E+03 0.  0.
        3    1    3    3  502    0  0.21358586066E+03  0.20157444885E+02  0.13877496575E+03  0.25550683705E+03  0.10100000352E+00 0.  1.
       -3    1    3    3    0  502 -0.21358586066E+03 -0.20157444885E+02  0.11546368073E+03  0.24363315502E+03  0.10100000352E+00 0. -1.
</event>
<event>
 5   0  0.1448458E-01  0.5026849E+03  0.7818609E-02  0.1013080E+00
       -1   -1    0    0    0  501  0.00000000000E+00  0.00000000000E+00  0.86336087330E+02  0.86336087477E+02  0.50400001928E-02 0.  1.
        1   -1    0    0  501    0  0.00000000000E+00  0.00000000000E+00 -0.73171066497E+03  0.73171066499E+03  0.50400001928E-02 0. -1.
    10030    2    1    2    0    0  0.00000000000E+00  0.00000000000E+00 -0.64537457764E+03  0.81804675246E+03  0.50268493488E+03 0.  0.
        5    1    3    3  502    0  0.21856073161E+03  0.83693888903E+02 -0.47163680514E+03  0.52653283507E+03  0.46999998093E+01 0. -1.
       -5    1    3    3    0  502 -0.21856073161E+03 -0.83693888903E+02 -0.17373777250E+03  0.29151391740E+03  0.46999998093E+01 0.  1.
</event>
<event>
 5   0  0.1413361E-01  0.5006147E+03  0.7818609E-02  0.1013619E+00
        1   -1    0    0  501    0  0.00000000000E+00  0.00000000000E+00  0.79297654218E+03  0.79297654220E+03  0.50400001928E-02 0.  1.
       -1   -1    0    0    0  501  0.00000000000E+00  0.00000000000E+00 -0.79010867949E+02  0.79010868110E+02  0.50400001928E-02 0. -1.
    10030    2    1    2    0    0  0.00000000000E+00  0.00000000000E+00  0.71396567423E+03  0.87198741031E+03  0.50061468192E+03 0.  0.
        3    1    3    3  502    0  0.16126466157E+03 -0.18709019272E+03  0.28634244928E+03  0.37815478278E+03  0.10100000352E+00 0.  1.
       -3    1    3    3    0  502 -0.16126466157E+03  0.18709019272E+03  0.42762322496E+03  0.49383262752E+03  0.10100000352E+00 0. -1.
</event>
<event>
 5   0  0.2488968E-01  0.4944840E+03  0.7818609E-02  0.1015229E+00
        2   -1    0    0  501    0  0.00000000000E+00  0.00000000000E+00  0.88866878777E+02  0.88866878813E+02  0.25500000920E-02 0.  1.
       -2   -1    0    0    0  501  0.00000000000E+00  0.00000000000E+00 -0.68786712005E+03  0.68786712006E+03  0.25500000920E-02 0. -1.
    10030    2    1    2    0    0  0.00000000000E+00  0.00000000000E+00 -0.59900024128E+03  0.77673399887E+03  0.49448398958E+03 0.  0.
        2    1    3    3  502    0 -0.47963320632E+02  0.23572012854E+03 -0.20975625085E+03  0.31915849339E+03  0.25500000920E-02 0.  1.
       -2    1    3    3    0  502  0.47963320632E+02 -0.23572012854E+03 -0.38924399043E+03  0.45757550548E+03  0.25500000920E-02 0. -1.
</event>
<event>
 5   0  0.2413301E-01  0.4988323E+03  0.7818609E-02  0.1014084E+00
       -2   -1    0    0    0  501  0.00000000000E+00  0.00000000000E+00  0.21049249701E+03  0.21049249703E+03  0.25500000920E-02 0.  1.
        2   -1    0    0  501    0  0.00000000000E+00  0.00000000000E+00 -0.29553743507E+03  0.29553743508E+03  0.25500000920E-02 0. -1.
    10030    2    1    2    0    0  0.00000000000E+00  0.00000000000E+00 -0.85044938060E+02  0.50602993211E+03  0.49883228715E+03 0.  0.
        4    1    3    3  502    0  0.13878479969E+03 -0.18648964862E+03  0.49154022253E+02  0.23760753454E+03  0.12699999809E+01 0.  1.
       -4    1    3    3    0  502 -0.13878479969E+03  0.18648964862E+03 -0.13419896031E+03  0.26842239757E+03  0.12699999809E+01 0. -1.
</event>
<event>
 5   0  0.1529146E-01  0.5491190E+03  0.7818609E-02  0.1001698E+00
        1   -1    0    0  501    0  0.00000000000E+00  0.00000000000E+00  0.15017082549E+04  0.15017082549E+04  0.50400001928E-02 0. -1.
       -1   -1    0    0    0  501  0.00000000000E+00  0.00000000000E+00 -0.50198116762E+02  0.50198117015E+02  0.50400001928E-02 0.  1.
    10030    2    1    2    0    0  0.00000000000E+00  0.00000000000E+00  0.14515101382E+04  0.15519063719E+04  0.54911902726E+03 0.  0.
        1    1    3    3  502    0  0.10675464048E+03  0.71074959429E+02  0.39659446425E+02  0.13424259696E+03  0.50400001928E-02 0.  1.
       -1    1    3    3    0  502 -0.10675464048E+03 -0.71074959429E+02  0.14118506917E+04  0.14176637750E+04  0.50400001928E-02 0. -1.
</event>
<event>
 5   0  0.1529146E-01  0.3960207E+03  0.7818609E-02  0.1045166E+00
       -1   -1    0    0    0  501  0.00000000000E+00  0.00000000000E+00  0.83644541379E+02  0.83644541531E+02  0.50400001928E-02 0. -1.
        1   -1    0    0  501    0  0.00000000000E+00  0.00000000000E+00 -0.46874658761E+03  0.46874658764E+03  0.50400001928E-02 0.  1.
    10030    2    1    2    0    0  0.00000000000E+00  0.00000000000E+00 -0.38510204623E+03  0.55239112917E+03  0.39602067316E+03 0.  0.
        1    1    3    3  502    0 -0.36444195856E+02 -0.11530650946E+03 -0.41125564603E+03  0.42866651018E+03  0.50400001928E-02 0.  1.
       -1    1    3    3    0  502  0.36444195856E+02  0.11530650946E+03  0.26153599795E+02  0.12372461899E+03  0.50400001928E-02 0. -1.
</event>
<event>
 5   0  0.2466034E-01  0.4968672E+03  0.7818609E-02  0.1014600E+00
       -2   -1    0    0    0  501  0.00000000000E+00  0.00000000000E+00  0.22120106832E+03  0.22120106834E+03  0.25500000920E-02 0. -1.
        2   -1    0    0  501    0  0.00000000000E+00  0.00000000000E+00 -0.27901876773E+03  0.27901876774E+03  0.25500000920E-02 0.  1.
    10030    2    1    2    0    0  0.00000000000E+00  0.00000000000E+00 -0.57817699409E+02  0.50021983608E+03  0.49686718351E+03 0.  0.
        3    1    3    3  502    0 -0.20334785050E+03  0.52280164138E+02  0.10478660558E+03  0.23465678506E+03  0.10100000352E+00 0. -1.
       -3    1    3    3    0  502  0.20334785050E+03 -0.52280164138E+02 -0.16260430499E+03  0.26556305102E+03  0.10100000352E+00 0.  1.
</event>
<event>
 5   0  0.1439814E-01  0.4186075E+03  0.7818609E-02  0.1037520E+00
        1   -1    0    0  501    0  0.00000000000E+00  0.00000000000E+00  0.71486768296E+03  0.71486768298E+03  0.50400001928E-02 0.  1.
       -1   -1    0    0    0  501  0.00000000000E+00  0.00000000000E+00 -0.61281342194E+02  0.61281342401E+02  0.50400001928E-02 0. -1.
    10030    2    1    2    0    0  0.00000000000E+00  0.00000000000E+00  0.65358634076E+03  0.77614902538E+03  0.41860745904E+03 0.  0.
        4    1    3    3  502    0 -0.22537559919E+02  0.44737588632E+02  0.70358167240E+03  0.70536386077E+03  0.12699999809E+01 0.  1.
       -4    1    3    3    0  502  0.22537559919E+02 -0.44737588632E+02 -0.49995331633E+02  0.70785164609E+02  0.12699999809E+01 0. -1.
</event>
<event>
 5   0  0.1529146E-01  0.4855706E+03  0.7818609E-02  0.1017615E+00
       -1   -1    0    0    0  501  0.00000000000E+00  0.00000000000E+00  0.26563803093E+03  0.26563803098E+03  0.50400001928E-02 0.  1.
        1   -1    0    0  501    0  0.00000000000E+00  0.00000000000E+00 -0.22189856053E+03  0.22189856058E+03  0.50400001928E-02 0. -1.
    10030    2    1    2    0    0  0.00000000000E+00  0.00000000000E+00  0.43739470406E+02  0.48753659156E+03  0.48557057864E+03 0.  0.
        1    1    3    3  502    0  0.23301539393E+03  0.95480022420E+01 -0.45911807723E+02  0.23768725727E+03  0.50400001928E-02 0. -1.
       -1    1    3    3    0  502 -0.23301539393E+03 -0.95480022420E+01  0.89651278129E+02  0.24984933430E+03  0.50400001928E-02 0.  1.
</event>
<event>
 5   0  0.9868500E-02  0.5056561E+03  0.7818609E-02  0.1012313E+00
        3   -1    0    0  501    0  0.00000000000E+00  0.00000000000E+00  0.11842690218E+03  0.11842694525E+03  0.10100000352E+00 0. -1.
       -3   -1    0    0    0  501  0.00000000000E+00  0.00000000000E+00 -0.53975919159E+03  0.53975920104E+03  0.10100000352E+00 0.  1.
    10030    2    1    2    0    0  0.00000000000E+00  0.00000000000E+00 -0.42133228941E+03  0.65818614629E+03  0.50565611345E+03 0.  0.
        2    1    3    3  502    0 -0.71667638466E+02 -0.19660654490E+03 -0.25980526331E+02  0.21086813808E+03  0.25500000920E-02 0. -1.
       -2    1    3    3    0  502  0.71667638466E+02  0.19660654490E+03 -0.39535176307E+03  0.44731800821E+03  0.25500000920E-02 0.  1.
</event>
<event>
 5   0  0.1529146E-01  0.4982639E+03  0.7818609E-02  0.1014233E+00
       -1   -1    0    0    0  501  0.00000000000E+00  0.00000000000E+00  0.97686748592E+02  0.97686748722E+02  0.50400001928E-02 0.  1.
        1   -1    0    0  501    0  0.00000000000E+00  0.00000000000E+00 -0.63536476239E+03  0.63536476241E+03  0.50400001928E-02 0. -1.
    10030    2    1    2    0    0  0.00000000000E+00  0.00000000000E+00 -0.53767801380E+03  0.73305151113E+03  0.49826385726E+03 0.  0.
        1    1    3    3  502    0  0.13188107757E+03 -0.21109033032E+03 -0.28461404837E+03  0.37809641989E+03  0.50400001928E-02 0. -1.
       -1    1    3    3    0  502 -0.13188107757E+03  0.21109033032E+03 -0.25306396543E+03  0.35495509125E+03  0.50400001928E-02 0.  1.
</event>
<event>
 5   0  0.1413361E-01  0.5113549E+03  0.7818609E-02  0.1010857E+00
        1   -1    0    0  501    0  0.00000000000E+00  0.00000000000E+00  0.37794805696E+03  0.37794805699E+03  0.50400001928E-02 0. -1.
       -1   -1    0    0    0  501  0.00000000000E+00  0.00000000000E+00 -0.17296284312E+03  0.17296284319E+03  0.50400001928E-02 0.  1.
    10030    2    1    2    0    0  0.00000000000E+00  0.00000000000E+00  0.20498521384E+03  0.55091090018E+03  0.51135494722E+03 0.  0.
        3    1    3    3  502    0  0.12877275335E+02 -0.24903943236E+03  0.16328921367E+03  0.29807690382E+03  0.10100000352E+00 0.  1.
       -3    1    3    3    0  502 -0.12877275335E+02  0.24903943236E+03  0.41696000174E+02  0.25283399637E+03  0.10100000352E+00 0. -1.
</event>
<event>
 5   0  0.9868500E-02  0.4897985E+03  0.7818609E-02  0.1016476E+00
        4   -1    0    0  501    0  0.00000000000E+00  0.00000000000E+00  0.88690861461E+02  0.88699953815E+02  0.12699999809E+01 0.  1.
       -4   -1    0    0    0  501  0.00000000000E+00  0.00000000000E+00 -0.67618815926E+03  0.67618935190E+03  0.12699999809E+01 0. -1.
    10030    2    1    2    0    0  0.00000000000E+00  0.00000000000E+00 -0.58749729780E+03  0.76488930572E+03  0.48979850457E+03 0.  0.
        2    1    3    3  502    0 -0.14979143956E+03 -0.19071311924E+03 -0.24040828244E+03  0.34147490610E+03  0.25500000920E-02 0. -1.
       -2    1    3    3    0  502  0.14979143956E+03  0.19071311924E+03 -0.34708901535E+03  0.42341439962E+03  0.25500000920E-02 0.  1.
</event>
<event>
 5   0  0.9868500E-02  0.4953339E+03  0.7818609E-02  0.1015004E+00
        3   -1    0    0  501    0  0.00000000000E+00  0.00000000000E+00  0.17230914096E+03  0.17230917056E+03  0.10100000352E+00 0. -1.
       -3   -1    0    0    0  501  0.00000000000E+00  0.00000000000E+00 -0.35598167836E+03  0.35598169269E+03  0.10100000352E+00 0.  1.
    10030    2    1    2    0    0  0.00000000000E+00  0.00000000000E+00 -0.18367253741E+03  0.52829086325E+03  0.49533386235E+03 0.  0.
        5    1    3    3  502    0 -0.20471634310E+03 -0.37498454385E+02  0.51261972797E+02  0.21439401826E+03  0.46999998093E+01 0. -1.
       -5    1    3    3    0  502  0.20471634310E+03  0.37498454385E+02 -0.23493451021E+03  0.31389684499E+03  0.46999998093E+01 0.  1.
</event>
<event>
 5   0  0.1439814E-01  0.5060100E+03  0.7818609E-02  0.1012222E+00
        1   -1    0    0  501    0  0.00000000000E+00  0.00000000000E+00  0.16043664961E+04  0.16043664961E+04  0.50400001928E-02 0.  1.
       -1   -1    0    0    0  501  0.00000000000E+00  0.00000000000E+00 -0.39898325784E+02  0.39898326103E+02  0.50400001928E-02 0. -1.
    10030    2    1    2    0    0  0.00000000000E+00  0.00000000000E+00  0.15644681703E+04  0.16442648222E+04  0.50601002918E+03 0.  0.
        4    1    3    3  502    0 -0.67459711290E+02  0.73574164441E+02  0.26804072228E+02  0.10336363726E+03  0.12699999809E+01 0. -1.
       -4    1    3    3    0  502  0.67459711290E+02 -0.73574164441E+02  0.15376640981E+04  0.15409011850E+04  0.12699999809E+01 0.  1.
</event>
<event>
 5   0  0.1529146E-01  0.5013223E+03  0.7818609E-02  0.1013434E+00
       -1   -1    0    0    0  501  0.00000000000E+00  0.00000000000E+00  0.13954563863E+03  0.13954563872E+03  0.50400001928E-02 0.  1.
        1   -1    0    0  501    0  0.00000000000E+00  0.00000000000E+00 -0.45025428553E+03  0.45025428556E+03  0.50400001928E-02 0. -1.
    10030    2    1    2    0    0  0.00000000000E+00  0.00000000000E+00 -0.31070864689E+03  0.58979992428E+03  0.50132233885E+03 0.  0.
        1    1    3    3  502    0  0.80484431340E+01  0.24264353777E+02  0.13800792993E+03  0.14035570901E+03  0.50400001928E-02 0.  1.
       -1    1    3    3    0  502 -0.80484431340E+01 -0.24264353777E+02 -0.44871657683E+03  0.44944421528E+03  0.50400001928E-02 0. -1.
</event>
<event>
 5   0  0.1529146E-01  0.4944089E+03  0.7818609E-02  0.1015249E+00
       -1   -1    0    0    0  501  0.00000000000E+00  0.00000000000E+00  0.11446461763E+03  0.11446461774E+03  0.50400001928E-02 0. -1.
        1   -1    0    0  501    0  0.00000000000E+00  0.00000000000E+00 -0.53387719878E+03  0.53387719881E+03  0.50400001928E-02 0.  1.
    10030    2    1    2    0    0  0.00000000000E+00  0.00000000000E+00 -0.41941258116E+03  0.64834181655E+03  0.49440893787E+03 0.  0.
        1    1    3    3  502    0 -0.14172684621E+03 -0.19732727671E+03 -0.26959189527E+03  0.36291092997E+03  0.50400001928E-02 0. -1.
       -1    1    3    3    0  502  0.14172684621E+03  0.19732727671E+03 -0.14982068589E+03  0.28543088658E+03  0.50400001928E-02 0.  1.
</event>
<event>
 5   0  0.2504064E-01  0.5014596E+03  0.7818609E-02  0.1013399E+00
       -2   -1    0    0    0  501  0.00000000000E+00  0.00000000000E+00  0.24960949602E+03  0.24960949603E+03  0.25500000920E-02 0. -1.
        2   -1    0    0  501    0  0.00000000000E+00  0.00000000000E+00 -0.25185515081E+03  0.25185515082E+03  0.25500000920E-02 0.  1.
    10030    2    1    2    0    0  0.00000000000E+00  0.00000000000E+00 -0.22456547894E+01  0.50146464686E+03  0.50145961860E+03 0.  0.
        5    1    3    3  502    0  0.21038017406E+03  0.55453810710E+02 -0.12565682086E+03  0.25129001052E+03  0.46999998093E+01 0.  1.
       -5    1    3    3    0  502 -0.21038017406E+03 -0.55453810710E+02  0.12341116607E+03  0.25017463634E+03  0.46999998093E+01 0. -1.
</event>
<event>
 5   0  0.9868500E-02  0.5015421E+03  0.7818609E-02  0.1013377E+00
       -3   -1    0    0    0  501  0.00000000000E+00  0.00000000000E+00  0.10010884921E+03  0.10010890016E+03  0.10100000352E+00 0.  1.
        3   -1    0    0  501    0  0.00000000000E+00  0.00000000000E+00 -0.62817709064E+03  0.62817709876E+03  0.10100000352E+00 0. -1.
    10030    2    1    2    0    0  0.00000000000E+00  0.00000000000E+00 -0.52806824143E+03  0.72828599891E+03  0.50154205068E+03 0.  0.
        1    1    3    3  502    0  0.19183407243E+03  0.12403861240E+02 -0.30197722154E+02  0.19459205936E+03  0.50400001928E-02 0.  1.
       -1    1    3    3    0  502 -0.19183407243E+03 -0.12403861240E+02 -0.49787051928E+03  0.53369393955E+03  0.50400001928E-02 0. -1.
</event>
<event>
 5   0  0.2413301E-01  0.5039020E+03  0.7818609E-02  0.1012765E+00
       -2   -1    0    0    0  501  0.00000000000E+00  0.00000000000E+00  0.43176751230E+03  0.43176751231E+03  0.25500000920E-02 0.  1.
        2   -1    0    0  501    0  0.00000000000E+00  0.00000000000E+00 -0.14702197431E+03  0.14702197433E+03  0.25500000920E-02 0. -1.
    10030    2    1    2    0    0  0.00000000000E+00  0.00000000000E+00  0.28474553799E+03  0.57878948664E+03  0.50390202266E+03 0.  0.
        4    1    3    3  502    0  0.23820934109E+03 -0.81710308593E+02  0.15107761189E+03  0.29367724193E+03  0.12699999809E+01 0. -1.
       -4    1    3    3    0  502 -0.23820934109E+03  0.81710308593E+02  0.13366792610E+03  0.28511224471E+03  0.12699999809E+01 0.  1.
</event>
<event>
 5   0  0.1448458E-01  0.4904140E+03  0.7818609E-02  0.1016312E+00
       -1   -1    0    0    0  501  0.00000000000E+00  0.00000000000E+00  0.75867718473E+03  0.75867718475E+03  0.50400001928E-02 0.  1.
        1   -1    0    0  501    0  0.00000000000E+00  0.00000000000E+00 -0.79251705832E+02  0.79251705992E+02  0.50400001928E-02 0. -1.
    10030    2    1    2    0    0  0.00000000000E+00  0.00000000000E+00  0.67942547890E+03  0.83792889074E+03  0.49041395225E+03 0.  0.
        5    1    3    3  502    0  0.14242632254E+03 -0.53198172132E+02  0.66832294208E+03  0.68541443506E+03  0.46999998093E+01 0.  1.
       -5    1    3    3    0  502 -0.14242632254E+03  0.53198172132E+02  0.11102536818E+02  0.15251445568E+03  0.46999998093E+01 0. -1.
</event>
<event>
 5   0  0.2413301E-01  0.4898207E+03  0.7818609E-02  0.1016471E+00
       -2   -1    0    0    0  501  0.00000000000E+00  0.00000000000E+00  0.77379310001E+02  0.77379310043E+02  0.25500000920E-02 0.  1.
        2   -1    0    0  501    0  0.00000000000E+00  0.00000000000E+00 -0.77515663819E+03  0.77515663820E+03  0.25500000920E-02 0. -1.
    10030    2    1    2    0    0  0.00000000000E+00  0.00000000000E+00 -0.69777732819E+03  0.85253594824E+03  0.48982072568E+03 0.  0.
        4    1    3    3  502    0  0.19776076621E+03  0.79986327959E+02 -0.13950397769E+03  0.25489234199E+03  0.12699999809E+01 0.  1.
       -4    1    3    3    0  502 -0.19776076621E+03 -0.79986327959E+02 -0.55827335050E+03  0.59764360625E+03  0.12699999809E+01 0. -1.
</event>
<event>
 5   0  0.1413361E-01  0.5090896E+03  0.7818609E-02  0.1011433E+00
       -1   -1    0    0    0  501  0.00000000000E+00  0.00000000000E+00  0.15064043876E+03  0.15064043885E+03  0.50400001928E-02 0. -1.
        1   -1    0    0  501    0  0.00000000000E+00  0.00000000000E+00 -0.43011728484E+03  0.43011728487E+03  0.50400001928E-02 0.  1.
    10030    2    1    2    0    0  0.00000000000E+00  0.00000000000E+00 -0.27947684608E+03  0.58075772372E+03  0.50908960524E+03 0.  0.
        3    1    3    3  502    0  0.33191898157E+02 -0.50408283082E+02  0.14235972538E+03  0.15462534953E+03  0.10100000352E+00 0. -1.
       -3    1    3    3    0  502 -0.33191898157E+02  0.50408283082E+02 -0.42183657146E+03  0.42613237418E+03  0.10100000352E+00 0.  1.
</event>
<event>
 5   0  0.2488968E-01  0.3657309E+03  0.7818609E-02  0.1056337E+00
        2   -1    0    0  501    0  0.00000000000E+00  0.00000000000E+00  0.53264623256E+03  0.53264623256E+03  0.25500000920E-02 0. -1.
       -2   -1    0    0    0  501  0.00000000000E+00  0.00000000000E+00 -0.62780442750E+02  0.62780442802E+02  0.25500000920E-02 0.  1.
    10030    2    1    2    0    0  0.00000000000E+00  0.00000000000E+00  0.46986578981E+03  0.59542667536E+03  0.36573086458E+03 0.  0.
        2    1    3    3  502    0  0.15605057495E+03  0.89774625636E+02  0.18272105145E+03  0.25651169174E+03  0.25500000920E-02 0. -1.
       -2    1    3    3    0  502 -0.15605057495E+03 -0.89774625636E+02  0.28714473836E+03  0.33891498362E+03  0.25500000920E-02 0.  1.
</event>
<event>
 5   0  0.2511944E-01  0.4988487E+03  0.7818609E-02  0.1014080E+00
        2   -1    0    0  501    0  0.00000000000E+00  0.00000000000E+00  0.15204430163E+04  0.15204430163E+04  0.25500000920E-02 0. -1.
       -2   -1    0    0    0  501  0.00000000000E+00  0.00000000000E+00 -0.40917347886E+02  0.40917347965E+02  0.25500000920E-02 0.  1.
    10030    2    1    2    0    0  0.00000000000E+00  0.00000000000E+00  0.14795256685E+04  0.15613603643E+04  0.49884865803E+03 0.  0.
        1    1    3    3  502    0  0.44673415043E+02 -0.18525926413E+03  0.23608956974E+03  0.30340565902E+03  0.50400001928E-02 0.  1.
       -1    1    3    3    0  502 -0.44673415043E+02  0.18525926413E+03  0.12434360987E+04  0.12579547053E+04  0.50400001928E-02 0. -1.
</event>
<event>
 5   0  0.9868500E-02  0.3900145E+03  0.7818609E-02  0.1047293E+00
       -3   -1    0    0    0  501  0.00000000000E+00  0.00000000000E+00  0.56745926244E+03  0.56745927143E+03  0.10100000352E+00 0.  1.
        3   -1    0    0  501    0  0.00000000000E+00  0.00000000000E+00 -0.67014165644E+02  0.67014241755E+02  0.10100000352E+00 0. -1.
    10030    2    1    2    0    0  0.00000000000E+00  0.00000000000E+00  0.50044509680E+03  0.63447351319E+03  0.39001454335E+03 0.  0.
        1    1    3    3  502    0  0.14246183359E+03 -0.13038885239E+03  0.29421250111E+03  0.35193411698E+03  0.50400001928E-02 0.  1.
       -1    1    3    3    0  502 -0.14246183359E+03  0.13038885239E+03  0.20623259569E+03  0.28253939621E+03  0.50400001928E-02 0. -1.
</event>
<event>
 5   0  0.1439814E-01  0.5013281E+03  0.7818609E-02  0.1013433E+00
        1   -1    0    0  501    0  0.00000000000E+00  0.00000000000E+00  0.41926230870E+03  0.41926230873E+03  0.50400001928E-02 0.  1.
       -1   -1    0    0    0  501  0.00000000000E+00  0.00000000000E+00 -0.14986431907E+03  0.14986431915E+03  0.50400001928E-02 0. -1.
    10030    2    1    2    0    0  0.00000000000E+00  0.00000000000E+00  0.26939798963E+03  0.56912662789E+03  0.50132807796E+03 0.  0.
        4    1    3    3  502    0 -0.20575929917E+03  0.13531824186E+03  0.81658574529E+02  0.25945645390E+03  0.12699999809E+01 0.  1.
       -4    1    3    3    0  502  0.20575929917E+03 -0.13531824186E+03  0.18773941511E+03  0.30967017399E+03  0.12699999809E+01 0. -1.
</event>
<event>
 5   0  0.2511944E-01  0.5018368E+03  0.7818609E-02  0.1013301E+00
        2   -1    0    0  501    0  0.00000000000E+00  0.00000000000E+00  0.77280022309E+03  0.77280022309E+03  0.25500000920E-02 0.  1.
       -2   -1    0    0    0  501  0.00000000000E+00  0.00000000000E+00 -0.81470009939E+02  0.81470009979E+02  0.25500000920E-02 0. -1.
    10030    2    1    2    0    0  0.00000000000E+00  0.00000000000E+00  0.69133021315E+03  0.85427023307E+03  0.50183679369E+03 0.  0.
        1    1    3    3  502    0  0.13012601593E+03  0.81694887184E+01 -0.19278069046E+02  0.13179971373E+03  0.50400001928E-02 0. -1.
       -1    1    3    3    0  502 -0.13012601593E+03 -0.81694887184E+01  0.71060828219E+03  0.72247051934E+03  0.50400001928E-02 0.  1.
</event>
<event>
 5   0  0.9868500E-02  0.5004611E+03  0.7818609E-02  0.1013659E+00
        4   -1    0    0  501    0  0.00000000000E+00  0.00000000000E+00  0.98747827571E+02  0.98755993995E+02  0.12699999809E+01 0. -1.
       -4   -1    0    0    0  501  0.00000000000E+00  0.00000000000E+00 -0.63405824504E+03  0.63405951692E+03  0.12699999809E+01 0.  1.
    10030    2    1    2    0    0  0.00000000000E+00  0.00000000000E+00 -0.53531041747E+03  0.73281551092E+03  0.50046111736E+03 0.  0.
        1    1    3    3  502    0  0.14702834452E+03 -0.52738913566E+02  0.18598001494E+02  0.15730420459E+03  0.50400001928E-02 0. -1.
       -1    1    3    3    0  502 -0.14702834452E+03  0.52738913566E+02 -0.55390841896E+03  0.57551130633E+03  0.50400001928E-02 0.  1.
</event>
<event>
 5   0  0.2413301E-01  0.4989730E+03  0.7818609E-02  0.1014047E+00
        2   -1    0    0  501    0  0.00000000000E+00  0.00000000000E+00  0.50912605939E+03  0.50912605940E+03  0.25500000920E-02 0.  1.
       -2   -1    0    0    0  501  0.00000000000E+00  0.00000000000E+00 -0.12225560326E+03  0.12225560329E+03  0.25500000920E-02 0. -1.
    10030    2    1    2    0    0  0.00000000000E+00  0.00000000000E+00  0.38687045613E+03  0.63138166269E+03  0.49897299942E+03 0.  0.
        4    1    3    3  502    0  0.68064572591E+02 -0.66690473511E+02  0.48518700717E+03  0.49445773341E+03  0.12699999809E+01 0.  1.
       -4    1    3    3    0  502 -0.68064572591E+02  0.66690473511E+02 -0.98316551045E+02  0.13692392928E+03  0.12699999809E+01 0. -1.
</event>
<event>
 5   0  0.2466034E-01  0.5361491E+03  0.7818609E-02  0.1004752E+00
       -2   -1    0    0    0  501  0.00000000000E+00  0.00000000000E+00  0.86868385136E+02  0.86868385173E+02  0.25500000920E-02 0.  1.
        2   -1    0    0  501    0  0.00000000000E+00  0.00000000000E+00 -0.82727402776E+03  0.82727402777E+03  0.25500000920E-02 0. -1.
    10030    2    1    2    0    0  0.00000000000E+00  0.00000000000E+00 -0.74040564263E+03  0.91414241294E+03  0.53614907955E+03 0.  0.
        3    1    3    3  502    0  0.24838966774E+03  0.96349725093E+02 -0.31953051911E+03  0.41602939729E+03  0.10100000352E+00 0. -1.
       -3    1    3    3    0  502 -0.24838966774E+03 -0.96349725093E+02 -0.42087512352E+03  0.49811301565E+03  0.10100000352E+00 0.  1.
</event>
<event>
 5   0  0.1453602E-01  0.4902135E+03  0.7818609E-02  0.1016365E+00
        1   -1    0    0  501    0  0.00000000000E+00  0.00000000000E+00  0.12152743654E+03  0.12152743664E+03  0.50400001928E-02 0.  1.
       -1   -1    0    0    0  501  0.00000000000E+00  0.00000000000E+00 -0.49435195668E+03  0.49435195671E+03  0.50400001928E-02 0. -1.
    10030    2    1    2    0    0  0.00000000000E+00  0.00000000000E+00 -0.37282452014E+03  0.61587939335E+03  0.49021352932E+03 0.  0.
        2    1    3    3  502    0 -0.94515518857E+02  0.11159737606E+03 -0.43353385052E+03  0.45753552561E+03  0.25500000920E-02 0. -1.
       -2    1    3    3    0  502  0.94515518857E+02 -0.11159737606E+03  0.60709330373E+02  0.15834386773E+03  0.25500000920E-02 0.  1.
</event>
<event>
 5   0  0.1439814E-01  0.5467110E+03  0.7818609E-02  0.1002258E+00
       -1   -1    0    0    0  501  0.00000000000E+00  0.00000000000E+00  0.40500522603E+03  0.40500522607E+03  0.50400001928E-02 0. -1.
        1   -1    0    0  501    0  0.00000000000E+00  0.00000000000E+00 -0.18449942751E+03  0.18449942758E+03  0.50400001928E-02 0.  1.
    10030    2    1    2    0    0  0.00000000000E+00  0.00000000000E+00  0.22050579852E+03  0.58950465364E+03  0.54671101094E+03 0.  0.
        4    1    3    3  502    0  0.10241628983E+03  0.13534968732E+03 -0.12079242418E+03  0.20832920323E+03  0.12699999809E+01 0.  1.
       -4    1    3    3    0  502 -0.10241628983E+03 -0.13534968732E+03  0.34129822270E+03  0.38117545041E+03  0.12699999809E+01 0. -1.
</event>
<event>
 5   0  0.1413361E-01  0.5023831E+03  0.7818609E-02  0.1013159E+00
        1   -1    0    0  501    0  0.00000000000E+00  0.00000000000E+00  0.81509129898E+03  0.81509129900E+03  0.50400001928E-02 0.  1.
       -1   -1    0    0    0  501  0.00000000000E+00  0.00000000000E+00 -0.77411187938E+02  0.77411188103E+02  0.50400001928E-02 0. -1.
    10030    2    1    2    0    0  0.00000000000E+00  0.00000000000E+00  0.73768011105E+03  0.89250248710E+03  0.50238306426E+03 0.  0.
        3    1    3    3  502    0  0.12014758870E+03 -0.21477810579E+03  0.45823535501E+03  0.52013914348E+03  0.10100000352E+00 0.  1.
       -3    1    3    3    0  502 -0.12014758870E+03  0.21477810579E+03  0.27944475604E+03  0.37236334362E+03  0.10100000352E+00 0. -1.
</event>
<event>
 5   0  0.1413361E-01  0.5011615E+03  0.7818609E-02  0.1013476E+00
        1   -1    0    0  501    0  0.00000000000E+00  0.00000000000E+00  0.33228361311E+03  0.33228361315E+03  0.50400001928E-02 0.  1.
       -1   -1    0    0    0  501  0.00000000000E+00  0.00000000000E+00 -0.18896724148E+03  0.18896724155E+03  0.50400001928E-02 0. -1.
    10030    2    1    2    0    0  0.00000000000E+00  0.00000000000E+00  0.14331637163E+03  0.52125085470E+03  0.50116152202E+03 0.  0.
        3    1    3    3  502    0 -0.10413748277E+02 -0.20052044328E+03  0.22758020296E+03  0.30349572205E+03  0.10100000352E+00 0.  1.
       -3    1    3    3    0  502  0.10413748277E+02  0.20052044328E+03 -0.84263831325E+02  0.21775513265E+03  0.10100000352E+00 0. -1.
</event>
<event>
 5   0  0.2466034E-01  0.4993555E+03  0.7818609E-02  0.1013947E+00
        2   -1    0    0  501    0  0.00000000000E+00  0.00000000000E+00  0.56804881324E+03  0.56804881325E+03  0.25500000920E-02 0. -1.
       -2   -1    0    0    0  501  0.00000000000E+00  0.00000000000E+00 -0.10974227257E+03  0.10974227260E+03  0.25500000920E-02 0.  1.
    10030    2    1    2    0    0  0.00000000000E+00  0.00000000000E+00  0.45830654067E+03  0.67779108585E+03  0.49935545539E+03 0.  0.
        3    1    3    3  502    0  0.21714480563E+03  0.76990020026E+02  0.35976519132E+03  0.42721228082E+03  0.10100000352E+00 0. -1.
       -3    1    3    3    0  502 -0.21714480563E+03 -0.76990020026E+02  0.98541349350E+02  0.25057880503E+03  0.10100000352E+00 0.  1.
</event>
<event>
 5   0  0.2504064E-01  0.4949194E+03  0.7818609E-02  0.1015114E+00
        2   -1    0    0  501    0  0.00000000000E+00  0.00000000000E+00  0.23145350760E+03  0.23145350761E+03  0.25500000920E-02 0.  1.
       -2   -1    0    0    0  501  0.00000000000E+00  0.00000000000E+00 -0.26457278033E+03  0.26457278034E+03  0.25500000920E-02 0. -1.
    10030    2    1    2    0    0  0.00000000000E+00  0.00000000000E+00 -0.33119272731E+02  0.49602628795E+03  0.49491937941E+03 0.  0.
        5    1    3    3  502    0  0.10894131466E+03 -0.10823789523E+03  0.17786019025E+03  0.23503188992E+03  0.46999998093E+01 0.  1.
       -5    1    3    3    0  502 -0.10894131466E+03  0.10823789523E+03 -0.21097946298E+03  0.26099439803E+03  0.46999998093E+01 0. -1.
</event>
<event>
 5   0  0.2488968E-01  0.4058727E+03  0.7818609E-02  0.1041765E+00
       -2   -1    0    0    0  501  0.00000000000E+00  0.00000000000E+00  0.91408268210E+02  0.91408268245E+02  0.25500000920E-02 0. -1.
        2   -1    0    0  501    0  0.00000000000E+00  0.00000000000E+00 -0.45054083604E+03  0.45054083605E+03  0.25500000920E-02 0.  1.
    10030    2    1    2    0    0  0.00000000000E+00  0.00000000000E+00 -0.35913256783E+03  0.54194910429E+03  0.40587267753E+03 0.  0.
        2    1    3    3  502    0 -0.46527386527E+02  0.16791579161E+03 -0.31847689740E+03  0.36302623177E+03  0.25500000920E-02 0. -1.
       -2    1    3    3    0  502  0.46527386527E+02 -0.16791579161E+03 -0.40655670431E+02  0.17892287252E+03  0.25500000920E-02 0.  1.
</event>
<event>
 5   0  0.1529146E-01  0.4999523E+03  0.7818609E-02  0.1013791E+00
        1   -1    0    0  501    0  0.00000000000E+00  0.00000000000E+00  0.10602861438E+04  0.10602861438E+04  0.50400001928E-02 0. -1.
       -1   -1    0    0    0  501  0.00000000000E+00  0.00000000000E+00 -0.58935096704E+02  0.58935096920E+02  0.50400001928E-02 0.  1.
    10030    2    1    2    0    0  0.00000000000E+00  0.00000000000E+00  0.10013510471E+04  0.11192212407E+04  0.49995226391E+03 0.  0.
        1    1    3    3  502    0  0.15168251021E+03  0.52183311274E+02  0.92987551616E+03  0.94360964252E+03  0.50400001928E-02 0. -1.
       -1    1    3    3    0  502 -0.15168251021E+03 -0.52183311274E+02  0.71475530936E+02  0.17561159821E+03  0.50400001928E-02 0.  1.
</event>
<event>
 5   0  0.2488968E-01  0.5173412E+03  0.7818609E-02  0.1009349E+00
       -2   -1    0    0    0  501  0.00000000000E+00  0.00000000000E+00  0.52644845703E+02  0.52644845765E+02  0.25500000920E-02 0.  1.
        2   -1    0    0  501    0  0.00000000000E+00  0.00000000000E+00 -0.12709785425E+04  0.12709785425E+04  0.25500000920E-02 0. -1.
    10030    2    1    2    0    0  0.00000000000E+00  0.00000000000E+00 -0.12183336968E+04  0.13236233882E+04  0.51734116133E+03 0.  0.
        2    1    3    3  502    0 -0.47752409049E+02 -0.19898797332E+03 -0.20435594307E+03  0.28920210506E+03  0.25500000920E-02 0.  1.
       -2    1    3    3    0  502  0.47752409049E+02  0.19898797332E+03 -0.10139777537E+04  0.10344212832E+04  0.25500000920E-02 0. -1.
</event>
<event>
 5   0  0.1529146E-01  0.4415988E+03  0.7818609E-02  0.1030257E+00
       -1   -1    0    0    0  501  0.00000000000E+00  0.00000000000E+00  0.17674215993E+03  0.17674216000E+03  0.50400001928E-02 0. -1.
        1   -1    0    0  501    0  0.00000000000E+00  0.00000000000E+00 -0.27583901841E+03  0.27583901846E+03  0.50400001928E-02 0.  1.
    10030    2    1    2    0    0  0.00000000000E+00  0.00000000000E+00 -0.99096858483E+02  0.45258117846E+03  0.44159884028E+03 0.  0.
        1    1    3    3  502    0  0.13906440252E+02  0.20343541686E+02 -0.27442528991E+03  0.27552946946E+03  0.50400001928E-02 0.  1.
       -1    1    3    3    0  502 -0.13906440252E+02 -0.20343541686E+02  0.17532843143E+03  0.17705170901E+03  0.50400001928E-02 0. -1.
</event>
<event>
 5   0  0.1448458E-01  0.5026684E+03  0.7818609E-02  0.1013085E+00
       -1   -1    0    0    0  501  0.00000000000E+00  0.00000000000E+00  0.35573582518E+03  0.35573582521E+03  0.50400001928E-02 0.  1.
        1   -1    0    0  501    0  0.00000000000E+00  0.00000000000E+00 -0.17757247160E+03  0.17757247167E+03  0.50400001928E-02 0. -1.
    10030    2    1    2    0    0  0.00000000000E+00  0.00000000000E+00  0.17816335358E+03  0.53330829688E+03  0.50266843840E+03 0.  0.
        5    1    3    3  502    0  0.21660083350E+03  0.48116466795E+02 -0.36073554254E+02  0.22484329380E+03  0.46999998093E+01 0.  1.
       -5    1    3    3    0  502 -0.21660083350E+03 -0.48116466795E+02  0.21423690783E+03  0.30846500308E+03  0.46999998093E+01 0. -1.
</event>
<event>
 5   0  0.2413301E-01  0.5186811E+03  0.7818609E-02  0.1009015E+00
       -2   -1    0    0    0  501  0.00000000000E+00  0.00000000000E+00  0.18440602382E+03  0.18440602383E+03  0.25500000920E-02 0.  1.
        2   -1    0    0  501    0  0.00000000000E+00  0.00000000000E+00 -0.36472517694E+03  0.36472517695E+03  0.25500000920E-02 0. -1.
    10030    2    1    2    0    0  0.00000000000E+00  0.00000000000E+00 -0.18031915312E+03  0.54913120078E+03  0.51868109537E+03 0.  0.
        4    1    3    3  502    0  0.87540367460E+02 -0.15908530660E+03  0.10587123271E+03  0.21019462773E+03  0.12699999809E+01 0.  1.
       -4    1    3    3    0  502 -0.87540367460E+02  0.15908530660E+03 -0.28619038583E+03  0.33893657305E+03  0.12699999809E+01 0. -1.
</event>
<event>
 5   0  0.1529146E-01  0.5035505E+03  0.7818609E-02  0.1012856E+00
        1   -1    0    0  501    0  0.00000000000E+00  0.00000000000E+00  0.50059881346E+02  0.50059881600E+02  0.50400001928E-02 0.  1.
       -1   -1    0    0    0  501  0.00000000000E+00  0.00000000000E+00 -0.12662990327E+04  0.12662990327E+04  0.50400001928E-02 0. -1.
    10030    2    1    2    0    0  0.00000000000E+00  0.00000000000E+00 -0.12162391514E+04  0.13163589143E+04  0.50355051186E+03 0.  0.
        1    1    3    3  502    0  0.13936197276E+03 -0.20868002508E+03 -0.66180002763E+03  0.70777707572E+03  0.50400001928E-02 0.  1.
       -1    1    3    3    0  502 -0.13936197276E+03  0.20868002508E+03 -0.55443912373E+03  0.60858183859E+03  0.50400001928E-02 0. -1.
</event>
<event>
 5   0  0.1448458E-01  0.5072719E+03  0.7818609E-02  0.1011898E+00
        1   -1    0    0  501    0  0.00000000000E+00  0.00000000000E+00  0.66814700996E+03  0.66814700998E+03  0.50400001928E-02 0.  1.
       -1   -1    0    0    0  501  0.00000000000E+00  0.00000000000E+00 -0.96282978740E+02  0.96282978872E+02  0.50400001928E-02 0. -1.
    10030    2    1    2    0    0  0.00000000000E+00  0.00000000000E+00  0.57186403122E+03  0.76442998885E+03  0.50727185774E+03 0.  0.
        5    1    3    3  502    0 -0.14286320277E+02 -0.20336245799E+03  0.58644648757E+02  0.21218311217E+03  0.46999998093E+01 0. -1.
       -5    1    3    3    0  502  0.14286320277E+02  0.20336245799E+03  0.51321938246E+03  0.55224687667E+03  0.46999998093E+01 0.  1.
</event>
<event>
 5   0  0.1529146E-01  0.5036644E+03  0.7818609E-02  0.1012827E+00
        1   -1    0    0  501    0  0.00000000000E+00  0.00000000000E+00  0.81482231801E+02  0.81482231956E+02  0.50400001928E-02 0.  1.
       -1   -1    0    0    0  501  0.00000000000E+00  0.00000000000E+00 -0.77832249586E+03  0.77832249588E+03  0.50400001928E-02 0. -1.
    10030    2    1    2    0    0  0.00000000000E+00  0.00000000000E+00 -0.69684026406E+03  0.85980472783E+03  0.50366438864E+03 0.  0.
        1    1    3    3  502    0  0.14361476341E+03 -0.20622709687E+03 -0.37619071192E+03  0.45240940255E+03  0.50400001928E-02 0. -1.
       -1    1    3    3    0  502 -0.14361476341E+03  0.20622709687E+03 -0.32064955214E+03  0.40739532529E+03  0.50400001928E-02 0.  1.
</event>
<event>
 5   0  0.1453602E-01  0.3760521E+03  0.7818609E-02  0.1052403E+00
       -1   -1    0    0    0  501  0.00000000000E+00  0.00000000000E+00  0.13399064837E+03  0.13399064846E+03  0.50400001928E-02 0.  1.
        1   -1    0    0  501    0  0.00000000000E+00  0.00000000000E+00 -0.26385264398E+03  0.26385264403E+03  0.50400001928E-02 0. -1.
    10030    2    1    2    0    0  0.00000000000E+00  0.00000000000E+00 -0.12986199561E+03  0.39784329249E+03  0.37605205421E+03 0.  0.
        2    1    3    3  502    0 -0.18337802551E+02  0.35536990282E+02  0.12943969284E+03  0.13547614835E+03  0.25500000920E-02 0.  1.
       -2    1    3    3    0  502  0.18337802551E+02 -0.35536990282E+02 -0.25930168846E+03  0.26236714414E+03  0.25500000920E-02 0. -1.
</event>
<event>
 5   0  0.1453602E-01  0.5005876E+03  0.7818609E-02  0.1013626E+00
        1   -1    0    0  501    0  0.00000000000E+00  0.00000000000E+00  0.15710490941E+04  0.15710490941E+04  0.50400001928E-02 0. -1.
       -1   -1    0    0    0  501  0.00000000000E+00  0.00000000000E+00 -0.39875895877E+02  0.39875896196E+02  0.50400001928E-02 0.  1.
    10030    2    1    2    0    0  0.00000000000E+00  0.00000000000E+00  0.15311731982E+04  0.16109249903E+04  0.50058761613E+03 0.  0.
        2    1    3    3  502    0  0.27582622145E+02 -0.11861986136E+03  0.14692737950E+04  0.14743123676E+04  0.25500000920E-02 0. -1.
       -2    1    3    3    0  502 -0.27582622145E+02  0.11861986136E+03  0.61899403192E+02  0.13661262268E+03  0.25500000920E-02 0.  1.
</event>
<event>
 5   0  0.9868500E-02  0.5016505E+03  0.7818609E-02  0.1013349E+00
        3   -1    0    0  501    0  0.00000000000E+00  0.00000000000E+00  0.27410185180E+03  0.27410187041E+03  0.10100000352E+00 0.  1.
       -3   -1    0    0    0  501  0.00000000000E+00  0.00000000000E+00 -0.22952528483E+03  0.22952530705E+03  0.10100000352E+00 0. -1.
    10030    2    1    2    0    0  0.00000000000E+00  0.00000000000E+00  0.44576566968E+02  0.50362717746E+03  0.50165053928E+03 0.  0.
        1    1    3    3  502    0  0.18218688690E+03  0.16976894322E+03 -0.78259089252E+01  0.24914815014E+03  0.50400001928E-02 0. -1.
       -1    1    3    3    0  502 -0.18218688690E+03 -0.16976894322E+03  0.52402475894E+02  0.25447902732E+03  0.50400001928E-02 0.  1.
</event>
<event>
 5   0  0.9868500E-02  0.5127253E+03  0.7818609E-02  0.1010510E+00
        3   -1    0    0  501    0  0.00000000000E+00  0.00000000000E+00  0.26869600264E+03  0.26869602162E+03  0.10100000352E+00 0.  1.
       -3   -1    0    0    0  501  0.00000000000E+00  0.00000000000E+00 -0.24459534015E+03  0.24459536100E+03  0.10100000352E+00 0. -1.
    10030    2    1    2    0    0  0.00000000000E+00  0.00000000000E+00  0.24100662491E+02  0.51329138262E+03  0.51272526906E+03 0.  0.
        3    1    3    3  502    0  0.18306138337E+03  0.11268381988E+03 -0.12779168517E+03  0.25007966399E+03  0.10100000352E+00 0. -1.
       -3    1    3    3    0  502 -0.18306138337E+03 -0.11268381988E+03  0.15189234766E+03  0.26321171863E+03  0.10100000352E+00 0.  1.
</event>
<event>
 5   0  0.1448458E-01  0.4926943E+03  0.7818609E-02  0.1015704E+00
        1   -1    0    0  501    0  0.00000000000E+00  0.00000000000E+00  0.29368917673E+03  0.29368917677E+03  0.50400001928E-02 0. -1.
       -1   -1    0    0    0  501  0.00000000000E+00  0.00000000000E+00 -0.20663653747E+03  0.20663653753E+03  0.50400001928E-02 0.  1.
    10030    2    1    2    0    0  0.00000000000E+00  0.00000000000E+00  0.87052639255E+02  0.50032571430E+03  0.49269428492E+03 0.  0.
        5    1    3    3  502    0  0.13162959319E+01  0.15070280656E+02  0.29317143838E+03  0.29359909447E+03  0.46999998093E+01 0. -1.
       -5    1    3    3    0  502 -0.13162959319E+01 -0.15070280656E+02 -0.20611879913E+03  0.20672661983E+03  0.46999998093E+01 0.  1.
</event>
<event>
 5   0  0.2511944E-01  0.5237743E+03  0.7818609E-02  0.1007753E+00
        2   -1    0    0  501    0  0.00000000000E+00  0.00000000000E+00  0.39221155719E+03  0.39221155720E+03  0.25500000920E-02 0. -1.
       -2   -1    0    0    0  501  0.00000000000E+00  0.00000000000E+00 -0.17486704282E+03  0.17486704284E+03  0.25500000920E-02 0.  1.
    10030    2    1    2    0    0  0.00000000000E+00  0.00000000000E+00  0.21734451438E+03  0.56707860004E+03  0.52377428411E+03 0.  0.
        1    1    3    3  502    0  0.39723886717E+02  0.11311435045E+03 -0.14341269874E+03  0.18692256589E+03  0.50400001928E-02 0.  1.
       -1    1    3    3    0  502 -0.39723886717E+02 -0.11311435045E+03  0.36075721312E+03  0.38015603414E+03  0.50400001928E-02 0. -1.
</event>
<event>
 5   0  0.1453602E-01  0.5046442E+03  0.7818609E-02  0.1012574E+00
        1   -1    0    0  501    0  0.00000000000E+00  0.00000000000E+00  0.16591001207E+03  0.16591001215E+03  0.50400001928E-02 0.  1.
       -1   -1    0    0    0  501  0.00000000000E+00  0.00000000000E+00 -0.38374086451E+03  0.38374086454E+03  0.50400001928E-02 0. -1.
    10030    2    1    2    0    0  0.00000000000E+00  0.00000000000E+00 -0.21783085244E+03  0.54965087669E+03  0.50464423704E+03 0.  0.
        2    1    3    3  502    0  0.23604439086E+03 -0.28781405868E+02 -0.20082822573E+03  0.31125118479E+03  0.25500000920E-02 0. -1.
       -2    1    3    3    0  502 -0.23604439086E+03  0.28781405868E+02 -0.17002626708E+02  0.23839969190E+03  0.25500000920E-02 0.  1.
</event>
<event>
 5   0  0.2466034E-01  0.5202165E+03  0.7818609E-02  0.1008633E+00
       -2   -1    0    0    0  501  0.00000000000E+00  0.00000000000E+00  0.38267687370E+03  0.38267687371E+03  0.25500000920E-02 0.  1.
        2   -1    0    0  501    0  0.00000000000E+00  0.00000000000E+00 -0.17679744371E+03  0.17679744372E+03  0.25500000920E-02 0. -1.
    10030    2    1    2    0    0  0.00000000000E+00  0.00000000000E+00  0.20587943000E+03  0.55947431744E+03  0.52021646665E+03 0.  0.
        3    1    3    3  502    0 -0.24487261381E+02  0.22849649530E+03  0.23397881834E+03  0.32795788139E+03  0.10100000352E+00 0.  1.
       -3    1    3    3    0  502  0.24487261381E+02 -0.22849649530E+03 -0.28099388343E+02  0.23151643605E+03  0.10100000352E+00 0. -1.
</event>
<event>
 5   0  0.1439814E-01  0.5009696E+03  0.7818609E-02  0.1013526E+00
       -1   -1    0    0    0  501  0.00000000000E+00  0.00000000000E+00  0.45562083560E+02  0.45562083839E+02  0.50400001928E-02 0.  1.
        1   -1    0    0  501    0  0.00000000000E+00  0.00000000000E+00 -0.13770797664E+04  0.13770797664E+04  0.50400001928E-02 0. -1.
    10030    2    1    2    0    0  0.00000000000E+00  0.00000000000E+00 -0.13315176828E+04  0.14226418502E+04  0.50096955432E+03 0.  0.
        4    1    3    3  502    0  0.53079952804E+02  0.79721174020E+02 -0.84988126354E+01  0.96160229269E+02  0.12699999809E+01 0.  1.
       -4    1    3    3    0  502 -0.53079952804E+02 -0.79721174020E+02 -0.13230188702E+04  0.13264816210E+04  0.12699999809E+01 0. -1.
</event>
<event>
 5   0  0.2511944E-01  0.5034896E+03  0.7818609E-02  0.1012872E+00
        2   -1    0    0  501    0  0.00000000000E+00  0.00000000000E+00  0.39476482701E+03  0.39476482702E+03  0.25500000920E-02 0.  1.
       -2   -1    0    0    0  501  0.00000000000E+00  0.00000000000E+00 -0.16053971721E+03  0.16053971723E+03  0.25500000920E-02 0. -1.
    10030    2    1    2    0    0  0.00000000000E+00  0.00000000000E+00  0.23422510980E+03  0.55530454426E+03  0.50348955780E+03 0.  0.
        1    1    3    3  502    0  0.14910168955E+03  0.20219195579E+03  0.99242223814E+02  0.27011464200E+03  0.50400001928E-02 0.  1.
       -1    1    3    3    0  502 -0.14910168955E+03 -0.20219195579E+03  0.13498288599E+03  0.28518990225E+03  0.50400001928E-02 0. -1.
</event>
<event>
 5   0  0.1529146E-01  0.4655055E+03  0.7818609E-02  0.1023196E+00
       -1   -1    0    0    0  501  0.00000000000E+00  0.00000000000E+00  0.29120524022E+03  0.29120524026E+03  0.50400001928E-02 0.  1.
        1   -1    0    0  501    0  0.00000000000E+00  0.00000000000E+00 -0.18603316048E+03  0.18603316055E+03  0.50400001928E-02 0. -1.
    10030    2    1    2    0    0  0.00000000000E+00  0.00000000000E+00  0.10517207974E+03  0.47723840081E+03  0.46550545094E+03 0.  0.
        1    1    3    3  502    0 -0.10377924988E+03 -0.16199225360E+03  0.18689259032E+03  0.26821719422E+03  0.50400001928E-02 0.  1.
       -1    1    3    3    0  502  0.10377924988E+03  0.16199225360E+03 -0.81720510583E+02  0.20902120660E+03  0.50400001928E-02 0. -1.
</event>
<event>
 5   0  0.2413301E-01  0.5051451E+03  0.7818609E-02  0.1012445E+00
       -2   -1    0    0    0  501  0.00000000000E+00  0.00000000000E+00  0.15646538575E+03  0.15646538577E+03  0.25500000920E-02 0. -1.
        2   -1    0    0  501    0  0.00000000000E+00  0.00000000000E+00 -0.40771249451E+03  0.40771249452E+03  0.25500000920E-02 0.  1.
    10030    2    1    2    0    0  0.00000000000E+00  0.00000000000E+00 -0.25124710876E+03  0.56417788029E+03  0.50514509891E+03 0.  0.
        4    1    3    3  502    0  0.11113668668E+03 -0.19079568888E+03  0.11331915396E+02  0.22109813031E+03  0.12699999809E+01 0. -1.
       -4    1    3    3    0  502 -0.11113668668E+03  0.19079568888E+03 -0.26257902416E+03  0.34307974998E+03  0.12699999809E+01 0.  1.
</event>
<event>
 5   0  0.1448458E-01  0.5008909E+03  0.7818609E-02  0.1013547E+00
       -1   -1    0    0    0  501  0.00000000000E+00  0.00000000000E+00  0.20730230383E+03  0.20730230389E+03  0.50400001928E-02 0.  1.
        1   -1    0    0  501    0  0.00000000000E+00  0.00000000000E+00 -0.30256745275E+03  0.30256745280E+03  0.50400001928E-02 0. -1.
    10030    2    1    2    0    0  0.00000000000E+00  0.00000000000E+00 -0.95265148928E+02  0.50986975668E+03  0.50089092643E+03 0.  0.
        5    1    3    3  502    0  0.48451390114E+02  0.70882640094E+02 -0.28707015659E+03  0.29967190504E+03  0.46999998093E+01 0. -1.
       -5    1    3    3    0  502 -0.48451390114E+02 -0.70882640094E+02  0.19180500766E+03  0.21019785164E+03  0.46999998093E+01 0.  1.
</event>
<event>
 5   0  0.2413301E-01  0.5004050E+03  0.7818609E-02  0.1013673E+00
       -2   -1    0    0    0  501  0.00000000000E+00  0.00000000000E+00  0.22357351805E+03  0.22357351806E+03  0.25500000920E-02 0. -1.
        2   -1    0    0  501    0  0.00000000000E+00  0.00000000000E+00 -0.28000314731E+03  0.28000314732E+03  0.25500000920E-02 0.  1.
    10030    2    1    2    0    0  0.00000000000E+00  0.00000000000E+00 -0.56429629260E+02  0.50357666538E+03  0.50040499084E+03 0.  0.
        4    1    3    3  502    0  0.17273390995E+03 -0.10686427557E+03  0.11880254969E+03  0.23531390896E+03  0.12699999809E+01 0. -1.
       -4    1    3    3    0  502 -0.17273390995E+03  0.10686427557E+03 -0.17523217895E+03  0.26826275641E+03  0.12699999809E+01 0.  1.
</event>
<event>
 5   0  0.2504064E-01  0.4894824E+03  0.7818609E-02  0.1016561E+00
       -2   -1    0    0    0  501  0.00000000000E+00  0.00000000000E+00  0.65607964835E+02  0.65607964885E+02  0.25500000920E-02 0.  1.
        2   -1    0    0  501    0  0.00000000000E+00  0.00000000000E+00 -0.91297219616E+03  0.91297219616E+03  0.25500000920E-02 0. -1.
    10030    2    1    2    0    0  0.00000000000E+00  0.00000000000E+00 -0.84736423133E+03  0.97858016105E+03  0.48948237054E+03 0.  0.
        5    1    3    3  502    0  0.37972289206E+02 -0.10326108497E+03 -0.86064383178E+03  0.86766044142E+03  0.46999998093E+01 0. -1.
       -5    1    3    3    0  502 -0.37972289206E+02  0.10326108497E+03  0.13279600459E+02  0.11091971963E+03  0.46999998093E+01 0.  1.
</event>
<event>
 5   0  0.2488968E-01  0.4925250E+03  0.7818609E-02  0.1015749E+00
        2   -1    0    0  501    0  0.00000000000E+00  0.00000000000E+00  0.13576366957E+04  0.13576366957E+04  0.25500000920E-02 0. -1.
       -2   -1    0    0    0  501  0.00000000000E+00  0.00000000000E+00 -0.44669703592E+02  0.44669703665E+02  0.25500000920E-02 0.  1.
    10030    2    1    2    0    0  0.00000000000E+00  0.00000000000E+00  0.13129669921E+04  0.14023063994E+04  0.49252504032E+03 0.  0.
        2    1    3    3  502    0 -0.14201694994E+03  0.79096206306E+02  0.12979248844E+03  0.20801710022E+03  0.25500000920E-02 0.  1.
       -2    1    3    3    0  502  0.14201694994E+03 -0.79096206306E+02  0.11831745037E+04  0.11942892991E+04  0.25500000920E-02 0. -1.
</event>
<event>
 5   0  0.2466034E-01  0.5139392E+03  0.7818609E-02  0.1010203E+00
        2   -1    0    0  501    0  0.00000000000E+00  0.00000000000E+00  0.13580314695E+04  0.13580314695E+04  0.25500000920E-02 0. -1.
       -2   -1    0    0    0  501  0.00000000000E+00  0.00000000000E+00 -0.48624330650E+02  0.48624330717E+02  0.25500000920E-02 0.  1.
    10030    2    1    2    0    0  0.00000000000E+00  0.00000000000E+00  0.13094071388E+04  0.14066558002E+04  0.51393918415E+03 0.  0.
        3    1    3    3  502    0 -0.12986064394E+03  0.21083280937E+03  0.46668284009E+03  0.52830591875E+03  0.10100000352E+00 0. -1.
       -3    1    3    3    0  502  0.12986064394E+03 -0.21083280937E+03  0.84272429871E+03  0.87834988142E+03  0.10100000352E+00 0.  1.
</event>
<event>
 5   0  0.2466034E-01  0.5030788E+03  0.7818609E-02  0.1012978E+00
        2   -1    0    0  501    0  0.00000000000E+00  0.00000000000E+00  0.12161821889E+04  0.12161821889E+04  0.25500000920E-02 0.  1.
       -2   -1    0    0    0  501  0.00000000000E+00  0.00000000000E+00 -0.52025152407E+02  0.52025152470E+02  0.25500000920E-02 0. -1.
    10030    2    1    2    0    0  0.00000000000E+00  0.00000000000E+00  0.11641570365E+04  0.12682073414E+04  0.50307877624E+03 0.  0.
        3    1    3    3  502    0  0.99847338264E+02 -0.11130540528E+03  0.10919825933E+04  0.11021725720E+04  0.10100000352E+00 0.  1.
       -3    1    3    3    0  502 -0.99847338264E+02  0.11130540528E+03  0.72174443277E+02  0.16603476945E+03  0.10100000352E+00 0. -1.
</event>
<event>
 5   0  0.2488968E-01  0.4788842E+03  0.7818609E-02  0.1019442E+00
        2   -1    0    0  501    0  0.00000000000E+00  0.00000000000E+00  0.11307672879E+04  0.11307672879E+04  0.25500000920E-02 0. -1.
       -2   -1    0    0    0  501  0.00000000000E+00  0.00000000000E+00 -0.50702321694E+02  0.50702321758E+02  0.25500000920E-02 0.  1.
    10030    2    1    2    0    0  0.00000000000E+00  0.00000000000E+00  0.10800649662E+04  0.11814696096E+04  0.47888423165E+03 0.  0.
        2    1    3    3  502    0  0.13121356127E+03 -0.19939422807E+03  0.58667820334E+03  0.63337695816E+03  0.25500000920E-02 0.  1.
       -2    1    3    3    0  502 -0.13121356127E+03  0.19939422807E+03  0.49338676285E+03  0.54809265149E+03  0.25500000920E-02 0. -1.
</event>
<event>
 5   0  0.1448458E-01  0.5070386E+03  0.7818609E-02  0.1011958E+00
       -1   -1    0    0    0  501  0.00000000000E+00  0.00000000000E+00  0.45263295947E+03  0.45263295949E+03  0.50400001928E-02 0.  1.
        1   -1    0    0  501    0  0.00000000000E+00  0.00000000000E+00 -0.14199593745E+03  0.14199593754E+03  0.50400001928E-02 0. -1.
    10030    2    1    2    0    0  0.00000000000E+00  0.00000000000E+00  0.31063702202E+03  0.59462889703E+03  0.50703862351E+03 0.  0.
        5    1    3    3  502    0  0.72011770363E+02 -0.23694094551E+03  0.91911460203E+02  0.26419029741E+03  0.46999998093E+01 0. -1.
       -5    1    3    3    0  502 -0.72011770363E+02  0.23694094551E+03  0.21872556182E+03  0.33043859962E+03  0.46999998093E+01 0.  1.
</event>
<event>
 5   0  0.9868500E-02  0.5133958E+03  0.7818609E-02  0.1010340E+00
        4   -1    0    0  501    0  0.00000000000E+00  0.00000000000E+00  0.65670389516E+02  0.65682668636E+02  0.12699999809E+01 0.  1.
       -4   -1    0    0    0  501  0.00000000000E+00  0.00000000000E+00 -0.10032956341E+04  0.10032964379E+04  0.12699999809E+01 0. -1.
    10030    2    1    2    0    0  0.00000000000E+00  0.00000000000E+00 -0.93762524455E+03  0.10689791065E+04  0.51339578390E+03 0.  0.
        4    1    3    3  502    0  0.15664517619E+03 -0.47402209775E+02 -0.57049901970E+02  0.17332335368E+03  0.12699999809E+01 0.  1.
       -4    1    3    3    0  502 -0.15664517619E+03  0.47402209775E+02 -0.88057534258E+03  0.89565575283E+03  0.12699999809E+01 0. -1.
</event>
<event>
 5   0  0.2466034E-01  0.4980189E+03  0.7818609E-02  0.1014297E+00
        2   -1    0    0  501    0  0.00000000000E+00  0.00000000000E+00  0.18916245031E+04  0.18916245031E+04  0.25500000920E-02 0. -1.
       -2   -1    0    0    0  501  0.00000000000E+00  0.00000000000E+00 -0.32779082002E+02  0.32779082101E+02  0.25500000920E-02 0.  1.
    10030    2    1    2    0    0  0.00000000000E+00  0.00000000000E+00  0.18588454211E+04  0.19244035852E+04  0.49801893459E+03 0.  0.
        3    1    3    3  502    0 -0.11837396257E+03  0.15584848995E+03  0.33449221471E+03  0.38753864160E+03  0.10100000352E+00 0.  1.
       -3    1    3    3    0  502  0.11837396257E+03 -0.15584848995E+03  0.15243532064E+04  0.15368649436E+04  0.10100000352E+00 0. -1.
</event>
<event>
 5   0  0.1439814E-01  0.4660793E+03  0.7818609E-02  0.1023033E+00
        1   -1    0    0  501    0  0.00000000000E+00  0.00000000000E+00  0.36749034482E+03  0.36749034485E+03  0.50400001928E-02 0. -1.
       -1   -1    0    0    0  501  0.00000000000E+00  0.00000000000E+00 -0.14777933268E+03  0.14777933277E+03  0.50400001928E-02 0.  1.
    10030    2    1    2    0    0  0.00000000000E+00  0.00000000000E+00  0.21971101213E+03  0.51526967762E+03  0.46607929778E+03 0.  0.
        4    1    3    3  502    0 -0.46186292512E+02  0.11413708516E+03 -0.10887796069E+03  0.16436687942E+03  0.12699999809E+01 0.  1.
       -4    1    3    3    0  502  0.46186292512E+02 -0.11413708516E+03  0.32858897282E+03  0.35090279820E+03  0.12699999809E+01 0. -1.
</event>
<event>
 5   0  0.2511944E-01  0.4992480E+03  0.7818609E-02  0.1013975E+00
       -2   -1    0    0    0  501  0.00000000000E+00  0.00000000000E+00  0.15878575918E+03  0.15878575920E+03  0.25500000920E-02 0. -1.
        2   -1    0    0  501    0  0.00000000000E+00  0.00000000000E+00 -0.39242900910E+03  0.39242900911E+03  0.25500000920E-02 0.  1.
    10030    2    1    2    0    0  0.00000000000E+00  0.00000000000E+00 -0.23364324992E+03  0.55121476831E+03  0.49924798704E+03 0.  0.
        1    1    3    3  502    0  0.30352923943E+02 -0.22562013855E+03 -0.22988385572E+03  0.32353104034E+03  0.50400001928E-02 0.  1.
       -1    1    3    3    0  502 -0.30352923943E+02  0.22562013855E+03 -0.37593941983E+01  0.22768372797E+03  0.50400001928E-02 0. -1.
</event>
<event>
 5   0  0.2488968E-01  0.4595719E+03  0.7818609E-02  0.1024905E+00
        2   -1    0    0  501    0  0.00000000000E+00  0.00000000000E+00  0.12442854750E+04  0.12442854750E+04  0.25500000920E-02 0. -1.
       -2   -1    0    0    0  501  0.00000000000E+00  0.00000000000E+00 -0.42435268185E+02  0.42435268262E+02  0.25500000920E-02 0.  1.
    10030    2    1    2    0    0  0.00000000000E+00  0.00000000000E+00  0.12018502068E+04  0.12867207432E+04  0.45957192204E+03 0.  0.
        2    1    3    3  502    0  0.22456827885E+03  0.48538393811E+02  0.61165991519E+03  0.65338712827E+03  0.25500000920E-02 0.  1.
       -2    1    3    3    0  502 -0.22456827885E+03 -0.48538393811E+02  0.59019029161E+03  0.63333361497E+03  0.25500000920E-02 0. -1.
</event>
<event>
 5   0  0.1453602E-01  0.4982030E+03  0.7818609E-02  0.1014249E+00
       -1   -1    0    0    0  501  0.00000000000E+00  0.00000000000E+00  0.29088681469E+03  0.29088681473E+03  0.50400001928E-02 0.  1.
        1   -1    0    0  501    0  0.00000000000E+00  0.00000000000E+00 -0.21331854303E+03  0.21331854309E+03  0.50400001928E-02 0. -1.
    10030    2    1    2    0    0  0.00000000000E+00  0.00000000000E+00  0.77568271663E+02  0.50420535782E+03  0.49820297679E+03 0.  0.
        2    1    3    3  502    0  0.17526666398E+03  0.86487523340E+02 -0.11752096644E+03  0.22805629295E+03  0.25500000920E-02 0. -1.
       -2    1    3    3    0  502 -0.17526666398E+03 -0.86487523340E+02  0.19508923810E+03  0.27614906487E+03  0.25500000920E-02 0.  1.
</event>
<event>
 5   0  0.2504064E-01  0.4944871E+03  0.7818609E-02  0.1015228E+00
        2   -1    0    0  501    0  0.00000000000E+00  0.00000000000E+00  0.11309369827E+03  0.11309369830E+03  0.25500000920E-02 0. -1.
       -2   -1    0    0    0  501  0.00000000000E+00  0.00000000000E+00 -0.54051962928E+03  0.54051962928E+03  0.25500000920E-02 0.  1.
    10030    2    1    2    0    0  0.00000000000E+00  0.00000000000E+00 -0.42742593101E+03  0.65361332758E+03  0.49448706301E+03 0.  0.
        5    1    3    3  502    0 -0.20414224172E+03  0.26541470102E+02 -0.39460547608E+03  0.44510007441E+03  0.46999998093E+01 0.  1.
       -5    1    3    3    0  502  0.20414224172E+03 -0.26541470102E+02 -0.32820454936E+02  0.20851325317E+03  0.46999998093E+01 0. -1.
</event>
<event>
 5   0  0.1413361E-01  0.5317659E+03  0.7818609E-02  0.1005805E+00
       -1   -1    0    0    0  501  0.00000000000E+00  0.00000000000E+00  0.99763616096E+02  0.99763616223E+02  0.50400001928E-02 0.  1.
        1   -1    0    0  501    0  0.00000000000E+00  0.00000000000E+00 -0.70861248642E+03  0.70861248643E+03  0.50400001928E-02 0. -1.
    10030    2    1    2    0    0  0.00000000000E+00  0.00000000000E+00 -0.60884887032E+03  0.80837610266E+03  0.53176590381E+03 0.  0.
        3    1    3    3  502    0 -0.62064406270E+02  0.48326191713E+02 -0.69051938490E+03  0.69498521024E+03  0.10100000352E+00 0. -1.
       -3    1    3    3    0  502  0.62064406270E+02 -0.48326191713E+02  0.81670514577E+02  0.11339089242E+03  0.10100000352E+00 0.  1.
</event>
<event>
 5   0  0.1413361E-01  0.5035843E+03  0.7818609E-02  0.1012848E+00
       -1   -1    0    0    0  501  0.00000000000E+00  0.00000000000E+00  0.75447148682E+02  0.75447148850E+02  0.50400001928E-02 0.  1.
        1   -1    0    0  501    0  0.00000000000E+00  0.00000000000E+00 -0.84031379783E+03  0.84031379784E+03  0.50400001928E-02 0. -1.
    10030    2    1    2    0    0  0.00000000000E+00  0.00000000000E+00 -0.76486664914E+03  0.91576094669E+03  0.50358427349E+03 0.  0.
        3    1    3    3  502    0 -0.21678488785E+03 -0.12227383836E+03 -0.45174342849E+03  0.51577002097E+03  0.10100000352E+00 0. -1.
       -3    1    3    3    0  502  0.21678488785E+03  0.12227383836E+03 -0.31312322065E+03  0.39999092572E+03  0.10100000352E+00 0.  1.
</event>
<event>
 5   0  0.1453602E-01  0.5575153E+03  0.7818609E-02  0.9997693E-01
       -1   -1    0    0    0  501  0.00000000000E+00  0.00000000000E+00  0.10705440544E+03  0.10705440556E+03  0.50400001928E-02 0.  1.
        1   -1    0    0  501    0  0.00000000000E+00  0.00000000000E+00 -0.72585356701E+03  0.72585356702E+03  0.50400001928E-02 0. -1.
    10030    2    1    2    0    0  0.00000000000E+00  0.00000000000E+00 -0.61879916156E+03  0.83290797259E+03  0.55751528091E+03 0.  0.
        2    1    3    3  502    0  0.97624052350E+02 -0.25332657523E+03 -0.40389814577E+03  0.48666058139E+03  0.25500000920E-02 0. -1.
       -2    1    3    3    0  502 -0.97624052350E+02  0.25332657523E+03 -0.21490101579E+03  0.34624739119E+03  0.25500000920E-02 0.  1.
</event>
<event>
 5   0  0.2413301E-01  0.4990855E+03  0.7818609E-02  0.1014018E+00
       -2   -1    0    0    0  501  0.00000000000E+00  0.00000000000E+00  0.98507036884E+02  0.98507036917E+02  0.25500000920E-02 0.  1.
        2   -1    0    0  501    0  0.00000000000E+00  0.00000000000E+00 -0.63215360456E+03  0.63215360456E+03  0.25500000920E-02 0. -1.
    10030    2    1    2    0    0  0.00000000000E+00  0.00000000000E+00 -0.53364656767E+03  0.73066064148E+03  0.49908547747E+03 0.  0.
        4    1    3    3  502    0  0.56334779928E+02  0.40433518173E+02  0.84113763555E+02  0.10901933288E+03  0.12699999809E+01 0.  1.
       -4    1    3    3    0  502 -0.56334779928E+02 -0.40433518173E+02 -0.61776033123E+03  0.62164130860E+03  0.12699999809E+01 0. -1.
</event>
<event>
 5   0  0.2488968E-01  0.5004783E+03  0.7818609E-02  0.1013654E+00
       -2   -1    0    0    0  501  0.00000000000E+00  0.00000000000E+00  0.41866131203E+03  0.41866131204E+03  0.25500000920E-02 0. -1.
        2   -1    0    0  501    0  0.00000000000E+00  0.00000000000E+00 -0.14957109346E+03  0.14957109348E+03  0.25500000920E-02 0.  1.
    10030    2    1    2    0    0  0.00000000000E+00  0.00000000000E+00  0.26909021857E+03  0.56823240552E+03  0.50047829219E+03 0.  0.
        2    1    3    3  502    0  0.18712014858E+03  0.15954457118E+03  0.18720526753E+03  0.30905376943E+03  0.25500000920E-02 0. -1.
       -2    1    3    3    0  502 -0.18712014858E+03 -0.15954457118E+03  0.81884951038E+02  0.25917863610E+03  0.25500000920E-02 0.  1.
</event>
<event>
 5   0  0.2413301E-01  0.4964714E+03  0.7818609E-02  0.1014704E+00
        2   -1    0    0  501    0  0.00000000000E+00  0.00000000000E+00  0.69993025263E+03  0.69993025263E+03  0.25500000920E-02 0. -1.
       -2   -1    0    0    0  501  0.00000000000E+00  0.00000000000E+00 -0.88038726456E+02  0.88038726492E+02  0.25500000920E-02 0.  1.
    10030    2    1    2    0    0  0.00000000000E+00  0.00000000000E+00  0.61189152617E+03  0.78796897913E+03  0.49647142140E+03 0.  0.
        4    1    3    3  502    0  0.44664996632E+02 -0.72865570362E+02 -0.63946089902E+02  0.10674768654E+03  0.12699999809E+01 0.  1.
       -4    1    3    3    0  502 -0.44664996632E+02  0.72865570362E+02  0.67583761608E+03  0.68122129258E+03  0.12699999809E+01 0. -1.
</event>
<event>
 5   0  0.2511944E-01  0.4993019E+03  0.7818609E-02  0.1013961E+00
        2   -1    0    0  501    0  0.00000000000E+00  0.00000000000E+00  0.94810080221E+02  0.94810080256E+02  0.25500000920E-02 0. -1.
       -2   -1    0    0    0  501  0.00000000000E+00  0.00000000000E+00 -0.65737305537E+03  0.65737305538E+03  0.25500000920E-02 0.  1.
    10030    2    1    2    0    0  0.00000000000E+00  0.00000000000E+00 -0.56256297515E+03  0.75218313563E+03  0.49930188115E+03 0.  0.
        1    1    3    3  502    0 -0.41409414626E+02 -0.10547003604E+03 -0.61640555591E+03  0.62673317888E+03  0.50400001928E-02 0.  1.
       -1    1    3    3    0  502  0.41409414626E+02  0.10547003604E+03  0.53842580761E+02  0.12544995676E+03  0.50400001928E-02 0. -1.
</event>
<event>
 5   0  0.2466034E-01  0.5123604E+03  0.7818609E-02  0.1010602E+00
        2   -1    0    0  501    0  0.00000000000E+00  0.00000000000E+00  0.71991819784E+03  0.71991819784E+03  0.25500000920E-02 0. -1.
       -2   -1    0    0    0  501  0.00000000000E+00  0.00000000000E+00 -0.91160761403E+02  0.91160761439E+02  0.25500000920E-02 0.  1.
    10030    2    1    2    0    0  0.00000000000E+00  0.00000000000E+00  0.62875743643E+03  0.81107895928E+03  0.51236038519E+03 0.  0.
        3    1    3    3  502    0  0.21417202421E+03 -0.13357422753E+03  0.24507640299E+03  0.35181555355E+03  0.10100000352E+00 0.  1.
       -3    1    3    3    0  502 -0.21417202421E+03  0.13357422753E+03  0.38368103345E+03  0.45926340573E+03  0.10100000352E+00 0. -1.
</event>
<event>
 5   0  0.1529146E-01  0.4798196E+03  0.7818609E-02  0.1019185E+00
       -1   -1    0    0    0  501  0.00000000000E+00  0.00000000000E+00  0.17301970601E+03  0.17301970608E+03  0.50400001928E-02 0.  1.
        1   -1    0    0  501    0  0.00000000000E+00  0.00000000000E+00 -0.33265982479E+03  0.33265982483E+03  0.50400001928E-02 0. -1.
    10030    2    1    2    0    0  0.00000000000E+00  0.00000000000E+00 -0.15964011878E+03  0.50567953091E+03  0.47981957073E+03 0.  0.
        1    1    3    3  502    0 -0.11092793333E+02  0.70111772665E+02  0.16169904119E+03  0.17659357484E+03  0.50400001928E-02 0.  1.
       -1    1    3    3    0  502  0.11092793333E+02 -0.70111772665E+02 -0.32133915996E+03  0.32908595607E+03  0.50400001928E-02 0. -1.
</event>
<event>
 5   0  0.2488968E-01  0.4899504E+03  0.7818609E-02  0.1016436E+00
       -2   -1    0    0    0  501  0.00000000000E+00  0.00000000000E+00  0.10696705095E+03  0.10696705098E+03  0.25500000920E-02 0. -1.
        2   -1    0    0  501    0  0.00000000000E+00  0.00000000000E+00 -0.56104048405E+03  0.56104048406E+03  0.25500000920E-02 0.  1.
    10030    2    1    2    0    0  0.00000000000E+00  0.00000000000E+00 -0.45407343310E+03  0.66800753503E+03  0.48995038954E+03 0.  0.
        2    1    3    3  502    0 -0.12902782510E+03  0.16453994440E+03 -0.40105976250E+03  0.45229471151E+03  0.25500000920E-02 0.  1.
       -2    1    3    3    0  502  0.12902782510E+03 -0.16453994440E+03 -0.53013670601E+02  0.21571282352E+03  0.25500000920E-02 0. -1.
</event>
<event>
 5   0  0.1453602E-01  0.5060457E+03  0.7818609E-02  0.1012213E+00
        1   -1    0    0  501    0  0.00000000000E+00  0.00000000000E+00  0.73039758582E+03  0.73039758584E+03  0.50400001928E-02 0. -1.
       -1   -1    0    0    0  501  0.00000000000E+00  0.00000000000E+00 -0.87651649964E+02  0.87651650109E+02  0.50400001928E-02 0.  1.
    10030    2    1    2    0    0  0.00000000000E+00  0.00000000000E+00  0.64274593585E+03  0.81804923595E+03  0.50604566432E+03 0.  0.
        2    1    3    3  502    0 -0.78582119371E+02  0.88045554765E+02  0.68318243154E+03  0.69330037067E+03  0.25500000920E-02 0. -1.
       -2    1    3    3    0  502  0.78582119371E+02 -0.88045554765E+02 -0.40436495682E+02  0.12474886528E+03  0.25500000920E-02 0.  1.
</event>
<event>
 5   0  0.2413301E-01  0.4359220E+03  0.7818609E-02  0.1032005E+00
       -2   -1    0    0    0  501  0.00000000000E+00  0.00000000000E+00  0.87883676073E+02  0.87883676110E+02  0.25500000920E-02 0.  1.
        2   -1    0    0  501    0  0.00000000000E+00  0.00000000000E+00 -0.54056668001E+03  0.54056668001E+03  0.25500000920E-02 0. -1.
    10030    2    1    2    0    0  0.00000000000E+00  0.00000000000E+00 -0.45268300393E+03  0.62845035612E+03  0.43592195180E+03 0.  0.
        4    1    3    3  502    0  0.77991022504E+02  0.91319523832E+02 -0.48856287486E+03  0.50310749409E+03  0.12699999809E+01 0. -1.
       -4    1    3    3    0  502 -0.77991022504E+02 -0.91319523832E+02  0.35879870924E+02  0.12534286203E+03  0.12699999809E+01 0.  1.
</event>
<event>
 5   0  0.2413301E-01  0.4524716E+03  0.7818609E-02  0.1026988E+00
       -2   -1    0    0    0  501  0.00000000000E+00  0.00000000000E+00  0.79569220556E+02  0.79569220597E+02  0.25500000920E-02 0.  1.
        2   -1    0    0  501    0  0.00000000000E+00  0.00000000000E+00 -0.64324666055E+03  0.64324666056E+03  0.25500000920E-02 0. -1.
    10030    2    1    2    0    0  0.00000000000E+00  0.00000000000E+00 -0.56367744000E+03  0.72281588115E+03  0.45247159213E+03 0.  0.
        4    1    3    3  502    0 -0.76485302713E+02 -0.22630034010E+02 -0.62003356014E+03  0.62514426221E+03  0.12699999809E+01 0. -1.
       -4    1    3    3    0  502  0.76485302713E+02  0.22630034010E+02  0.56356120143E+02  0.97671618948E+02  0.12699999809E+01 0.  1.
</event>
<event>
 5   0  0.1439814E-01  0.5026714E+03  0.7818609E-02  0.1013084E+00
       -1   -1    0    0    0  501  0.00000000000E+00  0.00000000000E+00  0.12809620083E+03  0.12809620093E+03  0.50400001928E-02 0.  1.
        1   -1    0    0  501    0  0.00000000000E+00  0.00000000000E+00 -0.49314208140E+03  0.49314208143E+03  0.50400001928E-02 0. -1.
    10030    2    1    2    0    0  0.00000000000E+00  0.00000000000E+00 -0.36504588057E+03  0.62123828236E+03  0.50267137232E+03 0.  0.
        4    1    3    3  502    0 -0.24466158232E+02  0.52063768146E+02 -0.48489245852E+03  0.48829451982E+03  0.12699999809E+01 0. -1.
       -4    1    3    3    0  502  0.24466158232E+02 -0.52063768146E+02  0.11984657795E+03  0.13294376254E+03  0.12699999809E+01 0.  1.
</event>
<event>
 5   0  0.1413361E-01  0.5091090E+03  0.7818609E-02  0.1011428E+00
       -1   -1    0    0    0  501  0.00000000000E+00  0.00000000000E+00  0.86660536773E+02  0.86660536919E+02  0.50400001928E-02 0.  1.
        1   -1    0    0  501    0  0.00000000000E+00  0.00000000000E+00 -0.74772198624E+03  0.74772198625E+03  0.50400001928E-02 0. -1.
    10030    2    1    2    0    0  0.00000000000E+00  0.00000000000E+00 -0.66106144946E+03  0.83438252317E+03  0.50910898147E+03 0.  0.
        3    1    3    3  502    0  0.21397907457E+03  0.12823441092E+03 -0.24749664406E+03  0.35140533223E+03  0.10100000352E+00 0. -1.
       -3    1    3    3    0  502 -0.21397907457E+03 -0.12823441092E+03 -0.41356480541E+03  0.48297719094E+03  0.10100000352E+00 0.  1.
</event>
<event>
 5   0  0.2466034E-01  0.5057318E+03  0.7818609E-02  0.1012294E+00
        2   -1    0    0  501    0  0.00000000000E+00  0.00000000000E+00  0.13083688315E+04  0.13083688315E+04  0.25500000920E-02 0. -1.
       -2   -1    0    0    0  501  0.00000000000E+00  0.00000000000E+00 -0.48870894530E+02  0.48870894597E+02  0.25500000920E-02 0.  1.
    10030    2    1    2    0    0  0.00000000000E+00  0.00000000000E+00  0.12594979370E+04  0.13572397261E+04  0.50573176771E+03 0.  0.
        3    1    3    3  502    0 -0.92068678403E+02 -0.20836325430E+03  0.33516000320E+03  0.40524575906E+03  0.10100000352E+00 0.  1.
       -3    1    3    3    0  502  0.92068678403E+02  0.20836325430E+03  0.92433793375E+03  0.95199396703E+03  0.10100000352E+00 0. -1.
</event>
<event>
 5   0  0.1448458E-01  0.4987299E+03  0.7818609E-02  0.1014111E+00
        1   -1    0    0  501    0  0.00000000000E+00  0.00000000000E+00  0.10280074676E+04  0.10280074676E+04  0.50400001928E-02 0.  1.
       -1   -1    0    0    0  501  0.00000000000E+00  0.00000000000E+00 -0.60488740789E+02  0.60488740999E+02  0.50400001928E-02 0. -1.
    10030    2    1    2    0    0  0.00000000000E+00  0.00000000000E+00  0.96751872680E+03  0.10884962086E+04  0.49872989626E+03 0.  0.
        5    1    3    3  502    0 -0.15236532538E+03 -0.19373692721E+02  0.91239450436E+03  0.92524394293E+03  0.46999998093E+01 0.  1.
       -5    1    3    3    0  502  0.15236532538E+03  0.19373692721E+02  0.55124222438E+02  0.16325226567E+03  0.46999998093E+01 0. -1.
</event>
<event>
 5   0  0.1439814E-01  0.4365595E+03  0.7818609E-02  0.1031808E+00
       -1   -1    0    0    0  501  0.00000000000E+00  0.00000000000E+00  0.95157552454E+02  0.95157552587E+02  0.50400001928E-02 0.  1.
        1   -1    0    0  501    0  0.00000000000E+00  0.00000000000E+00 -0.50070702147E+03  0.50070702149E+03  0.50400001928E-02 0. -1.
    10030    2    1    2    0    0  0.00000000000E+00  0.00000000000E+00 -0.40554946902E+03  0.59586457408E+03  0.43655952495E+03 0.  0.
        4    1    3    3  502    0 -0.50957268233E+02  0.11384094803E+03  0.41723469857E+02  0.13152515148E+03  0.12699999809E+01 0.  1.
       -4    1    3    3    0  502  0.50957268233E+02 -0.11384094803E+03 -0.44727293887E+03  0.46433942260E+03  0.12699999809E+01 0. -1.
</event>
<event>
 5   0  0.9868500E-02  0.4998285E+03  0.7818609E-02  0.1013824E+00
        3   -1    0    0  501    0  0.00000000000E+00  0.00000000000E+00  0.82112997580E+03  0.82112998201E+03  0.10100000352E+00 0.  1.
       -3   -1    0    0    0  501  0.00000000000E+00  0.00000000000E+00 -0.76062380806E+02  0.76062447863E+02  0.10100000352E+00 0. -1.
    10030    2    1    2    0    0  0.00000000000E+00  0.00000000000E+00  0.74506759499E+03  0.89719242987E+03  0.49982850570E+03 0.  0.
        5    1    3    3  502    0  0.23923390202E+03 -0.25856734043E+02  0.49339497255E+03  0.54896458857E+03  0.46999998093E+01 0.  1.
       -5    1    3    3    0  502 -0.23923390202E+03  0.25856734043E+02  0.25167262244E+03  0.34822784130E+03  0.46999998093E+01 0. -1.
</event>
<event>
 5   0  0.2413301E-01  0.4999142E+03  0.7818609E-02  0.1013801E+00
       -2   -1    0    0    0  501  0.00000000000E+00  0.00000000000E+00  0.39251431273E+02  0.39251431356E+02  0.25500000920E-02 0.  1.
        2   -1    0    0  501    0  0.00000000000E+00  0.00000000000E+00 -0.15917522603E+04  0.15917522603E+04  0.25500000920E-02 0. -1.
    10030    2    1    2    0    0  0.00000000000E+00  0.00000000000E+00 -0.15525008290E+04  0.16310036917E+04  0.49991421071E+03 0.  0.
        4    1    3    3  502    0 -0.15453010346E+03  0.34551403952E+02 -0.14526967732E+03  0.21489123863E+03  0.12699999809E+01 0.  1.
       -4    1    3    3    0  502  0.15453010346E+03 -0.34551403952E+02 -0.14072311517E+04  0.14161124530E+04  0.12699999809E+01 0. -1.
</event>
<event>
 5   0  0.2511944E-01  0.5044599E+03  0.7818609E-02  0.1012621E+00
       -2   -1    0    0    0  501  0.00000000000E+00  0.00000000000E+00  0.31618885371E+02  0.31618885474E+02  0.25500000920E-02 0.  1.
        2   -1    0    0  501    0  0.00000000000E+00  0.00000000000E+00 -0.20120873557E+04  0.20120873557E+04  0.25500000920E-02 0. -1.
    10030    2    1    2    0    0  0.00000000000E+00  0.00000000000E+00 -0.19804684703E+04  0.20437062411E+04  0.50445994712E+03 0.  0.
        1    1    3    3  502    0  0.15077096670E+03  0.13502633534E+02 -0.18076060973E+04  0.18139332977E+04  0.50400001928E-02 0. -1.
       -1    1    3    3    0  502 -0.15077096670E+03 -0.13502633534E+02 -0.17286237299E+03  0.22977294343E+03  0.50400001928E-02 0.  1.
</event>
<event>
 5   0  0.1453602E-01  0.5052038E+03  0.7818609E-02  0.1012430E+00
        1   -1    0    0  501    0  0.00000000000E+00  0.00000000000E+00  0.35722579576E+03  0.35722579579E+03  0.50400001928E-02 0.  1.
       -1   -1    0    0    0  501  0.00000000000E+00  0.00000000000E+00 -0.17862011492E+03  0.17862011499E+03  0.50400001928E-02 0. -1.
    10030    2    1    2    0    0  0.00000000000E+00  0.00000000000E+00  0.17860568084E+03  0.53584591078E+03  0.50520377163E+03 0.  0.
        2    1    3    3  502    0 -0.65399868105E+02 -0.19841947936E+02  0.34723321753E+03  0.35389511583E+03  0.25500000920E-02 0.  1.
       -2    1    3    3    0  502  0.65399868105E+02  0.19841947936E+02 -0.16862753669E+03  0.18195079495E+03  0.25500000920E-02 0. -1.
</event>
<event>
 5   0  0.2488968E-01  0.4803916E+03  0.7818609E-02  0.1019028E+00
        2   -1    0    0  501    0  0.00000000000E+00  0.00000000000E+00  0.13374783033E+04  0.13374783034E+04  0.25500000920E-02 0.  1.
       -2   -1    0    0    0  501  0.00000000000E+00  0.00000000000E+00 -0.43136417010E+02  0.43136417085E+02  0.25500000920E-02 0. -1.
    10030    2    1    2    0    0  0.00000000000E+00  0.00000000000E+00  0.12943418863E+04  0.13806147204E+04  0.48039159813E+03 0.  0.
        2    1    3    3  502    0  0.84051824806E+02 -0.16699358127E+03  0.21376408196E+03  0.28398353505E+03  0.25500000920E-02 0. -1.
       -2    1    3    3    0  502 -0.84051824806E+02  0.16699358127E+03  0.10805778044E+04  0.10966311854E+04  0.25500000920E-02 0.  1.
</event>
<event>
 5   0  0.9868500E-02  0.5837584E+03  0.7818609E-02  0.9939687E-01
       -3   -1    0    0    0  501  0.00000000000E+00  0.00000000000E+00  0.10522639743E+03  0.10522644591E+03  0.10100000352E+00 0. -1.
        3   -1    0    0  501    0  0.00000000000E+00  0.00000000000E+00 -0.80962030625E+03  0.80962031255E+03  0.10100000352E+00 0.  1.
    10030    2    1    2    0    0  0.00000000000E+00  0.00000000000E+00 -0.70439390882E+03  0.91484675846E+03  0.58375835127E+03 0.  0.
        4    1    3    3  502    0 -0.15412389135E+03  0.81550203447E+02  0.14624662980E+02  0.17498600868E+03  0.12699999809E+01 0. -1.
       -4    1    3    3    0  502  0.15412389135E+03 -0.81550203447E+02 -0.71901857180E+03  0.73986074977E+03  0.12699999809E+01 0.  1.
</event>
<event>
 5   0  0.2511944E-01  0.5231434E+03  0.7818609E-02  0.1007909E+00
       -2   -1    0    0    0  501  0.00000000000E+00  0.00000000000E+00  0.65291991269E+02  0.65291991319E+02  0.25500000920E-02 0. -1.
        2   -1    0    0  501    0  0.00000000000E+00  0.00000000000E+00 -0.10479043911E+04  0.10479043911E+04  0.25500000920E-02 0.  1.
    10030    2    1    2    0    0  0.00000000000E+00  0.00000000000E+00 -0.98261239980E+03  0.11131963824E+04  0.52314343877E+03 0.  0.
        1    1    3    3  502    0 -0.14888427548E+03  0.76998976387E+02 -0.64004194547E+02  0.17942103220E+03  0.50400001928E-02 0. -1.
       -1    1    3    3    0  502  0.14888427548E+03 -0.76998976387E+02 -0.91860820525E+03  0.93377535020E+03  0.50400001928E-02 0.  1.
</event>
<event>
 5   0  0.2466034E-01  0.4926874E+03  0.7818609E-02  0.1015705E+00
       -2   -1    0    0    0  501  0.00000000000E+00  0.00000000000E+00  0.97882932207E+02  0.97882932241E+02  0.25500000920E-02 0.  1.
        2   -1    0    0  501    0  0.00000000000E+00  0.00000000000E+00 -0.61997758697E+03  0.61997758698E+03  0.25500000920E-02 0. -1.
    10030    2    1    2    0    0  0.00000000000E+00  0.00000000000E+00 -0.52209465477E+03  0.71786051922E+03  0.49268742273E+03 0.  0.
        3    1    3    3  502    0  0.62908138345E+02 -0.90005155573E+02  0.60249672728E+02  0.12525332397E+03  0.10100000352E+00 0.  1.
       -3    1    3    3    0  502 -0.62908138345E+02  0.90005155573E+02 -0.58234432749E+03  0.59260719525E+03  0.10100000352E+00 0. -1.
</event>
<event>
 5   0  0.2488968E-01  0.5001592E+03  0.7818609E-02  0.1013737E+00
        2   -1    0    0  501    0  0.00000000000E+00  0.00000000000E+00  0.67130034686E+03  0.67130034687E+03  0.25500000920E-02 0. -1.
       -2   -1    0    0    0  501  0.00000000000E+00  0.00000000000E+00 -0.93162170197E+02  0.93162170232E+02  0.25500000920E-02 0.  1.
    10030    2    1    2    0    0  0.00000000000E+00  0.00000000000E+00  0.57813817667E+03  0.76446251710E+03  0.50015916340E+03 0.  0.
        2    1    3    3  502    0 -0.15772892643E+03 -0.17245238631E+03  0.15303327645E+03  0.27935179163E+03  0.25500000920E-02 0.  1.
       -2    1    3    3    0  502  0.15772892643E+03  0.17245238631E+03  0.42510490021E+03  0.48511072547E+03  0.25500000920E-02 0. -1.
</event>
<event>
 5   0  0.1448458E-01  0.5094571E+03  0.7818609E-02  0.1011340E+00
        1   -1    0    0  501    0  0.00000000000E+00  0.00000000000E+00  0.17178670195E+04  0.17178670195E+04  0.50400001928E-02 0.  1.
       -1   -1    0    0    0  501  0.00000000000E+00  0.00000000000E+00 -0.37771623984E+02  0.37771624320E+02  0.50400001928E-02 0. -1.
    10030    2    1    2    0    0  0.00000000000E+00  0.00000000000E+00  0.16800953955E+04  0.17556386438E+04  0.50945707343E+03 0.  0.
        5    1    3    3  502    0 -0.76832744415E+02 -0.24230105300E+03  0.89469486093E+03  0.93011507625E+03  0.46999998093E+01 0.  1.
       -5    1    3    3    0  502  0.76832744415E+02  0.24230105300E+03  0.78540053460E+03  0.82552356759E+03  0.46999998093E+01 0. -1.
</event>
<event>
 5   0  0.2413301E-01  0.4986369E+03  0.7818609E-02  0.1014135E+00
       -2   -1    0    0    0  501  0.00000000000E+00  0.00000000000E+00  0.32745204240E+03  0.32745204241E+03  0.25500000920E-02 0.  1.
        2   -1    0    0  501    0  0.00000000000E+00  0.00000000000E+00 -0.18982835085E+03  0.18982835087E+03  0.25500000920E-02 0. -1.
    10030    2    1    2    0    0  0.00000000000E+00  0.00000000000E+00  0.13762369155E+03  0.51728039328E+03  0.49863686666E+03 0.  0.
        4    1    3    3  502    0  0.13506301057E+03 -0.94520026498E+02 -0.12521599471E+03  0.20701862347E+03  0.12699999809E+01 0. -1.
       -4    1    3    3    0  502 -0.13506301057E+03  0.94520026498E+02  0.26283968626E+03  0.31026176981E+03  0.12699999809E+01 0.  1.
</event>
<event>
 5   0  0.1413361E-01  0.5065116E+03  0.7818609E-02  0.1012093E+00
        1   -1    0    0  501    0  0.00000000000E+00  0.00000000000E+00  0.88671970950E+03  0.88671970951E+03  0.50400001928E-02 0.  1.
       -1   -1    0    0    0  501  0.00000000000E+00  0.00000000000E+00 -0.72332332268E+02  0.72332332443E+02  0.50400001928E-02 0. -1.
    10030    2    1    2    0    0  0.00000000000E+00  0.00000000000E+00  0.81438737723E+03  0.95905204195E+03  0.50651161782E+03 0.  0.
        3    1    3    3  502    0 -0.23858945212E+03 -0.27164156936E+02  0.55956223848E+03  0.60891109944E+03  0.10100000352E+00 0. -1.
       -3    1    3    3    0  502  0.23858945212E+03  0.27164156936E+02  0.25482513875E+03  0.35014094251E+03  0.10100000352E+00 0.  1.
</event>
<event>
 5   0  0.1529146E-01  0.5316550E+03  0.7818609E-02  0.1005832E+00
        1   -1    0    0  501    0  0.00000000000E+00  0.00000000000E+00  0.92673516258E+03  0.92673516259E+03  0.50400001928E-02 0.  1.
       -1   -1    0    0    0  501  0.00000000000E+00  0.00000000000E+00 -0.76250748135E+02  0.76250748301E+02  0.50400001928E-02 0. -1.
    10030    2    1    2    0    0  0.00000000000E+00  0.00000000000E+00  0.85048441445E+03  0.10029859109E+04  0.53165496164E+03 0.  0.
        1    1    3    3  502    0 -0.14607625652E+03  0.68193946248E+02  0.26492868444E+02  0.16337245523E+03  0.50400001928E-02 0. -1.
       -1    1    3    3    0  502  0.14607625652E+03 -0.68193946248E+02  0.82399154600E+03  0.83961345566E+03  0.50400001928E-02 0.  1.
</event>
<event>
 5   0  0.2466034E-01  0.5165470E+03  0.7818609E-02  0.1009548E+00
        2   -1    0    0  501    0  0.00000000000E+00  0.00000000000E+00  0.57769129684E+03  0.57769129684E+03  0.25500000920E-02 0. -1.
       -2   -1    0    0    0  501  0.00000000000E+00  0.00000000000E+00 -0.11546858173E+03  0.11546858176E+03  0.25500000920E-02 0.  1.
    10030    2    1    2    0    0  0.00000000000E+00  0.00000000000E+00  0.46222271510E+03  0.69315987860E+03  0.51654697652E+03 0.  0.
        3    1    3    3  502    0 -0.22994695190E+03  0.84997659624E+02  0.12205288701E+03  0.27385602104E+03  0.10100000352E+00 0.  1.
       -3    1    3    3    0  502  0.22994695190E+03 -0.84997659624E+02  0.34016982809E+03  0.41930385757E+03  0.10100000352E+00 0. -1.
</event>
<event>
 5   0  0.1448458E-01  0.4931353E+03  0.7818609E-02  0.1015586E+00
        1   -1    0    0  501    0  0.00000000000E+00  0.00000000000E+00  0.15883735094E+03  0.15883735102E+03  0.50400001928E-02 0.  1.
       -1   -1    0    0    0  501  0.00000000000E+00  0.00000000000E+00 -0.38275382065E+03  0.38275382069E+03  0.50400001928E-02 0. -1.
    10030    2    1    2    0    0  0.00000000000E+00  0.00000000000E+00 -0.22391646972E+03  0.54159117171E+03  0.49313528758E+03 0.  0.
        5    1    3    3  502    0 -0.24057130545E+03  0.49519631121E+02 -0.13517200069E+03  0.28039312873E+03  0.46999998093E+01 0.  1.
       -5    1    3    3    0  502  0.24057130545E+03 -0.49519631121E+02 -0.88744469030E+02  0.26119804297E+03  0.46999998093E+01 0. -1.
</event>
<event>
 5   0  0.1413361E-01  0.4942877E+03  0.7818609E-02  0.1015281E+00
        1   -1    0    0  501    0  0.00000000000E+00  0.00000000000E+00  0.63499911703E+03  0.63499911705E+03  0.50400001928E-02 0. -1.
       -1   -1    0    0    0  501  0.00000000000E+00  0.00000000000E+00 -0.96189257634E+02  0.96189257766E+02  0.50400001928E-02 0.  1.
    10030    2    1    2    0    0  0.00000000000E+00  0.00000000000E+00  0.53880985940E+03  0.73118837482E+03  0.49428774503E+03 0.  0.
        3    1    3    3  502    0 -0.20895024405E+03 -0.49877463312E+02  0.45016817798E+03  0.49879791950E+03  0.10100000352E+00 0. -1.
       -3    1    3    3    0  502  0.20895024405E+03  0.49877463312E+02  0.88641681424E+02  0.23239045532E+03  0.10100000352E+00 0.  1.
</event>
<event>
 5   0  0.1439814E-01  0.4982177E+03  0.7818609E-02  0.1014245E+00
        1   -1    0    0  501    0  0.00000000000E+00  0.00000000000E+00  0.62823922173E+03  0.62823922175E+03  0.50400001928E-02 0. -1.
       -1   -1    0    0    0  501  0.00000000000E+00  0.00000000000E+00 -0.98776416693E+02  0.98776416822E+02  0.50400001928E-02 0.  1.
    10030    2    1    2    0    0  0.00000000000E+00  0.00000000000E+00  0.52946280504E+03  0.72701563858E+03  0.49821770022E+03 0.  0.
        4    1    3    3  502    0  0.11969739672E+02 -0.12466172997E+03 -0.49494614120E+02  0.13466681593E+03  0.12699999809E+01 0.  1.
       -4    1    3    3    0  502 -0.11969739672E+02  0.12466172997E+03  0.57895741916E+03  0.59234882264E+03  0.12699999809E+01 0. -1.
</event>
<event>
 5   0  0.1448458E-01  0.5018710E+03  0.7818609E-02  0.1013292E+00
        1   -1    0    0  501    0  0.00000000000E+00  0.00000000000E+00  0.54287135346E+03  0.54287135348E+03  0.50400001928E-02 0. -1.
       -1   -1    0    0    0  501  0.00000000000E+00  0.00000000000E+00 -0.11599179292E+03  0.11599179303E+03  0.50400001928E-02 0.  1.
    10030    2    1    2    0    0  0.00000000000E+00  0.00000000000E+00  0.42687956054E+03  0.65886314651E+03  0.50187098603E+03 0.  0.
        5    1    3    3  502    0 -0.20325223493E+03 -0.35155732246E+02  0.40094311861E+03  0.45091559174E+03  0.46999998093E+01 0. -1.
       -5    1    3    3    0  502  0.20325223493E+03  0.35155732246E+02  0.25936441928E+02  0.20794755477E+03  0.46999998093E+01 0.  1.
</event>
<event>
 5   0  0.1439814E-01  0.5101786E+03  0.7818609E-02  0.1011156E+00
       -1   -1    0    0    0  501  0.00000000000E+00  0.00000000000E+00  0.10845427602E+03  0.10845427613E+03  0.50400001928E-02 0.  1.
        1   -1    0    0  501    0  0.00000000000E+00  0.00000000000E+00 -0.59998133788E+03  0.59998133791E+03  0.50400001928E-02 0. -1.
    10030    2    1    2    0    0  0.00000000000E+00  0.00000000000E+00 -0.49152706187E+03  0.70843561404E+03  0.51017856354E+03 0.  0.
        4    1    3    3  502    0  0.62877068562E+02 -0.18676154485E+03 -0.20846114270E+02  0.19816552113E+03  0.12699999809E+01 0.  1.
       -4    1    3    3    0  502 -0.62877068562E+02  0.18676154485E+03 -0.47068094760E+03  0.51027009291E+03  0.12699999809E+01 0. -1.
</event>
<event>
 5   0  0.2466034E-01  0.4782584E+03  0.7818609E-02  0.1019615E+00
       -2   -1    0    0    0  501  0.00000000000E+00  0.00000000000E+00  0.51522877366E+02  0.51522877429E+02  0.25500000920E-02 0. -1.
        2   -1    0    0  501    0  0.00000000000E+00  0.00000000000E+00 -0.11098520678E+04  0.11098520678E+04  0.25500000920E-02 0.  1.
    10030    2    1    2    0    0  0.00000000000E+00  0.00000000000E+00 -0.10583291904E+04  0.11613749452E+04  0.47825839050E+03 0.  0.
        3    1    3    3  502    0  0.17494458179E+03  0.15452580377E+03 -0.40300922199E+03  0.46572553498E+03  0.10100000352E+00 0. -1.
       -3    1    3    3    0  502 -0.17494458179E+03 -0.15452580377E+03 -0.65531996840E+03  0.69564941020E+03  0.10100000352E+00 0.  1.
</event>
<event>
 5   0  0.1439814E-01  0.5228220E+03  0.7818609E-02  0.1007988E+00
        1   -1    0    0  501    0  0.00000000000E+00  0.00000000000E+00  0.23592473624E+03  0.23592473630E+03  0.50400001928E-02 0.  1.
       -1   -1    0    0    0  501  0.00000000000E+00  0.00000000000E+00 -0.28965048535E+03  0.28965048540E+03  0.50400001928E-02 0. -1.
    10030    2    1    2    0    0  0.00000000000E+00  0.00000000000E+00 -0.53725749110E+02  0.52557522169E+03  0.52282201325E+03 0.  0.
        4    1    3    3  502    0 -0.14920950781E+03 -0.75359519599E+02 -0.22889776127E+03  0.28344017434E+03  0.12699999809E+01 0. -1.
       -4    1    3    3    0  502  0.14920950781E+03  0.75359519599E+02  0.17517201216E+03  0.24213504736E+03  0.12699999809E+01 0.  1.
</event>
<event>
 5   0  0.2466034E-01  0.4974085E+03  0.7818609E-02  0.1014458E+00
        2   -1    0    0  501    0  0.00000000000E+00  0.00000000000E+00  0.70208217823E+03  0.70208217823E+03  0.25500000920E-02 0. -1.
       -2   -1    0    0    0  501  0.00000000000E+00  0.00000000000E+00 -0.88100518717E+02  0.88100518754E+02  0.25500000920E-02 0.  1.
    10030    2    1    2    0    0  0.00000000000E+00  0.00000000000E+00  0.61398165951E+03  0.79018269699E+03  0.49740850053E+03 0.  0.
        3    1    3    3  502    0  0.74958640314E+02 -0.13207383500E+03 -0.58926186063E+01  0.15197706671E+03  0.10100000352E+00 0.  1.
       -3    1    3    3    0  502 -0.74958640314E+02  0.13207383500E+03  0.61987427812E+03  0.63820563028E+03  0.10100000352E+00 0. -1.
</event>
<event>
 5   0  0.2413301E-01  0.5062066E+03  0.7818609E-02  0.1012171E+00
       -2   -1    0    0    0  501  0.00000000000E+00  0.00000000000E+00  0.88479187001E+02  0.88479187038E+02  0.25500000920E-02 0. -1.
        2   -1    0    0  501    0  0.00000000000E+00  0.00000000000E+00 -0.72402646283E+03  0.72402646283E+03  0.25500000920E-02 0.  1.
    10030    2    1    2    0    0  0.00000000000E+00  0.00000000000E+00 -0.63554727582E+03  0.81250564987E+03  0.50620656975E+03 0.  0.
        4    1    3    3  502    0  0.23746107423E+03  0.18206549365E+02 -0.18025579281E+03  0.29868545990E+03  0.12699999809E+01 0. -1.
       -4    1    3    3    0  502 -0.23746107423E+03 -0.18206549365E+02 -0.45529148301E+03  0.51382018997E+03  0.12699999809E+01 0.  1.
</event>
<event>
 5   0  0.1439814E-01  0.6061507E+03  0.7818609E-02  0.9892727E-01
       -1   -1    0    0    0  501  0.00000000000E+00  0.00000000000E+00  0.13389812866E+03  0.13389812875E+03  0.50400001928E-02 0.  1.
        1   -1    0    0  501    0  0.00000000000E+00  0.00000000000E+00 -0.68600409721E+03  0.68600409723E+03  0.50400001928E-02 0. -1.
    10030    2    1    2    0    0  0.00000000000E+00  0.00000000000E+00 -0.55210596856E+03  0.81990222599E+03  0.60615069056E+03 0.  0.
        4    1    3    3  502    0  0.40693254559E+02  0.26966165392E+03 -0.97219642748E+02  0.28952827219E+03  0.12699999809E+01 0.  1.
       -4    1    3    3    0  502 -0.40693254559E+02 -0.26966165392E+03 -0.45488632581E+03  0.53037395380E+03  0.12699999809E+01 0. -1.
</event>
<event>
 5   0  0.1529146E-01  0.5042279E+03  0.7818609E-02  0.1012681E+00
       -1   -1    0    0    0  501  0.00000000000E+00  0.00000000000E+00  0.72077826598E+03  0.72077826600E+03  0.50400001928E-02 0.  1.
        1   -1    0    0  501    0  0.00000000000E+00  0.00000000000E+00 -0.88184476039E+02  0.88184476183E+02  0.50400001928E-02 0. -1.
    10030    2    1    2    0    0  0.00000000000E+00  0.00000000000E+00  0.63259378995E+03  0.80896274219E+03  0.50422793969E+03 0.  0.
        1    1    3    3  502    0 -0.13903439400E+03  0.15644265541E+03  0.54180261891E+03  0.58082264507E+03  0.50400001928E-02 0.  1.
       -1    1    3    3    0  502  0.13903439400E+03 -0.15644265541E+03  0.90791171040E+02  0.22814009712E+03  0.50400001928E-02 0. -1.
</event>
<event>
 5   0  0.2488968E-01  0.4918971E+03  0.7818609E-02  0.1015916E+00
        2   -1    0    0  501    0  0.00000000000E+00  0.00000000000E+00  0.88742321178E+03  0.88742321178E+03  0.25500000920E-02 0. -1.
       -2   -1    0    0    0  501  0.00000000000E+00  0.00000000000E+00 -0.68164409022E+02  0.68164409069E+02  0.25500000920E-02 0.  1.
    10030    2    1    2    0    0  0.00000000000E+00  0.00000000000E+00  0.81925880276E+03  0.95558762085E+03  0.49189705755E+03 0.  0.
        2    1    3    3  502    0  0.10776919882E+03  0.10960101774E+03  0.78262016852E+03  0.79757188484E+03  0.25500000920E-02 0. -1.
       -2    1    3    3    0  502 -0.10776919882E+03 -0.10960101774E+03  0.36638634238E+02  0.15801573601E+03  0.25500000920E-02 0.  1.
</event>
<event>
 5   0  0.2466034E-01  0.4946473E+03  0.7818609E-02  0.1015186E+00
       -2   -1    0    0    0  501  0.00000000000E+00  0.00000000000E+00  0.53474556298E+02  0.53474556359E+02  0.25500000920E-02 0.  1.
        2   -1    0    0  501    0  0.00000000000E+00  0.00000000000E+00 -0.11438895909E+04  0.11438895910E+04  0.25500000920E-02 0. -1.
    10030    2    1    2    0    0  0.00000000000E+00  0.00000000000E+00 -0.10904150347E+04  0.11973641473E+04  0.49464730210E+03 0.  0.
        3    1    3    3  502    0 -0.11628073073E+03  0.10093621073E+03 -0.76704416360E+02  0.17202588371E+03  0.10100000352E+00 0.  1.
       -3    1    3    3    0  502  0.11628073073E+03 -0.10093621073E+03 -0.10137106183E+04  0.10253382636E+04  0.10100000352E+00 0. -1.
</event>
<event>
 5   0  0.1439814E-01  0.5174808E+03  0.7818609E-02  0.1009314E+00
        1   -1    0    0  501    0  0.00000000000E+00  0.00000000000E+00  0.10402641414E+04  0.10402641414E+04  0.50400001928E-02 0. -1.
       -1   -1    0    0    0  501  0.00000000000E+00  0.00000000000E+00 -0.64355373076E+02  0.64355373274E+02  0.50400001928E-02 0.  1.
    10030    2    1    2    0    0  0.00000000000E+00  0.00000000000E+00  0.97590876835E+03  0.11046195147E+04  0.51748077079E+03 0.  0.
        4    1    3    3  502    0  0.93716362585E+02 -0.18368945581E+03  0.15437830968E+03  0.25760211217E+03  0.12699999809E+01 0.  1.
       -4    1    3    3    0  502 -0.93716362585E+02  0.18368945581E+03  0.82153045867E+03  0.84701740255E+03  0.12699999809E+01 0. -1.
</event>
<event>
 5   0  0.1453602E-01  0.5062567E+03  0.7818609E-02  0.1012159E+00
        1   -1    0    0  501    0  0.00000000000E+00  0.00000000000E+00  0.51682910965E+03  0.51682910967E+03  0.50400001928E-02 0.  1.
       -1   -1    0    0    0  501  0.00000000000E+00  0.00000000000E+00 -0.12397514414E+03  0.12397514425E+03  0.50400001928E-02 0. -1.
    10030    2    1    2    0    0  0.00000000000E+00  0.00000000000E+00  0.39285396550E+03  0.64080425392E+03  0.50625670724E+03 0.  0.
        2    1    3    3  502    0 -0.20772761323E+03 -0.10679907203E+03  0.72943665312E+02  0.24469896077E+03  0.25500000920E-02 0. -1.
       -2    1    3    3    0  502  0.20772761323E+03  0.10679907203E+03  0.31991030019E+03  0.39610529315E+03  0.25500000920E-02 0.  1.
</event>
<event>
 5   0  0.1529146E-01  0.4920624E+03  0.7818609E-02  0.1015872E+00
       -1   -1    0    0    0  501  0.00000000000E+00  0.00000000000E+00  0.29690227044E+02  0.29690227471E+02  0.50400001928E-02 0.  1.
        1   -1    0    0  501    0  0.00000000000E+00  0.00000000000E+00 -0.20387633880E+04  0.20387633880E+04  0.50400001928E-02 0. -1.
    10030    2    1    2    0    0  0.00000000000E+00  0.00000000000E+00 -0.20090731609E+04  0.20684536154E+04  0.49206238761E+03 0.  0.
        1    1    3    3  502    0 -0.19016759736E+03 -0.35200701202E+02 -0.16438293054E+04  0.16551669371E+04  0.50400001928E-02 0. -1.
       -1    1    3    3    0  502  0.19016759736E+03  0.35200701202E+02 -0.36524385555E+03  0.41328667834E+03  0.50400001928E-02 0.  1.
</event>
<event>
 5   0  0.2488968E-01  0.5013432E+03  0.7818609E-02  0.1013429E+00
       -2   -1    0    0    0  501  0.00000000000E+00  0.00000000000E+00  0.25952327505E+03  0.25952327506E+03  0.25500000920E-02 0. -1.
        2   -1    0    0  501    0  0.00000000000E+00  0.00000000000E+00 -0.24212183111E+03  0.24212183113E+03  0.25500000920E-02 0.  1.
    10030    2    1    2    0    0  0.00000000000E+00  0.00000000000E+00  0.17401443938E+02  0.50164510619E+03  0.50134319813E+03 0.  0.
        2    1    3    3  502    0 -0.21073197611E+03  0.18522196544E+01 -0.12711920150E+03  0.24611112911E+03  0.25500000920E-02 0.  1.
       -2    1    3    3    0  502  0.21073197611E+03 -0.18522196544E+01  0.14452064544E+03  0.25553397708E+03  0.25500000920E-02 0. -1.
</event>
<event>
 5   0  0.9868500E-02  0.4897277E+03  0.7818609E-02  0.1016495E+00
        3   -1    0    0  501    0  0.00000000000E+00  0.00000000000E+00  0.67449164083E+02  0.67449239703E+02  0.10100000352E+00 0. -1.
       -3   -1    0    0    0  501  0.00000000000E+00  0.00000000000E+00 -0.88894005864E+03  0.88894006438E+03  0.10100000352E+00 0.  1.
    10030    2    1    2    0    0  0.00000000000E+00  0.00000000000E+00 -0.82149089456E+03  0.95638930408E+03  0.48972769078E+03 0.  0.
        4    1    3    3  502    0 -0.20465322496E+03 -0.97189056941E+02 -0.59214490668E+03  0.63400777494E+03  0.12699999809E+01 0.  1.
       -4    1    3    3    0  502  0.20465322496E+03  0.97189056941E+02 -0.22934598787E+03  0.32238152914E+03  0.12699999809E+01 0. -1.
</event>
<event>
 5   0  0.1413361E-01  0.5011435E+03  0.7818609E-02  0.1013481E+00
       -1   -1    0    0    0  501  0.00000000000E+00  0.00000000000E+00  0.11336079547E+03  0.11336079558E+03  0.50400001928E-02 0. -1.
        1   -1    0    0  501    0  0.00000000000E+00  0.00000000000E+00 -0.55386160304E+03  0.55386160306E+03  0.50400001928E-02 0.  1.
    10030    2    1    2    0    0  0.00000000000E+00  0.00000000000E+00 -0.44050080757E+03  0.66722239864E+03  0.50114346027E+03 0.  0.
        3    1    3    3  502    0 -0.90511538863E+02  0.15517388431E+03 -0.45282623793E+03  0.48715796719E+03  0.10100000352E+00 0.  1.
       -3    1    3    3    0  502  0.90511538863E+02 -0.15517388431E+03  0.12325430361E+02  0.18006443145E+03  0.10100000352E+00 0. -1.
</event>
<event>
 5   0  0.1529146E-01  0.4953834E+03  0.7818609E-02  0.1014991E+00
       -1   -1    0    0    0  501  0.00000000000E+00  0.00000000000E+00  0.24339520249E+03  0.24339520254E+03  0.50400001928E-02 0.  1.
        1   -1    0    0  501    0  0.00000000000E+00  0.00000000000E+00 -0.25206405784E+03  0.25206405789E+03  0.50400001928E-02 0. -1.
    10030    2    1    2    0    0  0.00000000000E+00  0.00000000000E+00 -0.86688553523E+01  0.49545926043E+03  0.49538341686E+03 0.  0.
        1    1    3    3  502    0 -0.34886568308E+02 -0.14945997955E+03  0.19010681869E+03  0.24432756838E+03  0.50400001928E-02 0.  1.
       -1    1    3    3    0  502  0.34886568308E+02  0.14945997955E+03 -0.19877567404E+03  0.25113169205E+03  0.50400001928E-02 0. -1.
</event>
<event>
 5   0  0.2466034E-01  0.5011297E+03  0.7818609E-02  0.1013484E+00
        2   -1    0    0  501    0  0.00000000000E+00  0.00000000000E+00  0.76288796940E+03  0.76288796941E+03  0.25500000920E-02 0.  1.
       -2   -1    0    0    0  501  0.00000000000E+00  0.00000000000E+00 -0.82296163442E+02  0.82296163482E+02  0.25500000920E-02 0. -1.
    10030    2    1    2    0    0  0.00000000000E+00  0.00000000000E+00  0.68059180596E+03  0.84518413289E+03  0.50112973584E+03 0.  0.
        3    1    3    3  502    0  0.37728663810E+02  0.91603456037E+02 -0.47861925241E+02  0.11002463051E+03  0.10100000352E+00 0. -1.
       -3    1    3    3    0  502 -0.37728663810E+02 -0.91603456037E+02  0.72845373120E+03  0.73515950238E+03  0.10100000352E+00 0.  1.
</event>
<event>
 5   0  0.2466034E-01  0.4925564E+03  0.7818609E-02  0.1015740E+00
        2   -1    0    0  501    0  0.00000000000E+00  0.00000000000E+00  0.79229566037E+03  0.79229566037E+03  0.25500000920E-02 0.  1.
       -2   -1    0    0    0  501  0.00000000000E+00  0.00000000000E+00 -0.76553433968E+02  0.76553434010E+02  0.25500000920E-02 0. -1.
    10030    2    1    2    0    0  0.00000000000E+00  0.00000000000E+00  0.71574222640E+03  0.86884909438E+03  0.49255640708E+03 0.  0.
        3    1    3    3  502    0  0.18018640623E+03 -0.17614363179E+02  0.63361145612E+02  0.19181254326E+03  0.10100000352E+00 0. -1.
       -3    1    3    3    0  502 -0.18018640623E+03  0.17614363179E+02  0.65238108079E+03  0.67703655112E+03  0.10100000352E+00 0.  1.
</event>
<event>
 5   0  0.1529146E-01  0.5057806E+03  0.7818609E-02  0.1012281E+00
       -1   -1    0    0    0  501  0.00000000000E+00  0.00000000000E+00  0.64708392856E+02  0.64708393053E+02  0.50400001928E-02 0. -1.
        1   -1    0    0  501    0  0.00000000000E+00  0.00000000000E+00 -0.98833379145E+03  0.98833379146E+03  0.50400001928E-02 0.  1.
    10030    2    1    2    0    0  0.00000000000E+00  0.00000000000E+00 -0.92362539859E+03  0.10530421845E+04  0.50578055068E+03 0.  0.
        1    1    3    3  502    0  0.23810661941E+03  0.56542280193E+02 -0.32912289653E+03  0.41013860182E+03  0.50400001928E-02 0. -1.
       -1    1    3    3    0  502 -0.23810661941E+03 -0.56542280193E+02 -0.59450250206E+03  0.64290358269E+03  0.50400001928E-02 0.  1.
</event>
<event>
 5   0  0.9868500E-02  0.4990880E+03  0.7818609E-02  0.1014017E+00
       -3   -1    0    0    0  501  0.00000000000E+00  0.00000000000E+00  0.51612722623E+03  0.51612723612E+03  0.10100000352E+00 0. -1.
        3   -1    0    0  501    0  0.00000000000E+00  0.00000000000E+00 -0.12065280342E+03  0.12065284570E+03  0.10100000352E+00 0.  1.
    10030    2    1    2    0    0  0.00000000000E+00  0.00000000000E+00  0.39547442281E+03  0.63678008182E+03  0.49908802180E+03 0.  0.
        1    1    3    3  502    0  0.75389941602E+02 -0.27971892810E+01 -0.10575437610E+03  0.12990556436E+03  0.50400001928E-02 0.  1.
       -1    1    3    3    0  502 -0.75389941602E+02  0.27971892810E+01  0.50122879891E+03  0.50687451745E+03  0.50400001928E-02 0. -1.
</event>
<event>
 5   0  0.2511944E-01  0.5328715E+03  0.7818609E-02  0.1005538E+00
       -2   -1    0    0    0  501  0.00000000000E+00  0.00000000000E+00  0.27046445933E+03  0.27046445934E+03  0.25500000920E-02 0. -1.
        2   -1    0    0  501    0  0.00000000000E+00  0.00000000000E+00 -0.26246702747E+03  0.26246702748E+03  0.25500000920E-02 0.  1.
    10030    2    1    2    0    0  0.00000000000E+00  0.00000000000E+00  0.79974318536E+01  0.53293148682E+03  0.53287147675E+03 0.  0.
        1    1    3    3  502    0  0.12836278210E+03 -0.14450299835E+03 -0.17940645650E+03  0.26371347524E+03  0.50400001928E-02 0.  1.
       -1    1    3    3    0  502 -0.12836278210E+03  0.14450299835E+03  0.18740388836E+03  0.26921801158E+03  0.50400001928E-02 0. -1.
</event>
<event>
 5   0  0.1453602E-01  0.5010420E+03  0.7818609E-02  0.1013507E+00
       -1   -1    0    0    0  501  0.00000000000E+00  0.00000000000E+00  0.71032414076E+02  0.71032414255E+02  0.50400001928E-02 0.  1.
        1   -1    0    0  501    0  0.00000000000E+00  0.00000000000E+00 -0.88355113847E+03  0.88355113848E+03  0.50400001928E-02 0. -1.
    10030    2    1    2    0    0  0.00000000000E+00  0.00000000000E+00 -0.81251872439E+03  0.95458355274E+03  0.50104199591E+03 0.  0.
        2    1    3    3  502    0 -0.16769743413E+03  0.41608076078E+02 -0.60650648644E+02  0.18311789262E+03  0.25500000920E-02 0.  1.
       -2    1    3    3    0  502  0.16769743413E+03 -0.41608076078E+02 -0.75186807575E+03  0.77146566012E+03  0.25500000920E-02 0. -1.
</event>
<event>
 5   0  0.1529146E-01  0.5082009E+03  0.7818609E-02  0.1011660E+00
        1   -1    0    0  501    0  0.00000000000E+00  0.00000000000E+00  0.63020416702E+03  0.63020416704E+03  0.50400001928E-02 0. -1.
       -1   -1    0    0    0  501  0.00000000000E+00  0.00000000000E+00 -0.10245414750E+03  0.10245414762E+03  0.50400001928E-02 0.  1.
    10030    2    1    2    0    0  0.00000000000E+00  0.00000000000E+00  0.52775001952E+03  0.73265831466E+03  0.50820086869E+03 0.  0.
        1    1    3    3  502    0  0.58586467649E+02 -0.17974203398E+03  0.50865124541E+03  0.54264690403E+03  0.50400001928E-02 0. -1.
       -1    1    3    3    0  502 -0.58586467649E+02  0.17974203398E+03  0.19098774104E+02  0.19001141063E+03  0.50400001928E-02 0.  1.
</event>
<event>
 5   0  0.9868500E-02  0.5021143E+03  0.7818609E-02  0.1013229E+00
        4   -1    0    0  501    0  0.00000000000E+00  0.00000000000E+00  0.18153715115E+03  0.18154159344E+03  0.12699999809E+01 0.  1.
       -4   -1    0    0    0  501  0.00000000000E+00  0.00000000000E+00 -0.34719016717E+03  0.34719248995E+03  0.12699999809E+01 0. -1.
    10030    2    1    2    0    0  0.00000000000E+00  0.00000000000E+00 -0.16565301602E+03  0.52873408339E+03  0.50211433879E+03 0.  0.
        4    1    3    3  502    0  0.77905120289E+01 -0.24850106229E+03 -0.46127461170E+02  0.25286918675E+03  0.12699999809E+01 0. -1.
       -4    1    3    3    0  502 -0.77905120289E+01  0.24850106229E+03 -0.11952555485E+03  0.27586489664E+03  0.12699999809E+01 0.  1.
</event>
<event>
 5   0  0.2466034E-01  0.4947503E+03  0.7818609E-02  0.1015158E+00
       -2   -1    0    0    0  501  0.00000000000E+00  0.00000000000E+00  0.79508182607E+02  0.79508182648E+02  0.25500000920E-02 0.  1.
        2   -1    0    0  501    0  0.00000000000E+00  0.00000000000E+00 -0.76966247030E+03  0.76966247030E+03  0.25500000920E-02 0. -1.
    10030    2    1    2    0    0  0.00000000000E+00  0.00000000000E+00 -0.69015428769E+03  0.84917065295E+03  0.49475029764E+03 0.  0.
        3    1    3    3  502    0  0.25300194682E+02  0.14009020927E+02 -0.76675102200E+03  0.76729622211E+03  0.10100000352E+00 0. -1.
       -3    1    3    3    0  502 -0.25300194682E+02 -0.14009020927E+02  0.76596734309E+02  0.81874430845E+02  0.10100000352E+00 0.  1.
</event>
<event>
 5   0  0.1453602E-01  0.4883318E+03  0.7818609E-02  0.1016870E+00
       -1   -1    0    0    0  501  0.00000000000E+00  0.00000000000E+00  0.19907511223E+03  0.19907511229E+03  0.50400001928E-02 0.  1.
        1   -1    0    0  501    0  0.00000000000E+00  0.00000000000E+00 -0.29946981786E+03  0.29946981790E+03  0.50400001928E-02 0. -1.
    10030    2    1    2    0    0  0.00000000000E+00  0.00000000000E+00 -0.10039470563E+03  0.49854493019E+03  0.48833180370E+03 0.  0.
        2    1    3    3  502    0 -0.52363788185E+02 -0.23245996173E+03 -0.10457853195E+03  0.26022349908E+03  0.25500000920E-02 0. -1.
       -2    1    3    3    0  502  0.52363788185E+02  0.23245996173E+03  0.41838263173E+01  0.23832143112E+03  0.25500000920E-02 0.  1.
</event>
<event>
 5   0  0.1453602E-01  0.5083104E+03  0.7818609E-02  0.1011632E+00
       -1   -1    0    0    0  501  0.00000000000E+00  0.00000000000E+00  0.15508262353E+03  0.15508262361E+03  0.50400001928E-02 0.  1.
        1   -1    0    0  501    0  0.00000000000E+00  0.00000000000E+00 -0.41651907993E+03  0.41651907996E+03  0.50400001928E-02 0. -1.
    10030    2    1    2    0    0  0.00000000000E+00  0.00000000000E+00 -0.26143645640E+03  0.57160170358E+03  0.50831042365E+03 0.  0.
        2    1    3    3  502    0  0.39472724493E+02 -0.17361693423E+03  0.73231165911E+02  0.19251945226E+03  0.25500000920E-02 0.  1.
       -2    1    3    3    0  502 -0.39472724493E+02  0.17361693423E+03 -0.33466762231E+03  0.37908225131E+03  0.25500000920E-02 0. -1.
</event>
<event>
 5   0  0.2488968E-01  0.4589221E+03  0.7818609E-02  0.1025094E+00
       -2   -1    0    0    0  501  0.00000000000E+00  0.00000000000E+00  0.78145462372E+02  0.78145462414E+02  0.25500000920E-02 0.  1.
        2   -1    0    0  501    0  0.00000000000E+00  0.00000000000E+00 -0.67377392598E+03  0.67377392598E+03  0.25500000920E-02 0. -1.
    10030    2    1    2    0    0  0.00000000000E+00  0.00000000000E+00 -0.59562846360E+03  0.75191938839E+03  0.45892210667E+03 0.  0.
        2    1    3    3  502    0  0.14958780676E+03  0.67620916465E+02 -0.35134518389E+02  0.16787952425E+03  0.25500000920E-02 0.  1.
       -2    1    3    3    0  502 -0.14958780676E+03 -0.67620916465E+02 -0.56049394521E+03  0.58403986414E+03  0.25500000920E-02 0. -1.
</event>
<event>
 5   0  0.1448458E-01  0.4634473E+03  0.7818609E-02  0.1023786E+00
       -1   -1    0    0    0  501  0.00000000000E+00  0.00000000000E+00  0.94680952871E+03  0.94680952872E+03  0.50400001928E-02 0. -1.
        1   -1    0    0  501    0  0.00000000000E+00  0.00000000000E+00 -0.56712409955E+02  0.56712410179E+02  0.50400001928E-02 0.  1.
    10030    2    1    2    0    0  0.00000000000E+00  0.00000000000E+00  0.89009711876E+03  0.10035219389E+04  0.46344730126E+03 0.  0.
        5    1    3    3  502    0  0.17591149458E+03  0.14672582813E+03  0.37002523124E+03  0.43521728403E+03  0.46999998093E+01 0. -1.
       -5    1    3    3    0  502 -0.17591149458E+03 -0.14672582813E+03  0.52007188751E+03  0.56830465487E+03  0.46999998093E+01 0.  1.
</event>
<event>
 5   0  0.1413361E-01  0.5278936E+03  0.7818609E-02  0.1006744E+00
        1   -1    0    0  501    0  0.00000000000E+00  0.00000000000E+00  0.15293987519E+03  0.15293987527E+03  0.50400001928E-02 0. -1.
       -1   -1    0    0    0  501  0.00000000000E+00  0.00000000000E+00 -0.45552487787E+03  0.45552487790E+03  0.50400001928E-02 0.  1.
    10030    2    1    2    0    0  0.00000000000E+00  0.00000000000E+00 -0.30258500268E+03  0.60846475317E+03  0.52789361807E+03 0.  0.
        3    1    3    3  502    0  0.12774677423E+03 -0.68796675865E+02  0.10284995729E+03  0.17784921943E+03  0.10100000352E+00 0. -1.
       -3    1    3    3    0  502 -0.12774677423E+03  0.68796675865E+02 -0.40543495996E+03  0.43061553374E+03  0.10100000352E+00 0.  1.
</event>
<event>
 5   0  0.2504064E-01  0.5034600E+03  0.7818609E-02  0.1012880E+00
        2   -1    0    0  501    0  0.00000000000E+00  0.00000000000E+00  0.50709753334E+03  0.50709753335E+03  0.25500000920E-02 0.  1.
       -2   -1    0    0    0  501  0.00000000000E+00  0.00000000000E+00 -0.12496215825E+03  0.12496215827E+03  0.25500000920E-02 0. -1.
    10030    2    1    2    0    0  0.00000000000E+00  0.00000000000E+00  0.38213537510E+03  0.63205969162E+03  0.50346003702E+03 0.  0.
        5    1    3    3  502    0  0.44579980451E+02  0.24492659601E+03  0.14460823049E+03  0.28794103982E+03  0.46999998093E+01 0. -1.
       -5    1    3    3    0  502 -0.44579980451E+02 -0.24492659601E+03  0.23752714461E+03  0.34411865180E+03  0.46999998093E+01 0.  1.
</event>
<event>
 5   0  0.1413361E-01  0.4964943E+03  0.7818609E-02  0.1014698E+00
       -1   -1    0    0    0  501  0.00000000000E+00  0.00000000000E+00  0.14299107016E+03  0.14299107024E+03  0.50400001928E-02 0.  1.
        1   -1    0    0  501    0  0.00000000000E+00  0.00000000000E+00 -0.43098248835E+03  0.43098248838E+03  0.50400001928E-02 0. -1.
    10030    2    1    2    0    0  0.00000000000E+00  0.00000000000E+00 -0.28799141819E+03  0.57397355862E+03  0.49649429911E+03 0.  0.
        3    1    3    3  502    0 -0.45593414535E+02  0.88229114811E+02 -0.40701611312E+03  0.41895735188E+03  0.10100000352E+00 0. -1.
       -3    1    3    3    0  502  0.45593414535E+02 -0.88229114811E+02  0.11902469493E+03  0.15501620674E+03  0.10100000352E+00 0.  1.
</event>
<event>
 5   0  0.2488968E-01  0.4966739E+03  0.7818609E-02  0.1014651E+00
       -2   -1    0    0    0  501  0.00000000000E+00  0.00000000000E+00  0.56840968962E+02  0.56840969019E+02  0.25500000920E-02 0. -1.
        2   -1    0    0  501    0  0.00000000000E+00  0.00000000000E+00 -0.10849786606E+04  0.10849786606E+04  0.25500000920E-02 0.  1.
    10030    2    1    2    0    0  0.00000000000E+00  0.00000000000E+00 -0.10281376917E+04  0.11418196296E+04  0.49667389063E+03 0.  0.
        2    1    3    3  502    0 -0.31265168537E+02  0.49328604956E+01 -0.10803224834E+04  0.10807860621E+04  0.25500000920E-02 0.  1.
       -2    1    3    3    0  502  0.31265168537E+02 -0.49328604956E+01  0.52184791722E+02  0.61033567566E+02  0.25500000920E-02 0. -1.
</event>
<event>
 5   0  0.2488968E-01  0.5019452E+03  0.7818609E-02  0.1013272E+00
       -2   -1    0    0    0  501  0.00000000000E+00  0.00000000000E+00  0.46826400979E+02  0.46826401049E+02  0.25500000920E-02 0.  1.
        2   -1    0    0  501    0  0.00000000000E+00  0.00000000000E+00 -0.13451224156E+04  0.13451224156E+04  0.25500000920E-02 0. -1.
    10030    2    1    2    0    0  0.00000000000E+00  0.00000000000E+00 -0.12982960147E+04  0.13919488167E+04  0.50194518287E+03 0.  0.
        2    1    3    3  502    0 -0.15662509488E+03 -0.97621682192E+02 -0.11207871906E+04  0.11358808652E+04  0.25500000920E-02 0. -1.
       -2    1    3    3    0  502  0.15662509488E+03  0.97621682192E+02 -0.17750882403E+03  0.25606795151E+03  0.25500000920E-02 0.  1.
</event>
<event>
 5   0  0.1529146E-01  0.4909881E+03  0.7818609E-02  0.1016158E+00
        1   -1    0    0  501    0  0.00000000000E+00  0.00000000000E+00  0.77673752633E+03  0.77673752635E+03  0.50400001928E-02 0. -1.
       -1   -1    0    0    0  501  0.00000000000E+00  0.00000000000E+00 -0.77590346319E+02  0.77590346483E+02  0.50400001928E-02 0.  1.
    10030    2    1    2    0    0  0.00000000000E+00  0.00000000000E+00  0.69914718001E+03  0.85432787283E+03  0.49098812101E+03 0.  0.
        1    1    3    3  502    0 -0.19505676047E+03  0.14620976817E+03  0.29905618875E+03  0.38582255010E+03  0.50400001928E-02 0.  1.
       -1    1    3    3    0  502  0.19505676047E+03 -0.14620976817E+03  0.40009099127E+03  0.46850532273E+03  0.50400001928E-02 0. -1.
</event>
<event>
 5   0  0.2466034E-01  0.5103749E+03  0.7818609E-02  0.1011106E+00
        2   -1    0    0  501    0  0.00000000000E+00  0.00000000000E+00  0.15842372697E+04  0.15842372697E+04  0.25500000920E-02 0. -1.
       -2   -1    0    0    0  501  0.00000000000E+00  0.00000000000E+00 -0.41105349691E+02  0.41105349770E+02  0.25500000920E-02 0.  1.
    10030    2    1    2    0    0  0.00000000000E+00  0.00000000000E+00  0.15431319200E+04  0.16253426194E+04  0.51037487019E+03 0.  0.
        3    1    3    3  502    0  0.12270773161E+03 -0.20168899779E+03  0.46305381781E+03  0.51976387679E+03  0.10100000352E+00 0. -1.
       -3    1    3    3    0  502 -0.12270773161E+03  0.20168899779E+03  0.10800781022E+04  0.11055787427E+04  0.10100000352E+00 0.  1.
</event>
<event>
 5   0  0.2488968E-01  0.4962429E+03  0.7818609E-02  0.1014764E+00
       -2   -1    0    0    0  501  0.00000000000E+00  0.00000000000E+00  0.59387759693E+02  0.59387759748E+02  0.25500000920E-02 0. -1.
        2   -1    0    0  501    0  0.00000000000E+00  0.00000000000E+00 -0.10366487385E+04  0.10366487385E+04  0.25500000920E-02 0.  1.
    10030    2    1    2    0    0  0.00000000000E+00  0.00000000000E+00 -0.97726097881E+03  0.10960364982E+04  0.49624286876E+03 0.  0.
        2    1    3    3  502    0 -0.14620121805E+03  0.64232777267E+02 -0.90806607944E+03  0.92200035275E+03  0.25500000920E-02 0.  1.
       -2    1    3    3    0  502  0.14620121805E+03 -0.64232777267E+02 -0.69194899361E+02  0.17403614550E+03  0.25500000920E-02 0. -1.
</event>
<event>
 5   0  0.1413361E-01  0.4916790E+03  0.7818609E-02  0.1015974E+00
       -1   -1    0    0    0  501  0.00000000000E+00  0.00000000000E+00  0.14727903606E+03  0.14727903615E+03  0.50400001928E-02 0.  1.
        1   -1    0    0  501    0  0.00000000000E+00  0.00000000000E+00 -0.41035754261E+03  0.41035754264E+03  0.50400001928E-02 0. -1.
    10030    2    1    2    0    0  0.00000000000E+00  0.00000000000E+00 -0.26307850654E+03  0.55763657878E+03  0.49167901459E+03 0.  0.
        3    1    3    3  502    0  0.18248632207E+03  0.52602127540E+02  0.45507006553E+02  0.19529244587E+03  0.10100000352E+00 0.  1.
       -3    1    3    3    0  502 -0.18248632207E+03 -0.52602127540E+02 -0.30858551310E+03  0.36234413292E+03  0.10100000352E+00 0. -1.
</event>
<event>
 5   0  0.1413361E-01  0.5020537E+03  0.7818609E-02  0.1013244E+00
        1   -1    0    0  501    0  0.00000000000E+00  0.00000000000E+00  0.90486381511E+03  0.90486381512E+03  0.50400001928E-02 0.  1.
       -1   -1    0    0    0  501  0.00000000000E+00  0.00000000000E+00 -0.69639728416E+02  0.69639728598E+02  0.50400001928E-02 0. -1.
    10030    2    1    2    0    0  0.00000000000E+00  0.00000000000E+00  0.83522408669E+03  0.97450354372E+03  0.50205366420E+03 0.  0.
        3    1    3    3  502    0  0.23645706732E+03 -0.39086190923E+02  0.56253839247E+03  0.61146473996E+03  0.10100000352E+00 0.  1.
       -3    1    3    3    0  502 -0.23645706732E+03  0.39086190923E+02  0.27268569422E+03  0.36303880376E+03  0.10100000352E+00 0. -1.
</event>
<event>
 5   0  0.1439814E-01  0.5127040E+03  0.7818609E-02  0.1010515E+00
        1   -1    0    0  501    0  0.00000000000E+00  0.00000000000E+00  0.54948155627E+03  0.54948155629E+03  0.50400001928E-02 0. -1.
       -1   -1    0    0    0  501  0.00000000000E+00  0.00000000000E+00 -0.11959699502E+03  0.11959699513E+03  0.50400001928E-02 0.  1.
    10030    2    1    2    0    0  0.00000000000E+00  0.00000000000E+00  0.42988456125E+03  0.66907855142E+03  0.51270398085E+03 0.  0.
        4    1    3    3  502    0  0.10844003903E+03  0.20120808324E+03  0.63479112615E+02  0.23722382988E+03  0.12699999809E+01 0.  1.
       -4    1    3    3    0  502 -0.10844003903E+03 -0.20120808324E+03  0.36640544863E+03  0.43185472154E+03  0.12699999809E+01 0. -1.
</event>
<event>
 5   0  0.2466034E-01  0.5055549E+03  0.7818609E-02  0.1012339E+00
       -2   -1    0    0    0  501  0.00000000000E+00  0.00000000000E+00  0.77708764064E+02  0.77708764105E+02  0.25500000920E-02 0. -1.
        2   -1    0    0  501    0  0.00000000000E+00  0.00000000000E+00 -0.82225511519E+03  0.82225511519E+03  0.25500000920E-02 0.  1.
    10030    2    1    2    0    0  0.00000000000E+00  0.00000000000E+00 -0.74454635112E+03  0.89996387930E+03  0.50555485861E+03 0.  0.
        3    1    3    3  502    0  0.16819396810E+03 -0.11663369630E+03 -0.63633494064E+03  0.66844206698E+03  0.10100000352E+00 0.  1.
       -3    1    3    3    0  502 -0.16819396810E+03  0.11663369630E+03 -0.10821141048E+03  0.23152181232E+03  0.10100000352E+00 0. -1.
</event>
<event>
 5   0  0.2488968E-01  0.4985765E+03  0.7818609E-02  0.1014151E+00
       -2   -1    0    0    0  501  0.00000000000E+00  0.00000000000E+00  0.43645039024E+02  0.43645039098E+02  0.25500000920E-02 0. -1.
        2   -1    0    0  501    0  0.00000000000E+00  0.00000000000E+00 -0.14238646004E+04  0.14238646004E+04  0.25500000920E-02 0.  1.
    10030    2    1    2    0    0  0.00000000000E+00  0.00000000000E+00 -0.13802195613E+04  0.14675096395E+04  0.49857647800E+03 0.  0.
        2    1    3    3  502    0 -0.20475646151E+03  0.12235105912E+03 -0.90337192357E+03  0.93433175184E+03  0.25500000920E-02 0.  1.
       -2    1    3    3    0  502  0.20475646151E+03 -0.12235105912E+03 -0.47684763776E+03  0.53317788761E+03  0.25500000920E-02 0. -1.
</event>
<event>
 5   0  0.2413301E-01  0.4682976E+03  0.7818609E-02  0.1022402E+00
       -2   -1    0    0    0  501  0.00000000000E+00  0.00000000000E+00  0.57477370285E+02  0.57477370342E+02  0.25500000920E-02 0.  1.
        2   -1    0    0  501    0  0.00000000000E+00  0.00000000000E+00 -0.95386509421E+03  0.95386509422E+03  0.25500000920E-02 0. -1.
    10030    2    1    2    0    0  0.00000000000E+00  0.00000000000E+00 -0.89638772393E+03  0.10113424646E+04  0.46829758595E+03 0.  0.
        4    1    3    3  502    0 -0.58575281536E+02  0.76480126275E+02 -0.90907699826E+03  0.91416785931E+03  0.12699999809E+01 0. -1.
       -4    1    3    3    0  502  0.58575281536E+02 -0.76480126275E+02  0.12689274335E+02  0.97174605249E+02  0.12699999809E+01 0.  1.
</event>
<event>
 5   0  0.1453602E-01  0.4529543E+03  0.7818609E-02  0.1026845E+00
        1   -1    0    0  501    0  0.00000000000E+00  0.00000000000E+00  0.88777950562E+03  0.88777950563E+03  0.50400001928E-02 0. -1.
       -1   -1    0    0    0  501  0.00000000000E+00  0.00000000000E+00 -0.57775503105E+02  0.57775503325E+02  0.50400001928E-02 0.  1.
    10030    2    1    2    0    0  0.00000000000E+00  0.00000000000E+00  0.83000400252E+03  0.94555500896E+03  0.45295433630E+03 0.  0.
        2    1    3    3  502    0 -0.16917020226E+03 -0.12431251413E+03  0.23762658274E+03  0.31707814705E+03  0.25500000920E-02 0.  1.
       -2    1    3    3    0  502  0.16917020226E+03  0.12431251413E+03  0.59237741977E+03  0.62847686191E+03  0.25500000920E-02 0. -1.
</event>
<event>
 5   0  0.1448458E-01  0.5082065E+03  0.7818609E-02  0.1011659E+00
       -1   -1    0    0    0  501  0.00000000000E+00  0.00000000000E+00  0.16014849343E+04  0.16014849343E+04  0.50400001928E-02 0. -1.
        1   -1    0    0  501    0  0.00000000000E+00  0.00000000000E+00 -0.40317867354E+02  0.40317867669E+02  0.50400001928E-02 0.  1.
    10030    2    1    2    0    0  0.00000000000E+00  0.00000000000E+00  0.15611670669E+04  0.16418028019E+04  0.50820648329E+03 0.  0.
        5    1    3    3  502    0 -0.17761135021E+03 -0.18161044522E+03  0.79437395004E+03  0.83401451309E+03  0.46999998093E+01 0.  1.
       -5    1    3    3    0  502  0.17761135021E+03  0.18161044522E+03  0.76679311687E+03  0.80778828886E+03  0.46999998093E+01 0. -1.
</event>
<event>
 5   0  0.2466034E-01  0.4860154E+03  0.7818609E-02  0.1017495E+00
       -2   -1    0    0    0  501  0.00000000000E+00  0.00000000000E+00  0.29612611726E+03  0.29612611727E+03  0.25500000920E-02 0.  1.
        2   -1    0    0  501    0  0.00000000000E+00  0.00000000000E+00 -0.19941756025E+03  0.19941756026E+03  0.25500000920E-02 0. -1.
    10030    2    1    2    0    0  0.00000000000E+00  0.00000000000E+00  0.96708557013E+02  0.49554367753E+03  0.48601542295E+03 0.  0.
        3    1    3    3  502    0  0.20265091733E+03  0.13250036355E+03  0.27235975551E+02  0.24365046522E+03  0.10100000352E+00 0.  1.
       -3    1    3    3    0  502 -0.20265091733E+03 -0.13250036355E+03  0.69472581462E+02  0.25189321232E+03  0.10100000352E+00 0. -1.
</event>
<event>
 5   0  0.2488968E-01  0.4845508E+03  0.7818609E-02  0.1017892E+00
       -2   -1    0    0    0  501  0.00000000000E+00  0.00000000000E+00  0.10255378305E+03  0.10255378309E+03  0.25500000920E-02 0. -1.
        2   -1    0    0  501    0  0.00000000000E+00  0.00000000000E+00 -0.57235689343E+03  0.57235689343E+03  0.25500000920E-02 0.  1.
    10030    2    1    2    0    0  0.00000000000E+00  0.00000000000E+00 -0.46980311037E+03  0.67491067652E+03  0.48455078037E+03 0.  0.
        2    1    3    3  502    0 -0.56450188293E+02 -0.23079307955E+03 -0.30090152547E+03  0.38339770130E+03  0.25500000920E-02 0.  1.
       -2    1    3    3    0  502  0.56450188293E+02  0.23079307955E+03 -0.16890158490E+03  0.29151297521E+03  0.25500000920E-02 0. -1.
</event>
<event>
 5   0  0.1529146E-01  0.4963439E+03  0.7818609E-02  0.1014738E+00
        1   -1    0    0  501    0  0.00000000000E+00  0.00000000000E+00  0.89309970041E+03  0.89309970043E+03  0.50400001928E-02 0. -1.
       -1   -1    0    0    0  501  0.00000000000E+00  0.00000000000E+00 -0.68961311308E+02  0.68961311492E+02  0.50400001928E-02 0.  1.
    10030    2    1    2    0    0  0.00000000000E+00  0.00000000000E+00  0.82413838911E+03  0.96206101192E+03  0.49634393948E+03 0.  0.
        1    1    3    3  502    0 -0.12796750213E+03 -0.19288658895E+03  0.58552666433E+03  0.62962083230E+03  0.50400001928E-02 0.  1.
       -1    1    3    3    0  502  0.12796750213E+03  0.19288658895E+03  0.23861172477E+03  0.33244017962E+03  0.50400001928E-02 0. -1.
</event>
<event>
 5   0  0.1413361E-01  0.4951426E+03  0.7818609E-02  0.1015055E+00
       -1   -1    0    0    0  501  0.00000000000E+00  0.00000000000E+00  0.27115258133E+03  0.27115258138E+03  0.50400001928E-02 0.  1.
        1   -1    0    0  501    0  0.00000000000E+00  0.00000000000E+00 -0.22604083641E+03  0.22604083646E+03  0.50400001928E-02 0. -1.
    10030    2    1    2    0    0  0.00000000000E+00  0.00000000000E+00  0.45111744925E+02  0.49719341784E+03  0.49514263119E+03 0.  0.
        3    1    3    3  502    0  0.10442178882E+02  0.86440957634E+02 -0.21015920295E+03  0.22748182134E+03  0.10100000352E+00 0. -1.
       -3    1    3    3    0  502 -0.10442178882E+02 -0.86440957634E+02  0.25527094788E+03  0.26971159650E+03  0.10100000352E+00 0.  1.
</event>
<event>
 5   0  0.1439814E-01  0.5306587E+03  0.7818609E-02  0.1006073E+00
        1   -1    0    0  501    0  0.00000000000E+00  0.00000000000E+00  0.69094045009E+03  0.69094045011E+03  0.50400001928E-02 0.  1.
       -1   -1    0    0    0  501  0.00000000000E+00  0.00000000000E+00 -0.10188963102E+03  0.10188963114E+03  0.50400001928E-02 0. -1.
    10030    2    1    2    0    0  0.00000000000E+00  0.00000000000E+00  0.58905081907E+03  0.79283008125E+03  0.53065871357E+03 0.  0.
        4    1    3    3  502    0  0.18125581121E+03  0.16228645481E+03  0.45269356194E+03  0.51392960261E+03  0.12699999809E+01 0.  1.
       -4    1    3    3    0  502 -0.18125581121E+03 -0.16228645481E+03  0.13635725713E+03  0.27890047864E+03  0.12699999809E+01 0. -1.
</event>
<event>
 5   0  0.1448458E-01  0.4996296E+03  0.7818609E-02  0.1013876E+00
        1   -1    0    0  501    0  0.00000000000E+00  0.00000000000E+00  0.85790264912E+02  0.85790265060E+02  0.50400001928E-02 0.  1.
       -1   -1    0    0    0  501  0.00000000000E+00  0.00000000000E+00 -0.72744192789E+03  0.72744192791E+03  0.50400001928E-02 0. -1.
    10030    2    1    2    0    0  0.00000000000E+00  0.00000000000E+00 -0.64165166298E+03  0.81323219297E+03  0.49962960589E+03 0.  0.
        5    1    3    3  502    0  0.16562768459E+03 -0.18659743384E+03 -0.30196917969E+03  0.39173793243E+03  0.46999998093E+01 0. -1.
       -5    1    3    3    0  502 -0.16562768459E+03  0.18659743384E+03 -0.33968248328E+03  0.42149426054E+03  0.46999998093E+01 0.  1.
</event>
<event>
 5   0  0.1529146E-01  0.4985682E+03  0.7818609E-02  0.1014153E+00
        1   -1    0    0  501    0  0.00000000000E+00  0.00000000000E+00  0.67533964581E+03  0.67533964582E+03  0.50400001928E-02 0.  1.
       -1   -1    0    0    0  501  0.00000000000E+00  0.00000000000E+00 -0.92016758552E+02  0.92016758690E+02  0.50400001928E-02 0. -1.
    10030    2    1    2    0    0  0.00000000000E+00  0.00000000000E+00  0.58332288725E+03  0.76735640451E+03  0.49856821074E+03 0.  0.
        1    1    3    3  502    0 -0.24308067906E+03  0.54183516001E+02  0.30841561546E+03  0.39641425532E+03  0.50400001928E-02 0.  1.
       -1    1    3    3    0  502  0.24308067906E+03 -0.54183516001E+02  0.27490727180E+03  0.37094214919E+03  0.50400001928E-02 0. -1.
</event>
<event>
 5   0  0.2466034E-01  0.3675068E+03  0.7818609E-02  0.1055650E+00
        2   -1    0    0  501    0  0.00000000000E+00  0.00000000000E+00  0.38953750032E+03  0.38953750032E+03  0.25500000920E-02 0.  1.
       -2   -1    0    0    0  501  0.00000000000E+00  0.00000000000E+00 -0.86680498624E+02  0.86680498661E+02  0.25500000920E-02 0. -1.
    10030    2    1    2    0    0  0.00000000000E+00  0.00000000000E+00  0.30285700169E+03  0.47621799899E+03  0.36750676060E+03 0.  0.
        3    1    3    3  502    0 -0.99411019264E+02 -0.10664932758E+03  0.29635438198E+03  0.33027648985E+03  0.10100000352E+00 0.  1.
       -3    1    3    3    0  502  0.99411019264E+02  0.10664932758E+03  0.65026197089E+01  0.14594150914E+03  0.10100000352E+00 0. -1.
</event>
<event>
 5   0  0.9868500E-02  0.4897529E+03  0.7818609E-02  0.1016489E+00
        3   -1    0    0  501    0  0.00000000000E+00  0.00000000000E+00  0.43485745352E+03  0.43485746525E+03  0.10100000352E+00 0.  1.
       -3   -1    0    0    0  501  0.00000000000E+00  0.00000000000E+00 -0.13789454645E+03  0.13789458344E+03  0.10100000352E+00 0. -1.
    10030    2    1    2    0    0  0.00000000000E+00  0.00000000000E+00  0.29696290708E+03  0.57275204869E+03  0.48975293883E+03 0.  0.
        5    1    3    3  502    0  0.15563875858E+03  0.15384908678E+03  0.27685420890E+03  0.35293527404E+03  0.46999998093E+01 0.  1.
       -5    1    3    3    0  502 -0.15563875858E+03 -0.15384908678E+03  0.20108698174E+02  0.21981677465E+03  0.46999998093E+01 0. -1.
</event>
<event>
 5   0  0.1453602E-01  0.4970830E+03  0.7818609E-02  0.1014543E+00
        1   -1    0    0  501    0  0.00000000000E+00  0.00000000000E+00  0.34953623887E+03  0.34953623890E+03  0.50400001928E-02 0. -1.
       -1   -1    0    0    0  501  0.00000000000E+00  0.00000000000E+00 -0.17672810887E+03  0.17672810894E+03  0.50400001928E-02 0.  1.
    10030    2    1    2    0    0  0.00000000000E+00  0.00000000000E+00  0.17280813000E+03  0.52626434784E+03  0.49708300516E+03 0.  0.
        2    1    3    3  502    0  0.10873770385E+03 -0.14394463274E+03  0.26740529027E+03  0.32256710124E+03  0.25500000920E-02 0. -1.
       -2    1    3    3    0  502 -0.10873770385E+03  0.14394463274E+03 -0.94597160266E+02  0.20369724660E+03  0.25500000920E-02 0.  1.
</event>
<event>
 5   0  0.9868500E-02  0.4998606E+03  0.7818609E-02  0.1013815E+00
       -3   -1    0    0    0  501  0.00000000000E+00  0.00000000000E+00  0.34835611610E+03  0.34835613075E+03  0.10100000352E+00 0.  1.
        3   -1    0    0  501    0  0.00000000000E+00  0.00000000000E+00 -0.17931401282E+03  0.17931404127E+03  0.10100000352E+00 0. -1.
    10030    2    1    2    0    0  0.00000000000E+00  0.00000000000E+00  0.16904210328E+03  0.52767017201E+03  0.49986055831E+03 0.  0.
        3    1    3    3  502    0  0.25561167980E+01  0.22209453680E+03 -0.36452190008E+02  0.22508062860E+03  0.10100000352E+00 0. -1.
       -3    1    3    3    0  502 -0.25561167980E+01 -0.22209453680E+03  0.20549429329E+03  0.30258954342E+03  0.10100000352E+00 0.  1.
</event>
<event>
 5   0  0.2511944E-01  0.5023343E+03  0.7818609E-02  0.1013171E+00
        2   -1    0    0  501    0  0.00000000000E+00  0.00000000000E+00  0.11322242759E+04  0.11322242759E+04  0.25500000920E-02 0. -1.
       -2   -1    0    0    0  501  0.00000000000E+00  0.00000000000E+00 -0.55717703105E+02  0.55717703163E+02  0.25500000920E-02 0.  1.
    10030    2    1    2    0    0  0.00000000000E+00  0.00000000000E+00  0.10765065728E+04  0.11879419791E+04  0.50233429542E+03 0.  0.
        1    1    3    3  502    0 -0.15343899743E+03  0.25370699155E+02  0.71846810111E+02  0.17131597257E+03  0.50400001928E-02 0.  1.
       -1    1    3    3    0  502  0.15343899743E+03 -0.25370699155E+02  0.10046597627E+04  0.10166260065E+04  0.50400001928E-02 0. -1.
</event>
<event>
 5   0  0.1453602E-01  0.4862536E+03  0.7818609E-02  0.1017431E+00
        1   -1    0    0  501    0  0.00000000000E+00  0.00000000000E+00  0.22773777399E+03  0.22773777404E+03  0.50400001928E-02 0. -1.
       -1   -1    0    0    0  501  0.00000000000E+00  0.00000000000E+00 -0.25955569723E+03  0.25955569728E+03  0.50400001928E-02 0.  1.
    10030    2    1    2    0    0  0.00000000000E+00  0.00000000000E+00 -0.31817923248E+02  0.48729347132E+03  0.48625358297E+03 0.  0.
        2    1    3    3  502    0 -0.20384856115E+03  0.11027478767E+03  0.57704730402E+02  0.23884011513E+03  0.25500000920E-02 0. -1.
       -2    1    3    3    0  502  0.20384856115E+03 -0.11027478767E+03 -0.89522653650E+02  0.24845335619E+03  0.25500000920E-02 0.  1.
</event>
<event>
 5   0  0.1413361E-01  0.4992219E+03  0.7818609E-02  0.1013982E+00
        1   -1    0    0  501    0  0.00000000000E+00  0.00000000000E+00  0.89038818435E+03  0.89038818437E+03  0.50400001928E-02 0. -1.
       -1   -1    0    0    0  501  0.00000000000E+00  0.00000000000E+00 -0.69975797255E+02  0.69975797437E+02  0.50400001928E-02 0.  1.
    10030    2    1    2    0    0  0.00000000000E+00  0.00000000000E+00  0.82041238710E+03  0.96036398181E+03  0.49922188718E+03 0.  0.
        3    1    3    3  502    0 -0.27534249284E+02  0.12026275733E+03  0.82763318044E+03  0.83677832025E+03  0.10100000352E+00 0. -1.
       -3    1    3    3    0  502  0.27534249284E+02 -0.12026275733E+03 -0.72207933372E+01  0.12358566155E+03  0.10100000352E+00 0.  1.
</event>
<event>
 5   0  0.2511944E-01  0.4826331E+03  0.7818609E-02  0.1018414E+00
        2   -1    0    0  501    0  0.00000000000E+00  0.00000000000E+00  0.41758670196E+03  0.41758670197E+03  0.25500000920E-02 0.  1.
       -2   -1    0    0    0  501  0.00000000000E+00  0.00000000000E+00 -0.13945290585E+03  0.13945290588E+03  0.25500000920E-02 0. -1.
    10030    2    1    2    0    0  0.00000000000E+00  0.00000000000E+00  0.27813379611E+03  0.55703960784E+03  0.48263310720E+03 0.  0.
        1    1    3    3  502    0  0.39096205701E+02 -0.23515523717E+03  0.18236250339E+03  0.30013760434E+03  0.50400001928E-02 0.  1.
       -1    1    3    3    0  502 -0.39096205701E+02  0.23515523717E+03  0.95771292713E+02  0.25690200350E+03  0.50400001928E-02 0. -1.
</event>
<event>
 5   0  0.1439814E-01  0.5760155E+03  0.7818609E-02  0.9956455E-01
       -1   -1    0    0    0  501  0.00000000000E+00  0.00000000000E+00  0.22708293496E+03  0.22708293502E+03  0.50400001928E-02 0. -1.
        1   -1    0    0  501    0  0.00000000000E+00  0.00000000000E+00 -0.36527825498E+03  0.36527825501E+03  0.50400001928E-02 0.  1.
    10030    2    1    2    0    0  0.00000000000E+00  0.00000000000E+00 -0.13819532002E+03  0.59236119003E+03  0.57601547981E+03 0.  0.
        4    1    3    3  502    0  0.30503252548E+02 -0.24253256415E+03 -0.22571634255E+03  0.33271906060E+03  0.12699999809E+01 0. -1.
       -4    1    3    3    0  502 -0.30503252548E+02  0.24253256415E+03  0.87521022532E+02  0.25964212943E+03  0.12699999809E+01 0.  1.
</event>
<event>
 5   0  0.2488968E-01  0.4964252E+03  0.7818609E-02  0.1014716E+00
       -2   -1    0    0    0  501  0.00000000000E+00  0.00000000000E+00  0.38711611478E+03  0.38711611479E+03  0.25500000920E-02 0.  1.
        2   -1    0    0  501    0  0.00000000000E+00  0.00000000000E+00 -0.15914991021E+03  0.15914991023E+03  0.25500000920E-02 0. -1.
    10030    2    1    2    0    0  0.00000000000E+00  0.00000000000E+00  0.22796620457E+03  0.54626602502E+03  0.49642520047E+03 0.  0.
        2    1    3    3  502    0 -0.25712318033E+01 -0.11375966770E+03  0.35672439452E+03  0.37443312738E+03  0.25500000920E-02 0.  1.
       -2    1    3    3    0  502  0.25712318033E+01  0.11375966770E+03 -0.12875818994E+03  0.17183289764E+03  0.25500000920E-02 0. -1.
</event>
<event>
 5   0  0.1413361E-01  0.4936200E+03  0.7818609E-02  0.1015458E+00
       -1   -1    0    0    0  501  0.00000000000E+00  0.00000000000E+00  0.13745997470E+03  0.13745997479E+03  0.50400001928E-02 0.  1.
        1   -1    0    0  501    0  0.00000000000E+00  0.00000000000E+00 -0.44314841341E+03  0.44314841344E+03  0.50400001928E-02 0. -1.
    10030    2    1    2    0    0  0.00000000000E+00  0.00000000000E+00 -0.30568843871E+03  0.58060838823E+03  0.49361997419E+03 0.  0.
        3    1    3    3  502    0 -0.20487782437E+03  0.19137866529E+02  0.74592982009E+01  0.20590491054E+03  0.10100000352E+00 0.  1.
       -3    1    3    3    0  502  0.20487782437E+03 -0.19137866529E+02 -0.31314773692E+03  0.37470347769E+03  0.10100000352E+00 0. -1.
</event>
<event>
 5   0  0.2466034E-01  0.4769235E+03  0.7818609E-02  0.1019984E+00
       -2   -1    0    0    0  501  0.00000000000E+00  0.00000000000E+00  0.41551373426E+02  0.41551373505E+02  0.25500000920E-02 0. -1.
        2   -1    0    0  501    0  0.00000000000E+00  0.00000000000E+00 -0.13685226478E+04  0.13685226478E+04  0.25500000920E-02 0.  1.
    10030    2    1    2    0    0  0.00000000000E+00  0.00000000000E+00 -0.13269712743E+04  0.14100740213E+04  0.47692345565E+03 0.  0.
        3    1    3    3  502    0  0.71524477975E+02  0.17392617618E+02 -0.13340923586E+04  0.13361215085E+04  0.10100000352E+00 0.  1.
       -3    1    3    3    0  502 -0.71524477975E+02 -0.17392617618E+02  0.71210842647E+01  0.73952512732E+02  0.10100000352E+00 0. -1.
</event>
<event>
 5   0  0.1453602E-01  0.5001072E+03  0.7818609E-02  0.1013751E+00
       -1   -1    0    0    0  501  0.00000000000E+00  0.00000000000E+00  0.22282353945E+03  0.22282353951E+03  0.50400001928E-02 0.  1.
        1   -1    0    0  501    0  0.00000000000E+00  0.00000000000E+00 -0.28061135054E+03  0.28061135059E+03  0.50400001928E-02 0. -1.
    10030    2    1    2    0    0  0.00000000000E+00  0.00000000000E+00 -0.57787811095E+02  0.50343489010E+03  0.50010724595E+03 0.  0.
        2    1    3    3  502    0  0.20207495577E+03 -0.16574859268E+02 -0.17621590336E+03  0.26862810410E+03  0.25500000920E-02 0. -1.
       -2    1    3    3    0  502 -0.20207495577E+03  0.16574859268E+02  0.11842809226E+03  0.23480678600E+03  0.25500000920E-02 0.  1.
</event>
<event>
 5   0  0.2488968E-01  0.5010608E+03  0.7818609E-02  0.1013502E+00
       -2   -1    0    0    0  501  0.00000000000E+00  0.00000000000E+00  0.35838674918E+03  0.35838674919E+03  0.25500000920E-02 0.  1.
        2   -1    0    0  501    0  0.00000000000E+00  0.00000000000E+00 -0.17513335092E+03  0.17513335094E+03  0.25500000920E-02 0. -1.
    10030    2    1    2    0    0  0.00000000000E+00  0.00000000000E+00  0.18325339825E+03  0.53352010013E+03  0.50106076405E+03 0.  0.
        2    1    3    3  502    0  0.14574304093E+03 -0.16652510694E+03  0.21668219380E+03  0.30971409128E+03  0.25500000920E-02 0.  1.
       -2    1    3    3    0  502 -0.14574304093E+03  0.16652510694E+03 -0.33428795543E+02  0.22380600885E+03  0.25500000920E-02 0. -1.
</event>
<event>
 5   0  0.2511944E-01  0.4955581E+03  0.7818609E-02  0.1014945E+00
       -2   -1    0    0    0  501  0.00000000000E+00  0.00000000000E+00  0.90234779206E+02  0.90234779243E+02  0.25500000920E-02 0.  1.
        2   -1    0    0  501    0  0.00000000000E+00  0.00000000000E+00 -0.68038587218E+03  0.68038587219E+03  0.25500000920E-02 0. -1.
    10030    2    1    2    0    0  0.00000000000E+00  0.00000000000E+00 -0.59015109298E+03  0.77062065143E+03  0.49555814580E+03 0.  0.
        1    1    3    3  502    0 -0.15662209727E+02 -0.14199353929E+03  0.19749360799E+02  0.14421340885E+03  0.50400001928E-02 0.  1.
       -1    1    3    3    0  502  0.15662209727E+02  0.14199353929E+03 -0.60990045378E+03  0.62640724258E+03  0.50400001928E-02 0. -1.
</event>
<event>
 5   0  0.1529146E-01  0.4929727E+03  0.7818609E-02  0.1015630E+00
        1   -1    0    0  501    0  0.00000000000E+00  0.00000000000E+00  0.42512929787E+03  0.42512929790E+03  0.50400001928E-02 0. -1.
       -1   -1    0    0    0  501  0.00000000000E+00  0.00000000000E+00 -0.14291067644E+03  0.14291067653E+03  0.50400001928E-02 0.  1.
    10030    2    1    2    0    0  0.00000000000E+00  0.00000000000E+00  0.28221862143E+03  0.56803997443E+03  0.49297267903E+03 0.  0.
        1    1    3    3  502    0  0.26434992356E+02  0.20179753387E+03 -0.19112669404E+02  0.20441709237E+03  0.50400001928E-02 0.  1.
       -1    1    3    3    0  502 -0.26434992356E+02 -0.20179753387E+03  0.30133129083E+03  0.36362288206E+03  0.50400001928E-02 0. -1.
</event>
<event>
 5   0  0.1453602E-01  0.5115506E+03  0.7818609E-02  0.1010807E+00
       -1   -1    0    0    0  501  0.00000000000E+00  0.00000000000E+00  0.76610502738E+02  0.76610502903E+02  0.50400001928E-02 0. -1.
        1   -1    0    0  501    0  0.00000000000E+00  0.00000000000E+00 -0.85394294388E+03  0.85394294389E+03  0.50400001928E-02 0.  1.
    10030    2    1    2    0    0  0.00000000000E+00  0.00000000000E+00 -0.77733244114E+03  0.93055344680E+03  0.51155057746E+03 0.  0.
        2    1    3    3  502    0 -0.25007188312E+03  0.88338755141E+01 -0.29228885514E+03  0.38476844846E+03  0.25500000920E-02 0. -1.
       -2    1    3    3    0  502  0.25007188312E+03 -0.88338755141E+01 -0.48504358600E+03  0.54578499834E+03  0.25500000920E-02 0.  1.
</event>
<event>
 5   0  0.2488968E-01  0.5021470E+03  0.7818609E-02  0.1013220E+00
        2   -1    0    0  501    0  0.00000000000E+00  0.00000000000E+00  0.65508072213E+03  0.65508072213E+03  0.25500000920E-02 0. -1.
       -2   -1    0    0    0  501  0.00000000000E+00  0.00000000000E+00 -0.96229213438E+02  0.96229213472E+02  0.25500000920E-02 0.  1.
    10030    2    1    2    0    0  0.00000000000E+00  0.00000000000E+00  0.55885150869E+03  0.75130993560E+03  0.50214700096E+03 0.  0.
        2    1    3    3  502    0 -0.18167314348E+03  0.34965767603E+02  0.53338331347E+03  0.56455778718E+03  0.25500000920E-02 0. -1.
       -2    1    3    3    0  502  0.18167314348E+03 -0.34965767603E+02  0.25468195214E+02  0.18675214842E+03  0.25500000920E-02 0.  1.
</event>
<event>
 5   0  0.2413301E-01  0.5060269E+03  0.7818609E-02  0.1012218E+00
       -2   -1    0    0    0  501  0.00000000000E+00  0.00000000000E+00  0.44201197446E+02  0.44201197519E+02  0.25500000920E-02 0. -1.
        2   -1    0    0  501    0  0.00000000000E+00  0.00000000000E+00 -0.14482820318E+04  0.14482820318E+04  0.25500000920E-02 0.  1.
    10030    2    1    2    0    0  0.00000000000E+00  0.00000000000E+00 -0.14040808343E+04  0.14924832293E+04  0.50602687715E+03 0.  0.
        4    1    3    3  502    0 -0.24138259126E+03  0.60491830396E+02 -0.83685708312E+03  0.87307285342E+03  0.12699999809E+01 0.  1.
       -4    1    3    3    0  502  0.24138259126E+03 -0.60491830396E+02 -0.56722375119E+03  0.61941037586E+03  0.12699999809E+01 0. -1.
</event>
<event>
 5   0  0.2466034E-01  0.5096341E+03  0.7818609E-02  0.1011294E+00
       -2   -1    0    0    0  501  0.00000000000E+00  0.00000000000E+00  0.67399027011E+02  0.67399027060E+02  0.25500000920E-02 0.  1.
        2   -1    0    0  501    0  0.00000000000E+00  0.00000000000E+00 -0.96339265369E+03  0.96339265369E+03  0.25500000920E-02 0. -1.
    10030    2    1    2    0    0  0.00000000000E+00  0.00000000000E+00 -0.89599362668E+03  0.10307916808E+04  0.50963409429E+03 0.  0.
        3    1    3    3  502    0 -0.17789213605E+03  0.16136538331E+03 -0.27580952021E+03  0.36572571777E+03  0.10100000352E+00 0.  1.
       -3    1    3    3    0  502  0.17789213605E+03 -0.16136538331E+03 -0.62018410647E+03  0.66506596298E+03  0.10100000352E+00 0. -1.
</event>
<event>
 5   0  0.2504064E-01  0.5103910E+03  0.7818609E-02  0.1011102E+00
        2   -1    0    0  501    0  0.00000000000E+00  0.00000000000E+00  0.11475879992E+04  0.11475879992E+04  0.25500000920E-02 0. -1.
       -2   -1    0    0    0  501  0.00000000000E+00  0.00000000000E+00 -0.56749228311E+02  0.56749228368E+02  0.25500000920E-02 0.  1.
    10030    2    1    2    0    0  0.00000000000E+00  0.00000000000E+00  0.10908387708E+04  0.12043372275E+04  0.51039096155E+03 0.  0.
        5    1    3    3  502    0 -0.25189205390E+03 -0.42855799467E+01  0.64082199071E+03  0.68858034157E+03  0.46999998093E+01 0.  1.
       -5    1    3    3    0  502  0.25189205390E+03  0.42855799467E+01  0.45001678013E+03  0.51575688596E+03  0.46999998093E+01 0. -1.
</event>
<event>
 5   0  0.1439814E-01  0.5602311E+03  0.7818609E-02  0.9991532E-01
        1   -1    0    0  501    0  0.00000000000E+00  0.00000000000E+00  0.16504906389E+04  0.16504906389E+04  0.50400001928E-02 0.  1.
       -1   -1    0    0    0  501  0.00000000000E+00  0.00000000000E+00 -0.47540231833E+02  0.47540232100E+02  0.50400001928E-02 0. -1.
    10030    2    1    2    0    0  0.00000000000E+00  0.00000000000E+00  0.16029504070E+04  0.16980308710E+04  0.56023105178E+03 0.  0.
        4    1    3    3  502    0  0.59934711976E+02  0.10045391759E+03  0.30041407300E+02  0.12077772275E+03  0.12699999809E+01 0. -1.
       -4    1    3    3    0  502 -0.59934711976E+02 -0.10045391759E+03  0.15729089997E+04  0.15772531482E+04  0.12699999809E+01 0.  1.
</event>
<event>
 5   0  0.1413361E-01  0.4980674E+03  0.7818609E-02  0.1014285E+00
       -1   -1    0    0    0  501  0.00000000000E+00  0.00000000000E+00  0.20229450813E+03  0.20229450819E+03  0.50400001928E-02 0.  1.
        1   -1    0    0  501    0  0.00000000000E+00  0.00000000000E+00 -0.30657180789E+03  0.30657180793E+03  0.50400001928E-02 0. -1.
    10030    2    1    2    0    0  0.00000000000E+00  0.00000000000E+00 -0.10427729976E+03  0.50886631613E+03  0.49806743765E+03 0.  0.
        3    1    3    3  502    0 -0.17096106312E+03 -0.14650881688E+03 -0.16086623171E+03  0.27671370265E+03  0.10100000352E+00 0. -1.
       -3    1    3    3    0  502  0.17096106312E+03  0.14650881688E+03  0.56588931942E+02  0.23215261348E+03  0.10100000352E+00 0.  1.
</event>
<event>
 5   0  0.1439814E-01  0.4948973E+03  0.7818609E-02  0.1015119E+00
        1   -1    0    0  501    0  0.00000000000E+00  0.00000000000E+00  0.35270023261E+03  0.35270023265E+03  0.50400001928E-02 0.  1.
       -1   -1    0    0    0  501  0.00000000000E+00  0.00000000000E+00 -0.17360588496E+03  0.17360588503E+03  0.50400001928E-02 0. -1.
    10030    2    1    2    0    0  0.00000000000E+00  0.00000000000E+00  0.17909434765E+03  0.52630611768E+03  0.49489730666E+03 0.  0.
        4    1    3    3  502    0 -0.13999904642E+03  0.19786721307E+03  0.14248655952E+03  0.28116756490E+03  0.12699999809E+01 0.  1.
       -4    1    3    3    0  502  0.13999904642E+03 -0.19786721307E+03  0.36607788134E+02  0.24513855278E+03  0.12699999809E+01 0. -1.
</event>
<event>
 5   0  0.2413301E-01  0.5415207E+03  0.7818609E-02  0.1003476E+00
       -2   -1    0    0    0  501  0.00000000000E+00  0.00000000000E+00  0.83426907387E+02  0.83426907426E+02  0.25500000920E-02 0. -1.
        2   -1    0    0  501    0  0.00000000000E+00  0.00000000000E+00 -0.87874711048E+03  0.87874711049E+03  0.25500000920E-02 0.  1.
    10030    2    1    2    0    0  0.00000000000E+00  0.00000000000E+00 -0.79532020310E+03  0.96217401791E+03  0.54152065085E+03 0.  0.
        4    1    3    3  502    0 -0.20053942247E+03  0.17866672947E+03 -0.33684054524E+03  0.43081437534E+03  0.12699999809E+01 0.  1.
       -4    1    3    3    0  502  0.20053942247E+03 -0.17866672947E+03 -0.45847965786E+03  0.53135964257E+03  0.12699999809E+01 0. -1.
</event>
<event>
 5   0  0.2413301E-01  0.4939399E+03  0.7818609E-02  0.1015373E+00
       -2   -1    0    0    0  501  0.00000000000E+00  0.00000000000E+00  0.11404714830E+03  0.11404714833E+03  0.25500000920E-02 0. -1.
        2   -1    0    0  501    0  0.00000000000E+00  0.00000000000E+00 -0.53481529397E+03  0.53481529397E+03  0.25500000920E-02 0.  1.
    10030    2    1    2    0    0  0.00000000000E+00  0.00000000000E+00 -0.42076814567E+03  0.64886244230E+03  0.49393991195E+03 0.  0.
        4    1    3    3  502    0 -0.11233122291E+03 -0.15646885568E+03 -0.73343480383E+01  0.19275946669E+03  0.12699999809E+01 0. -1.
       -4    1    3    3    0  502  0.11233122291E+03  0.15646885568E+03 -0.41343379763E+03  0.45610297561E+03  0.12699999809E+01 0.  1.
</event>
<event>
 5   0  0.1448458E-01  0.4986671E+03  0.7818609E-02  0.1014127E+00
       -1   -1    0    0    0  501  0.00000000000E+00  0.00000000000E+00  0.31239230149E+03  0.31239230153E+03  0.50400001928E-02 0.  1.
        1   -1    0    0  501    0  0.00000000000E+00  0.00000000000E+00 -0.19900371192E+03  0.19900371199E+03  0.50400001928E-02 0. -1.
    10030    2    1    2    0    0  0.00000000000E+00  0.00000000000E+00  0.11338858956E+03  0.51139601351E+03  0.49866713386E+03 0.  0.
        5    1    3    3  502    0  0.22583177733E+03  0.60040505073E+02 -0.32357040449E+02  0.23595321987E+03  0.46999998093E+01 0. -1.
       -5    1    3    3    0  502 -0.22583177733E+03 -0.60040505073E+02  0.14574563001E+03  0.27544279364E+03  0.46999998093E+01 0.  1.
</event>
<event>
 5   0  0.2488968E-01  0.4889324E+03  0.7818609E-02  0.1016709E+00
        2   -1    0    0  501    0  0.00000000000E+00  0.00000000000E+00  0.34312984279E+03  0.34312984280E+03  0.25500000920E-02 0. -1.
       -2   -1    0    0    0  501  0.00000000000E+00  0.00000000000E+00 -0.17417234839E+03  0.17417234841E+03  0.25500000920E-02 0.  1.
    10030    2    1    2    0    0  0.00000000000E+00  0.00000000000E+00  0.16895749440E+03  0.51730219122E+03  0.48893243104E+03 0.  0.
        2    1    3    3  502    0 -0.12363167279E+03  0.85752073698E+02  0.28833862356E+03  0.32523433168E+03  0.25500000920E-02 0. -1.
       -2    1    3    3    0  502  0.12363167279E+03 -0.85752073698E+02 -0.11938112916E+03  0.19206785954E+03  0.25500000920E-02 0.  1.
</event>
<event>
 5   0  0.1453602E-01  0.5089986E+03  0.7818609E-02  0.1011456E+00
       -1   -1    0    0    0  501  0.00000000000E+00  0.00000000000E+00  0.16767277925E+03  0.16767277933E+03  0.50400001928E-02 0.  1.
        1   -1    0    0  501    0  0.00000000000E+00  0.00000000000E+00 -0.38628747948E+03  0.38628747951E+03  0.50400001928E-02 0. -1.
    10030    2    1    2    0    0  0.00000000000E+00  0.00000000000E+00 -0.21861470023E+03  0.55396025884E+03  0.50899860630E+03 0.  0.
        2    1    3    3  502    0  0.17504325614E+03  0.57315969533E+02 -0.30044745627E+03  0.35241160008E+03  0.25500000920E-02 0. -1.
       -2    1    3    3    0  502 -0.17504325614E+03 -0.57315969533E+02  0.81832756041E+02  0.20154865877E+03  0.25500000920E-02 0.  1.
</event>
<event>
 5   0  0.1413361E-01  0.4847169E+03  0.7818609E-02  0.1017847E+00
       -1   -1    0    0    0  501  0.00000000000E+00  0.00000000000E+00  0.38271876515E+02  0.38271876847E+02  0.50400001928E-02 0. -1.
        1   -1    0    0  501    0  0.00000000000E+00  0.00000000000E+00 -0.15347460753E+04  0.15347460753E+04  0.50400001928E-02 0.  1.
    10030    2    1    2    0    0  0.00000000000E+00  0.00000000000E+00 -0.14964741988E+04  0.15730179521E+04  0.48471687630E+03 0.  0.
        3    1    3    3  502    0 -0.82803354578E+02  0.12319843647E+03 -0.12651199620E+03  0.19503729300E+03  0.10100000352E+00 0. -1.
       -3    1    3    3    0  502  0.82803354578E+02 -0.12319843647E+03 -0.13699622026E+04  0.13779806591E+04  0.10100000352E+00 0.  1.
</event>
<event>
 5   0  0.2504064E-01  0.4959393E+03  0.7818609E-02  0.1014844E+00
       -2   -1    0    0    0  501  0.00000000000E+00  0.00000000000E+00  0.12717509627E+03  0.12717509629E+03  0.25500000920E-02 0.  1.
        2   -1    0    0  501    0  0.00000000000E+00  0.00000000000E+00 -0.48349842557E+03  0.48349842558E+03  0.25500000920E-02 0. -1.
    10030    2    1    2    0    0  0.00000000000E+00  0.00000000000E+00 -0.35632332930E+03  0.61067352187E+03  0.49593934640E+03 0.  0.
        5    1    3    3  502    0  0.15160213782E+03  0.58485294069E+02 -0.40873329571E+03  0.43987354414E+03  0.46999998093E+01 0. -1.
       -5    1    3    3    0  502 -0.15160213782E+03 -0.58485294069E+02  0.52409966413E+02  0.17079997773E+03  0.46999998093E+01 0.  1.
</event>
<event>
 5   0  0.2511944E-01  0.5004230E+03  0.7818609E-02  0.1013669E+00
       -2   -1    0    0    0  501  0.00000000000E+00  0.00000000000E+00  0.13434718276E+03  0.13434718278E+03  0.25500000920E-02 0. -1.
        2   -1    0    0  501    0  0.00000000000E+00  0.00000000000E+00 -0.46600006299E+03  0.46600006300E+03  0.25500000920E-02 0.  1.
    10030    2    1    2    0    0  0.00000000000E+00  0.00000000000E+00 -0.33165288023E+03  0.60034724578E+03  0.50042300362E+03 0.  0.
        1    1    3    3  502    0  0.48518466519E+02  0.82013565777E+02 -0.44337932232E+03  0.45350357226E+03  0.50400001928E-02 0.  1.
       -1    1    3    3    0  502 -0.48518466519E+02 -0.82013565777E+02  0.11172644209E+03  0.14684367352E+03  0.50400001928E-02 0. -1.
</event>
<event>
 5   0  0.1439814E-01  0.5016132E+03  0.7818609E-02  0.1013359E+00
       -1   -1    0    0    0  501  0.00000000000E+00  0.00000000000E+00  0.82837174557E+02  0.82837174711E+02  0.50400001928E-02 0. -1.
        1   -1    0    0  501    0  0.00000000000E+00  0.00000000000E+00 -0.75936853755E+03  0.75936853757E+03  0.50400001928E-02 0.  1.
    10030    2    1    2    0    0  0.00000000000E+00  0.00000000000E+00 -0.67653136299E+03  0.84220571228E+03  0.50161317435E+03 0.  0.
        4    1    3    3  502    0 -0.34753969104E+02 -0.12125959368E+03  0.25695244558E+02  0.12873843995E+03  0.12699999809E+01 0. -1.
       -4    1    3    3    0  502  0.34753969104E+02  0.12125959368E+03 -0.70222660755E+03  0.71346727232E+03  0.12699999809E+01 0.  1.
</event>
<event>
 5   0  0.1453602E-01  0.5192135E+03  0.7818609E-02  0.1008882E+00
        1   -1    0    0  501    0  0.00000000000E+00  0.00000000000E+00  0.19397525512E+04  0.19397525512E+04  0.50400001928E-02 0.  1.
       -1   -1    0    0    0  501  0.00000000000E+00  0.00000000000E+00 -0.34744461839E+02  0.34744462205E+02  0.50400001928E-02 0. -1.
    10030    2    1    2    0    0  0.00000000000E+00  0.00000000000E+00  0.19050080893E+04  0.19744970134E+04  0.51921347771E+03 0.  0.
        2    1    3    3  502    0 -0.15297581764E+03 -0.12405144574E+03  0.30932223459E+03  0.36670234085E+03  0.25500000920E-02 0. -1.
       -2    1    3    3    0  502  0.15297581764E+03  0.12405144574E+03  0.15956858548E+04  0.16077946725E+04  0.25500000920E-02 0.  1.
</event>
<event>
 5   0  0.1413361E-01  0.4840646E+03  0.7818609E-02  0.1018024E+00
        1   -1    0    0  501    0  0.00000000000E+00  0.00000000000E+00  0.16052848220E+04  0.16052848220E+04  0.50400001928E-02 0.  1.
       -1   -1    0    0    0  501  0.00000000000E+00  0.00000000000E+00 -0.36491742232E+02  0.36491742580E+02  0.50400001928E-02 0. -1.
    10030    2    1    2    0    0  0.00000000000E+00  0.00000000000E+00  0.15687930798E+04  0.16417765646E+04  0.48406462471E+03 0.  0.
        3    1    3    3  502    0 -0.12527137668E+03  0.97076093887E+02  0.16396655177E+03  0.22803886975E+03  0.10100000352E+00 0. -1.
       -3    1    3    3    0  502  0.12527137668E+03 -0.97076093887E+02  0.14048265280E+04  0.14137376948E+04  0.10100000352E+00 0.  1.
</event>
<event>
 5   0  0.2413301E-01  0.4980823E+03  0.7818609E-02  0.1014281E+00
        2   -1    0    0  501    0  0.00000000000E+00  0.00000000000E+00  0.78452727638E+03  0.78452727639E+03  0.25500000920E-02 0.  1.
       -2   -1    0    0    0  501  0.00000000000E+00  0.00000000000E+00 -0.79055866735E+02  0.79055866776E+02  0.25500000920E-02 0. -1.
    10030    2    1    2    0    0  0.00000000000E+00  0.00000000000E+00  0.70547140965E+03  0.86358314316E+03  0.49808225759E+03 0.  0.
        4    1    3    3  502    0  0.11951436114E+03  0.49007611074E+02  0.72189790373E+03  0.73336459198E+03  0.12699999809E+01 0.  1.
       -4    1    3    3    0  502 -0.11951436114E+03 -0.49007611074E+02 -0.16426494085E+02  0.13021855118E+03  0.12699999809E+01 0. -1.
</event>
<event>
 5   0  0.1448458E-01  0.5000116E+03  0.7818609E-02  0.1013776E+00
       -1   -1    0    0    0  501  0.00000000000E+00  0.00000000000E+00  0.10553697446E+03  0.10553697458E+03  0.50400001928E-02 0.  1.
        1   -1    0    0  501    0  0.00000000000E+00  0.00000000000E+00 -0.59223699279E+03  0.59223699281E+03  0.50400001928E-02 0. -1.
    10030    2    1    2    0    0  0.00000000000E+00  0.00000000000E+00 -0.48670001833E+03  0.69777396739E+03  0.50001160158E+03 0.  0.
        5    1    3    3  502    0  0.51295025527E+02  0.12104907765E+03 -0.54003002430E+03  0.55582243207E+03  0.46999998093E+01 0. -1.
       -5    1    3    3    0  502 -0.51295025527E+02 -0.12104907765E+03  0.53330005969E+02  0.14195153532E+03  0.46999998093E+01 0.  1.
</event>
<event>
 5   0  0.2466034E-01  0.4992273E+03  0.7818609E-02  0.1013981E+00
       -2   -1    0    0    0  501  0.00000000000E+00  0.00000000000E+00  0.75329503035E+03  0.75329503036E+03  0.25500000920E-02 0. -1.
        2   -1    0    0  501    0  0.00000000000E+00  0.00000000000E+00 -0.82712574065E+02  0.82712574105E+02  0.25500000920E-02 0.  1.
    10030    2    1    2    0    0  0.00000000000E+00  0.00000000000E+00  0.67058245629E+03  0.83600760446E+03  0.49922728695E+03 0.  0.
        3    1    3    3  502    0  0.78460652687E+02  0.21153293524E+03  0.51412680651E+03  0.56145225984E+03  0.10100000352E+00 0. -1.
       -3    1    3    3    0  502 -0.78460652687E+02 -0.21153293524E+03  0.15645564978E+03  0.27455534462E+03  0.10100000352E+00 0.  1.
</event>
<event>
 5   0  0.2466034E-01  0.4861336E+03  0.7818609E-02  0.1017463E+00
       -2   -1    0    0    0  501  0.00000000000E+00  0.00000000000E+00  0.13916548064E+03  0.13916548066E+03  0.25500000920E-02 0.  1.
        2   -1    0    0  501    0  0.00000000000E+00  0.00000000000E+00 -0.42454114115E+03  0.42454114116E+03  0.25500000920E-02 0. -1.
    10030    2    1    2    0    0  0.00000000000E+00  0.00000000000E+00 -0.28537566052E+03  0.56370662182E+03  0.48613361113E+03 0.  0.
        3    1    3    3  502    0 -0.20240976713E+03  0.46265660892E+02  0.38557367706E+01  0.20766584244E+03  0.10100000352E+00 0.  1.
       -3    1    3    3    0  502  0.20240976713E+03 -0.46265660892E+02 -0.28923139729E+03  0.35604077939E+03  0.10100000352E+00 0. -1.
</event>
<event>
 5   0  0.1448458E-01  0.5049971E+03  0.7818609E-02  0.1012483E+00
        1   -1    0    0  501    0  0.00000000000E+00  0.00000000000E+00  0.60045681842E+02  0.60045682054E+02  0.50400001928E-02 0.  1.
       -1   -1    0    0    0  501  0.00000000000E+00  0.00000000000E+00 -0.10617833678E+04  0.10617833678E+04  0.50400001928E-02 0. -1.
    10030    2    1    2    0    0  0.00000000000E+00  0.00000000000E+00 -0.10017376860E+04  0.11218290499E+04  0.50499705510E+03 0.  0.
        5    1    3    3  502    0  0.35413664194E+02 -0.20185439436E+03 -0.17337089001E+03  0.26847510059E+03  0.46999998093E+01 0.  1.
       -5    1    3    3    0  502 -0.35413664194E+02  0.20185439436E+03 -0.82836679595E+03  0.85335394929E+03  0.46999998093E+01 0. -1.
</event>
<event>
 5   0  0.9868500E-02  0.4972424E+03  0.7818609E-02  0.1014501E+00
       -3   -1    0    0    0  501  0.00000000000E+00  0.00000000000E+00  0.18111910545E+03  0.18111913361E+03  0.10100000352E+00 0.  1.
        3   -1    0    0  501    0  0.00000000000E+00  0.00000000000E+00 -0.34128084784E+03  0.34128086279E+03  0.10100000352E+00 0. -1.
    10030    2    1    2    0    0  0.00000000000E+00  0.00000000000E+00 -0.16016174239E+03  0.52239999640E+03  0.49724236798E+03 0.  0.
        4    1    3    3  502    0  0.17815339635E+03 -0.30201749343E+02 -0.25948381216E+03  0.31620284623E+03  0.12699999809E+01 0. -1.
       -4    1    3    3    0  502 -0.17815339635E+03  0.30201749343E+02  0.99322069768E+02  0.20619715017E+03  0.12699999809E+01 0.  1.
</event>
<event>
 5   0  0.9868500E-02  0.5271891E+03  0.7818609E-02  0.1006916E+00
       -3   -1    0    0    0  501  0.00000000000E+00  0.00000000000E+00  0.22410840970E+03  0.22410843246E+03  0.10100000352E+00 0.  1.
        3   -1    0    0  501    0  0.00000000000E+00  0.00000000000E+00 -0.31003773542E+03  0.31003775187E+03  0.10100000352E+00 0. -1.
    10030    2    1    2    0    0  0.00000000000E+00  0.00000000000E+00 -0.85929325721E+02  0.53414618433E+03  0.52718905263E+03 0.  0.
        4    1    3    3  502    0  0.12968068146E+03 -0.32827763967E+02 -0.27308685160E+03  0.30409337817E+03  0.12699999809E+01 0. -1.
       -4    1    3    3    0  502 -0.12968068146E+03  0.32827763967E+02  0.18715752587E+03  0.23005280616E+03  0.12699999809E+01 0.  1.
</event>
<event>
 5   0  0.1448458E-01  0.5077108E+03  0.7818609E-02  0.1011786E+00
        1   -1    0    0  501    0  0.00000000000E+00  0.00000000000E+00  0.30393542774E+03  0.30393542778E+03  0.50400001928E-02 0.  1.
       -1   -1    0    0    0  501  0.00000000000E+00  0.00000000000E+00 -0.21202712067E+03  0.21202712073E+03  0.50400001928E-02 0. -1.
    10030    2    1    2    0    0  0.00000000000E+00  0.00000000000E+00  0.91908307070E+02  0.51596254851E+03  0.50771075876E+03 0.  0.
        5    1    3    3  502    0 -0.25095797437E+03 -0.35995851420E+02  0.33722865573E+02  0.25580251734E+03  0.46999998093E+01 0.  1.
       -5    1    3    3    0  502  0.25095797437E+03  0.35995851420E+02  0.58185441496E+02  0.26016003117E+03  0.46999998093E+01 0. -1.
</event>
<event>
 5   0  0.2466034E-01  0.4834071E+03  0.7818609E-02  0.1018203E+00
        2   -1    0    0  501    0  0.00000000000E+00  0.00000000000E+00  0.12670547771E+04  0.12670547771E+04  0.25500000920E-02 0.  1.
       -2   -1    0    0    0  501  0.00000000000E+00  0.00000000000E+00 -0.46107406167E+02  0.46107406238E+02  0.25500000920E-02 0. -1.
    10030    2    1    2    0    0  0.00000000000E+00  0.00000000000E+00  0.12209473710E+04  0.13131621834E+04  0.48340711328E+03 0.  0.
        3    1    3    3  502    0 -0.13780720396E+03  0.67432133488E+02  0.11178267160E+04  0.11283060291E+04  0.10100000352E+00 0.  1.
       -3    1    3    3    0  502  0.13780720396E+03 -0.67432133488E+02  0.10312065495E+03  0.18485615426E+03  0.10100000352E+00 0. -1.
</event>
<event>
 5   0  0.1448458E-01  0.4949365E+03  0.7818609E-02  0.1015109E+00
        1   -1    0    0  501    0  0.00000000000E+00  0.00000000000E+00  0.80785761875E+02  0.80785762032E+02  0.50400001928E-02 0.  1.
       -1   -1    0    0    0  501  0.00000000000E+00  0.00000000000E+00 -0.75806102628E+03  0.75806102630E+03  0.50400001928E-02 0. -1.
    10030    2    1    2    0    0  0.00000000000E+00  0.00000000000E+00 -0.67727526441E+03  0.83884678833E+03  0.49493651160E+03 0.  0.
        5    1    3    3  502    0  0.12405499258E+03  0.15238776167E+03 -0.59346875857E+03  0.62517111936E+03  0.46999998093E+01 0. -1.
       -5    1    3    3    0  502 -0.12405499258E+03 -0.15238776167E+03 -0.83806505842E+02  0.21367566897E+03  0.46999998093E+01 0.  1.
</event>
<event>
 5   0  0.2488968E-01  0.5002023E+03  0.7818609E-02  0.1013726E+00
        2   -1    0    0  501    0  0.00000000000E+00  0.00000000000E+00  0.57975138489E+03  0.57975138489E+03  0.25500000920E-02 0. -1.
       -2   -1    0    0    0  501  0.00000000000E+00  0.00000000000E+00 -0.10789207812E+03  0.10789207815E+03  0.25500000920E-02 0.  1.
    10030    2    1    2    0    0  0.00000000000E+00  0.00000000000E+00  0.47185930677E+03  0.68764346304E+03  0.50020228596E+03 0.  0.
        2    1    3    3  502    0  0.16697251717E+03  0.37291690499E+02  0.48671946716E+03  0.51591310450E+03  0.25500000920E-02 0. -1.
       -2    1    3    3    0  502 -0.16697251717E+03 -0.37291690499E+02 -0.14860160391E+02  0.17173035854E+03  0.25500000920E-02 0.  1.
</event>
<event>
 5   0  0.2511944E-01  0.4998236E+03  0.7818609E-02  0.1013825E+00
        2   -1    0    0  501    0  0.00000000000E+00  0.00000000000E+00  0.75893907041E+03  0.75893907041E+03  0.25500000920E-02 0.  1.
       -2   -1    0    0    0  501  0.00000000000E+00  0.00000000000E+00 -0.82293714038E+02  0.82293714078E+02  0.25500000920E-02 0. -1.
    10030    2    1    2    0    0  0.00000000000E+00  0.00000000000E+00  0.67664535637E+03  0.84123278449E+03  0.49982362830E+03 0.  0.
        1    1    3    3  502    0  0.24615290368E+03 -0.24816256556E+02  0.27884572995E+03  0.37277612546E+03  0.50400001928E-02 0.  1.
       -1    1    3    3    0  502 -0.24615290368E+03  0.24816256556E+02  0.39779962642E+03  0.46845665903E+03  0.50400001928E-02 0. -1.
</event>
<event>
 5   0  0.1529146E-01  0.5095322E+03  0.7818609E-02  0.1011320E+00
       -1   -1    0    0    0  501  0.00000000000E+00  0.00000000000E+00  0.30545234163E+03  0.30545234168E+03  0.50400001928E-02 0. -1.
        1   -1    0    0  501    0  0.00000000000E+00  0.00000000000E+00 -0.21249067114E+03  0.21249067120E+03  0.50400001928E-02 0.  1.
    10030    2    1    2    0    0  0.00000000000E+00  0.00000000000E+00  0.92961670495E+02  0.51794301287E+03  0.50953222901E+03 0.  0.
        1    1    3    3  502    0  0.36720784581E+02 -0.99992487042E+02  0.28172885701E+03  0.30119439301E+03  0.50400001928E-02 0. -1.
       -1    1    3    3    0  502 -0.36720784581E+02  0.99992487042E+02 -0.18876718651E+03  0.21674861987E+03  0.50400001928E-02 0.  1.
</event>
<event>
 5   0  0.2413301E-01  0.5086351E+03  0.7818609E-02  0.1011549E+00
        2   -1    0    0  501    0  0.00000000000E+00  0.00000000000E+00  0.72009726843E+03  0.72009726844E+03  0.25500000920E-02 0. -1.
       -2   -1    0    0    0  501  0.00000000000E+00  0.00000000000E+00 -0.89817601788E+02  0.89817601825E+02  0.25500000920E-02 0.  1.
    10030    2    1    2    0    0  0.00000000000E+00  0.00000000000E+00  0.63027966665E+03  0.80991487026E+03  0.50863507438E+03 0.  0.
        4    1    3    3  502    0  0.22276081231E+01  0.21733343276E+03  0.52540586623E+03  0.56858747823E+03  0.12699999809E+01 0. -1.
       -4    1    3    3    0  502 -0.22276081231E+01 -0.21733343276E+03  0.10487380042E+03  0.24132739204E+03  0.12699999809E+01 0.  1.
</event>
<event>
 5   0  0.2413301E-01  0.4894294E+03  0.7818609E-02  0.1016575E+00
        2   -1    0    0  501    0  0.00000000000E+00  0.00000000000E+00  0.43095260297E+03  0.43095260298E+03  0.25500000920E-02 0.  1.
       -2   -1    0    0    0  501  0.00000000000E+00  0.00000000000E+00 -0.13896024505E+03  0.13896024508E+03  0.25500000920E-02 0. -1.
    10030    2    1    2    0    0  0.00000000000E+00  0.00000000000E+00  0.29199235792E+03  0.56991284806E+03  0.48942937927E+03 0.  0.
        4    1    3    3  502    0  0.23672013121E+03  0.36050115888E+02  0.20477041863E+03  0.31506914896E+03  0.12699999809E+01 0.  1.
       -4    1    3    3    0  502 -0.23672013121E+03 -0.36050115888E+02  0.87221939291E+02  0.25484369910E+03  0.12699999809E+01 0. -1.
</event>
<event>
 5   0  0.2504064E-01  0.4889200E+03  0.7818609E-02  0.1016712E+00
       -2   -1    0    0    0  501  0.00000000000E+00  0.00000000000E+00  0.11590977878E+03  0.11590977881E+03  0.25500000920E-02 0. -1.
        2   -1    0    0  501    0  0.00000000000E+00  0.00000000000E+00 -0.51557932210E+03  0.51557932210E+03  0.25500000920E-02 0.  1.
    10030    2    1    2    0    0  0.00000000000E+00  0.00000000000E+00 -0.39966954332E+03  0.63148910091E+03  0.48891997373E+03 0.  0.
        5    1    3    3  502    0  0.60337876060E+02  0.12976127748E+03  0.56084465601E+02  0.15377322817E+03  0.46999998093E+01 0. -1.
       -5    1    3    3    0  502 -0.60337876060E+02 -0.12976127748E+03 -0.45575400892E+03  0.47771587274E+03  0.46999998093E+01 0.  1.
</event>
<event>
 5   0  0.9868500E-02  0.5058612E+03  0.7818609E-02  0.1012260E+00
       -3   -1    0    0    0  501  0.00000000000E+00  0.00000000000E+00  0.32067915734E+03  0.32067917325E+03  0.10100000352E+00 0.  1.
        3   -1    0    0  501    0  0.00000000000E+00  0.00000000000E+00 -0.19949498469E+03  0.19949501026E+03  0.10100000352E+00 0. -1.
    10030    2    1    2    0    0  0.00000000000E+00  0.00000000000E+00  0.12118417266E+03  0.52017418350E+03  0.50586122354E+03 0.  0.
        1    1    3    3  502    0 -0.35847540010E+02 -0.30294444002E+02 -0.19497801999E+03  0.20054732052E+03  0.50400001928E-02 0. -1.
       -1    1    3    3    0  502  0.35847540010E+02  0.30294444002E+02  0.31616219264E+03  0.31962686299E+03  0.50400001928E-02 0.  1.
</event>
<event>
 5   0  0.1439814E-01  0.4943844E+03  0.7818609E-02  0.1015255E+00
       -1   -1    0    0    0  501  0.00000000000E+00  0.00000000000E+00  0.91003467742E+02  0.91003467881E+02  0.50400001928E-02 0.  1.
        1   -1    0    0  501    0  0.00000000000E+00  0.00000000000E+00 -0.67144677227E+03  0.67144677229E+03  0.50400001928E-02 0. -1.
    10030    2    1    2    0    0  0.00000000000E+00  0.00000000000E+00 -0.58044330453E+03  0.76245024017E+03  0.49438440405E+03 0.  0.
        4    1    3    3  502    0  0.19345982416E+03  0.14754308883E+03 -0.35756404152E+03  0.43249199220E+03  0.12699999809E+01 0. -1.
       -4    1    3    3    0  502 -0.19345982416E+03 -0.14754308883E+03 -0.22287926301E+03  0.32995824797E+03  0.12699999809E+01 0.  1.
</event>
<event>
 5   0  0.1453602E-01  0.5008220E+03  0.7818609E-02  0.1013565E+00
       -1   -1    0    0    0  501  0.00000000000E+00  0.00000000000E+00  0.79766572593E+02  0.79766572752E+02  0.50400001928E-02 0.  1.
        1   -1    0    0  501    0  0.00000000000E+00  0.00000000000E+00 -0.78611458584E+03  0.78611458585E+03  0.50400001928E-02 0. -1.
    10030    2    1    2    0    0  0.00000000000E+00  0.00000000000E+00 -0.70634801324E+03  0.86588115860E+03  0.50082198935E+03 0.  0.
        2    1    3    3  502    0 -0.34417027549E+02  0.17711171397E+03 -0.65339226797E+03  0.67784551843E+03  0.25500000920E-02 0. -1.
       -2    1    3    3    0  502  0.34417027549E+02 -0.17711171397E+03 -0.52955745272E+02  0.18803564017E+03  0.25500000920E-02 0.  1.
</event>
<event>
 5   0  0.2466034E-01  0.5036528E+03  0.7818609E-02  0.1012830E+00
        2   -1    0    0  501    0  0.00000000000E+00  0.00000000000E+00  0.23380838079E+03  0.23380838080E+03  0.25500000920E-02 0.  1.
       -2   -1    0    0    0  501  0.00000000000E+00  0.00000000000E+00 -0.27123290154E+03  0.27123290155E+03  0.25500000920E-02 0. -1.
    10030    2    1    2    0    0  0.00000000000E+00  0.00000000000E+00 -0.37424520753E+02  0.50504128235E+03  0.50365275948E+03 0.  0.
        3    1    3    3  502    0 -0.93813063280E+01 -0.15376726478E+03  0.18104571096E+03  0.23771819511E+03  0.10100000352E+00 0.  1.
       -3    1    3    3    0  502  0.93813063280E+01  0.15376726478E+03 -0.21847023172E+03  0.26732308724E+03  0.10100000352E+00 0. -1.
</event>
<event>
 5   0  0.2511944E-01  0.5296317E+03  0.7818609E-02  0.1006321E+00
       -2   -1    0    0    0  501  0.00000000000E+00  0.00000000000E+00  0.57313208301E+03  0.57313208302E+03  0.25500000920E-02 0.  1.
        2   -1    0    0  501    0  0.00000000000E+00  0.00000000000E+00 -0.12235822381E+03  0.12235822384E+03  0.25500000920E-02 0. -1.
    10030    2    1    2    0    0  0.00000000000E+00  0.00000000000E+00  0.45077385920E+03  0.69549030685E+03  0.52963165954E+03 0.  0.
        1    1    3    3  502    0 -0.14179603566E+03  0.17422373625E+03  0.41228928103E+02  0.22838531157E+03  0.50400001928E-02 0. -1.
       -1    1    3    3    0  502  0.14179603566E+03 -0.17422373625E+03  0.40954493110E+03  0.46710499528E+03  0.50400001928E-02 0.  1.
</event>
<event>
 5   0  0.2413301E-01  0.5044262E+03  0.7818609E-02  0.1012630E+00
       -2   -1    0    0    0  501  0.00000000000E+00  0.00000000000E+00  0.63261143016E+02  0.63261143068E+02  0.25500000920E-02 0. -1.
        2   -1    0    0  501    0  0.00000000000E+00  0.00000000000E+00 -0.10055373909E+04  0.10055373909E+04  0.25500000920E-02 0.  1.
    10030    2    1    2    0    0  0.00000000000E+00  0.00000000000E+00 -0.94227624793E+03  0.10687985340E+04  0.50442618777E+03 0.  0.
        4    1    3    3  502    0  0.86863239906E+02  0.49091916298E+02  0.19658624788E+02  0.10170208022E+03  0.12699999809E+01 0. -1.
       -4    1    3    3    0  502 -0.86863239906E+02 -0.49091916298E+02 -0.96193487272E+03  0.96709645380E+03  0.12699999809E+01 0.  1.
</event>
<event>
 5   0  0.1413361E-01  0.5144101E+03  0.7818609E-02  0.1010085E+00
       -1   -1    0    0    0  501  0.00000000000E+00  0.00000000000E+00  0.70101086207E+02  0.70101086388E+02  0.50400001928E-02 0.  1.
        1   -1    0    0  501    0  0.00000000000E+00  0.00000000000E+00 -0.94370058980E+03  0.94370058981E+03  0.50400001928E-02 0. -1.
    10030    2    1    2    0    0  0.00000000000E+00  0.00000000000E+00 -0.87359950359E+03  0.10138016762E+04  0.51441009515E+03 0.  0.
        3    1    3    3  502    0 -0.39348394475E+02  0.60348694249E+02 -0.92340953696E+03  0.92621565750E+03  0.10100000352E+00 0. -1.
       -3    1    3    3    0  502  0.39348394475E+02 -0.60348694249E+02  0.49810033374E+02  0.87586018696E+02  0.10100000352E+00 0.  1.
</event>
<event>
 5   0  0.1529146E-01  0.4530843E+03  0.7818609E-02  0.1026806E+00
       -1   -1    0    0    0  501  0.00000000000E+00  0.00000000000E+00  0.19706845591E+02  0.19706846235E+02  0.50400001928E-02 0. -1.
        1   -1    0    0  501    0  0.00000000000E+00  0.00000000000E+00 -0.26042398018E+04  0.26042398018E+04  0.50400001928E-02 0.  1.
    10030    2    1    2    0    0  0.00000000000E+00  0.00000000000E+00 -0.25845329562E+04  0.26239466480E+04  0.45308432992E+03 0.  0.
        1    1    3    3  502    0  0.14034889075E+03  0.12173522315E+03 -0.20429956411E+04  0.20514259590E+04  0.50400001928E-02 0.  1.
       -1    1    3    3    0  502 -0.14034889075E+03 -0.12173522315E+03 -0.54153731508E+03  0.57252068901E+03  0.50400001928E-02 0. -1.
</event>
<event>
 5   0  0.1453602E-01  0.4995811E+03  0.7818609E-02  0.1013888E+00
        1   -1    0    0  501    0  0.00000000000E+00  0.00000000000E+00  0.54768092794E+03  0.54768092797E+03  0.50400001928E-02 0.  1.
       -1   -1    0    0    0  501  0.00000000000E+00  0.00000000000E+00 -0.11392638163E+03  0.11392638174E+03  0.50400001928E-02 0. -1.
    10030    2    1    2    0    0  0.00000000000E+00  0.00000000000E+00  0.43375454631E+03  0.66160730971E+03  0.49958105029E+03 0.  0.
        2    1    3    3  502    0  0.20665433559E+03 -0.13954440067E+03  0.23637015106E+03  0.34358332686E+03  0.25500000920E-02 0.  1.
       -2    1    3    3    0  502 -0.20665433559E+03  0.13954440067E+03  0.19738439525E+03  0.31802398285E+03  0.25500000920E-02 0. -1.
</event>
<event>
 5   0  0.2511944E-01  0.5050061E+03  0.7818609E-02  0.1012480E+00
        2   -1    0    0  501    0  0.00000000000E+00  0.00000000000E+00  0.25753622101E+03  0.25753622102E+03  0.25500000920E-02 0.  1.
       -2   -1    0    0    0  501  0.00000000000E+00  0.00000000000E+00 -0.24756819752E+03  0.24756819753E+03  0.25500000920E-02 0. -1.
    10030    2    1    2    0    0  0.00000000000E+00  0.00000000000E+00  0.99680234908E+01  0.50510441855E+03  0.50500605159E+03 0.  0.
        1    1    3    3  502    0 -0.80520708650E+02  0.23677030941E+03 -0.29865479761E+02  0.25186446920E+03  0.50400001928E-02 0. -1.
       -1    1    3    3    0  502  0.80520708650E+02 -0.23677030941E+03  0.39833503252E+02  0.25323994935E+03  0.50400001928E-02 0.  1.
</event>
<event>
 5   0  0.2413301E-01  0.5139976E+03  0.7818609E-02  0.1010189E+00
        2   -1    0    0  501    0  0.00000000000E+00  0.00000000000E+00  0.44353504193E+03  0.44353504194E+03  0.25500000920E-02 0. -1.
       -2   -1    0    0    0  501  0.00000000000E+00  0.00000000000E+00 -0.14891358450E+03  0.14891358452E+03  0.25500000920E-02 0.  1.
    10030    2    1    2    0    0  0.00000000000E+00  0.00000000000E+00  0.29462145743E+03  0.59244862646E+03  0.51399763795E+03 0.  0.
        4    1    3    3  502    0  0.20381665853E+03  0.13016500209E+03  0.24754720020E+03  0.34607136156E+03  0.12699999809E+01 0. -1.
       -4    1    3    3    0  502 -0.20381665853E+03 -0.13016500209E+03  0.47074257237E+02  0.24637726490E+03  0.12699999809E+01 0.  1.
</event>
<event>
 5   0  0.1448458E-01  0.4991705E+03  0.7818609E-02  0.1013996E+00
        1   -1    0    0  501    0  0.00000000000E+00  0.00000000000E+00  0.20493242878E+03  0.20493242884E+03  0.50400001928E-02 0. -1.
       -1   -1    0    0    0  501  0.00000000000E+00  0.00000000000E+00 -0.30396747851E+03  0.30396747855E+03  0.50400001928E-02 0.  1.
    10030    2    1    2    0    0  0.00000000000E+00  0.00000000000E+00 -0.99035049727E+02  0.50889990739E+03  0.49917048658E+03 0.  0.
        5    1    3    3  502    0  0.29224569341E+02 -0.11421061474E+03  0.17470695468E+03  0.21081449187E+03  0.46999998093E+01 0. -1.
       -5    1    3    3    0  502 -0.29224569341E+02  0.11421061474E+03 -0.27374200441E+03  0.29808541552E+03  0.46999998093E+01 0.  1.
</event>
<event>
 5   0  0.2511944E-01  0.5164147E+03  0.7818609E-02  0.1009581E+00
       -2   -1    0    0    0  501  0.00000000000E+00  0.00000000000E+00  0.58079920440E+02  0.58079920496E+02  0.25500000920E-02 0. -1.
        2   -1    0    0  501    0  0.00000000000E+00  0.00000000000E+00 -0.11479189012E+04  0.11479189012E+04  0.25500000920E-02 0.  1.
    10030    2    1    2    0    0  0.00000000000E+00  0.00000000000E+00 -0.10898389808E+04  0.12059988217E+04  0.51641471121E+03 0.  0.
        1    1    3    3  502    0  0.22116435659E+03 -0.27939596336E+01 -0.23378936132E+03  0.32183682873E+03  0.50400001928E-02 0. -1.
       -1    1    3    3    0  502 -0.22116435659E+03  0.27939596336E+01 -0.85604961944E+03  0.88416199297E+03  0.50400001928E-02 0.  1.
</event>
<event>
 5   0  0.1529146E-01  0.4972833E+03  0.7818609E-02  0.1014490E+00
       -1   -1    0    0    0  501  0.00000000000E+00  0.00000000000E+00  0.12078275558E+03  0.12078275568E+03  0.50400001928E-02 0. -1.
        1   -1    0    0  501    0  0.00000000000E+00  0.00000000000E+00 -0.51185013158E+03  0.51185013160E+03  0.50400001928E-02 0.  1.
    10030    2    1    2    0    0  0.00000000000E+00  0.00000000000E+00 -0.39106737600E+03  0.63263288729E+03  0.49728329703E+03 0.  0.
        1    1    3    3  502    0  0.10297528894E+03 -0.72226395969E+02  0.77324351453E+02  0.14764693617E+03  0.50400001928E-02 0. -1.
       -1    1    3    3    0  502 -0.10297528894E+03  0.72226395969E+02 -0.46839172746E+03  0.48498595112E+03  0.50400001928E-02 0.  1.
</event>
<event>
 5   0  0.1448458E-01  0.5005409E+03  0.7818609E-02  0.1013638E+00
        1   -1    0    0  501    0  0.00000000000E+00  0.00000000000E+00  0.26950874499E+03  0.26950874503E+03  0.50400001928E-02 0. -1.
       -1   -1    0    0    0  501  0.00000000000E+00  0.00000000000E+00 -0.23240545147E+03  0.23240545152E+03  0.50400001928E-02 0.  1.
    10030    2    1    2    0    0  0.00000000000E+00  0.00000000000E+00  0.37103293517E+02  0.50191419656E+03  0.50054091373E+03 0.  0.
        5    1    3    3  502    0  0.21791649719E+03 -0.12298415248E+03  0.17835494328E+02  0.25090415773E+03  0.46999998093E+01 0.  1.
       -5    1    3    3    0  502 -0.21791649719E+03  0.12298415248E+03  0.19267799189E+02  0.25101003883E+03  0.46999998093E+01 0. -1.
</event>
<event>
 5   0  0.1448458E-01  0.5114511E+03  0.7818609E-02  0.1010832E+00
        1   -1    0    0  501    0  0.00000000000E+00  0.00000000000E+00  0.18366185828E+03  0.18366185835E+03  0.50400001928E-02 0. -1.
       -1   -1    0    0    0  501  0.00000000000E+00  0.00000000000E+00 -0.35606498122E+03  0.35606498125E+03  0.50400001928E-02 0.  1.
    10030    2    1    2    0    0  0.00000000000E+00  0.00000000000E+00 -0.17240312294E+03  0.53972683960E+03  0.51145109696E+03 0.  0.
        5    1    3    3  502    0 -0.24629588946E+02 -0.35126766235E+02 -0.35219409429E+03  0.35482851690E+03  0.46999998093E+01 0.  1.
       -5    1    3    3    0  502  0.24629588946E+02  0.35126766235E+02  0.17979097135E+03  0.18489832269E+03  0.46999998093E+01 0. -1.
</event>
<event>
 5   0  0.9868500E-02  0.5088211E+03  0.7818609E-02  0.1011502E+00
       -4   -1    0    0    0  501  0.00000000000E+00  0.00000000000E+00  0.10788017611E+03  0.10788765127E+03  0.12699999809E+01 0.  1.
        4   -1    0    0  501    0  0.00000000000E+00  0.00000000000E+00 -0.59993986568E+03  0.59994120990E+03  0.12699999809E+01 0. -1.
    10030    2    1    2    0    0  0.00000000000E+00  0.00000000000E+00 -0.49205968958E+03  0.70782886117E+03  0.50882114598E+03 0.  0.
        2    1    3    3  502    0  0.45202981859E+02 -0.13408476410E+03 -0.54015354574E+03  0.55837969744E+03  0.25500000920E-02 0. -1.
       -2    1    3    3    0  502 -0.45202981859E+02  0.13408476410E+03  0.48093856163E+02  0.14944916373E+03  0.25500000920E-02 0.  1.
</event>
<event>
 5   0  0.2504064E-01  0.4963439E+03  0.7818609E-02  0.1014738E+00
        2   -1    0    0  501    0  0.00000000000E+00  0.00000000000E+00  0.71500886313E+03  0.71500886313E+03  0.25500000920E-02 0. -1.
       -2   -1    0    0    0  501  0.00000000000E+00  0.00000000000E+00 -0.86137833849E+02  0.86137833887E+02  0.25500000920E-02 0.  1.
    10030    2    1    2    0    0  0.00000000000E+00  0.00000000000E+00  0.62887102928E+03  0.80114669702E+03  0.49634389155E+03 0.  0.
        5    1    3    3  502    0  0.38156428079E+02 -0.82922963918E+02  0.68685155357E+03  0.69290639886E+03  0.46999998093E+01 0. -1.
       -5    1    3    3    0  502 -0.38156428079E+02  0.82922963918E+02 -0.57980524292E+02  0.10824029815E+03  0.46999998093E+01 0.  1.
</event>
<event>
 5   0  0.2413301E-01  0.5008227E+03  0.7818609E-02  0.1013564E+00
       -2   -1    0    0    0  501  0.00000000000E+00  0.00000000000E+00  0.19895000852E+03  0.19895000854E+03  0.25500000920E-02 0. -1.
        2   -1    0    0  501    0  0.00000000000E+00  0.00000000000E+00 -0.31518393341E+03  0.31518393342E+03  0.25500000920E-02 0.  1.
    10030    2    1    2    0    0  0.00000000000E+00  0.00000000000E+00 -0.11623392489E+03  0.51413394196E+03  0.50082270813E+03 0.  0.
        4    1    3    3  502    0 -0.24970961344E+02  0.21678331854E+03  0.67971302766E+02  0.22856129814E+03  0.12699999809E+01 0.  1.
       -4    1    3    3    0  502  0.24970961344E+02 -0.21678331854E+03 -0.18420522766E+03  0.28557264382E+03  0.12699999809E+01 0. -1.
</event>
<event>
 5   0  0.1529146E-01  0.4945174E+03  0.7818609E-02  0.1015220E+00
        1   -1    0    0  501    0  0.00000000000E+00  0.00000000000E+00  0.46033637260E+03  0.46033637263E+03  0.50400001928E-02 0.  1.
       -1   -1    0    0    0  501  0.00000000000E+00  0.00000000000E+00 -0.13280910356E+03  0.13280910366E+03  0.50400001928E-02 0. -1.
    10030    2    1    2    0    0  0.00000000000E+00  0.00000000000E+00  0.32752726903E+03  0.59314547629E+03  0.49451738501E+03 0.  0.
        1    1    3    3  502    0  0.16854996808E+03  0.18045065745E+03  0.14834113340E+03  0.28805663227E+03  0.50400001928E-02 0. -1.
       -1    1    3    3    0  502 -0.16854996808E+03 -0.18045065745E+03  0.17918613564E+03  0.30508884402E+03  0.50400001928E-02 0.  1.
</event>
<event>
 5   0  0.2504064E-01  0.4971140E+03  0.7818609E-02  0.1014535E+00
       -2   -1    0    0    0  501  0.00000000000E+00  0.00000000000E+00  0.21598783267E+03  0.21598783269E+03  0.25500000920E-02 0.  1.
        2   -1    0    0  501    0  0.00000000000E+00  0.00000000000E+00 -0.28603735753E+03  0.28603735754E+03  0.25500000920E-02 0. -1.
    10030    2    1    2    0    0  0.00000000000E+00  0.00000000000E+00 -0.70049524860E+02  0.50202519023E+03  0.49711402685E+03 0.  0.
        5    1    3    3  502    0 -0.28675781594E+02  0.24650748311E+03 -0.48202014243E+02  0.25285126825E+03  0.46999998093E+01 0. -1.
       -5    1    3    3    0  502  0.28675781594E+02 -0.24650748311E+03 -0.21847510617E+02  0.24917392198E+03  0.46999998093E+01 0.  1.
</event>
<event>
 5   0  0.1413361E-01  0.4989599E+03  0.7818609E-02  0.1014051E+00
       -1   -1    0    0    0  501  0.00000000000E+00  0.00000000000E+00  0.15040856681E+03  0.15040856690E+03  0.50400001928E-02 0. -1.
        1   -1    0    0  501    0  0.00000000000E+00  0.00000000000E+00 -0.41380787597E+03  0.41380787600E+03  0.50400001928E-02 0.  1.
    10030    2    1    2    0    0  0.00000000000E+00  0.00000000000E+00 -0.26339930916E+03  0.56421644290E+03  0.49895991660E+03 0.  0.
        3    1    3    3  502    0 -0.22216380388E+03  0.11334194717E+03 -0.13858600135E+03  0.28532304974E+03  0.10100000352E+00 0.  1.
       -3    1    3    3    0  502  0.22216380388E+03 -0.11334194717E+03 -0.12481330781E+03  0.27889339316E+03  0.10100000352E+00 0. -1.
</event>
<event>
 5   0  0.2466034E-01  0.4660422E+03  0.7818609E-02  0.1023043E+00
       -2   -1    0    0    0  501  0.00000000000E+00  0.00000000000E+00  0.76354786058E+02  0.76354786100E+02  0.25500000920E-02 0.  1.
        2   -1    0    0  501    0  0.00000000000E+00  0.00000000000E+00 -0.71113862110E+03  0.71113862110E+03  0.25500000920E-02 0. -1.
    10030    2    1    2    0    0  0.00000000000E+00  0.00000000000E+00 -0.63478383504E+03  0.78749340720E+03  0.46604221822E+03 0.  0.
        3    1    3    3  502    0 -0.21827686198E+03  0.80698635614E+02 -0.29727265607E+03  0.37752893997E+03  0.10100000352E+00 0.  1.
       -3    1    3    3    0  502  0.21827686198E+03 -0.80698635614E+02 -0.33751117897E+03  0.40996446724E+03  0.10100000352E+00 0. -1.
</event>
<event>
 5   0  0.2504064E-01  0.5016974E+03  0.7818609E-02  0.1013337E+00
       -2   -1    0    0    0  501  0.00000000000E+00  0.00000000000E+00  0.47912326884E+02  0.47912326952E+02  0.25500000920E-02 0.  1.
        2   -1    0    0  501    0  0.00000000000E+00  0.00000000000E+00 -0.13133378214E+04  0.13133378214E+04  0.25500000920E-02 0. -1.
    10030    2    1    2    0    0  0.00000000000E+00  0.00000000000E+00 -0.12654254945E+04  0.13612501483E+04  0.50169740305E+03 0.  0.
        5    1    3    3  502    0 -0.61626274930E+02  0.15870541979E+03 -0.11324132103E+04  0.11451493252E+04  0.46999998093E+01 0. -1.
       -5    1    3    3    0  502  0.61626274930E+02 -0.15870541979E+03 -0.13301228418E+03  0.21610082317E+03  0.46999998093E+01 0.  1.
</event>
<event>
 5   0  0.1439814E-01  0.5044239E+03  0.7818609E-02  0.1012631E+00
       -1   -1    0    0    0  501  0.00000000000E+00  0.00000000000E+00  0.40246155190E+03  0.40246155193E+03  0.50400001928E-02 0.  1.
        1   -1    0    0  501    0  0.00000000000E+00  0.00000000000E+00 -0.15805451665E+03  0.15805451673E+03  0.50400001928E-02 0. -1.
    10030    2    1    2    0    0  0.00000000000E+00  0.00000000000E+00  0.24440703524E+03  0.56051606866E+03  0.50442389352E+03 0.  0.
        4    1    3    3  502    0 -0.54380175637E+02  0.16250898572E+03  0.32782929371E+03  0.36991895418E+03  0.12699999809E+01 0.  1.
       -4    1    3    3    0  502  0.54380175637E+02 -0.16250898572E+03 -0.83422258467E+02  0.19059711449E+03  0.12699999809E+01 0. -1.
</event>
<event>
 5   0  0.2466034E-01  0.4841600E+03  0.7818609E-02  0.1017998E+00
        2   -1    0    0  501    0  0.00000000000E+00  0.00000000000E+00  0.13018063252E+04  0.13018063252E+04  0.25500000920E-02 0.  1.
       -2   -1    0    0    0  501  0.00000000000E+00  0.00000000000E+00 -0.45016477575E+02  0.45016477647E+02  0.25500000920E-02 0. -1.
    10030    2    1    2    0    0  0.00000000000E+00  0.00000000000E+00  0.12567898476E+04  0.13468228028E+04  0.48416003674E+03 0.  0.
        3    1    3    3  502    0  0.21890993837E+03 -0.76525192682E+02  0.82162415650E+03  0.85372356825E+03  0.10100000352E+00 0.  1.
       -3    1    3    3    0  502 -0.21890993837E+03  0.76525192682E+02  0.43516569108E+03  0.49309923456E+03  0.10100000352E+00 0. -1.
</event>
<event>
 5   0  0.2488968E-01  0.4952258E+03  0.7818609E-02  0.1015033E+00
       -2   -1    0    0    0  501  0.00000000000E+00  0.00000000000E+00  0.24310003581E+03  0.24310003582E+03  0.25500000920E-02 0. -1.
        2   -1    0    0  501    0  0.00000000000E+00  0.00000000000E+00 -0.25220950738E+03  0.25220950739E+03  0.25500000920E-02 0.  1.
    10030    2    1    2    0    0  0.00000000000E+00  0.00000000000E+00 -0.91094715700E+01  0.49530954322E+03  0.49522576784E+03 0.  0.
        2    1    3    3  502    0 -0.85235470996E+02 -0.21500664261E+03  0.83886454294E+02  0.24602820794E+03  0.25500000920E-02 0. -1.
       -2    1    3    3    0  502  0.85235470996E+02  0.21500664261E+03 -0.92995925864E+02  0.24928133528E+03  0.25500000920E-02 0.  1.
</event>
<event>
 5   0  0.2413301E-01  0.4954395E+03  0.7818609E-02  0.1014976E+00
       -2   -1    0    0    0  501  0.00000000000E+00  0.00000000000E+00  0.17920461228E+03  0.17920461229E+03  0.25500000920E-02 0.  1.
        2   -1    0    0  501    0  0.00000000000E+00  0.00000000000E+00 -0.34243014963E+03  0.34243014964E+03  0.25500000920E-02 0. -1.
    10030    2    1    2    0    0  0.00000000000E+00  0.00000000000E+00 -0.16322553736E+03  0.52163476194E+03  0.49543945020E+03 0.  0.
        4    1    3    3  502    0 -0.10869054400E+03  0.12140642302E+03  0.11482717210E+03  0.19934905633E+03  0.12699999809E+01 0.  1.
       -4    1    3    3    0  502  0.10869054400E+03 -0.12140642302E+03 -0.27805270946E+03  0.32228570561E+03  0.12699999809E+01 0. -1.
</event>
<event>
 5   0  0.2504064E-01  0.5033858E+03  0.7818609E-02  0.1012899E+00
       -2   -1    0    0    0  501  0.00000000000E+00  0.00000000000E+00  0.26808252908E+02  0.26808253029E+02  0.25500000920E-02 0. -1.
        2   -1    0    0  501    0  0.00000000000E+00  0.00000000000E+00 -0.23630522849E+04  0.23630522849E+04  0.25500000920E-02 0.  1.
    10030    2    1    2    0    0  0.00000000000E+00  0.00000000000E+00 -0.23362440320E+04  0.23898605379E+04  0.50338575043E+03 0.  0.
        5    1    3    3  502    0 -0.13202405736E+03 -0.20158157833E+03 -0.15125003957E+04  0.15315825219E+04  0.46999998093E+01 0. -1.
       -5    1    3    3    0  502  0.13202405736E+03  0.20158157833E+03 -0.82374363624E+03  0.85827801596E+03  0.46999998093E+01 0.  1.
</event>
<event>
 5   0  0.2511944E-01  0.4986226E+03  0.7818609E-02  0.1014139E+00
       -2   -1    0    0    0  501  0.00000000000E+00  0.00000000000E+00  0.10142326971E+03  0.10142326974E+03  0.25500000920E-02 0.  1.
        2   -1    0    0  501    0  0.00000000000E+00  0.00000000000E+00 -0.61283888833E+03  0.61283888834E+03  0.25500000920E-02 0. -1.
    10030    2    1    2    0    0  0.00000000000E+00  0.00000000000E+00 -0.51141561862E+03  0.71426215808E+03  0.49862259826E+03 0.  0.
        1    1    3    3  502    0  0.22625517296E+03 -0.99022450508E+02 -0.20693487419E+03  0.32220939026E+03  0.50400001928E-02 0.  1.
       -1    1    3    3    0  502 -0.22625517296E+03  0.99022450508E+02 -0.30448074444E+03  0.39205276782E+03  0.50400001928E-02 0. -1.
</event>
<event>
 5   0  0.2511944E-01  0.4947211E+03  0.7818609E-02  0.1015166E+00
       -2   -1    0    0    0  501  0.00000000000E+00  0.00000000000E+00  0.12492223933E+03  0.12492223935E+03  0.25500000920E-02 0.  1.
        2   -1    0    0  501    0  0.00000000000E+00  0.00000000000E+00 -0.48980270197E+03  0.48980270198E+03  0.25500000920E-02 0. -1.
    10030    2    1    2    0    0  0.00000000000E+00  0.00000000000E+00 -0.36488046264E+03  0.61472494133E+03  0.49472113506E+03 0.  0.
        1    1    3    3  502    0 -0.11249742054E+03 -0.11558075705E+03  0.50595777898E+02  0.16903997691E+03  0.50400001928E-02 0.  1.
       -1    1    3    3    0  502  0.11249742054E+03  0.11558075705E+03 -0.41547624054E+03  0.44568496442E+03  0.50400001928E-02 0. -1.
</event>
<event>
 5   0  0.1529146E-01  0.4966694E+03  0.7818609E-02  0.1014652E+00
        1   -1    0    0  501    0  0.00000000000E+00  0.00000000000E+00  0.71529179049E+02  0.71529179227E+02  0.50400001928E-02 0. -1.
       -1   -1    0    0    0  501  0.00000000000E+00  0.00000000000E+00 -0.86216741587E+03  0.86216741588E+03  0.50400001928E-02 0.  1.
    10030    2    1    2    0    0  0.00000000000E+00  0.00000000000E+00 -0.79063823682E+03  0.93369659511E+03  0.49666941742E+03 0.  0.
        1    1    3    3  502    0  0.92722352436E+02  0.11194074788E+03 -0.77384077874E+03  0.78737393692E+03  0.50400001928E-02 0.  1.
       -1    1    3    3    0  502 -0.92722352436E+02 -0.11194074788E+03 -0.16797458081E+02  0.14632265819E+03  0.50400001928E-02 0. -1.
</event>
<event>
 5   0  0.1453602E-01  0.4595905E+03  0.7818609E-02  0.1024900E+00
       -1   -1    0    0    0  501  0.00000000000E+00  0.00000000000E+00  0.51238393878E+02  0.51238394126E+02  0.50400001928E-02 0. -1.
        1   -1    0    0  501    0  0.00000000000E+00  0.00000000000E+00 -0.10305913844E+04  0.10305913844E+04  0.50400001928E-02 0.  1.
    10030    2    1    2    0    0  0.00000000000E+00  0.00000000000E+00 -0.97935299049E+03  0.10818297785E+04  0.45959045865E+03 0.  0.
        2    1    3    3  502    0  0.20729976083E+03 -0.95805495940E+02 -0.54987208715E+03  0.59540842799E+03  0.25500000920E-02 0. -1.
       -2    1    3    3    0  502 -0.20729976083E+03  0.95805495940E+02 -0.42948090334E+03  0.48642135051E+03  0.25500000920E-02 0.  1.
</event>
<event>
 5   0  0.2511944E-01  0.5705314E+03  0.7818609E-02  0.9968503E-01
       -2   -1    0    0    0  501  0.00000000000E+00  0.00000000000E+00  0.29627248196E+03  0.29627248198E+03  0.25500000920E-02 0. -1.
        2   -1    0    0  501    0  0.00000000000E+00  0.00000000000E+00 -0.27466785799E+03  0.27466785801E+03  0.25500000920E-02 0.  1.
    10030    2    1    2    0    0  0.00000000000E+00  0.00000000000E+00  0.21604623970E+02  0.57094033998E+03  0.57053142950E+03 0.  0.
        1    1    3    3  502    0 -0.63714777167E+02 -0.25333564031E+03 -0.10390099120E+03  0.28112974848E+03  0.50400001928E-02 0.  1.
       -1    1    3    3    0  502  0.63714777167E+02  0.25333564031E+03  0.12550561517E+03  0.28981059150E+03  0.50400001928E-02 0. -1.
</event>
<event>
 5   0  0.1413361E-01  0.5065591E+03  0.7818609E-02  0.1012081E+00
        1   -1    0    0  501    0  0.00000000000E+00  0.00000000000E+00  0.46184956236E+03  0.46184956239E+03  0.50400001928E-02 0.  1.
       -1   -1    0    0    0  501  0.00000000000E+00  0.00000000000E+00 -0.13889919103E+03  0.13889919113E+03  0.50400001928E-02 0. -1.
    10030    2    1    2    0    0  0.00000000000E+00  0.00000000000E+00  0.32295037132E+03  0.60074875351E+03  0.50655910070E+03 0.  0.
        3    1    3    3  502    0  0.11944239807E+02 -0.24793286254E+03  0.10173921380E+03  0.26826152728E+03  0.10100000352E+00 0. -1.
       -3    1    3    3    0  502 -0.11944239807E+02  0.24793286254E+03  0.22121115752E+03  0.33248722623E+03  0.10100000352E+00 0.  1.
</event>
<event>
 5   0  0.2504064E-01  0.4971705E+03  0.7818609E-02  0.1014520E+00
       -2   -1    0    0    0  501  0.00000000000E+00  0.00000000000E+00  0.17567308369E+04  0.17567308369E+04  0.25500000920E-02 0.  1.
        2   -1    0    0  501    0  0.00000000000E+00  0.00000000000E+00 -0.35175923383E+02  0.35175923476E+02  0.25500000920E-02 0. -1.
    10030    2    1    2    0    0  0.00000000000E+00  0.00000000000E+00  0.17215549135E+04  0.17919067604E+04  0.49717051163E+03 0.  0.
        5    1    3    3  502    0 -0.56629961963E+02  0.74712027053E+02  0.31153686167E+02  0.98901373794E+02  0.46999998093E+01 0. -1.
       -5    1    3    3    0  502  0.56629961963E+02 -0.74712027053E+02  0.16904012274E+04  0.16930053866E+04  0.46999998093E+01 0.  1.
</event>
<event>
 5   0  0.1413361E-01  0.4760301E+03  0.7818609E-02  0.1020232E+00
        1   -1    0    0  501    0  0.00000000000E+00  0.00000000000E+00  0.37512167147E+03  0.37512167150E+03  0.50400001928E-02 0. -1.
       -1   -1    0    0    0  501  0.00000000000E+00  0.00000000000E+00 -0.15102076787E+03  0.15102076795E+03  0.50400001928E-02 0.  1.
    10030    2    1    2    0    0  0.00000000000E+00  0.00000000000E+00  0.22410090360E+03  0.52614243945E+03  0.47603009526E+03 0.  0.
        3    1    3    3  502    0  0.12463523460E+03 -0.16044876225E+03 -0.24991636432E+02  0.20470060846E+03  0.10100000352E+00 0.  1.
       -3    1    3    3    0  502 -0.12463523460E+03  0.16044876225E+03  0.24909254003E+03  0.32144183099E+03  0.10100000352E+00 0. -1.
</event>
<event>
 5   0  0.2488968E-01  0.4893490E+03  0.7818609E-02  0.1016597E+00
       -2   -1    0    0    0  501  0.00000000000E+00  0.00000000000E+00  0.71589330635E+02  0.71589330680E+02  0.25500000920E-02 0. -1.
        2   -1    0    0  501    0  0.00000000000E+00  0.00000000000E+00 -0.83623641572E+03  0.83623641573E+03  0.25500000920E-02 0.  1.
    10030    2    1    2    0    0  0.00000000000E+00  0.00000000000E+00 -0.76464708509E+03  0.90782574641E+03  0.48934897681E+03 0.  0.
        2    1    3    3  502    0  0.19700538557E+03  0.52644719651E+02 -0.63316986605E+03  0.66519671356E+03  0.25500000920E-02 0.  1.
       -2    1    3    3    0  502 -0.19700538557E+03 -0.52644719651E+02 -0.13147721904E+03  0.24262903285E+03  0.25500000920E-02 0. -1.
</event>
<event>
 5   0  0.1439814E-01  0.5124187E+03  0.7818609E-02  0.1010587E+00
       -1   -1    0    0    0  501  0.00000000000E+00  0.00000000000E+00  0.86828589148E+02  0.86828589294E+02  0.50400001928E-02 0. -1.
        1   -1    0    0  501    0  0.00000000000E+00  0.00000000000E+00 -0.75600954999E+03  0.75600955000E+03  0.50400001928E-02 0.  1.
    10030    2    1    2    0    0  0.00000000000E+00  0.00000000000E+00 -0.66918096084E+03  0.84283813930E+03  0.51241874547E+03 0.  0.
        4    1    3    3  502    0 -0.43468947413E+02  0.67306601616E+02 -0.73486721259E+03  0.73922334991E+03  0.12699999809E+01 0.  1.
       -4    1    3    3    0  502  0.43468947413E+02 -0.67306601616E+02  0.65686251753E+02  0.10361478939E+03  0.12699999809E+01 0. -1.
</event>
<event>
 5   0  0.1448458E-01  0.4623504E+03  0.7818609E-02  0.1024102E+00
        1   -1    0    0  501    0  0.00000000000E+00  0.00000000000E+00  0.18775712966E+03  0.18775712973E+03  0.50400001928E-02 0.  1.
       -1   -1    0    0    0  501  0.00000000000E+00  0.00000000000E+00 -0.28463355256E+03  0.28463355261E+03  0.50400001928E-02 0. -1.
    10030    2    1    2    0    0  0.00000000000E+00  0.00000000000E+00 -0.96876422905E+02  0.47239068233E+03  0.46235042494E+03 0.  0.
        5    1    3    3  502    0  0.14473079703E+03  0.17900352220E+03 -0.27236089673E+02  0.23184727548E+03  0.46999998093E+01 0.  1.
       -5    1    3    3    0  502 -0.14473079703E+03 -0.17900352220E+03 -0.69640333232E+02  0.24054340685E+03  0.46999998093E+01 0. -1.
</event>
<event>
 5   0  0.1529146E-01  0.5400186E+03  0.7818609E-02  0.1003831E+00
       -1   -1    0    0    0  501  0.00000000000E+00  0.00000000000E+00  0.26417893601E+03  0.26417893606E+03  0.50400001928E-02 0.  1.
        1   -1    0    0  501    0  0.00000000000E+00  0.00000000000E+00 -0.27596830575E+03  0.27596830580E+03  0.50400001928E-02 0. -1.
    10030    2    1    2    0    0  0.00000000000E+00  0.00000000000E+00 -0.11789369740E+02  0.54014724186E+03  0.54001856788E+03 0.  0.
        1    1    3    3  502    0  0.26049947745E+03  0.56426630912E+02 -0.49045095856E+02  0.27101543107E+03  0.50400001928E-02 0. -1.
       -1    1    3    3    0  502 -0.26049947745E+03 -0.56426630912E+02  0.37255726116E+02  0.26913181079E+03  0.50400001928E-02 0.  1.
</event>
<event>
 5   0  0.1453602E-01  0.5770938E+03  0.7818609E-02  0.9954103E-01
        1   -1    0    0  501    0  0.00000000000E+00  0.00000000000E+00  0.17133802243E+04  0.17133802243E+04  0.50400001928E-02 0.  1.
       -1   -1    0    0    0  501  0.00000000000E+00  0.00000000000E+00 -0.48593605501E+02  0.48593605763E+02  0.50400001928E-02 0. -1.
    10030    2    1    2    0    0  0.00000000000E+00  0.00000000000E+00  0.16647866188E+04  0.17619738301E+04  0.57709383268E+03 0.  0.
        2    1    3    3  502    0  0.25787434180E+03  0.11254135425E+03  0.63702314143E+03  0.69639300349E+03  0.25500000920E-02 0. -1.
       -2    1    3    3    0  502 -0.25787434180E+03 -0.11254135425E+03  0.10277634774E+04  0.10655808266E+04  0.25500000920E-02 0.  1.
</event>
<event>
 5   0  0.2466034E-01  0.4985246E+03  0.7818609E-02  0.1014165E+00
        2   -1    0    0  501    0  0.00000000000E+00  0.00000000000E+00  0.39006106060E+03  0.39006106061E+03  0.25500000920E-02 0.  1.
       -2   -1    0    0    0  501  0.00000000000E+00  0.00000000000E+00 -0.15928707705E+03  0.15928707707E+03  0.25500000920E-02 0. -1.
    10030    2    1    2    0    0  0.00000000000E+00  0.00000000000E+00  0.23077398356E+03  0.54934813768E+03  0.49852456799E+03 0.  0.
        3    1    3    3  502    0  0.21061496326E+03  0.10486790791E+03  0.24680305371E+02  0.23656937362E+03  0.10100000352E+00 0. -1.
       -3    1    3    3    0  502 -0.21061496326E+03 -0.10486790791E+03  0.20609367818E+03  0.31277876406E+03  0.10100000352E+00 0.  1.
</event>
<event>
 5   0  0.2511944E-01  0.4876490E+03  0.7818609E-02  0.1017054E+00
       -2   -1    0    0    0  501  0.00000000000E+00  0.00000000000E+00  0.15599427127E+03  0.15599427129E+03  0.25500000920E-02 0. -1.
        2   -1    0    0  501    0  0.00000000000E+00  0.00000000000E+00 -0.38110614303E+03  0.38110614304E+03  0.25500000920E-02 0.  1.
    10030    2    1    2    0    0  0.00000000000E+00  0.00000000000E+00 -0.22511187176E+03  0.53710041432E+03  0.48764895187E+03 0.  0.
        1    1    3    3  502    0 -0.11947757803E+03 -0.17353933485E+03 -0.24771795175E+03  0.32519990165E+03  0.50400001928E-02 0.  1.
       -1    1    3    3    0  502  0.11947757803E+03  0.17353933485E+03  0.22606079991E+02  0.21190051267E+03  0.50400001928E-02 0. -1.
</event>
<event>
 5   0  0.1453602E-01  0.5019870E+03  0.7818609E-02  0.1013262E+00
       -1   -1    0    0    0  501  0.00000000000E+00  0.00000000000E+00  0.91875225528E+02  0.91875225666E+02  0.50400001928E-02 0. -1.
        1   -1    0    0  501    0  0.00000000000E+00  0.00000000000E+00 -0.68568807664E+03  0.68568807666E+03  0.50400001928E-02 0.  1.
    10030    2    1    2    0    0  0.00000000000E+00  0.00000000000E+00 -0.59381285112E+03  0.77756330233E+03  0.50198703865E+03 0.  0.
        2    1    3    3  502    0  0.11265700248E+03 -0.16996115509E+03 -0.52360376265E+03  0.56190683811E+03  0.25500000920E-02 0.  1.
       -2    1    3    3    0  502 -0.11265700248E+03  0.16996115509E+03 -0.70209088465E+02  0.21565646422E+03  0.25500000920E-02 0. -1.
</event>
<event>
 5   0  0.1453602E-01  0.5155986E+03  0.7818609E-02  0.1009786E+00
        1   -1    0    0  501    0  0.00000000000E+00  0.00000000000E+00  0.13284806542E+04  0.13284806543E+04  0.50400001928E-02 0.  1.
       -1   -1    0    0    0  501  0.00000000000E+00  0.00000000000E+00 -0.50027425452E+02  0.50027425706E+02  0.50400001928E-02 0. -1.
    10030    2    1    2    0    0  0.00000000000E+00  0.00000000000E+00  0.12784532288E+04  0.13785080800E+04  0.51559855344E+03 0.  0.
        2    1    3    3  502    0  0.98016803984E+02 -0.89135840740E+02  0.12304988238E+04  0.12376105394E+04  0.25500000920E-02 0.  1.
       -2    1    3    3    0  502 -0.98016803984E+02  0.89135840740E+02  0.47954405043E+02  0.14089754056E+03  0.25500000920E-02 0. -1.
</event>
<event>
 5   0  0.1413361E-01  0.5023044E+03  0.7818609E-02  0.1013179E+00
       -1   -1    0    0    0  501  0.00000000000E+00  0.00000000000E+00  0.40090125781E+03  0.40090125785E+03  0.50400001928E-02 0.  1.
        1   -1    0    0  501    0  0.00000000000E+00  0.00000000000E+00 -0.15733903762E+03  0.15733903770E+03  0.50400001928E-02 0. -1.
    10030    2    1    2    0    0  0.00000000000E+00  0.00000000000E+00  0.24356222019E+03  0.55824029555E+03  0.50230436238E+03 0.  0.
        3    1    3    3  502    0 -0.11879381763E+03  0.95097276959E+02 -0.10027364448E+03  0.18223687105E+03  0.10100000352E+00 0. -1.
       -3    1    3    3    0  502  0.11879381763E+03 -0.95097276959E+02  0.34383586468E+03  0.37600342449E+03  0.10100000352E+00 0.  1.
</event>
<event>
 5   0  0.1439814E-01  0.5058825E+03  0.7818609E-02  0.1012255E+00
       -1   -1    0    0    0  501  0.00000000000E+00  0.00000000000E+00  0.11231655968E+04  0.11231655969E+04  0.50400001928E-02 0. -1.
        1   -1    0    0  501    0  0.00000000000E+00  0.00000000000E+00 -0.56963360955E+02  0.56963361178E+02  0.50400001928E-02 0.  1.
    10030    2    1    2    0    0  0.00000000000E+00  0.00000000000E+00  0.10662022359E+04  0.11801289580E+04  0.50588254543E+03 0.  0.
        4    1    3    3  502    0 -0.10774394579E+03  0.71690974595E+01  0.10666857952E+04  0.10721382152E+04  0.12699999809E+01 0. -1.
       -4    1    3    3    0  502  0.10774394579E+03 -0.71690974595E+01 -0.48355933287E+00  0.10799074286E+03  0.12699999809E+01 0.  1.
</event>
<event>
 5   0  0.2488968E-01  0.4335086E+03  0.7818609E-02  0.1032757E+00
       -2   -1    0    0    0  501  0.00000000000E+00  0.00000000000E+00  0.60188269206E+03  0.60188269206E+03  0.25500000920E-02 0. -1.
        2   -1    0    0  501    0  0.00000000000E+00  0.00000000000E+00 -0.78059100833E+02  0.78059100875E+02  0.25500000920E-02 0.  1.
    10030    2    1    2    0    0  0.00000000000E+00  0.00000000000E+00  0.52382359122E+03  0.67994179294E+03  0.43350857784E+03 0.  0.
        2    1    3    3  502    0  0.12781921370E+03  0.17131231859E+03  0.20543060784E+03  0.29645808563E+03  0.25500000920E-02 0.  1.
       -2    1    3    3    0  502 -0.12781921370E+03 -0.17131231859E+03  0.31839298338E+03  0.38348370730E+03  0.25500000920E-02 0. -1.
</event>
<event>
 5   0  0.2511944E-01  0.4418302E+03  0.7818609E-02  0.1030187E+00
        2   -1    0    0  501    0  0.00000000000E+00  0.00000000000E+00  0.85873669832E+03  0.85873669833E+03  0.25500000920E-02 0.  1.
       -2   -1    0    0    0  501  0.00000000000E+00  0.00000000000E+00 -0.56831729075E+02  0.56831729132E+02  0.25500000920E-02 0. -1.
    10030    2    1    2    0    0  0.00000000000E+00  0.00000000000E+00  0.80190496925E+03  0.91556842746E+03  0.44183024529E+03 0.  0.
        1    1    3    3  502    0 -0.98009339141E+02  0.17585004963E+03  0.21245560308E+03  0.29268832197E+03  0.50400001928E-02 0. -1.
       -1    1    3    3    0  502  0.98009339141E+02 -0.17585004963E+03  0.58944936617E+03  0.62288010549E+03  0.50400001928E-02 0.  1.
</event>
<event>
 5   0  0.9868500E-02  0.4958769E+03  0.7818609E-02  0.1014861E+00
       -3   -1    0    0    0  501  0.00000000000E+00  0.00000000000E+00  0.17215551522E+03  0.17215554485E+03  0.10100000352E+00 0.  1.
        3   -1    0    0  501    0  0.00000000000E+00  0.00000000000E+00 -0.35708093499E+03  0.35708094927E+03  0.10100000352E+00 0. -1.
    10030    2    1    2    0    0  0.00000000000E+00  0.00000000000E+00 -0.18492541977E+03  0.52923649412E+03  0.49587685551E+03 0.  0.
        2    1    3    3  502    0 -0.24364568554E+03 -0.35415308959E+02 -0.12368845184E+03  0.27552912245E+03  0.25500000920E-02 0.  1.
       -2    1    3    3    0  502  0.24364568554E+03  0.35415308959E+02 -0.61236967929E+02  0.25370737167E+03  0.25500000920E-02 0. -1.
</event>
<event>
 5   0  0.1529146E-01  0.5041869E+03  0.7818609E-02  0.1012692E+00
        1   -1    0    0  501    0  0.00000000000E+00  0.00000000000E+00  0.21837174767E+03  0.21837174773E+03  0.50400001928E-02 0.  1.
       -1   -1    0    0    0  501  0.00000000000E+00  0.00000000000E+00 -0.29102260934E+03  0.29102260938E+03  0.50400001928E-02 0. -1.
    10030    2    1    2    0    0  0.00000000000E+00  0.00000000000E+00 -0.72650861666E+02  0.50939435711E+03  0.50418693295E+03 0.  0.
        1    1    3    3  502    0 -0.57353746224E+02 -0.12032398304E+03  0.17985604362E+03  0.22386493596E+03  0.50400001928E-02 0.  1.
       -1    1    3    3    0  502  0.57353746224E+02  0.12032398304E+03 -0.25250690528E+03  0.28552942115E+03  0.50400001928E-02 0. -1.
</event>
<event>
 5   0  0.2488968E-01  0.4926786E+03  0.7818609E-02  0.1015708E+00
        2   -1    0    0  501    0  0.00000000000E+00  0.00000000000E+00  0.50765798743E+03  0.50765798744E+03  0.25500000920E-02 0.  1.
       -2   -1    0    0    0  501  0.00000000000E+00  0.00000000000E+00 -0.11953528859E+03  0.11953528862E+03  0.25500000920E-02 0. -1.
    10030    2    1    2    0    0  0.00000000000E+00  0.00000000000E+00  0.38812269884E+03  0.62719327605E+03  0.49267857288E+03 0.  0.
        2    1    3    3  502    0 -0.49537391872E+00 -0.60853531947E+02  0.49793818379E+03  0.50164313274E+03  0.25500000920E-02 0.  1.
       -2    1    3    3    0  502  0.49537391872E+00  0.60853531947E+02 -0.10981548495E+03  0.12555014331E+03  0.25500000920E-02 0. -1.
</event>
<event>
 5   0  0.1529146E-01  0.5026736E+03  0.7818609E-02  0.1013083E+00
        1   -1    0    0  501    0  0.00000000000E+00  0.00000000000E+00  0.71369998448E+03  0.71369998450E+03  0.50400001928E-02 0.  1.
       -1   -1    0    0    0  501  0.00000000000E+00  0.00000000000E+00 -0.88510847513E+02  0.88510847656E+02  0.50400001928E-02 0. -1.
    10030    2    1    2    0    0  0.00000000000E+00  0.00000000000E+00  0.62518913697E+03  0.80221083216E+03  0.50267361403E+03 0.  0.
        1    1    3    3  502    0  0.21968537218E+02  0.20776497917E+03  0.89619318382E+02  0.22733351150E+03  0.50400001928E-02 0. -1.
       -1    1    3    3    0  502 -0.21968537218E+02 -0.20776497917E+03  0.53556981859E+03  0.57487732066E+03  0.50400001928E-02 0.  1.
</event>
<event>
 5   0  0.2511944E-01  0.4976596E+03  0.7818609E-02  0.1014392E+00
        2   -1    0    0  501    0  0.00000000000E+00  0.00000000000E+00  0.62581072621E+03  0.62581072622E+03  0.25500000920E-02 0. -1.
       -2   -1    0    0    0  501  0.00000000000E+00  0.00000000000E+00 -0.98937688018E+02  0.98937688051E+02  0.25500000920E-02 0.  1.
    10030    2    1    2    0    0  0.00000000000E+00  0.00000000000E+00  0.52687303820E+03  0.72474841427E+03  0.49765958808E+03 0.  0.
        1    1    3    3  502    0  0.69865709292E+02  0.14742750071E+03  0.53705370039E+03  0.56128670252E+03  0.50400001928E-02 0. -1.
       -1    1    3    3    0  502 -0.69865709292E+02 -0.14742750071E+03 -0.10180662189E+02  0.16346171175E+03  0.50400001928E-02 0.  1.
</event>
<event>
 5   0  0.1413361E-01  0.4984167E+03  0.7818609E-02  0.1014193E+00
       -1   -1    0    0    0  501  0.00000000000E+00  0.00000000000E+00  0.85467624712E+02  0.85467624861E+02  0.50400001928E-02 0.  1.
        1   -1    0    0  501    0  0.00000000000E+00  0.00000000000E+00 -0.72664703072E+03  0.72664703073E+03  0.50400001928E-02 0. -1.
    10030    2    1    2    0    0  0.00000000000E+00  0.00000000000E+00 -0.64117940601E+03  0.81211465560E+03  0.49841667623E+03 0.  0.
        3    1    3    3  502    0 -0.15602171322E+03  0.35849595622E+02 -0.63178516188E+03  0.65175184655E+03  0.10100000352E+00 0. -1.
       -3    1    3    3    0  502  0.15602171322E+03 -0.35849595622E+02 -0.93942441252E+01  0.16036280905E+03  0.10100000352E+00 0.  1.
</event>
<event>
 5   0  0.9868500E-02  0.4905802E+03  0.7818609E-02  0.1016267E+00
       -4   -1    0    0    0  501  0.00000000000E+00  0.00000000000E+00  0.89063201872E+02  0.89072256218E+02  0.12699999809E+01 0.  1.
        4   -1    0    0  501    0  0.00000000000E+00  0.00000000000E+00 -0.67551272172E+03  0.67551391556E+03  0.12699999809E+01 0. -1.
    10030    2    1    2    0    0  0.00000000000E+00  0.00000000000E+00 -0.58644951985E+03  0.76458617177E+03  0.49058024291E+03 0.  0.
        2    1    3    3  502    0 -0.17708699781E+03 -0.16928195270E+03 -0.27406940411E+03  0.36760062919E+03  0.25500000920E-02 0. -1.
       -2    1    3    3    0  502  0.17708699781E+03  0.16928195270E+03 -0.31238011575E+03  0.39698554259E+03  0.25500000920E-02 0.  1.
</event>
<event>
 5   0  0.2511944E-01  0.5012620E+03  0.7818609E-02  0.1013450E+00
        2   -1    0    0  501    0  0.00000000000E+00  0.00000000000E+00  0.25822117800E+03  0.25822117801E+03  0.25500000920E-02 0.  1.
       -2   -1    0    0    0  501  0.00000000000E+00  0.00000000000E+00 -0.24326396935E+03  0.24326396936E+03  0.25500000920E-02 0. -1.
    10030    2    1    2    0    0  0.00000000000E+00  0.00000000000E+00  0.14957208647E+02  0.50148514738E+03  0.50126204220E+03 0.  0.
        1    1    3    3  502    0 -0.94957807500E+02 -0.23168737894E+03 -0.34753304300E+01  0.25041586354E+03  0.50400001928E-02 0.  1.
       -1    1    3    3    0  502  0.94957807500E+02  0.23168737894E+03  0.18432539077E+02  0.25106928384E+03  0.50400001928E-02 0. -1.
</event>
<event>
 5   0  0.1453602E-01  0.4916105E+03  0.7818609E-02  0.1015992E+00
       -1   -1    0    0    0  501  0.00000000000E+00  0.00000000000E+00  0.16238289974E+03  0.16238289981E+03  0.50400001928E-02 0.  1.
        1   -1    0    0  501    0  0.00000000000E+00  0.00000000000E+00 -0.37208488910E+03  0.37208488914E+03  0.50400001928E-02 0. -1.
    10030    2    1    2    0    0  0.00000000000E+00  0.00000000000E+00 -0.20970198937E+03  0.53446778895E+03  0.49161050953E+03 0.  0.
        2    1    3    3  502    0 -0.76041468984E+02 -0.23149714998E+03 -0.69672990941E+02  0.25343157089E+03  0.25500000920E-02 0.  1.
       -2    1    3    3    0  502  0.76041468984E+02  0.23149714998E+03 -0.14002899843E+03  0.28103621806E+03  0.25500000920E-02 0. -1.
</event>
<event>
 5   0  0.2488968E-01  0.5049290E+03  0.7818609E-02  0.1012500E+00
       -2   -1    0    0    0  501  0.00000000000E+00  0.00000000000E+00  0.49537492369E+02  0.49537492435E+02  0.25500000920E-02 0.  1.
        2   -1    0    0  501    0  0.00000000000E+00  0.00000000000E+00 -0.12866685320E+04  0.12866685321E+04  0.25500000920E-02 0. -1.
    10030    2    1    2    0    0  0.00000000000E+00  0.00000000000E+00 -0.12371310397E+04  0.13362060245E+04  0.50492903515E+03 0.  0.
        2    1    3    3  502    0  0.17613868867E+03  0.15611790553E+03 -0.86024745473E+03  0.89186508030E+03  0.25500000920E-02 0. -1.
       -2    1    3    3    0  502 -0.17613868867E+03 -0.15611790553E+03 -0.37688358495E+03  0.44434094419E+03  0.25500000920E-02 0.  1.
</event>
<event>
 5   0  0.2511944E-01  0.5047005E+03  0.7818609E-02  0.1012559E+00
        2   -1    0    0  501    0  0.00000000000E+00  0.00000000000E+00  0.17166188929E+04  0.17166188929E+04  0.25500000920E-02 0.  1.
       -2   -1    0    0    0  501  0.00000000000E+00  0.00000000000E+00 -0.37096559508E+02  0.37096559595E+02  0.25500000920E-02 0. -1.
    10030    2    1    2    0    0  0.00000000000E+00  0.00000000000E+00  0.16795223334E+04  0.17537154525E+04  0.50470052503E+03 0.  0.
        1    1    3    3  502    0  0.92816366890E+01 -0.46226490903E+02  0.17011777596E+04  0.17018310160E+04  0.50400001928E-02 0.  1.
       -1    1    3    3    0  502 -0.92816366890E+01  0.46226490903E+02 -0.21655426208E+02  0.51884436496E+02  0.50400001928E-02 0. -1.
</event>
<event>
 5   0  0.9868500E-02  0.5043047E+03  0.7818609E-02  0.1012661E+00
        3   -1    0    0  501    0  0.00000000000E+00  0.00000000000E+00  0.34085791990E+03  0.34085793486E+03  0.10100000352E+00 0.  1.
       -3   -1    0    0    0  501  0.00000000000E+00  0.00000000000E+00 -0.18653168253E+03  0.18653170987E+03  0.10100000352E+00 0. -1.
    10030    2    1    2    0    0  0.00000000000E+00  0.00000000000E+00  0.15432623737E+03  0.52738964473E+03  0.50430471922E+03 0.  0.
        5    1    3    3  502    0  0.81983457068E+02  0.50696702103E+02  0.32078011911E+03  0.33498271247E+03  0.46999998093E+01 0.  1.
       -5    1    3    3    0  502 -0.81983457068E+02 -0.50696702103E+02 -0.16645388175E+03  0.19240693226E+03  0.46999998093E+01 0. -1.
</event>
<event>
 5   0  0.1453602E-01  0.5003603E+03  0.7818609E-02  0.1013685E+00
       -1   -1    0    0    0  501  0.00000000000E+00  0.00000000000E+00  0.14740566604E+03  0.14740566613E+03  0.50400001928E-02 0.  1.
        1   -1    0    0  501    0  0.00000000000E+00  0.00000000000E+00 -0.42461125186E+03  0.42461125189E+03  0.50400001928E-02 0. -1.
    10030    2    1    2    0    0  0.00000000000E+00  0.00000000000E+00 -0.27720558582E+03  0.57201691802E+03  0.50036028788E+03 0.  0.
        2    1    3    3  502    0 -0.11551676821E+03  0.20116724737E+03 -0.24570955325E+03  0.33791355362E+03  0.25500000920E-02 0. -1.
       -2    1    3    3    0  502  0.11551676821E+03 -0.20116724737E+03 -0.31496032566E+02  0.23410336440E+03  0.25500000920E-02 0.  1.
</event>
<event>
 5   0  0.1439814E-01  0.4851914E+03  0.7818609E-02  0.1017718E+00
        1   -1    0    0  501    0  0.00000000000E+00  0.00000000000E+00  0.16956945437E+04  0.16956945437E+04  0.50400001928E-02 0.  1.
       -1   -1    0    0    0  501  0.00000000000E+00  0.00000000000E+00 -0.34707119039E+02  0.34707119404E+02  0.50400001928E-02 0. -1.
    10030    2    1    2    0    0  0.00000000000E+00  0.00000000000E+00  0.16609874247E+04  0.17304016631E+04  0.48519139607E+03 0.  0.
        4    1    3    3  502    0 -0.10015326377E+03 -0.19753877657E+02  0.16153530331E+04  0.16185758945E+04  0.12699999809E+01 0.  1.
       -4    1    3    3    0  502  0.10015326377E+03  0.19753877657E+02  0.45634391579E+02  0.11182576859E+03  0.12699999809E+01 0. -1.
</event>
<event>
 5   0  0.2504064E-01  0.4891792E+03  0.7818609E-02  0.1016643E+00
       -2   -1    0    0    0  501  0.00000000000E+00  0.00000000000E+00  0.53440756039E+03  0.53440756039E+03  0.25500000920E-02 0.  1.
        2   -1    0    0  501    0  0.00000000000E+00  0.00000000000E+00 -0.11194466454E+03  0.11194466457E+03  0.25500000920E-02 0. -1.
    10030    2    1    2    0    0  0.00000000000E+00  0.00000000000E+00  0.42246289584E+03  0.64635222497E+03  0.48917921088E+03 0.  0.
        5    1    3    3  502    0  0.20302000315E+03 -0.11768995021E+03  0.12032125356E+03  0.26375621341E+03  0.46999998093E+01 0.  1.
       -5    1    3    3    0  502 -0.20302000315E+03  0.11768995021E+03  0.30214164228E+03  0.38259601155E+03  0.46999998093E+01 0. -1.
</event>
<event>
 5   0  0.1413361E-01  0.5013051E+03  0.7818609E-02  0.1013439E+00
        1   -1    0    0  501    0  0.00000000000E+00  0.00000000000E+00  0.55436846010E+03  0.55436846012E+03  0.50400001928E-02 0. -1.
       -1   -1    0    0    0  501  0.00000000000E+00  0.00000000000E+00 -0.11333024224E+03  0.11333024236E+03  0.50400001928E-02 0.  1.
    10030    2    1    2    0    0  0.00000000000E+00  0.00000000000E+00  0.44103821786E+03  0.66769870248E+03  0.50130514428E+03 0.  0.
        3    1    3    3  502    0 -0.14529402848E+03 -0.13352629089E+03  0.14664842417E+02  0.19787544789E+03  0.10100000352E+00 0.  1.
       -3    1    3    3    0  502  0.14529402848E+03  0.13352629089E+03  0.42637337544E+03  0.46982325459E+03  0.10100000352E+00 0. -1.
</event>
<event>
 5   0  0.1529146E-01  0.5121913E+03  0.7818609E-02  0.1010645E+00
       -1   -1    0    0    0  501  0.00000000000E+00  0.00000000000E+00  0.41178952833E+03  0.41178952836E+03  0.50400001928E-02 0. -1.
        1   -1    0    0  501    0  0.00000000000E+00  0.00000000000E+00 -0.15926819833E+03  0.15926819841E+03  0.50400001928E-02 0.  1.
    10030    2    1    2    0    0  0.00000000000E+00  0.00000000000E+00  0.25252133000E+03  0.57105772677E+03  0.51219127794E+03 0.  0.
        1    1    3    3  502    0  0.20115817631E+03 -0.61494105746E+02 -0.36606385081E+02  0.21350916700E+03  0.50400001928E-02 0.  1.
       -1    1    3    3    0  502 -0.20115817631E+03  0.61494105746E+02  0.28912771508E+03  0.35754855977E+03  0.50400001928E-02 0. -1.
</event>
<event>
 5   0  0.2466034E-01  0.5022871E+03  0.7818609E-02  0.1013184E+00
        2   -1    0    0  501    0  0.00000000000E+00  0.00000000000E+00  0.40700557315E+03  0.40700557316E+03  0.25500000920E-02 0. -1.
       -2   -1    0    0    0  501  0.00000000000E+00  0.00000000000E+00 -0.15496859614E+03  0.15496859616E+03  0.25500000920E-02 0.  1.
    10030    2    1    2    0    0  0.00000000000E+00  0.00000000000E+00  0.25203697702E+03  0.56197416932E+03  0.50228709838E+03 0.  0.
        3    1    3    3  502    0 -0.23093768173E+03 -0.59587988969E+02  0.37991824219E+02  0.24150844743E+03  0.10100000352E+00 0.  1.
       -3    1    3    3    0  502  0.23093768173E+03  0.59587988969E+02  0.21404515280E+03  0.32046572189E+03  0.10100000352E+00 0. -1.
</event>
<event>
 5   0  0.2504064E-01  0.5045712E+03  0.7818609E-02  0.1012593E+00
        2   -1    0    0  501    0  0.00000000000E+00  0.00000000000E+00  0.16339658164E+03  0.16339658166E+03  0.25500000920E-02 0. -1.
       -2   -1    0    0    0  501  0.00000000000E+00  0.00000000000E+00 -0.38953092411E+03  0.38953092412E+03  0.25500000920E-02 0.  1.
    10030    2    1    2    0    0  0.00000000000E+00  0.00000000000E+00 -0.22613434248E+03  0.55292750578E+03  0.50457119002E+03 0.  0.
        5    1    3    3  502    0 -0.41020677167E+02 -0.23559953570E+03 -0.20098094921E+03  0.31241841994E+03  0.46999998093E+01 0.  1.
       -5    1    3    3    0  502  0.41020677167E+02  0.23559953570E+03 -0.25153393264E+02  0.24050908583E+03  0.46999998093E+01 0. -1.
</event>
<event>
 5   0  0.1448458E-01  0.5086679E+03  0.7818609E-02  0.1011541E+00
        1   -1    0    0  501    0  0.00000000000E+00  0.00000000000E+00  0.19640131021E+03  0.19640131027E+03  0.50400001928E-02 0. -1.
       -1   -1    0    0    0  501  0.00000000000E+00  0.00000000000E+00 -0.32935502776E+03  0.32935502780E+03  0.50400001928E-02 0.  1.
    10030    2    1    2    0    0  0.00000000000E+00  0.00000000000E+00 -0.13295371755E+03  0.52575633807E+03  0.50866790346E+03 0.  0.
        5    1    3    3  502    0 -0.12436794501E+03 -0.21883063762E+03 -0.10387863297E+03  0.27233636205E+03  0.46999998093E+01 0.  1.
       -5    1    3    3    0  502  0.12436794501E+03  0.21883063762E+03 -0.29075084581E+02  0.25341997603E+03  0.46999998093E+01 0. -1.
</event>
<event>
 5   0  0.1453602E-01  0.5006131E+03  0.7818609E-02  0.1013619E+00
       -1   -1    0    0    0  501  0.00000000000E+00  0.00000000000E+00  0.61462767116E+02  0.61462767322E+02  0.50400001928E-02 0.  1.
        1   -1    0    0  501    0  0.00000000000E+00  0.00000000000E+00 -0.10193711113E+04  0.10193711113E+04  0.50400001928E-02 0. -1.
    10030    2    1    2    0    0  0.00000000000E+00  0.00000000000E+00 -0.95790834415E+03  0.10808338786E+04  0.50061310145E+03 0.  0.
        2    1    3    3  502    0  0.31242648225E+02 -0.24230637655E+03 -0.59651448901E+03  0.64460687150E+03  0.25500000920E-02 0. -1.
       -2    1    3    3    0  502 -0.31242648225E+02  0.24230637655E+03 -0.36139385514E+03  0.43622700710E+03  0.25500000920E-02 0.  1.
</event>
<event>
 5   0  0.2413301E-01  0.4993197E+03  0.7818609E-02  0.1013957E+00
       -2   -1    0    0    0  501  0.00000000000E+00  0.00000000000E+00  0.19152764711E+03  0.19152764713E+03  0.25500000920E-02 0.  1.
        2   -1    0    0  501    0  0.00000000000E+00  0.00000000000E+00 -0.32543628851E+03  0.32543628852E+03  0.25500000920E-02 0. -1.
    10030    2    1    2    0    0  0.00000000000E+00  0.00000000000E+00 -0.13390864139E+03  0.51696393564E+03  0.49931972374E+03 0.  0.
        4    1    3    3  502    0 -0.14930449437E+03 -0.13323223361E+03  0.87605064910E+02  0.21844660769E+03  0.12699999809E+01 0.  1.
       -4    1    3    3    0  502  0.14930449437E+03  0.13323223361E+03 -0.22151370630E+03  0.29851732796E+03  0.12699999809E+01 0. -1.
</event>
<event>
 5   0  0.9868500E-02  0.5037999E+03  0.7818609E-02  0.1012792E+00
       -4   -1    0    0    0  501  0.00000000000E+00  0.00000000000E+00  0.89480786936E+03  0.89480877061E+03  0.12699999809E+01 0. -1.
        4   -1    0    0  501    0  0.00000000000E+00  0.00000000000E+00 -0.70906460437E+02  0.70917832959E+02  0.12699999809E+01 0.  1.
    10030    2    1    2    0    0  0.00000000000E+00  0.00000000000E+00  0.82390140892E+03  0.96572660357E+03  0.50379990197E+03 0.  0.
        2    1    3    3  502    0  0.32463163422E+02 -0.64726467102E+02  0.87443363695E+03  0.87742666813E+03  0.25500000920E-02 0. -1.
       -2    1    3    3    0  502 -0.32463163422E+02  0.64726467102E+02 -0.50532228024E+02  0.88299935439E+02  0.25500000920E-02 0.  1.
</event>
<event>
 5   0  0.1439814E-01  0.4069123E+03  0.7818609E-02  0.1041412E+00
        1   -1    0    0  501    0  0.00000000000E+00  0.00000000000E+00  0.77804183205E+02  0.77804183368E+02  0.50400001928E-02 0. -1.
       -1   -1    0    0    0  501  0.00000000000E+00  0.00000000000E+00 -0.53203324335E+03  0.53203324337E+03  0.50400001928E-02 0.  1.
    10030    2    1    2    0    0  0.00000000000E+00  0.00000000000E+00 -0.45422906014E+03  0.60983742674E+03  0.40691233451E+03 0.  0.
        4    1    3    3  502    0 -0.15195413588E+03  0.13020844516E+03 -0.28214950519E+03  0.34591076130E+03  0.12699999809E+01 0.  1.
       -4    1    3    3    0  502  0.15195413588E+03 -0.13020844516E+03 -0.17207955495E+03  0.26392666544E+03  0.12699999809E+01 0. -1.
</event>
<event>
 5   0  0.2488968E-01  0.4946089E+03  0.7818609E-02  0.1015196E+00
       -2   -1    0    0    0  501  0.00000000000E+00  0.00000000000E+00  0.58206298402E+03  0.58206298402E+03  0.25500000920E-02 0. -1.
        2   -1    0    0  501    0  0.00000000000E+00  0.00000000000E+00 -0.10507364421E+03  0.10507364424E+03  0.25500000920E-02 0.  1.
    10030    2    1    2    0    0  0.00000000000E+00  0.00000000000E+00  0.47698933980E+03  0.68713662826E+03  0.49460885113E+03 0.  0.
        2    1    3    3  502    0 -0.24577806906E+03  0.15880056835E+02  0.26957307511E+03  0.36514199740E+03  0.25500000920E-02 0.  1.
       -2    1    3    3    0  502  0.24577806906E+03 -0.15880056835E+02  0.20741626469E+03  0.32199463086E+03  0.25500000920E-02 0. -1.
</event>
<event>
 5   0  0.9868500E-02  0.3809684E+03  0.7818609E-02  0.1050576E+00
       -3   -1    0    0    0  501  0.00000000000E+00  0.00000000000E+00  0.66057589099E+02  0.66057666312E+02  0.10100000352E+00 0.  1.
        3   -1    0    0  501    0  0.00000000000E+00  0.00000000000E+00 -0.54928142454E+03  0.54928143383E+03  0.10100000352E+00 0. -1.
    10030    2    1    2    0    0  0.00000000000E+00  0.00000000000E+00 -0.48322383544E+03  0.61533910014E+03  0.38096841473E+03 0.  0.
        4    1    3    3  502    0 -0.16430826622E+03 -0.50183417223E+02 -0.10874254961E+03  0.20332765849E+03  0.12699999809E+01 0. -1.
       -4    1    3    3    0  502  0.16430826622E+03  0.50183417223E+02 -0.37448128583E+03  0.41201144165E+03  0.12699999809E+01 0.  1.
</event>
<event>
 5   0  0.1453602E-01  0.5109040E+03  0.7818609E-02  0.1010971E+00
       -1   -1    0    0    0  501  0.00000000000E+00  0.00000000000E+00  0.57633364591E+02  0.57633364811E+02  0.50400001928E-02 0. -1.
        1   -1    0    0  501    0  0.00000000000E+00  0.00000000000E+00 -0.11322561527E+04  0.11322561528E+04  0.50400001928E-02 0.  1.
    10030    2    1    2    0    0  0.00000000000E+00  0.00000000000E+00 -0.10746227882E+04  0.11898895176E+04  0.51090402934E+03 0.  0.
        2    1    3    3  502    0 -0.18821889364E+03 -0.44081195826E+02 -0.92623311434E+03  0.94619093519E+03  0.25500000920E-02 0.  1.
       -2    1    3    3    0  502  0.18821889364E+03  0.44081195826E+02 -0.14838967381E+03  0.24369858237E+03  0.25500000920E-02 0. -1.
</event>
<event>
 5   0  0.2511944E-01  0.5184050E+03  0.7818609E-02  0.1009084E+00
       -2   -1    0    0    0  501  0.00000000000E+00  0.00000000000E+00  0.38429756307E+03  0.38429756308E+03  0.25500000920E-02 0. -1.
        2   -1    0    0  501    0  0.00000000000E+00  0.00000000000E+00 -0.17482793330E+03  0.17482793332E+03  0.25500000920E-02 0.  1.
    10030    2    1    2    0    0  0.00000000000E+00  0.00000000000E+00  0.20946962977E+03  0.55912549639E+03  0.51840504909E+03 0.  0.
        1    1    3    3  502    0  0.98755474651E+02  0.57215641745E+02 -0.14626771561E+03  0.18552767472E+03  0.50400001928E-02 0.  1.
       -1    1    3    3    0  502 -0.98755474651E+02 -0.57215641745E+02  0.35573734538E+03  0.37359782167E+03  0.50400001928E-02 0. -1.
</event>
<event>
 5   0  0.1529146E-01  0.4611208E+03  0.7818609E-02  0.1024457E+00
       -1   -1    0    0    0  501  0.00000000000E+00  0.00000000000E+00  0.15956377436E+03  0.15956377444E+03  0.50400001928E-02 0.  1.
        1   -1    0    0  501    0  0.00000000000E+00  0.00000000000E+00 -0.33314643307E+03  0.33314643311E+03  0.50400001928E-02 0. -1.
    10030    2    1    2    0    0  0.00000000000E+00  0.00000000000E+00 -0.17358265871E+03  0.49271020755E+03  0.46112081847E+03 0.  0.
        1    1    3    3  502    0 -0.13448273409E+03 -0.10553938873E+03  0.78512865161E+02  0.18811815000E+03  0.50400001928E-02 0.  1.
       -1    1    3    3    0  502  0.13448273409E+03  0.10553938873E+03 -0.25209552387E+03  0.30459205755E+03  0.50400001928E-02 0. -1.
</event>
<event>
 5   0  0.1413361E-01  0.5012018E+03  0.7818609E-02  0.1013466E+00
       -1   -1    0    0    0  501  0.00000000000E+00  0.00000000000E+00  0.88138752237E+02  0.88138752381E+02  0.50400001928E-02 0.  1.
        1   -1    0    0  501    0  0.00000000000E+00  0.00000000000E+00 -0.71252226109E+03  0.71252226110E+03  0.50400001928E-02 0. -1.
    10030    2    1    2    0    0  0.00000000000E+00  0.00000000000E+00 -0.62438350885E+03  0.80066101349E+03  0.50120184795E+03 0.  0.
        3    1    3    3  502    0  0.13311689162E+03 -0.19051796065E+03 -0.16247424008E+03  0.28357554382E+03  0.10100000352E+00 0.  1.
       -3    1    3    3    0  502 -0.13311689162E+03  0.19051796065E+03 -0.46190926877E+03  0.51708546967E+03  0.10100000352E+00 0. -1.
</event>
<event>
 5   0  0.2413301E-01  0.5241836E+03  0.7818609E-02  0.1007653E+00
        2   -1    0    0  501    0  0.00000000000E+00  0.00000000000E+00  0.11427538166E+03  0.11427538169E+03  0.25500000920E-02 0.  1.
       -2   -1    0    0    0  501  0.00000000000E+00  0.00000000000E+00 -0.60111029356E+03  0.60111029357E+03  0.25500000920E-02 0. -1.
    10030    2    1    2    0    0  0.00000000000E+00  0.00000000000E+00 -0.48683491190E+03  0.71538567526E+03  0.52418358704E+03 0.  0.
        4    1    3    3  502    0  0.16611204297E+03  0.13635688120E+02  0.32626816125E+02  0.16983893794E+03  0.12699999809E+01 0.  1.
       -4    1    3    3    0  502 -0.16611204297E+03 -0.13635688120E+02 -0.51946172802E+03  0.54554673731E+03  0.12699999809E+01 0. -1.
</event>
<event>
 5   0  0.2511944E-01  0.4973387E+03  0.7818609E-02  0.1014476E+00
        2   -1    0    0  501    0  0.00000000000E+00  0.00000000000E+00  0.15784602820E+04  0.15784602820E+04  0.25500000920E-02 0. -1.
       -2   -1    0    0    0  501  0.00000000000E+00  0.00000000000E+00 -0.39175165145E+02  0.39175165228E+02  0.25500000920E-02 0.  1.
    10030    2    1    2    0    0  0.00000000000E+00  0.00000000000E+00  0.15392851168E+04  0.16176354472E+04  0.49733868657E+03 0.  0.
        1    1    3    3  502    0 -0.79075641805E+02 -0.12580775410E+03  0.12111389632E+03  0.19170061039E+03  0.50400001928E-02 0.  1.
       -1    1    3    3    0  502  0.79075641805E+02  0.12580775410E+03  0.14181712205E+04  0.14259348368E+04  0.50400001928E-02 0. -1.
</event>
<event>
 5   0  0.9868500E-02  0.5085054E+03  0.7818609E-02  0.1011582E+00
        4   -1    0    0  501    0  0.00000000000E+00  0.00000000000E+00  0.10746256929E+03  0.10747007350E+03  0.12699999809E+01 0.  1.
       -4   -1    0    0    0  501  0.00000000000E+00  0.00000000000E+00 -0.60152391195E+03  0.60152525263E+03  0.12699999809E+01 0. -1.
    10030    2    1    2    0    0  0.00000000000E+00  0.00000000000E+00 -0.49406134266E+03  0.70899532613E+03  0.50850542000E+03 0.  0.
        4    1    3    3  502    0 -0.13803022707E+03 -0.13754304244E+02  0.50055163738E+02  0.14747425805E+03  0.12699999809E+01 0.  1.
       -4    1    3    3    0  502  0.13803022707E+03  0.13754304244E+02 -0.54411650640E+03  0.56152106809E+03  0.12699999809E+01 0. -1.
</event>
<event>
 5   0  0.1439814E-01  0.5093324E+03  0.7818609E-02  0.1011371E+00
        1   -1    0    0  501    0  0.00000000000E+00  0.00000000000E+00  0.68850491944E+03  0.68850491946E+03  0.50400001928E-02 0.  1.
       -1   -1    0    0    0  501  0.00000000000E+00  0.00000000000E+00 -0.94196689835E+02  0.94196689970E+02  0.50400001928E-02 0. -1.
    10030    2    1    2    0    0  0.00000000000E+00  0.00000000000E+00  0.59430822960E+03  0.78270160943E+03  0.50933244313E+03 0.  0.
        4    1    3    3  502    0 -0.15913381920E+03 -0.30087377112E+02  0.59916739059E+03  0.62067060307E+03  0.12699999809E+01 0.  1.
       -4    1    3    3    0  502  0.15913381920E+03  0.30087377112E+02 -0.48591609875E+01  0.16203100635E+03  0.12699999809E+01 0. -1.
</event>
<event>
 5   0  0.1448458E-01  0.4932466E+03  0.7818609E-02  0.1015557E+00
        1   -1    0    0  501    0  0.00000000000E+00  0.00000000000E+00  0.90397086968E+03  0.90397086969E+03  0.50400001928E-02 0. -1.
       -1   -1    0    0    0  501  0.00000000000E+00  0.00000000000E+00 -0.67284305786E+02  0.67284305974E+02  0.50400001928E-02 0.  1.
    10030    2    1    2    0    0  0.00000000000E+00  0.00000000000E+00  0.83668656389E+03  0.97125517566E+03  0.49324660167E+03 0.  0.
        5    1    3    3  502    0  0.15035372274E+03 -0.96986765136E+02  0.75244381105E+03  0.77343807337E+03  0.46999998093E+01 0. -1.
       -5    1    3    3    0  502 -0.15035372274E+03  0.96986765136E+02  0.84242752836E+02  0.19781710229E+03  0.46999998093E+01 0.  1.
</event>
<event>
 5   0  0.2488968E-01  0.3291364E+03  0.7818609E-02  0.1071520E+00
       -2   -1    0    0    0  501  0.00000000000E+00  0.00000000000E+00  0.40178193036E+02  0.40178193117E+02  0.25500000920E-02 0.  1.
        2   -1    0    0  501    0  0.00000000000E+00  0.00000000000E+00 -0.67406466205E+03  0.67406466206E+03  0.25500000920E-02 0. -1.
    10030    2    1    2    0    0  0.00000000000E+00  0.00000000000E+00 -0.63388646902E+03  0.71424285518E+03  0.32913644673E+03 0.  0.
        2    1    3    3  502    0 -0.72957463519E+02 -0.10718336000E+03 -0.97010568601E+02  0.16193243829E+03  0.25500000920E-02 0.  1.
       -2    1    3    3    0  502  0.72957463519E+02  0.10718336000E+03 -0.53687590042E+03  0.55231041688E+03  0.25500000920E-02 0. -1.
</event>
<event>
 5   0  0.1439814E-01  0.4640407E+03  0.7818609E-02  0.1023616E+00
       -1   -1    0    0    0  501  0.00000000000E+00  0.00000000000E+00  0.65692579837E+02  0.65692580030E+02  0.50400001928E-02 0. -1.
        1   -1    0    0  501    0  0.00000000000E+00  0.00000000000E+00 -0.81947530752E+03  0.81947530754E+03  0.50400001928E-02 0.  1.
    10030    2    1    2    0    0  0.00000000000E+00  0.00000000000E+00 -0.75378272769E+03  0.88516788757E+03  0.46404071871E+03 0.  0.
        4    1    3    3  502    0  0.10094860983E+03 -0.18504193810E+03 -0.56183930777E+03  0.60008012910E+03  0.12699999809E+01 0.  1.
       -4    1    3    3    0  502 -0.10094860983E+03  0.18504193810E+03 -0.19194341992E+03  0.28508775847E+03  0.12699999809E+01 0. -1.
</event>
<event>
 5   0  0.2504064E-01  0.4913866E+03  0.7818609E-02  0.1016052E+00
        2   -1    0    0  501    0  0.00000000000E+00  0.00000000000E+00  0.20715213266E+04  0.20715213266E+04  0.25500000920E-02 0.  1.
       -2   -1    0    0    0  501  0.00000000000E+00  0.00000000000E+00 -0.29140508799E+02  0.29140508911E+02  0.25500000920E-02 0. -1.
    10030    2    1    2    0    0  0.00000000000E+00  0.00000000000E+00  0.20423808178E+04  0.21006618355E+04  0.49138655075E+03 0.  0.
        5    1    3    3  502    0  0.56569413570E+02  0.15858189797E+03  0.17858575611E+04  0.17937830514E+04  0.46999998093E+01 0.  1.
       -5    1    3    3    0  502 -0.56569413570E+02 -0.15858189797E+03  0.25652325669E+03  0.30687878411E+03  0.46999998093E+01 0. -1.
</event>
<event>
 5   0  0.1448458E-01  0.4907084E+03  0.7818609E-02  0.1016233E+00
        1   -1    0    0  501    0  0.00000000000E+00  0.00000000000E+00  0.59182873085E+03  0.59182873087E+03  0.50400001928E-02 0.  1.
       -1   -1    0    0    0  501  0.00000000000E+00  0.00000000000E+00 -0.10171641185E+03  0.10171641197E+03  0.50400001928E-02 0. -1.
    10030    2    1    2    0    0  0.00000000000E+00  0.00000000000E+00  0.49011231900E+03  0.69354514285E+03  0.49070844697E+03 0.  0.
        5    1    3    3  502    0 -0.81221263315E+02  0.21050770644E+03  0.10900494235E+03  0.25062832151E+03  0.46999998093E+01 0. -1.
       -5    1    3    3    0  502  0.81221263315E+02 -0.21050770644E+03  0.38110737665E+03  0.44291682134E+03  0.46999998093E+01 0.  1.
</event>
<event>
 5   0  0.1439814E-01  0.4911817E+03  0.7818609E-02  0.1016107E+00
       -1   -1    0    0    0  501  0.00000000000E+00  0.00000000000E+00  0.29571541479E+03  0.29571541483E+03  0.50400001928E-02 0. -1.
        1   -1    0    0  501    0  0.00000000000E+00  0.00000000000E+00 -0.20396254243E+03  0.20396254249E+03  0.50400001928E-02 0.  1.
    10030    2    1    2    0    0  0.00000000000E+00  0.00000000000E+00  0.91752872356E+02  0.49967795732E+03  0.49118170919E+03 0.  0.
        4    1    3    3  502    0  0.13764424816E+03  0.19063598260E+03  0.11799155528E+03  0.26308104632E+03  0.12699999809E+01 0. -1.
       -4    1    3    3    0  502 -0.13764424816E+03 -0.19063598260E+03 -0.26238682926E+02  0.23659691100E+03  0.12699999809E+01 0.  1.
</event>
<event>
 5   0  0.2488968E-01  0.5052762E+03  0.7818609E-02  0.1012411E+00
        2   -1    0    0  501    0  0.00000000000E+00  0.00000000000E+00  0.31771797183E+03  0.31771797184E+03  0.25500000920E-02 0. -1.
       -2   -1    0    0    0  501  0.00000000000E+00  0.00000000000E+00 -0.20088890597E+03  0.20088890599E+03  0.25500000920E-02 0.  1.
    10030    2    1    2    0    0  0.00000000000E+00  0.00000000000E+00  0.11682906586E+03  0.51860687783E+03  0.50527622455E+03 0.  0.
        2    1    3    3  502    0 -0.10263323636E+03 -0.22979681909E+03  0.81038221647E+02  0.26439998609E+03  0.25500000920E-02 0. -1.
       -2    1    3    3    0  502  0.10263323636E+03  0.22979681909E+03  0.35790844215E+02  0.25420689174E+03  0.25500000920E-02 0.  1.
</event>
<event>
 5   0  0.1448458E-01  0.4741942E+03  0.7818609E-02  0.1020743E+00
        1   -1    0    0  501    0  0.00000000000E+00  0.00000000000E+00  0.55912666644E+03  0.55912666646E+03  0.50400001928E-02 0. -1.
       -1   -1    0    0    0  501  0.00000000000E+00  0.00000000000E+00 -0.10054079477E+03  0.10054079490E+03  0.50400001928E-02 0.  1.
    10030    2    1    2    0    0  0.00000000000E+00  0.00000000000E+00  0.45858587167E+03  0.65966746136E+03  0.47419421959E+03 0.  0.
        5    1    3    3  502    0 -0.10031156773E+03 -0.60480464339E+02  0.51599016664E+03  0.52913914924E+03  0.46999998093E+01 0. -1.
       -5    1    3    3    0  502  0.10031156773E+03  0.60480464339E+02 -0.57404294974E+02  0.13052831213E+03  0.46999998093E+01 0.  1.
</event>
<event>
 5   0  0.2511944E-01  0.4939215E+03  0.7818609E-02  0.1015378E+00
        2   -1    0    0  501    0  0.00000000000E+00  0.00000000000E+00  0.75062434933E+03  0.75062434933E+03  0.25500000920E-02 0.  1.
       -2   -1    0    0    0  501  0.00000000000E+00  0.00000000000E+00 -0.81251833662E+02  0.81251833702E+02  0.25500000920E-02 0. -1.
    10030    2    1    2    0    0  0.00000000000E+00  0.00000000000E+00  0.66937251566E+03  0.83187618303E+03  0.49392147065E+03 0.  0.
        1    1    3    3  502    0 -0.17811190301E+03 -0.39526512135E+01  0.46638369807E+02  0.18415920017E+03  0.50400001928E-02 0. -1.
       -1    1    3    3    0  502  0.17811190301E+03  0.39526512135E+01  0.62273414586E+03  0.64771698286E+03  0.50400001928E-02 0.  1.
</event>
<event>
 5   0  0.1439814E-01  0.5069379E+03  0.7818609E-02  0.1011984E+00
        1   -1    0    0  501    0  0.00000000000E+00  0.00000000000E+00  0.67408237361E+03  0.67408237363E+03  0.50400001928E-02 0.  1.
       -1   -1    0    0    0  501  0.00000000000E+00  0.00000000000E+00 -0.95309595812E+02  0.95309595945E+02  0.50400001928E-02 0. -1.
    10030    2    1    2    0    0  0.00000000000E+00  0.00000000000E+00  0.57877277780E+03  0.76939196958E+03  0.50693793952E+03 0.  0.
        4    1    3    3  502    0  0.16970207482E+03  0.17683518350E+03  0.19131475138E+03  0.31092189263E+03  0.12699999809E+01 0.  1.
       -4    1    3    3    0  502 -0.16970207482E+03 -0.17683518350E+03  0.38745802642E+03  0.45847007695E+03  0.12699999809E+01 0. -1.
</event>
<event>
 5   0  0.1453602E-01  0.5027381E+03  0.7818609E-02  0.1013067E+00
       -1   -1    0    0    0  501  0.00000000000E+00  0.00000000000E+00  0.50590857934E+02  0.50590858185E+02  0.50400001928E-02 0. -1.
        1   -1    0    0  501    0  0.00000000000E+00  0.00000000000E+00 -0.12489687197E+04  0.12489687197E+04  0.50400001928E-02 0.  1.
    10030    2    1    2    0    0  0.00000000000E+00  0.00000000000E+00 -0.11983778618E+04  0.12995595779E+04  0.50273809974E+03 0.  0.
        2    1    3    3  502    0 -0.40508655300E+02  0.23418927817E+03 -0.38758745272E+03  0.45465327743E+03  0.25500000920E-02 0.  1.
       -2    1    3    3    0  502  0.40508655300E+02 -0.23418927817E+03 -0.81079040907E+03  0.84490630049E+03  0.25500000920E-02 0. -1.
</event>
<event>
 5   0  0.2413301E-01  0.4822998E+03  0.7818609E-02  0.1018505E+00
       -2   -1    0    0    0  501  0.00000000000E+00  0.00000000000E+00  0.92454935511E+02  0.92454935546E+02  0.25500000920E-02 0. -1.
        2   -1    0    0  501    0  0.00000000000E+00  0.00000000000E+00 -0.62899050899E+03  0.62899050899E+03  0.25500000920E-02 0.  1.
    10030    2    1    2    0    0  0.00000000000E+00  0.00000000000E+00 -0.53653557348E+03  0.72144544454E+03  0.48229981116E+03 0.  0.
        4    1    3    3  502    0 -0.23624621101E+03  0.45976610807E+02 -0.29073251553E+03  0.37742963509E+03  0.12699999809E+01 0.  1.
       -4    1    3    3    0  502  0.23624621101E+03 -0.45976610807E+02 -0.24580305795E+03  0.34401580945E+03  0.12699999809E+01 0. -1.
</event>
<event>
 5   0  0.2488968E-01  0.5029073E+03  0.7818609E-02  0.1013023E+00
       -2   -1    0    0    0  501  0.00000000000E+00  0.00000000000E+00  0.50115376052E+02  0.50115376117E+02  0.25500000920E-02 0.  1.
        2   -1    0    0  501    0  0.00000000000E+00  0.00000000000E+00 -0.12616673033E+04  0.12616673033E+04  0.25500000920E-02 0. -1.
    10030    2    1    2    0    0  0.00000000000E+00  0.00000000000E+00 -0.12115519273E+04  0.13117826794E+04  0.50290727337E+03 0.  0.
        2    1    3    3  502    0 -0.52261049065E+02  0.24011978691E+03 -0.74478678077E+03  0.78428061186E+03  0.25500000920E-02 0. -1.
       -2    1    3    3    0  502  0.52261049065E+02 -0.24011978691E+03 -0.46676514650E+03  0.52750206758E+03  0.25500000920E-02 0.  1.
</event>
<event>
 5   0  0.2413301E-01  0.4852933E+03  0.7818609E-02  0.1017690E+00
       -2   -1    0    0    0  501  0.00000000000E+00  0.00000000000E+00  0.83858199778E+02  0.83858199817E+02  0.25500000920E-02 0.  1.
        2   -1    0    0  501    0  0.00000000000E+00  0.00000000000E+00 -0.70210649295E+03  0.70210649296E+03  0.25500000920E-02 0. -1.
    10030    2    1    2    0    0  0.00000000000E+00  0.00000000000E+00 -0.61824829318E+03  0.78596469278E+03  0.48529325801E+03 0.  0.
        4    1    3    3  502    0  0.64641829813E+02  0.23315063113E+03 -0.33889910479E+03  0.41640364922E+03  0.12699999809E+01 0.  1.
       -4    1    3    3    0  502 -0.64641829813E+02 -0.23315063113E+03 -0.27934918839E+03  0.36956104356E+03  0.12699999809E+01 0. -1.
</event>
<event>
 5   0  0.1453602E-01  0.4916757E+03  0.7818609E-02  0.1015975E+00
       -1   -1    0    0    0  501  0.00000000000E+00  0.00000000000E+00  0.89849462990E+02  0.89849463131E+02  0.50400001928E-02 0. -1.
        1   -1    0    0  501    0  0.00000000000E+00  0.00000000000E+00 -0.67263895928E+03  0.67263895930E+03  0.50400001928E-02 0.  1.
    10030    2    1    2    0    0  0.00000000000E+00  0.00000000000E+00 -0.58278949629E+03  0.76248842243E+03  0.49167570344E+03 0.  0.
        2    1    3    3  502    0 -0.14104757380E+03 -0.64384613220E+02 -0.58725323780E+03  0.60737645807E+03  0.25500000920E-02 0.  1.
       -2    1    3    3    0  502  0.14104757380E+03  0.64384613220E+02  0.44637415110E+01  0.15511196437E+03  0.25500000920E-02 0. -1.
</event>
<event>
 5   0  0.2511944E-01  0.4823596E+03  0.7818609E-02  0.1018489E+00
       -2   -1    0    0    0  501  0.00000000000E+00  0.00000000000E+00  0.25106007757E+03  0.25106007758E+03  0.25500000920E-02 0.  1.
        2   -1    0    0  501    0  0.00000000000E+00  0.00000000000E+00 -0.23168833923E+03  0.23168833924E+03  0.25500000920E-02 0. -1.
    10030    2    1    2    0    0  0.00000000000E+00  0.00000000000E+00  0.19371738340E+02  0.48274841682E+03  0.48235958547E+03 0.  0.
        1    1    3    3  502    0  0.15457021691E+03 -0.11528067877E+03 -0.13529672666E+03  0.23555634384E+03  0.50400001928E-02 0. -1.
       -1    1    3    3    0  502 -0.15457021691E+03  0.11528067877E+03  0.15466846500E+03  0.24719207298E+03  0.50400001928E-02 0.  1.
</event>
<event>
 5   0  0.1439814E-01  0.4929785E+03  0.7818609E-02  0.1015628E+00
       -1   -1    0    0    0  501  0.00000000000E+00  0.00000000000E+00  0.35564208964E+02  0.35564209321E+02  0.50400001928E-02 0.  1.
        1   -1    0    0  501    0  0.00000000000E+00  0.00000000000E+00 -0.17083734367E+04  0.17083734367E+04  0.50400001928E-02 0. -1.
    10030    2    1    2    0    0  0.00000000000E+00  0.00000000000E+00 -0.16728092277E+04  0.17439376460E+04  0.49297849936E+03 0.  0.
        4    1    3    3  502    0 -0.10583985433E+03 -0.98877903164E+02 -0.15419351838E+04  0.15487235513E+04  0.12699999809E+01 0. -1.
       -4    1    3    3    0  502  0.10583985433E+03  0.98877903164E+02 -0.13087404397E+03  0.19521409474E+03  0.12699999809E+01 0.  1.
</event>
<event>
 5   0  0.1453602E-01  0.4990229E+03  0.7818609E-02  0.1014034E+00
       -1   -1    0    0    0  501  0.00000000000E+00  0.00000000000E+00  0.39763411901E+03  0.39763411904E+03  0.50400001928E-02 0. -1.
        1   -1    0    0  501    0  0.00000000000E+00  0.00000000000E+00 -0.15656594465E+03  0.15656594474E+03  0.50400001928E-02 0.  1.
    10030    2    1    2    0    0  0.00000000000E+00  0.00000000000E+00  0.24106817436E+03  0.55420006378E+03  0.49902289126E+03 0.  0.
        2    1    3    3  502    0  0.78102686969E+02  0.37406924960E+02  0.38040911767E+03  0.39014151863E+03  0.25500000920E-02 0. -1.
       -2    1    3    3    0  502 -0.78102686969E+02 -0.37406924960E+02 -0.13934094331E+03  0.16405854515E+03  0.25500000920E-02 0.  1.
</event>
<event>
 5   0  0.1439814E-01  0.4966812E+03  0.7818609E-02  0.1014649E+00
        1   -1    0    0  501    0  0.00000000000E+00  0.00000000000E+00  0.22250944985E+03  0.22250944991E+03  0.50400001928E-02 0.  1.
       -1   -1    0    0    0  501  0.00000000000E+00  0.00000000000E+00 -0.27717048538E+03  0.27717048543E+03  0.50400001928E-02 0. -1.
    10030    2    1    2    0    0  0.00000000000E+00  0.00000000000E+00 -0.54661035526E+02  0.49967993534E+03  0.49668119451E+03 0.  0.
        4    1    3    3  502    0 -0.13140740770E+03  0.20708753551E+03 -0.66530951342E+02  0.25412818527E+03  0.12699999809E+01 0. -1.
       -4    1    3    3    0  502  0.13140740770E+03 -0.20708753551E+03  0.11869915816E+02  0.24555175007E+03  0.12699999809E+01 0.  1.
</event>
<event>
 5   0  0.2511944E-01  0.4978759E+03  0.7818609E-02  0.1014335E+00
        2   -1    0    0  501    0  0.00000000000E+00  0.00000000000E+00  0.36214823441E+03  0.36214823442E+03  0.25500000920E-02 0.  1.
       -2   -1    0    0    0  501  0.00000000000E+00  0.00000000000E+00 -0.17111804202E+03  0.17111804203E+03  0.25500000920E-02 0. -1.
    10030    2    1    2    0    0  0.00000000000E+00  0.00000000000E+00  0.19103019239E+03  0.53326627645E+03  0.49787587529E+03 0.  0.
        1    1    3    3  502    0  0.38856093101E+02 -0.18873286254E+03 -0.73295866204E+02  0.20616055249E+03  0.50400001928E-02 0. -1.
       -1    1    3    3    0  502 -0.38856093101E+02  0.18873286254E+03  0.26432605860E+03  0.32710572397E+03  0.50400001928E-02 0.  1.
</event>
<event>
 5   0  0.1529146E-01  0.4991565E+03  0.7818609E-02  0.1013999E+00
        1   -1    0    0  501    0  0.00000000000E+00  0.00000000000E+00  0.40001673655E+03  0.40001673659E+03  0.50400001928E-02 0.  1.
       -1   -1    0    0    0  501  0.00000000000E+00  0.00000000000E+00 -0.15571671736E+03  0.15571671744E+03  0.50400001928E-02 0. -1.
    10030    2    1    2    0    0  0.00000000000E+00  0.00000000000E+00  0.24430001919E+03  0.55573345403E+03  0.49915646099E+03 0.  0.
        1    1    3    3  502    0  0.55537602937E+02 -0.14725270784E+03 -0.93510181364E+02  0.18306266509E+03  0.50400001928E-02 0. -1.
       -1    1    3    3    0  502 -0.55537602937E+02  0.14725270784E+03  0.33781020056E+03  0.37267078894E+03  0.50400001928E-02 0.  1.
</event>
<event>
 5   0  0.1448458E-01  0.4975606E+03  0.7818609E-02  0.1014418E+00
       -1   -1    0    0    0  501  0.00000000000E+00  0.00000000000E+00  0.52565286623E+02  0.52565286865E+02  0.50400001928E-02 0.  1.
        1   -1    0    0  501    0  0.00000000000E+00  0.00000000000E+00 -0.11774241147E+04  0.11774241147E+04  0.50400001928E-02 0. -1.
    10030    2    1    2    0    0  0.00000000000E+00  0.00000000000E+00 -0.11248588281E+04  0.12299894016E+04  0.49756059419E+03 0.  0.
        5    1    3    3  502    0  0.15519315209E+03  0.97519509168E+02 -0.97810397859E+03  0.99514041826E+03  0.46999998093E+01 0. -1.
       -5    1    3    3    0  502 -0.15519315209E+03 -0.97519509168E+02 -0.14675484952E+03  0.23484898334E+03  0.46999998093E+01 0.  1.
</event>
<event>
 5   0  0.1413361E-01  0.5027294E+03  0.7818609E-02  0.1013069E+00
       -1   -1    0    0    0  501  0.00000000000E+00  0.00000000000E+00  0.10098965542E+03  0.10098965554E+03  0.50400001928E-02 0.  1.
        1   -1    0    0  501    0  0.00000000000E+00  0.00000000000E+00 -0.62565037052E+03  0.62565037054E+03  0.50400001928E-02 0. -1.
    10030    2    1    2    0    0  0.00000000000E+00  0.00000000000E+00 -0.52466071511E+03  0.72664002609E+03  0.50272941185E+03 0.  0.
        3    1    3    3  502    0 -0.39765598185E+02 -0.24804778006E+03 -0.27486457968E+03  0.37237018054E+03  0.10100000352E+00 0.  1.
       -3    1    3    3    0  502  0.39765598185E+02  0.24804778006E+03 -0.24979613543E+03  0.35426984555E+03  0.10100000352E+00 0. -1.
</event>
<event>
 5   0  0.2488968E-01  0.4676160E+03  0.7818609E-02  0.1022595E+00
        2   -1    0    0  501    0  0.00000000000E+00  0.00000000000E+00  0.25815542297E+03  0.25815542298E+03  0.25500000920E-02 0.  1.
       -2   -1    0    0    0  501  0.00000000000E+00  0.00000000000E+00 -0.21175681918E+03  0.21175681919E+03  0.25500000920E-02 0. -1.
    10030    2    1    2    0    0  0.00000000000E+00  0.00000000000E+00  0.46398603793E+02  0.46991224218E+03  0.46761595879E+03 0.  0.
        2    1    3    3  502    0  0.88144843583E+02  0.19813271270E+03  0.11103611224E+03  0.24362902849E+03  0.25500000920E-02 0.  1.
       -2    1    3    3    0  502 -0.88144843583E+02 -0.19813271270E+03 -0.64637508450E+02  0.22628321369E+03  0.25500000920E-02 0. -1.
</event>
<event>
 5   0  0.2413301E-01  0.5012340E+03  0.7818609E-02  0.1013457E+00
       -2   -1    0    0    0  501  0.00000000000E+00  0.00000000000E+00  0.37176852586E+02  0.37176852673E+02  0.25500000920E-02 0. -1.
        2   -1    0    0  501    0  0.00000000000E+00  0.00000000000E+00 -0.16894623562E+04  0.16894623562E+04  0.25500000920E-02 0.  1.
    10030    2    1    2    0    0  0.00000000000E+00  0.00000000000E+00 -0.16522855036E+04  0.17266392089E+04  0.50123404929E+03 0.  0.
        4    1    3    3  502    0  0.70489520303E+02  0.19149150971E+03 -0.32493655731E+03  0.38369669003E+03  0.12699999809E+01 0. -1.
       -4    1    3    3    0  502 -0.70489520303E+02 -0.19149150971E+03 -0.13273489463E+04  0.13429425188E+04  0.12699999809E+01 0.  1.
</event>
<event>
 5   0  0.9868500E-02  0.5054827E+03  0.7818609E-02  0.1012358E+00
        3   -1    0    0  501    0  0.00000000000E+00  0.00000000000E+00  0.81010622031E+02  0.81010684991E+02  0.10100000352E+00 0.  1.
       -3   -1    0    0    0  501  0.00000000000E+00  0.00000000000E+00 -0.78851580103E+03  0.78851580749E+03  0.10100000352E+00 0. -1.
    10030    2    1    2    0    0  0.00000000000E+00  0.00000000000E+00 -0.70750517900E+03  0.86952649249E+03  0.50548268302E+03 0.  0.
        4    1    3    3  502    0  0.23539133499E+03 -0.90300669633E+02 -0.38419953727E+03  0.45953692873E+03  0.12699999809E+01 0.  1.
       -4    1    3    3    0  502 -0.23539133499E+03  0.90300669633E+02 -0.32330564172E+03  0.40998956376E+03  0.12699999809E+01 0. -1.
</event>
<event>
 5   0  0.2413301E-01  0.5005052E+03  0.7818609E-02  0.1013647E+00
       -2   -1    0    0    0  501  0.00000000000E+00  0.00000000000E+00  0.72183076570E+02  0.72183076615E+02  0.25500000920E-02 0.  1.
        2   -1    0    0  501    0  0.00000000000E+00  0.00000000000E+00 -0.86760440497E+03  0.86760440497E+03  0.25500000920E-02 0. -1.
    10030    2    1    2    0    0  0.00000000000E+00  0.00000000000E+00 -0.79542132840E+03  0.93978748159E+03  0.50050516569E+03 0.  0.
        4    1    3    3  502    0 -0.19750675346E+03  0.13840270599E+03 -0.27230601884E+03  0.36375322334E+03  0.12699999809E+01 0.  1.
       -4    1    3    3    0  502  0.19750675346E+03 -0.13840270599E+03 -0.52311530955E+03  0.57603425825E+03  0.12699999809E+01 0. -1.
</event>
<event>
 5   0  0.9868500E-02  0.5009515E+03  0.7818609E-02  0.1013531E+00
        3   -1    0    0  501    0  0.00000000000E+00  0.00000000000E+00  0.38663934655E+03  0.38663935974E+03  0.10100000352E+00 0.  1.
       -3   -1    0    0    0  501  0.00000000000E+00  0.00000000000E+00 -0.16226513197E+03  0.16226516341E+03  0.10100000352E+00 0. -1.
    10030    2    1    2    0    0  0.00000000000E+00  0.00000000000E+00  0.22437421457E+03  0.54890452314E+03  0.50095148204E+03 0.  0.
        4    1    3    3  502    0  0.45991857283E+02 -0.21322372134E+03 -0.22711049729E+02  0.21931030746E+03  0.12699999809E+01 0. -1.
       -4    1    3    3    0  502 -0.45991857283E+02  0.21322372134E+03  0.24708526430E+03  0.32959421569E+03  0.12699999809E+01 0.  1.
</event>
<event>
 5   0  0.1448458E-01  0.4747513E+03  0.7818609E-02  0.1020588E+00
       -1   -1    0    0    0  501  0.00000000000E+00  0.00000000000E+00  0.47388685739E+03  0.47388685741E+03  0.50400001928E-02 0. -1.
        1   -1    0    0  501    0  0.00000000000E+00  0.00000000000E+00 -0.11890430490E+03  0.11890430501E+03  0.50400001928E-02 0.  1.
    10030    2    1    2    0    0  0.00000000000E+00  0.00000000000E+00  0.35498255249E+03  0.59279116242E+03  0.47475125031E+03 0.  0.
        5    1    3    3  502    0  0.82494270942E+02 -0.20516250345E+03  0.69875575153E+02  0.23195181301E+03  0.46999998093E+01 0.  1.
       -5    1    3    3    0  502 -0.82494270942E+02  0.20516250345E+03  0.28510697733E+03  0.36083934941E+03  0.46999998093E+01 0. -1.
</event>
<event>
 5   0  0.1529146E-01  0.5037635E+03  0.7818609E-02  0.1012801E+00
        1   -1    0    0  501    0  0.00000000000E+00  0.00000000000E+00  0.34111586843E+03  0.34111586847E+03  0.50400001928E-02 0.  1.
       -1   -1    0    0    0  501  0.00000000000E+00  0.00000000000E+00 -0.18599079971E+03  0.18599079978E+03  0.50400001928E-02 0. -1.
    10030    2    1    2    0    0  0.00000000000E+00  0.00000000000E+00  0.15512506872E+03  0.52710666824E+03  0.50376348891E+03 0.  0.
        1    1    3    3  502    0  0.44502463455E+02  0.24670187891E+03  0.10323785166E+03  0.27110946194E+03  0.50400001928E-02 0. -1.
       -1    1    3    3    0  502 -0.44502463455E+02 -0.24670187891E+03  0.51887217060E+02  0.25599720630E+03  0.50400001928E-02 0.  1.
</event>
<event>
 5   0  0.1453602E-01  0.4877131E+03  0.7818609E-02  0.1017037E+00
        1   -1    0    0  501    0  0.00000000000E+00  0.00000000000E+00  0.25273825102E+03  0.25273825107E+03  0.50400001928E-02 0. -1.
       -1   -1    0    0    0  501  0.00000000000E+00  0.00000000000E+00 -0.23528695838E+03  0.23528695844E+03  0.50400001928E-02 0.  1.
    10030    2    1    2    0    0  0.00000000000E+00  0.00000000000E+00  0.17451292638E+02  0.48802520951E+03  0.48771308933E+03 0.  0.
        2    1    3    3  502    0 -0.10550216562E+03  0.17049007822E+03 -0.13017399682E+03  0.23904569265E+03  0.25500000920E-02 0.  1.
       -2    1    3    3    0  502  0.10550216562E+03 -0.17049007822E+03  0.14762528946E+03  0.24897951686E+03  0.25500000920E-02 0. -1.
</event>
<event>
 5   0  0.2504064E-01  0.4949668E+03  0.7818609E-02  0.1015101E+00
       -2   -1    0    0    0  501  0.00000000000E+00  0.00000000000E+00  0.48986985396E+03  0.48986985396E+03  0.25500000920E-02 0.  1.
        2   -1    0    0  501    0  0.00000000000E+00  0.00000000000E+00 -0.12502920631E+03  0.12502920634E+03  0.25500000920E-02 0. -1.
    10030    2    1    2    0    0  0.00000000000E+00  0.00000000000E+00  0.36484064765E+03  0.61489906030E+03  0.49496682331E+03 0.  0.
        5    1    3    3  502    0 -0.12798626186E+03 -0.33412601186E+02  0.44220458113E+03  0.46158841701E+03  0.46999998093E+01 0.  1.
       -5    1    3    3    0  502  0.12798626186E+03  0.33412601186E+02 -0.77363933485E+02  0.15331064329E+03  0.46999998093E+01 0. -1.
</event>
<event>
 5   0  0.1413361E-01  0.4966428E+03  0.7818609E-02  0.1014659E+00
        1   -1    0    0  501    0  0.00000000000E+00  0.00000000000E+00  0.57053363581E+03  0.57053363583E+03  0.50400001928E-02 0.  1.
       -1   -1    0    0    0  501  0.00000000000E+00  0.00000000000E+00 -0.10808042154E+03  0.10808042166E+03  0.50400001928E-02 0. -1.
    10030    2    1    2    0    0  0.00000000000E+00  0.00000000000E+00  0.46245321427E+03  0.67861405749E+03  0.49664279280E+03 0.  0.
        3    1    3    3  502    0  0.46448571018E+02 -0.24178956339E+03  0.18708010437E+03  0.30922263560E+03  0.10100000352E+00 0. -1.
       -3    1    3    3    0  502 -0.46448571018E+02  0.24178956339E+03  0.27537310990E+03  0.36939142190E+03  0.10100000352E+00 0.  1.
</event>
<event>
 5   0  0.1453602E-01  0.4507862E+03  0.7818609E-02  0.1027488E+00
        1   -1    0    0  501    0  0.00000000000E+00  0.00000000000E+00  0.14381211916E+04  0.14381211916E+04  0.50400001928E-02 0. -1.
       -1   -1    0    0    0  501  0.00000000000E+00  0.00000000000E+00 -0.35325288919E+02  0.35325289279E+02  0.50400001928E-02 0.  1.
    10030    2    1    2    0    0  0.00000000000E+00  0.00000000000E+00  0.14027959027E+04  0.14734464809E+04  0.45078618819E+03 0.  0.
        2    1    3    3  502    0 -0.17722559138E+03  0.11900626882E+03  0.93779463035E+03  0.96178488810E+03  0.25500000920E-02 0. -1.
       -2    1    3    3    0  502  0.17722559138E+03 -0.11900626882E+03  0.46500127233E+03  0.51166159278E+03  0.25500000920E-02 0.  1.
</event>
<event>
 5   0  0.2504064E-01  0.5190401E+03  0.7818609E-02  0.1008925E+00
       -2   -1    0    0    0  501  0.00000000000E+00  0.00000000000E+00  0.49933523920E+02  0.49933523985E+02  0.25500000920E-02 0. -1.
        2   -1    0    0  501    0  0.00000000000E+00  0.00000000000E+00 -0.13488066062E+04  0.13488066062E+04  0.25500000920E-02 0.  1.
    10030    2    1    2    0    0  0.00000000000E+00  0.00000000000E+00 -0.12988730823E+04  0.13987401302E+04  0.51904014095E+03 0.  0.
        5    1    3    3  502    0 -0.57247886931E+02 -0.58574250474E+02  0.14069953601E+02  0.83236512236E+02  0.46999998093E+01 0. -1.
       -5    1    3    3    0  502  0.57247886931E+02  0.58574250474E+02 -0.13129430359E+04  0.13155036179E+04  0.46999998093E+01 0.  1.
</event>
<event>
 5   0  0.1413361E-01  0.5146236E+03  0.7818609E-02  0.1010031E+00
        1   -1    0    0  501    0  0.00000000000E+00  0.00000000000E+00  0.63015206603E+02  0.63015206805E+02  0.50400001928E-02 0.  1.
       -1   -1    0    0    0  501  0.00000000000E+00  0.00000000000E+00 -0.10506887036E+04  0.10506887036E+04  0.50400001928E-02 0. -1.
    10030    2    1    2    0    0  0.00000000000E+00  0.00000000000E+00 -0.98767349696E+03  0.11137039104E+04  0.51462361333E+03 0.  0.
        3    1    3    3  502    0  0.51461824175E+02  0.21211058297E+03 -0.19892804669E+03  0.29531609628E+03  0.10100000352E+00 0.  1.
       -3    1    3    3    0  502 -0.51461824175E+02 -0.21211058297E+03 -0.78874545027E+03  0.81838781410E+03  0.10100000352E+00 0. -1.
</event>
<event>
 5   0  0.1413361E-01  0.5185657E+03  0.7818609E-02  0.1009043E+00
       -1   -1    0    0    0  501  0.00000000000E+00  0.00000000000E+00  0.12055158496E+03  0.12055158507E+03  0.50400001928E-02 0.  1.
        1   -1    0    0  501    0  0.00000000000E+00  0.00000000000E+00 -0.55766665619E+03  0.55766665621E+03  0.50400001928E-02 0. -1.
    10030    2    1    2    0    0  0.00000000000E+00  0.00000000000E+00 -0.43711507123E+03  0.67821824128E+03  0.51856571167E+03 0.  0.
        3    1    3    3  502    0 -0.71292299437E+02  0.12665698490E+02 -0.54417485068E+03  0.54897111963E+03  0.10100000352E+00 0. -1.
       -3    1    3    3    0  502  0.71292299437E+02 -0.12665698490E+02  0.10705977945E+03  0.12924712165E+03  0.10100000352E+00 0.  1.
</event>
<event>
 5   0  0.1529146E-01  0.4923805E+03  0.7818609E-02  0.1015787E+00
       -1   -1    0    0    0  501  0.00000000000E+00  0.00000000000E+00  0.21539762496E+03  0.21539762502E+03  0.50400001928E-02 0. -1.
        1   -1    0    0  501    0  0.00000000000E+00  0.00000000000E+00 -0.28138492834E+03  0.28138492839E+03  0.50400001928E-02 0.  1.
    10030    2    1    2    0    0  0.00000000000E+00  0.00000000000E+00 -0.65987303382E+02  0.49678255341E+03  0.49238052476E+03 0.  0.
        1    1    3    3  502    0  0.10657854991E+03  0.21519595145E+03 -0.87712833192E+02  0.25565958998E+03  0.50400001928E-02 0. -1.
       -1    1    3    3    0  502 -0.10657854991E+03 -0.21519595145E+03  0.21725529810E+02  0.24112296342E+03  0.50400001928E-02 0.  1.
</event>
<event>
 5   0  0.9868500E-02  0.4954551E+03  0.7818609E-02  0.1014972E+00
       -4   -1    0    0    0  501  0.00000000000E+00  0.00000000000E+00  0.61955559175E+02  0.61968574395E+02  0.12699999809E+01 0.  1.
        4   -1    0    0  501    0  0.00000000000E+00  0.00000000000E+00 -0.99041417357E+03  0.99041498783E+03  0.12699999809E+01 0. -1.
    10030    2    1    2    0    0  0.00000000000E+00  0.00000000000E+00 -0.92845861440E+03  0.10523835622E+04  0.49545510734E+03 0.  0.
        4    1    3    3  502    0  0.13158788473E+03  0.14464292869E+03 -0.78727289689E+03  0.81119490587E+03  0.12699999809E+01 0. -1.
       -4    1    3    3    0  502 -0.13158788473E+03 -0.14464292869E+03 -0.14118571751E+03  0.24118865636E+03  0.12699999809E+01 0.  1.
</event>
<event>
 5   0  0.1439814E-01  0.5120932E+03  0.7818609E-02  0.1010670E+00
       -1   -1    0    0    0  501  0.00000000000E+00  0.00000000000E+00  0.59248203221E+02  0.59248203435E+02  0.50400001928E-02 0.  1.
        1   -1    0    0  501    0  0.00000000000E+00  0.00000000000E+00 -0.11065292721E+04  0.11065292721E+04  0.50400001928E-02 0. -1.
    10030    2    1    2    0    0  0.00000000000E+00  0.00000000000E+00 -0.10472810688E+04  0.11657774755E+04  0.51209323882E+03 0.  0.
        4    1    3    3  502    0 -0.21207191880E+03 -0.12092975072E+03 -0.34789640630E+03  0.42500826553E+03  0.12699999809E+01 0.  1.
       -4    1    3    3    0  502  0.21207191880E+03  0.12092975072E+03 -0.69938466253E+03  0.74076920997E+03  0.12699999809E+01 0. -1.
</event>
<event>
 5   0  0.1453602E-01  0.4989650E+03  0.7818609E-02  0.1014049E+00
       -1   -1    0    0    0  501  0.00000000000E+00  0.00000000000E+00  0.93946328746E+02  0.93946328881E+02  0.50400001928E-02 0.  1.
        1   -1    0    0  501    0  0.00000000000E+00  0.00000000000E+00 -0.66252220838E+03  0.66252220840E+03  0.50400001928E-02 0. -1.
    10030    2    1    2    0    0  0.00000000000E+00  0.00000000000E+00 -0.56857587964E+03  0.75646853728E+03  0.49896504586E+03 0.  0.
        2    1    3    3  502    0  0.80522490482E+02  0.18111708822E+03 -0.51398338184E+03  0.55087765241E+03  0.25500000920E-02 0. -1.
       -2    1    3    3    0  502 -0.80522490482E+02 -0.18111708822E+03 -0.54592497799E+02  0.20559088487E+03  0.25500000920E-02 0.  1.
</event>
<event>
 5   0  0.2466034E-01  0.4154179E+03  0.7818609E-02  0.1038568E+00
        2   -1    0    0  501    0  0.00000000000E+00  0.00000000000E+00  0.63945424590E+03  0.63945424591E+03  0.25500000920E-02 0.  1.
       -2   -1    0    0    0  501  0.00000000000E+00  0.00000000000E+00 -0.67468476233E+02  0.67468476281E+02  0.25500000920E-02 0. -1.
    10030    2    1    2    0    0  0.00000000000E+00  0.00000000000E+00  0.57198576967E+03  0.70692272219E+03  0.41541787930E+03 0.  0.
        3    1    3    3  502    0 -0.65785860854E+02 -0.27339007599E+02 -0.46028153944E+02  0.84816283703E+02  0.10100000352E+00 0. -1.
       -3    1    3    3    0  502  0.65785860854E+02  0.27339007599E+02  0.61801392362E+03  0.62210643849E+03  0.10100000352E+00 0.  1.
</event>
<event>
 5   0  0.2413301E-01  0.5042684E+03  0.7818609E-02  0.1012671E+00
       -2   -1    0    0    0  501  0.00000000000E+00  0.00000000000E+00  0.21903583711E+03  0.21903583712E+03  0.25500000920E-02 0.  1.
        2   -1    0    0  501    0  0.00000000000E+00  0.00000000000E+00 -0.29023401063E+03  0.29023401064E+03  0.25500000920E-02 0. -1.
    10030    2    1    2    0    0  0.00000000000E+00  0.00000000000E+00 -0.71198173527E+02  0.50926984776E+03  0.50426837887E+03 0.  0.
        4    1    3    3  502    0 -0.24048461920E+01 -0.21608558480E+03  0.95578657603E+02  0.23629569597E+03  0.12699999809E+01 0.  1.
       -4    1    3    3    0  502  0.24048461920E+01  0.21608558480E+03 -0.16677683113E+03  0.27297415179E+03  0.12699999809E+01 0. -1.
</event>
<event>
 5   0  0.2413301E-01  0.5405977E+03  0.7818609E-02  0.1003694E+00
        2   -1    0    0  501    0  0.00000000000E+00  0.00000000000E+00  0.36829015054E+03  0.36829015054E+03  0.25500000920E-02 0. -1.
       -2   -1    0    0    0  501  0.00000000000E+00  0.00000000000E+00 -0.19838015725E+03  0.19838015727E+03  0.25500000920E-02 0.  1.
    10030    2    1    2    0    0  0.00000000000E+00  0.00000000000E+00  0.16990999328E+03  0.56667030781E+03  0.54059766180E+03 0.  0.
        4    1    3    3  502    0 -0.39296788745E+02 -0.23123436994E+03 -0.55860374276E+02  0.24111318039E+03  0.12699999809E+01 0.  1.
       -4    1    3    3    0  502  0.39296788745E+02  0.23123436994E+03  0.22577036756E+03  0.32555712742E+03  0.12699999809E+01 0. -1.
</event>
<event>
 5   0  0.1448458E-01  0.5130539E+03  0.7818609E-02  0.1010427E+00
        1   -1    0    0  501    0  0.00000000000E+00  0.00000000000E+00  0.57508711655E+02  0.57508711876E+02  0.50400001928E-02 0. -1.
       -1   -1    0    0    0  501  0.00000000000E+00  0.00000000000E+00 -0.11442799868E+04  0.11442799868E+04  0.50400001928E-02 0.  1.
    10030    2    1    2    0    0  0.00000000000E+00  0.00000000000E+00 -0.10867712751E+04  0.12017886987E+04  0.51305386833E+03 0.  0.
        5    1    3    3  502    0 -0.18529383107E+02  0.24369665884E+03 -0.36114913976E+03  0.43609883136E+03  0.46999998093E+01 0. -1.
       -5    1    3    3    0  502  0.18529383107E+02 -0.24369665884E+03 -0.72562213536E+03  0.76568986730E+03  0.46999998093E+01 0.  1.
</event>
<event>
 5   0  0.1413361E-01  0.4923431E+03  0.7818609E-02  0.1015797E+00
       -1   -1    0    0    0  501  0.00000000000E+00  0.00000000000E+00  0.32801879525E+03  0.32801879529E+03  0.50400001928E-02 0. -1.
        1   -1    0    0  501    0  0.00000000000E+00  0.00000000000E+00 -0.18474683085E+03  0.18474683092E+03  0.50400001928E-02 0.  1.
    10030    2    1    2    0    0  0.00000000000E+00  0.00000000000E+00  0.14327196440E+03  0.51276562621E+03  0.49234310357E+03 0.  0.
        3    1    3    3  502    0  0.22295065721E+03  0.88046272495E+02  0.13263999782E+02  0.24007308375E+03  0.10100000352E+00 0.  1.
       -3    1    3    3    0  502 -0.22295065721E+03 -0.88046272495E+02  0.13000796462E+03  0.27269254246E+03  0.10100000352E+00 0. -1.
</event>
<event>
 5   0  0.2413301E-01  0.5156412E+03  0.7818609E-02  0.1009775E+00
       -2   -1    0    0    0  501  0.00000000000E+00  0.00000000000E+00  0.84370500018E+02  0.84370500056E+02  0.25500000920E-02 0.  1.
        2   -1    0    0  501    0  0.00000000000E+00  0.00000000000E+00 -0.78785192405E+03  0.78785192405E+03  0.25500000920E-02 0. -1.
    10030    2    1    2    0    0  0.00000000000E+00  0.00000000000E+00 -0.70348142403E+03  0.87222242411E+03  0.51564119614E+03 0.  0.
        4    1    3    3  502    0  0.42371882763E+01  0.24568740265E+03 -0.48374067849E+03  0.54257433639E+03  0.12699999809E+01 0.  1.
       -4    1    3    3    0  502 -0.42371882763E+01 -0.24568740265E+03 -0.21974074554E+03  0.32964808772E+03  0.12699999809E+01 0. -1.
</event>
<event>
 5   0  0.9868500E-02  0.4809193E+03  0.7818609E-02  0.1018883E+00
       -3   -1    0    0    0  501  0.00000000000E+00  0.00000000000E+00  0.27915772448E+03  0.27915774275E+03  0.10100000352E+00 0.  1.
        3   -1    0    0  501    0  0.00000000000E+00  0.00000000000E+00 -0.20712599924E+03  0.20712602387E+03  0.10100000352E+00 0. -1.
    10030    2    1    2    0    0  0.00000000000E+00  0.00000000000E+00  0.72031725234E+02  0.48628376662E+03  0.48091925750E+03 0.  0.
        4    1    3    3  502    0  0.11845881555E+03  0.75311573083E+02 -0.16139224002E+03  0.21390042557E+03  0.12699999809E+01 0. -1.
       -4    1    3    3    0  502 -0.11845881555E+03 -0.75311573083E+02  0.23342396526E+03  0.27238334104E+03  0.12699999809E+01 0.  1.
</event>
<event>
 5   0  0.2504064E-01  0.5035790E+03  0.7818609E-02  0.1012849E+00
       -2   -1    0    0    0  501  0.00000000000E+00  0.00000000000E+00  0.29074306950E+03  0.29074306951E+03  0.25500000920E-02 0. -1.
        2   -1    0    0  501    0  0.00000000000E+00  0.00000000000E+00 -0.21805490560E+03  0.21805490562E+03  0.25500000920E-02 0.  1.
    10030    2    1    2    0    0  0.00000000000E+00  0.00000000000E+00  0.72688163896E+02  0.50879797513E+03  0.50357900107E+03 0.  0.
        5    1    3    3  502    0 -0.65481724841E+02 -0.22777320287E+03  0.12212018311E+03  0.26665317804E+03  0.46999998093E+01 0. -1.
       -5    1    3    3    0  502  0.65481724841E+02  0.22777320287E+03 -0.49432019218E+02  0.24214479709E+03  0.46999998093E+01 0.  1.
</event>
<event>
 5   0  0.1448458E-01  0.4880823E+03  0.7818609E-02  0.1016937E+00
       -1   -1    0    0    0  501  0.00000000000E+00  0.00000000000E+00  0.42537737536E+02  0.42537737835E+02  0.50400001928E-02 0. -1.
        1   -1    0    0  501    0  0.00000000000E+00  0.00000000000E+00 -0.14000762491E+04  0.14000762491E+04  0.50400001928E-02 0.  1.
    10030    2    1    2    0    0  0.00000000000E+00  0.00000000000E+00 -0.13575385116E+04  0.14426139870E+04  0.48808227273E+03 0.  0.
        5    1    3    3  502    0  0.45480025259E+02  0.23451382276E+03 -0.82562869311E+03  0.85950566877E+03  0.46999998093E+01 0.  1.
       -5    1    3    3    0  502 -0.45480025259E+02 -0.23451382276E+03 -0.53190981848E+03  0.58310831820E+03  0.46999998093E+01 0. -1.
</event>
<event>
 5   0  0.1413361E-01  0.4730384E+03  0.7818609E-02  0.1021066E+00
        1   -1    0    0  501    0  0.00000000000E+00  0.00000000000E+00  0.12074757909E+03  0.12074757919E+03  0.50400001928E-02 0.  1.
       -1   -1    0    0    0  501  0.00000000000E+00  0.00000000000E+00 -0.46329150887E+03  0.46329150890E+03  0.50400001928E-02 0. -1.
    10030    2    1    2    0    0  0.00000000000E+00  0.00000000000E+00 -0.34254392978E+03  0.58403908809E+03  0.47303838384E+03 0.  0.
        3    1    3    3  502    0  0.40609012066E+02  0.19984785746E+03 -0.31918885979E+03  0.37877407040E+03  0.10100000352E+00 0. -1.
       -3    1    3    3    0  502 -0.40609012066E+02 -0.19984785746E+03 -0.23355069999E+02  0.20526501769E+03  0.10100000352E+00 0.  1.
</event>
<event>
 5   0  0.2488968E-01  0.5120529E+03  0.7818609E-02  0.1010680E+00
       -2   -1    0    0    0  501  0.00000000000E+00  0.00000000000E+00  0.12812960788E+03  0.12812960791E+03  0.25500000920E-02 0. -1.
        2   -1    0    0  501    0  0.00000000000E+00  0.00000000000E+00 -0.51158777189E+03  0.51158777189E+03  0.25500000920E-02 0.  1.
    10030    2    1    2    0    0  0.00000000000E+00  0.00000000000E+00 -0.38345816400E+03  0.63971737980E+03  0.51205289032E+03 0.  0.
        2    1    3    3  502    0 -0.92538243218E+02 -0.14080207921E+03  0.49104451512E+02  0.17549871547E+03  0.25500000920E-02 0. -1.
       -2    1    3    3    0  502  0.92538243218E+02  0.14080207921E+03 -0.43256261551E+03  0.46421866433E+03  0.25500000920E-02 0.  1.
</event>
<event>
 5   0  0.2504064E-01  0.4982398E+03  0.7818609E-02  0.1014239E+00
       -2   -1    0    0    0  501  0.00000000000E+00  0.00000000000E+00  0.13003753747E+03  0.13003753750E+03  0.25500000920E-02 0.  1.
        2   -1    0    0  501    0  0.00000000000E+00  0.00000000000E+00 -0.47725238283E+03  0.47725238284E+03  0.25500000920E-02 0. -1.
    10030    2    1    2    0    0  0.00000000000E+00  0.00000000000E+00 -0.34721484536E+03  0.60728992034E+03  0.49823980020E+03 0.  0.
        5    1    3    3  502    0 -0.54192522889E+02  0.22419426722E+03 -0.59015837188E+02  0.23812781868E+03  0.46999998093E+01 0. -1.
       -5    1    3    3    0  502  0.54192522889E+02 -0.22419426722E+03 -0.28819900817E+03  0.36916210166E+03  0.46999998093E+01 0.  1.
</event>
<event>
 5   0  0.2511944E-01  0.5118239E+03  0.7818609E-02  0.1010738E+00
        2   -1    0    0  501    0  0.00000000000E+00  0.00000000000E+00  0.91399920023E+03  0.91399920024E+03  0.25500000920E-02 0.  1.
       -2   -1    0    0    0  501  0.00000000000E+00  0.00000000000E+00 -0.71653153720E+02  0.71653153766E+02  0.25500000920E-02 0. -1.
    10030    2    1    2    0    0  0.00000000000E+00  0.00000000000E+00  0.84234604651E+03  0.98565235400E+03  0.51182389635E+03 0.  0.
        1    1    3    3  502    0 -0.57947271928E+02 -0.14583745598E+02  0.90037645267E+03  0.90235709589E+03  0.50400001928E-02 0.  1.
       -1    1    3    3    0  502  0.57947271928E+02  0.14583745598E+02 -0.58030406157E+02  0.83295258110E+02  0.50400001928E-02 0. -1.
</event>
<event>
 5   0  0.2413301E-01  0.5076025E+03  0.7818609E-02  0.1011813E+00
        2   -1    0    0  501    0  0.00000000000E+00  0.00000000000E+00  0.23525028406E+03  0.23525028407E+03  0.25500000920E-02 0. -1.
       -2   -1    0    0    0  501  0.00000000000E+00  0.00000000000E+00 -0.27381508637E+03  0.27381508638E+03  0.25500000920E-02 0.  1.
    10030    2    1    2    0    0  0.00000000000E+00  0.00000000000E+00 -0.38564802310E+02  0.50906537046E+03  0.50760250927E+03 0.  0.
        4    1    3    3  502    0  0.12113953331E+03 -0.10405291192E+03  0.17854649318E+03  0.23954594159E+03  0.12699999809E+01 0. -1.
       -4    1    3    3    0  502 -0.12113953331E+03  0.10405291192E+03 -0.21711129549E+03  0.26951942886E+03  0.12699999809E+01 0.  1.
</event>
<event>
 5   0  0.2504064E-01  0.5632067E+03  0.7818609E-02  0.9984825E-01
       -2   -1    0    0    0  501  0.00000000000E+00  0.00000000000E+00  0.16050409096E+03  0.16050409098E+03  0.25500000920E-02 0. -1.
        2   -1    0    0  501    0  0.00000000000E+00  0.00000000000E+00 -0.49407122501E+03  0.49407122501E+03  0.25500000920E-02 0.  1.
    10030    2    1    2    0    0  0.00000000000E+00  0.00000000000E+00 -0.33356713405E+03  0.65457531599E+03  0.56320672172E+03 0.  0.
        5    1    3    3  502    0  0.69388115668E+02  0.12043996585E+03 -0.45137045166E+03  0.47231120101E+03  0.46999998093E+01 0.  1.
       -5    1    3    3    0  502 -0.69388115668E+02 -0.12043996585E+03  0.11780331762E+03  0.18226411498E+03  0.46999998093E+01 0. -1.
</event>
<event>
 5   0  0.2466034E-01  0.5367587E+03  0.7818609E-02  0.1004606E+00
        2   -1    0    0  501    0  0.00000000000E+00  0.00000000000E+00  0.34653202528E+03  0.34653202529E+03  0.25500000920E-02 0.  1.
       -2   -1    0    0    0  501  0.00000000000E+00  0.00000000000E+00 -0.20785232787E+03  0.20785232789E+03  0.25500000920E-02 0. -1.
    10030    2    1    2    0    0  0.00000000000E+00  0.00000000000E+00  0.13867969741E+03  0.55438435318E+03  0.53675874709E+03 0.  0.
        3    1    3    3  502    0 -0.52486620757E+02 -0.26287734273E+03  0.82732335755E+02  0.28054231813E+03  0.10100000352E+00 0. -1.
       -3    1    3    3    0  502  0.52486620757E+02  0.26287734273E+03  0.55947361652E+02  0.27384203505E+03  0.10100000352E+00 0.  1.
</event>
<event>
 5   0  0.1453602E-01  0.4639100E+03  0.7818609E-02  0.1023653E+00
       -1   -1    0    0    0  501  0.00000000000E+00  0.00000000000E+00  0.18137030958E+03  0.18137030965E+03  0.50400001928E-02 0. -1.
        1   -1    0    0  501    0  0.00000000000E+00  0.00000000000E+00 -0.29664790725E+03  0.29664790729E+03  0.50400001928E-02 0.  1.
    10030    2    1    2    0    0  0.00000000000E+00  0.00000000000E+00 -0.11527759767E+03  0.47801821695E+03  0.46391000335E+03 0.  0.
        2    1    3    3  502    0  0.47582694201E+01 -0.13357694701E+03 -0.25297634791E+03  0.28611619057E+03  0.25500000920E-02 0.  1.
       -2    1    3    3    0  502 -0.47582694201E+01  0.13357694701E+03  0.13769875024E+03  0.19190202637E+03  0.25500000920E-02 0. -1.
</event>
<event>
 5   0  0.2504064E-01  0.5017672E+03  0.7818609E-02  0.1013319E+00
        2   -1    0    0  501    0  0.00000000000E+00  0.00000000000E+00  0.14445185277E+04  0.14445185277E+04  0.25500000920E-02 0. -1.
       -2   -1    0    0    0  501  0.00000000000E+00  0.00000000000E+00 -0.43573401113E+02  0.43573401188E+02  0.25500000920E-02 0.  1.
    10030    2    1    2    0    0  0.00000000000E+00  0.00000000000E+00  0.14009451266E+04  0.14880919289E+04  0.50176721806E+03 0.  0.
        5    1    3    3  502    0 -0.21719973549E+03  0.75218384789E+02  0.40261561944E+03  0.46363235168E+03  0.46999998093E+01 0.  1.
       -5    1    3    3    0  502  0.21719973549E+03 -0.75218384789E+02  0.99832950713E+03  0.10244595772E+04  0.46999998093E+01 0. -1.
</event>
<event>
 5   0  0.1448458E-01  0.4997381E+03  0.7818609E-02  0.1013847E+00
       -1   -1    0    0    0  501  0.00000000000E+00  0.00000000000E+00  0.18833749774E+04  0.18833749774E+04  0.50400001928E-02 0.  1.
        1   -1    0    0  501    0  0.00000000000E+00  0.00000000000E+00 -0.33150349055E+02  0.33150349438E+02  0.50400001928E-02 0. -1.
    10030    2    1    2    0    0  0.00000000000E+00  0.00000000000E+00  0.18502246284E+04  0.19165253269E+04  0.49973808451E+03 0.  0.
        5    1    3    3  502    0 -0.17224802165E+03  0.12085351770E+03  0.14416009411E+04  0.14568837692E+04  0.46999998093E+01 0.  1.
       -5    1    3    3    0  502  0.17224802165E+03 -0.12085351770E+03  0.40862368729E+03  0.45964155765E+03  0.46999998093E+01 0. -1.
</event>
<event>
 5   0  0.1413361E-01  0.4268204E+03  0.7818609E-02  0.1034869E+00
        1   -1    0    0  501    0  0.00000000000E+00  0.00000000000E+00  0.28911535157E+03  0.28911535161E+03  0.50400001928E-02 0. -1.
       -1   -1    0    0    0  501  0.00000000000E+00  0.00000000000E+00 -0.15752850933E+03  0.15752850941E+03  0.50400001928E-02 0.  1.
    10030    2    1    2    0    0  0.00000000000E+00  0.00000000000E+00  0.13158684223E+03  0.44664386102E+03  0.42682038558E+03 0.  0.
        3    1    3    3  502    0 -0.11195518606E+03  0.14766298043E+03  0.17656628892E+03  0.25595699650E+03  0.10100000352E+00 0. -1.
       -3    1    3    3    0  502  0.11195518606E+03 -0.14766298043E+03 -0.44979446688E+02  0.19068686452E+03  0.10100000352E+00 0.  1.
</event>
<event>
 5   0  0.1448458E-01  0.5012387E+03  0.7818609E-02  0.1013456E+00
        1   -1    0    0  501    0  0.00000000000E+00  0.00000000000E+00  0.82444655304E+03  0.82444655306E+03  0.50400001928E-02 0.  1.
       -1   -1    0    0    0  501  0.00000000000E+00  0.00000000000E+00 -0.76184508013E+02  0.76184508180E+02  0.50400001928E-02 0. -1.
    10030    2    1    2    0    0  0.00000000000E+00  0.00000000000E+00  0.74826204503E+03  0.90063106124E+03  0.50123868609E+03 0.  0.
        5    1    3    3  502    0  0.23823974011E+03 -0.71470370444E+02  0.42868361417E+03  0.49563889947E+03  0.46999998093E+01 0.  1.
       -5    1    3    3    0  502 -0.23823974011E+03  0.71470370444E+02  0.31957843087E+03  0.40499216177E+03  0.46999998093E+01 0. -1.
</event>
<event>
 5   0  0.1439814E-01  0.4916213E+03  0.7818609E-02  0.1015989E+00
       -1   -1    0    0    0  501  0.00000000000E+00  0.00000000000E+00  0.12845570699E+03  0.12845570708E+03  0.50400001928E-02 0. -1.
        1   -1    0    0  501    0  0.00000000000E+00  0.00000000000E+00 -0.47037907441E+03  0.47037907443E+03  0.50400001928E-02 0.  1.
    10030    2    1    2    0    0  0.00000000000E+00  0.00000000000E+00 -0.34192336742E+03  0.59883478152E+03  0.49162130382E+03 0.  0.
        4    1    3    3  502    0 -0.15308719272E+03  0.15993008935E+02 -0.40440723248E+03  0.43271039679E+03  0.12699999809E+01 0.  1.
       -4    1    3    3    0  502  0.15308719272E+03 -0.15993008935E+02  0.62483865058E+02  0.16612438473E+03  0.12699999809E+01 0. -1.
</event>
<event>
 5   0  0.2466034E-01  0.5020174E+03  0.7818609E-02  0.1013254E+00
        2   -1    0    0  501    0  0.00000000000E+00  0.00000000000E+00  0.61272995183E+03  0.61272995184E+03  0.25500000920E-02 0. -1.
       -2   -1    0    0    0  501  0.00000000000E+00  0.00000000000E+00 -0.10282731186E+03  0.10282731190E+03  0.25500000920E-02 0.  1.
    10030    2    1    2    0    0  0.00000000000E+00  0.00000000000E+00  0.50990263997E+03  0.71555726373E+03  0.50201742543E+03 0.  0.
        3    1    3    3  502    0  0.11065542077E+02 -0.23410421213E+03  0.38306076916E+03  0.44906880479E+03  0.10100000352E+00 0.  1.
       -3    1    3    3    0  502 -0.11065542077E+02  0.23410421213E+03  0.12684187080E+03  0.26648845894E+03  0.10100000352E+00 0. -1.
</event>
<event>
 5   0  0.9868500E-02  0.4934572E+03  0.7818609E-02  0.1015501E+00
       -4   -1    0    0    0  501  0.00000000000E+00  0.00000000000E+00  0.26996143161E+03  0.26996441888E+03  0.12699999809E+01 0. -1.
        4   -1    0    0  501    0  0.00000000000E+00  0.00000000000E+00 -0.22548918237E+03  0.22549275878E+03  0.12699999809E+01 0.  1.
    10030    2    1    2    0    0  0.00000000000E+00  0.00000000000E+00  0.44472249248E+02  0.49545717766E+03  0.49345722605E+03 0.  0.
        4    1    3    3  502    0 -0.10698234159E+03  0.38154240315E+02  0.24214991386E+03  0.26746805631E+03  0.12699999809E+01 0. -1.
       -4    1    3    3    0  502  0.10698234159E+03 -0.38154240315E+02 -0.19767766461E+03  0.22798912135E+03  0.12699999809E+01 0.  1.
</event>
<event>
 5   0  0.1439814E-01  0.4913499E+03  0.7818609E-02  0.1016062E+00
       -1   -1    0    0    0  501  0.00000000000E+00  0.00000000000E+00  0.71799697505E+03  0.71799697507E+03  0.50400001928E-02 0.  1.
        1   -1    0    0  501    0  0.00000000000E+00  0.00000000000E+00 -0.84061891952E+02  0.84061892103E+02  0.50400001928E-02 0. -1.
    10030    2    1    2    0    0  0.00000000000E+00  0.00000000000E+00  0.63393508310E+03  0.80205886717E+03  0.49134991282E+03 0.  0.
        4    1    3    3  502    0 -0.19627013132E+03 -0.10463124611E+03  0.14666239734E+03  0.26642284775E+03  0.12699999809E+01 0. -1.
       -4    1    3    3    0  502  0.19627013132E+03  0.10463124611E+03  0.48727268576E+03  0.53563601942E+03  0.12699999809E+01 0.  1.
</event>
<event>
 5   0  0.2413301E-01  0.4937385E+03  0.7818609E-02  0.1015426E+00
       -2   -1    0    0    0  501  0.00000000000E+00  0.00000000000E+00  0.41865798026E+02  0.41865798104E+02  0.25500000920E-02 0.  1.
        2   -1    0    0  501    0  0.00000000000E+00  0.00000000000E+00 -0.14557094577E+04  0.14557094577E+04  0.25500000920E-02 0. -1.
    10030    2    1    2    0    0  0.00000000000E+00  0.00000000000E+00 -0.14138436596E+04  0.14975752558E+04  0.49373854700E+03 0.  0.
        4    1    3    3  502    0 -0.55890685511E+02  0.18312504281E+03 -0.11795876459E+04  0.11950260153E+04  0.12699999809E+01 0. -1.
       -4    1    3    3    0  502  0.55890685511E+02 -0.18312504281E+03 -0.23425601377E+03  0.30254924049E+03  0.12699999809E+01 0.  1.
</event>
<event>
 5   0  0.2488968E-01  0.5067297E+03  0.7818609E-02  0.1012037E+00
       -2   -1    0    0    0  501  0.00000000000E+00  0.00000000000E+00  0.37887098341E+02  0.37887098427E+02  0.25500000920E-02 0.  1.
        2   -1    0    0  501    0  0.00000000000E+00  0.00000000000E+00 -0.16943431696E+04  0.16943431696E+04  0.25500000920E-02 0. -1.
    10030    2    1    2    0    0  0.00000000000E+00  0.00000000000E+00 -0.16564560713E+04  0.17322302680E+04  0.50672969665E+03 0.  0.
        2    1    3    3  502    0  0.11972988490E+03 -0.11146303414E+03 -0.16682643084E+03  0.23364569619E+03  0.25500000920E-02 0.  1.
       -2    1    3    3    0  502 -0.11972988490E+03  0.11146303414E+03 -0.14896296404E+04  0.14985845719E+04  0.25500000920E-02 0. -1.
</event>
<event>
 5   0  0.1439814E-01  0.5028745E+03  0.7818609E-02  0.1013031E+00
        1   -1    0    0  501    0  0.00000000000E+00  0.00000000000E+00  0.65671309276E+03  0.65671309278E+03  0.50400001928E-02 0.  1.
       -1   -1    0    0    0  501  0.00000000000E+00  0.00000000000E+00 -0.96268374103E+02  0.96268374235E+02  0.50400001928E-02 0. -1.
    10030    2    1    2    0    0  0.00000000000E+00  0.00000000000E+00  0.56044471865E+03  0.75298146701E+03  0.50287454399E+03 0.  0.
        4    1    3    3  502    0  0.22142478581E+02 -0.20356563438E+03  0.49870188914E+03  0.53910522534E+03  0.12699999809E+01 0.  1.
       -4    1    3    3    0  502 -0.22142478581E+02  0.20356563438E+03  0.61742829519E+02  0.21387624168E+03  0.12699999809E+01 0. -1.
</event>
<event>
 5   0  0.2504064E-01  0.5063496E+03  0.7818609E-02  0.1012135E+00
        2   -1    0    0  501    0  0.00000000000E+00  0.00000000000E+00  0.10233660658E+04  0.10233660658E+04  0.25500000920E-02 0. -1.
       -2   -1    0    0    0  501  0.00000000000E+00  0.00000000000E+00 -0.62633971518E+02  0.62633971570E+02  0.25500000920E-02 0.  1.
    10030    2    1    2    0    0  0.00000000000E+00  0.00000000000E+00  0.96073209432E+03  0.10860000374E+04  0.50634960670E+03 0.  0.
        5    1    3    3  502    0  0.16338925213E+03 -0.15884955685E+03  0.24399248984E+03  0.33389168082E+03  0.46999998093E+01 0. -1.
       -5    1    3    3    0  502 -0.16338925213E+03  0.15884955685E+03  0.71673960448E+03  0.75210835659E+03  0.46999998093E+01 0.  1.
</event>
<event>
 5   0  0.9868500E-02  0.5024042E+03  0.7818609E-02  0.1013153E+00
       -3   -1    0    0    0  501  0.00000000000E+00  0.00000000000E+00  0.52285694508E+03  0.52285695484E+03  0.10100000352E+00 0. -1.
        3   -1    0    0  501    0  0.00000000000E+00  0.00000000000E+00 -0.12068785363E+03  0.12068789589E+03  0.10100000352E+00 0.  1.
    10030    2    1    2    0    0  0.00000000000E+00  0.00000000000E+00  0.40216909145E+03  0.64354485073E+03  0.50240421652E+03 0.  0.
        1    1    3    3  502    0  0.56979133164E+02 -0.11651940610E+03 -0.74476625754E+02  0.14956657856E+03  0.50400001928E-02 0.  1.
       -1    1    3    3    0  502 -0.56979133164E+02  0.11651940610E+03  0.47664571721E+03  0.49397827217E+03  0.50400001928E-02 0. -1.
</event>
<event>
 5   0  0.1413361E-01  0.4848185E+03  0.7818609E-02  0.1017819E+00
       -1   -1    0    0    0  501  0.00000000000E+00  0.00000000000E+00  0.16407012732E+03  0.16407012739E+03  0.50400001928E-02 0.  1.
        1   -1    0    0  501    0  0.00000000000E+00  0.00000000000E+00 -0.35815316549E+03  0.35815316553E+03  0.50400001928E-02 0. -1.
    10030    2    1    2    0    0  0.00000000000E+00  0.00000000000E+00 -0.19408303817E+03  0.52222329292E+03  0.48481846289E+03 0.  0.
        3    1    3    3  502    0  0.19568062936E+03  0.14304240790E+03 -0.93603710951E+02  0.25983399329E+03  0.10100000352E+00 0.  1.
       -3    1    3    3    0  502 -0.19568062936E+03 -0.14304240790E+03 -0.10047932722E+03  0.26238929963E+03  0.10100000352E+00 0. -1.
</event>
<event>
 5   0  0.2413301E-01  0.4947349E+03  0.7818609E-02  0.1015162E+00
        2   -1    0    0  501    0  0.00000000000E+00  0.00000000000E+00  0.64290665303E+03  0.64290665304E+03  0.25500000920E-02 0.  1.
       -2   -1    0    0    0  501  0.00000000000E+00  0.00000000000E+00 -0.95178128697E+02  0.95178128732E+02  0.25500000920E-02 0. -1.
    10030    2    1    2    0    0  0.00000000000E+00  0.00000000000E+00  0.54772852433E+03  0.73808478177E+03  0.49473488730E+03 0.  0.
        4    1    3    3  502    0  0.16539776878E+02  0.22991826961E+03  0.13998469514E+03  0.26969112461E+03  0.12699999809E+01 0. -1.
       -4    1    3    3    0  502 -0.16539776878E+02 -0.22991826961E+03  0.40774382920E+03  0.46839365716E+03  0.12699999809E+01 0.  1.
</event>
<event>
 5   0  0.1448458E-01  0.5083428E+03  0.7818609E-02  0.1011624E+00
        1   -1    0    0  501    0  0.00000000000E+00  0.00000000000E+00  0.25475784796E+03  0.25475784801E+03  0.50400001928E-02 0.  1.
       -1   -1    0    0    0  501  0.00000000000E+00  0.00000000000E+00 -0.25358625701E+03  0.25358625706E+03  0.50400001928E-02 0. -1.
    10030    2    1    2    0    0  0.00000000000E+00  0.00000000000E+00  0.11715909456E+01  0.50834410507E+03  0.50834275497E+03 0.  0.
        5    1    3    3  502    0  0.81996244196E+01  0.19161466001E+03  0.16731232311E+03  0.25455631054E+03  0.46999998093E+01 0.  1.
       -5    1    3    3    0  502 -0.81996244196E+01 -0.19161466001E+03 -0.16614073217E+03  0.25378779453E+03  0.46999998093E+01 0. -1.
</event>
<event>
 5   0  0.9868500E-02  0.5002821E+03  0.7818609E-02  0.1013705E+00
       -4   -1    0    0    0  501  0.00000000000E+00  0.00000000000E+00  0.12002022253E+03  0.12002694163E+03  0.12699999809E+01 0. -1.
        4   -1    0    0  501    0  0.00000000000E+00  0.00000000000E+00 -0.52131136205E+03  0.52131290901E+03  0.12699999809E+01 0.  1.
    10030    2    1    2    0    0  0.00000000000E+00  0.00000000000E+00 -0.40129113952E+03  0.64133985064E+03  0.50028214576E+03 0.  0.
        4    1    3    3  502    0 -0.83587427028E+02 -0.21472187282E+03 -0.32544125263E+03  0.39875551713E+03  0.12699999809E+01 0.  1.
       -4    1    3    3    0  502  0.83587427028E+02  0.21472187282E+03 -0.75849886888E+02  0.24258433351E+03  0.12699999809E+01 0. -1.
</event>
<event>
 5   0  0.9868500E-02  0.4973686E+03  0.7818609E-02  0.1014468E+00
        3   -1    0    0  501    0  0.00000000000E+00  0.00000000000E+00  0.26295014530E+03  0.26295016470E+03  0.10100000352E+00 0. -1.
       -3   -1    0    0    0  501  0.00000000000E+00  0.00000000000E+00 -0.23519234044E+03  0.23519236213E+03  0.10100000352E+00 0.  1.
    10030    2    1    2    0    0  0.00000000000E+00  0.00000000000E+00  0.27757804865E+02  0.49814252683E+03  0.49736855681E+03 0.  0.
        3    1    3    3  502    0 -0.49828286823E+02  0.91305192050E+02 -0.21235833695E+03  0.23646473254E+03  0.10100000352E+00 0.  1.
       -3    1    3    3    0  502  0.49828286823E+02 -0.91305192050E+02  0.24011614181E+03  0.26167779429E+03  0.10100000352E+00 0. -1.
</event>
<event>
 5   0  0.1529146E-01  0.4978047E+03  0.7818609E-02  0.1014354E+00
        1   -1    0    0  501    0  0.00000000000E+00  0.00000000000E+00  0.26292958693E+03  0.26292958698E+03  0.50400001928E-02 0. -1.
       -1   -1    0    0    0  501  0.00000000000E+00  0.00000000000E+00 -0.23562350632E+03  0.23562350637E+03  0.50400001928E-02 0.  1.
    10030    2    1    2    0    0  0.00000000000E+00  0.00000000000E+00  0.27306080611E+02  0.49855309335E+03  0.49780474571E+03 0.  0.
        1    1    3    3  502    0 -0.13727926311E+03 -0.75363241371E+02  0.20740491708E+03  0.25988846432E+03  0.50400001928E-02 0. -1.
       -1    1    3    3    0  502  0.13727926311E+03  0.75363241371E+02 -0.18009883647E+03  0.23866462904E+03  0.50400001928E-02 0.  1.
</event>
<event>
 5   0  0.1529146E-01  0.5337207E+03  0.7818609E-02  0.1005334E+00
        1   -1    0    0  501    0  0.00000000000E+00  0.00000000000E+00  0.43270543237E+03  0.43270543239E+03  0.50400001928E-02 0. -1.
       -1   -1    0    0    0  501  0.00000000000E+00  0.00000000000E+00 -0.16457948503E+03  0.16457948511E+03  0.50400001928E-02 0.  1.
    10030    2    1    2    0    0  0.00000000000E+00  0.00000000000E+00  0.26812594734E+03  0.59728491750E+03  0.53372066574E+03 0.  0.
        1    1    3    3  502    0 -0.11313180399E+02  0.24205758289E+03  0.89713336758E+01  0.24248782719E+03  0.50400001928E-02 0.  1.
       -1    1    3    3    0  502  0.11313180399E+02 -0.24205758289E+03  0.25915461366E+03  0.35479709031E+03  0.50400001928E-02 0. -1.
</event>
<event>
 5   0  0.1413361E-01  0.5002133E+03  0.7818609E-02  0.1013723E+00
       -1   -1    0    0    0  501  0.00000000000E+00  0.00000000000E+00  0.50457028742E+02  0.50457028994E+02  0.50400001928E-02 0.  1.
        1   -1    0    0  501    0  0.00000000000E+00  0.00000000000E+00 -0.12397349171E+04  0.12397349171E+04  0.50400001928E-02 0. -1.
    10030    2    1    2    0    0  0.00000000000E+00  0.00000000000E+00 -0.11892778884E+04  0.12901919461E+04  0.50021331655E+03 0.  0.
        3    1    3    3  502    0  0.10978098682E+03  0.20508983254E+03 -0.83159110513E+03  0.86351460949E+03  0.10100000352E+00 0.  1.
       -3    1    3    3    0  502 -0.10978098682E+03 -0.20508983254E+03 -0.35768678323E+03  0.42667733661E+03  0.10100000352E+00 0. -1.
</event>
<event>
 5   0  0.2413301E-01  0.5017261E+03  0.7818609E-02  0.1013329E+00
       -2   -1    0    0    0  501  0.00000000000E+00  0.00000000000E+00  0.21127063678E+03  0.21127063679E+03  0.25500000920E-02 0. -1.
        2   -1    0    0  501    0  0.00000000000E+00  0.00000000000E+00 -0.29787509237E+03  0.29787509238E+03  0.25500000920E-02 0.  1.
    10030    2    1    2    0    0  0.00000000000E+00  0.00000000000E+00 -0.86604455591E+02  0.50914572917E+03  0.50172606252E+03 0.  0.
        4    1    3    3  502    0 -0.16622658908E+03 -0.83709329467E+02  0.12738780622E+03  0.22553890314E+03  0.12699999809E+01 0. -1.
       -4    1    3    3    0  502  0.16622658908E+03  0.83709329467E+02 -0.21399226181E+03  0.28360682603E+03  0.12699999809E+01 0.  1.
</event>
<event>
 5   0  0.2511944E-01  0.4986847E+03  0.7818609E-02  0.1014123E+00
       -2   -1    0    0    0  501  0.00000000000E+00  0.00000000000E+00  0.23781298787E+03  0.23781298788E+03  0.25500000920E-02 0.  1.
        2   -1    0    0  501    0  0.00000000000E+00  0.00000000000E+00 -0.26143069013E+03  0.26143069014E+03  0.25500000920E-02 0. -1.
    10030    2    1    2    0    0  0.00000000000E+00  0.00000000000E+00 -0.23617702257E+02  0.49924367802E+03  0.49868472424E+03 0.  0.
        1    1    3    3  502    0  0.23598960325E+03  0.27009265006E+01 -0.92355389939E+02  0.25343225115E+03  0.50400001928E-02 0. -1.
       -1    1    3    3    0  502 -0.23598960325E+03 -0.27009265006E+01  0.68737687683E+02  0.24581142687E+03  0.50400001928E-02 0.  1.
</event>
<event>
 5   0  0.9868500E-02  0.4938593E+03  0.7818609E-02  0.1015394E+00
        4   -1    0    0  501    0  0.00000000000E+00  0.00000000000E+00  0.22190086550E+03  0.22190449975E+03  0.12699999809E+01 0.  1.
       -4   -1    0    0    0  501  0.00000000000E+00  0.00000000000E+00 -0.27477410389E+03  0.27477703883E+03  0.12699999809E+01 0. -1.
    10030    2    1    2    0    0  0.00000000000E+00  0.00000000000E+00 -0.52873238396E+02  0.49668153858E+03  0.49385926278E+03 0.  0.
        4    1    3    3  502    0  0.78638805928E+02 -0.11419283650E+03  0.17905569651E+03  0.22646549640E+03  0.12699999809E+01 0.  1.
       -4    1    3    3    0  502 -0.78638805928E+02  0.11419283650E+03 -0.23192893491E+03  0.27021604218E+03  0.12699999809E+01 0. -1.
</event>
<event>
 5   0  0.1453602E-01  0.5065402E+03  0.7818609E-02  0.1012086E+00
       -1   -1    0    0    0  501  0.00000000000E+00  0.00000000000E+00  0.80951598191E+03  0.80951598193E+03  0.50400001928E-02 0. -1.
        1   -1    0    0  501    0  0.00000000000E+00  0.00000000000E+00 -0.79239620359E+02  0.79239620519E+02  0.50400001928E-02 0.  1.
    10030    2    1    2    0    0  0.00000000000E+00  0.00000000000E+00  0.73027636155E+03  0.88875560244E+03  0.50654018265E+03 0.  0.
        2    1    3    3  502    0  0.18617951650E+03  0.16799816277E+03  0.42740764612E+03  0.49554363181E+03  0.25500000920E-02 0.  1.
       -2    1    3    3    0  502 -0.18617951650E+03 -0.16799816277E+03  0.30286871543E+03  0.39321197063E+03  0.25500000920E-02 0. -1.
</event>
<event>
 5   0  0.9868500E-02  0.5111317E+03  0.7818609E-02  0.1010914E+00
       -3   -1    0    0    0  501  0.00000000000E+00  0.00000000000E+00  0.17746652062E+03  0.17746654936E+03  0.10100000352E+00 0. -1.
        3   -1    0    0  501    0  0.00000000000E+00  0.00000000000E+00 -0.36803503871E+03  0.36803505257E+03  0.10100000352E+00 0.  1.
    10030    2    1    2    0    0  0.00000000000E+00  0.00000000000E+00 -0.19056851809E+03  0.54550160192E+03  0.51113172237E+03 0.  0.
        4    1    3    3  502    0 -0.11698262800E+03 -0.21764544644E+03 -0.16492395865E+03  0.29707911514E+03  0.12699999809E+01 0.  1.
       -4    1    3    3    0  502  0.11698262800E+03  0.21764544644E+03 -0.25644559435E+02  0.24842248679E+03  0.12699999809E+01 0. -1.
</event>
<event>
 5   0  0.1448458E-01  0.5161387E+03  0.7818609E-02  0.1009650E+00
       -1   -1    0    0    0  501  0.00000000000E+00  0.00000000000E+00  0.56649033084E+02  0.56649033309E+02  0.50400001928E-02 0.  1.
        1   -1    0    0  501    0  0.00000000000E+00  0.00000000000E+00 -0.11756560758E+04  0.11756560758E+04  0.50400001928E-02 0. -1.
    10030    2    1    2    0    0  0.00000000000E+00  0.00000000000E+00 -0.11190070427E+04  0.12323051091E+04  0.51613866384E+03 0.  0.
        5    1    3    3  502    0 -0.25602957321E+03 -0.11727536871E+02 -0.63069136098E+03  0.68079538798E+03  0.46999998093E+01 0. -1.
       -5    1    3    3    0  502  0.25602957321E+03  0.11727536871E+02 -0.48831568170E+03  0.55150972110E+03  0.46999998093E+01 0.  1.
</event>
<event>
 5   0  0.2413301E-01  0.5003408E+03  0.7818609E-02  0.1013690E+00
       -2   -1    0    0    0  501  0.00000000000E+00  0.00000000000E+00  0.53975873866E+03  0.53975873866E+03  0.25500000920E-02 0. -1.
        2   -1    0    0  501    0  0.00000000000E+00  0.00000000000E+00 -0.11595038452E+03  0.11595038455E+03  0.25500000920E-02 0.  1.
    10030    2    1    2    0    0  0.00000000000E+00  0.00000000000E+00  0.42380835413E+03  0.65570912322E+03  0.50034081708E+03 0.  0.
        4    1    3    3  502    0  0.32170073510E+02 -0.17220495997E+03 -0.22141631103E+02  0.17658235075E+03  0.12699999809E+01 0.  1.
       -4    1    3    3    0  502 -0.32170073510E+02  0.17220495997E+03  0.44594998523E+03  0.47912677247E+03  0.12699999809E+01 0. -1.
</event>
<event>
 5   0  0.1413361E-01  0.5013207E+03  0.7818609E-02  0.1013435E+00
        1   -1    0    0  501    0  0.00000000000E+00  0.00000000000E+00  0.25389035522E+03  0.25389035527E+03  0.50400001928E-02 0.  1.
       -1   -1    0    0    0  501  0.00000000000E+00  0.00000000000E+00 -0.24747148277E+03  0.24747148283E+03  0.50400001928E-02 0. -1.
    10030    2    1    2    0    0  0.00000000000E+00  0.00000000000E+00  0.64188724429E+01  0.50136183809E+03  0.50132074640E+03 0.  0.
        3    1    3    3  502    0  0.57586410499E+02 -0.15079687488E+03 -0.18857364230E+03  0.24822554446E+03  0.10100000352E+00 0. -1.
       -3    1    3    3    0  502 -0.57586410499E+02  0.15079687488E+03  0.19499251475E+03  0.25313629364E+03  0.10100000352E+00 0.  1.
</event>
<event>
 5   0  0.2413301E-01  0.4715183E+03  0.7818609E-02  0.1021493E+00
        2   -1    0    0  501    0  0.00000000000E+00  0.00000000000E+00  0.60181142942E+03  0.60181142942E+03  0.25500000920E-02 0.  1.
       -2   -1    0    0    0  501  0.00000000000E+00  0.00000000000E+00 -0.92358447866E+02  0.92358447901E+02  0.25500000920E-02 0. -1.
    10030    2    1    2    0    0  0.00000000000E+00  0.00000000000E+00  0.50945298155E+03  0.69416987732E+03  0.47151826918E+03 0.  0.
        4    1    3    3  502    0  0.10771479876E+03  0.13454588629E+03  0.49154364220E+03  0.52088562898E+03  0.12699999809E+01 0.  1.
       -4    1    3    3    0  502 -0.10771479876E+03 -0.13454588629E+03  0.17909339348E+02  0.17328424834E+03  0.12699999809E+01 0. -1.
</event>
<event>
 5   0  0.1529146E-01  0.4914539E+03  0.7818609E-02  0.1016034E+00
        1   -1    0    0  501    0  0.00000000000E+00  0.00000000000E+00  0.19604975782E+03  0.19604975789E+03  0.50400001928E-02 0. -1.
       -1   -1    0    0    0  501  0.00000000000E+00  0.00000000000E+00 -0.30799186492E+03  0.30799186496E+03  0.50400001928E-02 0.  1.
    10030    2    1    2    0    0  0.00000000000E+00  0.00000000000E+00 -0.11194210710E+03  0.50404162285E+03  0.49145388616E+03 0.  0.
        1    1    3    3  502    0  0.23305972123E+03  0.20589356604E+02 -0.13300120030E+03  0.26912836077E+03  0.50400001928E-02 0.  1.
       -1    1    3    3    0  502 -0.23305972123E+03 -0.20589356604E+02  0.21059093204E+02  0.23491326207E+03  0.50400001928E-02 0. -1.
</event>
<event>
 5   0  0.1529146E-01  0.5014684E+03  0.7818609E-02  0.1013396E+00
        1   -1    0    0  501    0  0.00000000000E+00  0.00000000000E+00  0.38078021153E+03  0.38078021156E+03  0.50400001928E-02 0. -1.
       -1   -1    0    0    0  501  0.00000000000E+00  0.00000000000E+00 -0.16510219210E+03  0.16510219218E+03  0.50400001928E-02 0.  1.
    10030    2    1    2    0    0  0.00000000000E+00  0.00000000000E+00  0.21567801943E+03  0.54588240374E+03  0.50146843435E+03 0.  0.
        1    1    3    3  502    0  0.19910420172E+03  0.62092558138E+02 -0.43662410120E+02  0.21308302372E+03  0.50400001928E-02 0.  1.
       -1    1    3    3    0  502 -0.19910420172E+03 -0.62092558138E+02  0.25934042955E+03  0.33279938002E+03  0.50400001928E-02 0. -1.
</event>
<event>
 5   0  0.2413301E-01  0.4976828E+03  0.7818609E-02  0.1014386E+00
       -2   -1    0    0    0  501  0.00000000000E+00  0.00000000000E+00  0.13814977304E+03  0.13814977306E+03  0.25500000920E-02 0.  1.
        2   -1    0    0  501    0  0.00000000000E+00  0.00000000000E+00 -0.44822397780E+03  0.44822397780E+03  0.25500000920E-02 0. -1.
    10030    2    1    2    0    0  0.00000000000E+00  0.00000000000E+00 -0.31007420476E+03  0.58637375087E+03  0.49768279381E+03 0.  0.
        4    1    3    3  502    0  0.68154554045E+02  0.21725981221E+03 -0.27329042568E+03  0.35571918546E+03  0.12699999809E+01 0. -1.
       -4    1    3    3    0  502 -0.68154554045E+02 -0.21725981221E+03 -0.36783779078E+02  0.23065456541E+03  0.12699999809E+01 0.  1.
</event>
<event>
 5   0  0.2511944E-01  0.5044980E+03  0.7818609E-02  0.1012611E+00
       -2   -1    0    0    0  501  0.00000000000E+00  0.00000000000E+00  0.13300998103E+03  0.13300998105E+03  0.25500000920E-02 0.  1.
        2   -1    0    0  501    0  0.00000000000E+00  0.00000000000E+00 -0.47838186089E+03  0.47838186090E+03  0.25500000920E-02 0. -1.
    10030    2    1    2    0    0  0.00000000000E+00  0.00000000000E+00 -0.34537187986E+03  0.61139184195E+03  0.50449801685E+03 0.  0.
        1    1    3    3  502    0  0.22962214050E+03 -0.51259757485E+01 -0.46295587278E+02  0.23429870777E+03  0.50400001928E-02 0.  1.
       -1    1    3    3    0  502 -0.22962214050E+03  0.51259757485E+01 -0.29907629259E+03  0.37709313418E+03  0.50400001928E-02 0. -1.
</event>
<event>
 5   0  0.2413301E-01  0.5124927E+03  0.7818609E-02  0.1010569E+00
       -2   -1    0    0    0  501  0.00000000000E+00  0.00000000000E+00  0.51631735375E+02  0.51631735438E+02  0.25500000920E-02 0.  1.
        2   -1    0    0  501    0  0.00000000000E+00  0.00000000000E+00 -0.12717408114E+04  0.12717408114E+04  0.25500000920E-02 0. -1.
    10030    2    1    2    0    0  0.00000000000E+00  0.00000000000E+00 -0.12201090760E+04  0.13233725468E+04  0.51249267344E+03 0.  0.
        4    1    3    3  502    0 -0.17380139528E+03  0.18631671629E+03 -0.53982325383E+03  0.59693517407E+03  0.12699999809E+01 0.  1.
       -4    1    3    3    0  502  0.17380139528E+03 -0.18631671629E+03 -0.68028582220E+03  0.72643737277E+03  0.12699999809E+01 0. -1.
</event>
<event>
 5   0  0.2413301E-01  0.5061647E+03  0.7818609E-02  0.1012182E+00
       -2   -1    0    0    0  501  0.00000000000E+00  0.00000000000E+00  0.69918010573E+02  0.69918010620E+02  0.25500000920E-02 0. -1.
        2   -1    0    0  501    0  0.00000000000E+00  0.00000000000E+00 -0.91608268739E+03  0.91608268739E+03  0.25500000920E-02 0.  1.
    10030    2    1    2    0    0  0.00000000000E+00  0.00000000000E+00 -0.84616467682E+03  0.98600069801E+03  0.50616471251E+03 0.  0.
        4    1    3    3  502    0  0.53864802103E+02  0.13756399224E+03 -0.22802236716E+02  0.14948854058E+03  0.12699999809E+01 0. -1.
       -4    1    3    3    0  502 -0.53864802103E+02 -0.13756399224E+03 -0.82336244010E+03  0.83651215743E+03  0.12699999809E+01 0.  1.
</event>
<event>
 5   0  0.1529146E-01  0.5086010E+03  0.7818609E-02  0.1011558E+00
       -1   -1    0    0    0  501  0.00000000000E+00  0.00000000000E+00  0.63565213144E+02  0.63565213344E+02  0.50400001928E-02 0. -1.
        1   -1    0    0  501    0  0.00000000000E+00  0.00000000000E+00 -0.10173607720E+04  0.10173607720E+04  0.50400001928E-02 0.  1.
    10030    2    1    2    0    0  0.00000000000E+00  0.00000000000E+00 -0.95379555887E+03  0.10809259854E+04  0.50860103984E+03 0.  0.
        1    1    3    3  502    0 -0.24520619320E+03 -0.67121288523E+02 -0.48989683176E+03  0.55193319374E+03  0.50400001928E-02 0. -1.
       -1    1    3    3    0  502  0.24520619320E+03  0.67121288523E+02 -0.46389872712E+03  0.52899279164E+03  0.50400001928E-02 0.  1.
</event>
<event>
 5   0  0.1413361E-01  0.4999011E+03  0.7818609E-02  0.1013805E+00
       -1   -1    0    0    0  501  0.00000000000E+00  0.00000000000E+00  0.72989918827E+02  0.72989919001E+02  0.50400001928E-02 0.  1.
        1   -1    0    0  501    0  0.00000000000E+00  0.00000000000E+00 -0.85594402052E+03  0.85594402053E+03  0.50400001928E-02 0. -1.
    10030    2    1    2    0    0  0.00000000000E+00  0.00000000000E+00 -0.78295410169E+03  0.92893393953E+03  0.49990112889E+03 0.  0.
        3    1    3    3  502    0  0.10954315925E+03  0.22454623178E+03 -0.37775117834E+03  0.45289808664E+03  0.10100000352E+00 0. -1.
       -3    1    3    3    0  502 -0.10954315925E+03 -0.22454623178E+03 -0.40520292334E+03  0.47603585289E+03  0.10100000352E+00 0.  1.
</event>
<event>
 5   0  0.2488968E-01  0.5085066E+03  0.7818609E-02  0.1011582E+00
       -2   -1    0    0    0  501  0.00000000000E+00  0.00000000000E+00  0.53456079503E+03  0.53456079504E+03  0.25500000920E-02 0.  1.
        2   -1    0    0  501    0  0.00000000000E+00  0.00000000000E+00 -0.12093057227E+03  0.12093057230E+03  0.25500000920E-02 0. -1.
    10030    2    1    2    0    0  0.00000000000E+00  0.00000000000E+00  0.41363022276E+03  0.65549136734E+03  0.50850660908E+03 0.  0.
        2    1    3    3  502    0  0.19846449981E+03 -0.53883272293E+02  0.14089241613E+02  0.20613119961E+03  0.25500000920E-02 0. -1.
       -2    1    3    3    0  502 -0.19846449981E+03  0.53883272293E+02  0.39954098114E+03  0.44936016773E+03  0.25500000920E-02 0.  1.
</event>
<event>
 5   0  0.9868500E-02  0.5038058E+03  0.7818609E-02  0.1012790E+00
       -3   -1    0    0    0  501  0.00000000000E+00  0.00000000000E+00  0.45959654032E+03  0.45959655142E+03  0.10100000352E+00 0.  1.
        3   -1    0    0  501    0  0.00000000000E+00  0.00000000000E+00 -0.13806689725E+03  0.13806693419E+03  0.10100000352E+00 0. -1.
    10030    2    1    2    0    0  0.00000000000E+00  0.00000000000E+00  0.32152964307E+03  0.59766348561E+03  0.50380584620E+03 0.  0.
        4    1    3    3  502    0 -0.25019209427E+03 -0.26513946227E+02  0.17550531702E+03  0.30676180105E+03  0.12699999809E+01 0. -1.
       -4    1    3    3    0  502  0.25019209427E+03  0.26513946227E+02  0.14602432605E+03  0.29090168456E+03  0.12699999809E+01 0.  1.
</event>
<event>
 5   0  0.1453602E-01  0.5015580E+03  0.7818609E-02  0.1013373E+00
        1   -1    0    0  501    0  0.00000000000E+00  0.00000000000E+00  0.10256420835E+04  0.10256420835E+04  0.50400001928E-02 0. -1.
       -1   -1    0    0    0  501  0.00000000000E+00  0.00000000000E+00 -0.61317796997E+02  0.61317797204E+02  0.50400001928E-02 0.  1.
    10030    2    1    2    0    0  0.00000000000E+00  0.00000000000E+00  0.96432428650E+03  0.10869598807E+04  0.50155802530E+03 0.  0.
        2    1    3    3  502    0 -0.24008660225E+03 -0.18840266196E+02  0.63376441880E+03  0.67797778043E+03  0.25500000920E-02 0.  1.
       -2    1    3    3    0  502  0.24008660225E+03  0.18840266196E+02  0.33055986771E+03  0.40898210029E+03  0.25500000920E-02 0. -1.
</event>
<event>
 5   0  0.1453602E-01  0.5098455E+03  0.7818609E-02  0.1011241E+00
       -1   -1    0    0    0  501  0.00000000000E+00  0.00000000000E+00  0.65706109693E+02  0.65706109887E+02  0.50400001928E-02 0. -1.
        1   -1    0    0  501    0  0.00000000000E+00  0.00000000000E+00 -0.98903452951E+03  0.98903452952E+03  0.50400001928E-02 0.  1.
    10030    2    1    2    0    0  0.00000000000E+00  0.00000000000E+00 -0.92332841982E+03  0.10547406394E+04  0.50984551148E+03 0.  0.
        2    1    3    3  502    0  0.23816473691E+03  0.40192865361E+01 -0.64953335840E+03  0.69183247991E+03  0.25500000920E-02 0.  1.
       -2    1    3    3    0  502 -0.23816473691E+03 -0.40192865361E+01 -0.27379506142E+03  0.36290815950E+03  0.25500000920E-02 0. -1.
</event>
<event>
 5   0  0.1439814E-01  0.4923488E+03  0.7818609E-02  0.1015795E+00
        1   -1    0    0  501    0  0.00000000000E+00  0.00000000000E+00  0.17126525749E+03  0.17126525757E+03  0.50400001928E-02 0. -1.
       -1   -1    0    0    0  501  0.00000000000E+00  0.00000000000E+00 -0.35384786313E+03  0.35384786317E+03  0.50400001928E-02 0.  1.
    10030    2    1    2    0    0  0.00000000000E+00  0.00000000000E+00 -0.18258260564E+03  0.52511312073E+03  0.49234884146E+03 0.  0.
        4    1    3    3  502    0 -0.68020213888E+02 -0.17547237849E+03 -0.26054300940E+03  0.32140562808E+03  0.12699999809E+01 0. -1.
       -4    1    3    3    0  502  0.68020213888E+02  0.17547237849E+03  0.77960403757E+02  0.20370749266E+03  0.12699999809E+01 0.  1.
</event>
<event>
 5   0  0.2488968E-01  0.5019707E+03  0.7818609E-02  0.1013266E+00
       -2   -1    0    0    0  501  0.00000000000E+00  0.00000000000E+00  0.25408277629E+02  0.25408277757E+02  0.25500000920E-02 0.  1.
        2   -1    0    0  501    0  0.00000000000E+00  0.00000000000E+00 -0.24792564828E+04  0.24792564828E+04  0.25500000920E-02 0. -1.
    10030    2    1    2    0    0  0.00000000000E+00  0.00000000000E+00 -0.24538482052E+04  0.25046647605E+04  0.50197066523E+03 0.  0.
        2    1    3    3  502    0  0.68832260150E+02 -0.13000760005E+03 -0.22416035870E+04  0.22464252708E+04  0.25500000920E-02 0. -1.
       -2    1    3    3    0  502 -0.68832260150E+02  0.13000760005E+03 -0.21224461814E+03  0.25823948970E+03  0.25500000920E-02 0.  1.
</event>
<event>
 5   0  0.1529146E-01  0.4871914E+03  0.7818609E-02  0.1017177E+00
       -1   -1    0    0    0  501  0.00000000000E+00  0.00000000000E+00  0.13174257475E+04  0.13174257475E+04  0.50400001928E-02 0.  1.
        1   -1    0    0  501    0  0.00000000000E+00  0.00000000000E+00 -0.45041516757E+02  0.45041517039E+02  0.50400001928E-02 0. -1.
    10030    2    1    2    0    0  0.00000000000E+00  0.00000000000E+00  0.12723842307E+04  0.13624672645E+04  0.48719135493E+03 0.  0.
        1    1    3    3  502    0  0.16214458042E+03  0.13232857916E+03  0.28760447059E+03  0.35569375782E+03  0.50400001928E-02 0. -1.
       -1    1    3    3    0  502 -0.16214458042E+03 -0.13232857916E+03  0.98477976013E+03  0.10067735067E+04  0.50400001928E-02 0.  1.
</event>
<event>
 5   0  0.2488968E-01  0.4895768E+03  0.7818609E-02  0.1016536E+00
       -2   -1    0    0    0  501  0.00000000000E+00  0.00000000000E+00  0.12087021246E+03  0.12087021249E+03  0.25500000920E-02 0. -1.
        2   -1    0    0  501    0  0.00000000000E+00  0.00000000000E+00 -0.49574953119E+03  0.49574953120E+03  0.25500000920E-02 0.  1.
    10030    2    1    2    0    0  0.00000000000E+00  0.00000000000E+00 -0.37487931873E+03  0.61661974369E+03  0.48957676078E+03 0.  0.
        2    1    3    3  502    0  0.21786489602E+03  0.78094485519E+02 -0.28786410903E+03  0.36936378661E+03  0.25500000920E-02 0. -1.
       -2    1    3    3    0  502 -0.21786489602E+03 -0.78094485519E+02 -0.87015209700E+02  0.24725595708E+03  0.25500000920E-02 0.  1.
</event>
<event>
 5   0  0.2488968E-01  0.4959123E+03  0.7818609E-02  0.1014851E+00
        2   -1    0    0  501    0  0.00000000000E+00  0.00000000000E+00  0.31558564144E+03  0.31558564145E+03  0.25500000920E-02 0. -1.
       -2   -1    0    0    0  501  0.00000000000E+00  0.00000000000E+00 -0.19481953812E+03  0.19481953814E+03  0.25500000920E-02 0.  1.
    10030    2    1    2    0    0  0.00000000000E+00  0.00000000000E+00  0.12076610332E+03  0.51040517959E+03  0.49591228624E+03 0.  0.
        2    1    3    3  502    0 -0.71540143357E+02  0.11290429953E+03 -0.15456696489E+03  0.20434363118E+03  0.25500000920E-02 0.  1.
       -2    1    3    3    0  502  0.71540143357E+02 -0.11290429953E+03  0.27533306820E+03  0.30606154841E+03  0.25500000920E-02 0. -1.
</event>
<event>
 5   0  0.2488968E-01  0.5028781E+03  0.7818609E-02  0.1013030E+00
       -2   -1    0    0    0  501  0.00000000000E+00  0.00000000000E+00  0.65265620694E+03  0.65265620694E+03  0.25500000920E-02 0.  1.
        2   -1    0    0  501    0  0.00000000000E+00  0.00000000000E+00 -0.96868139547E+02  0.96868139580E+02  0.25500000920E-02 0. -1.
    10030    2    1    2    0    0  0.00000000000E+00  0.00000000000E+00  0.55578806739E+03  0.74952434652E+03  0.50287808679E+03 0.  0.
        2    1    3    3  502    0  0.26541916747E+01 -0.14232859698E+03 -0.31022108670E+02  0.14569435639E+03  0.25500000920E-02 0. -1.
       -2    1    3    3    0  502 -0.26541916747E+01  0.14232859698E+03  0.58681017606E+03  0.60382999013E+03  0.25500000920E-02 0.  1.
</event>
<event>
 5   0  0.2511944E-01  0.5045395E+03  0.7818609E-02  0.1012601E+00
        2   -1    0    0  501    0  0.00000000000E+00  0.00000000000E+00  0.58356372601E+03  0.58356372602E+03  0.25500000920E-02 0. -1.
       -2   -1    0    0    0  501  0.00000000000E+00  0.00000000000E+00 -0.10905412876E+03  0.10905412879E+03  0.25500000920E-02 0.  1.
    10030    2    1    2    0    0  0.00000000000E+00  0.00000000000E+00  0.47450959725E+03  0.69261785481E+03  0.50453952761E+03 0.  0.
        1    1    3    3  502    0  0.10756927335E+03  0.21013681847E+03  0.11515210882E+03  0.26265688500E+03  0.50400001928E-02 0.  1.
       -1    1    3    3    0  502 -0.10756927335E+03 -0.21013681847E+03  0.35935748843E+03  0.42996096981E+03  0.50400001928E-02 0. -1.
</event>
<event>
 5   0  0.1453602E-01  0.4974023E+03  0.7818609E-02  0.1014459E+00
       -1   -1    0    0    0  501  0.00000000000E+00  0.00000000000E+00  0.95279784627E+02  0.95279784760E+02  0.50400001928E-02 0.  1.
        1   -1    0    0  501    0  0.00000000000E+00  0.00000000000E+00 -0.64916470288E+03  0.64916470290E+03  0.50400001928E-02 0. -1.
    10030    2    1    2    0    0  0.00000000000E+00  0.00000000000E+00 -0.55388491825E+03  0.74444448766E+03  0.49740234473E+03 0.  0.
        2    1    3    3  502    0  0.20313458270E+02  0.18908434552E+03 -0.37070742656E+02  0.19375181619E+03  0.25500000920E-02 0.  1.
       -2    1    3    3    0  502 -0.20313458270E+02 -0.18908434552E+03 -0.51681417560E+03  0.55069267147E+03  0.25500000920E-02 0. -1.
</event>
<event>
 5   0  0.2413301E-01  0.4920738E+03  0.7818609E-02  0.1015869E+00
        2   -1    0    0  501    0  0.00000000000E+00  0.00000000000E+00  0.68269750938E+03  0.68269750938E+03  0.25500000920E-02 0.  1.
       -2   -1    0    0    0  501  0.00000000000E+00  0.00000000000E+00 -0.88669069973E+02  0.88669070009E+02  0.25500000920E-02 0. -1.
    10030    2    1    2    0    0  0.00000000000E+00  0.00000000000E+00  0.59402843940E+03  0.77136657939E+03  0.49207378815E+03 0.  0.
        4    1    3    3  502    0 -0.82407401877E+02 -0.52812035298E+02  0.65085926600E+03  0.65817891792E+03  0.12699999809E+01 0.  1.
       -4    1    3    3    0  502  0.82407401877E+02  0.52812035298E+02 -0.56830826600E+02  0.11318766147E+03  0.12699999809E+01 0. -1.
</event>
<event>
 5   0  0.2504064E-01  0.4968277E+03  0.7818609E-02  0.1014610E+00
        2   -1    0    0  501    0  0.00000000000E+00  0.00000000000E+00  0.11454405434E+04  0.11454405434E+04  0.25500000920E-02 0.  1.
       -2   -1    0    0    0  501  0.00000000000E+00  0.00000000000E+00 -0.53873980262E+02  0.53873980322E+02  0.25500000920E-02 0. -1.
    10030    2    1    2    0    0  0.00000000000E+00  0.00000000000E+00  0.10915665631E+04  0.11993145237E+04  0.49682770157E+03 0.  0.
        5    1    3    3  502    0 -0.11518098302E+03  0.18889150518E+03  0.27331008083E+03  0.35166340421E+03  0.46999998093E+01 0.  1.
       -5    1    3    3    0  502  0.11518098302E+03 -0.18889150518E+03  0.81825648227E+03  0.84765111948E+03  0.46999998093E+01 0. -1.
</event>
<event>
 5   0  0.1413361E-01  0.4929946E+03  0.7818609E-02  0.1015624E+00
        1   -1    0    0  501    0  0.00000000000E+00  0.00000000000E+00  0.19518407384E+03  0.19518407390E+03  0.50400001928E-02 0.  1.
       -1   -1    0    0    0  501  0.00000000000E+00  0.00000000000E+00 -0.31130065516E+03  0.31130065520E+03  0.50400001928E-02 0. -1.
    10030    2    1    2    0    0  0.00000000000E+00  0.00000000000E+00 -0.11611658132E+03  0.50648472911E+03  0.49299464537E+03 0.  0.
        3    1    3    3  502    0  0.49878331905E+02  0.22900696230E+03  0.20377960155E+02  0.23526008637E+03  0.10100000352E+00 0.  1.
       -3    1    3    3    0  502 -0.49878331905E+02 -0.22900696230E+03 -0.13649454148E+03  0.27122464274E+03  0.10100000352E+00 0. -1.
</event>
<event>
 5   0  0.2504064E-01  0.4887371E+03  0.7818609E-02  0.1016761E+00
        2   -1    0    0  501    0  0.00000000000E+00  0.00000000000E+00  0.15188866443E+04  0.15188866443E+04  0.25500000920E-02 0.  1.
       -2   -1    0    0    0  501  0.00000000000E+00  0.00000000000E+00 -0.39315634416E+02  0.39315634499E+02  0.25500000920E-02 0. -1.
    10030    2    1    2    0    0  0.00000000000E+00  0.00000000000E+00  0.14795710099E+04  0.15582022788E+04  0.48873711581E+03 0.  0.
        5    1    3    3  502    0  0.11957167848E+03  0.47395898300E+02  0.14020624569E+04  0.14079577340E+04  0.46999998093E+01 0.  1.
       -5    1    3    3    0  502 -0.11957167848E+03 -0.47395898300E+02  0.77508552915E+02  0.15024454481E+03  0.46999998093E+01 0. -1.
</event>
<event>
 5   0  0.1413361E-01  0.4864724E+03  0.7818609E-02  0.1017371E+00
        1   -1    0    0  501    0  0.00000000000E+00  0.00000000000E+00  0.92528451453E+03  0.92528451454E+03  0.50400001928E-02 0.  1.
       -1   -1    0    0    0  501  0.00000000000E+00  0.00000000000E+00 -0.63941244995E+02  0.63941245194E+02  0.50400001928E-02 0. -1.
    10030    2    1    2    0    0  0.00000000000E+00  0.00000000000E+00  0.86134326954E+03  0.98922575974E+03  0.48647237923E+03 0.  0.
        3    1    3    3  502    0 -0.12413900719E+03 -0.57963031117E+01  0.54884970318E+01  0.12439543415E+03  0.10100000352E+00 0. -1.
       -3    1    3    3    0  502  0.12413900719E+03  0.57963031117E+01  0.85585477250E+03  0.86483032559E+03  0.10100000352E+00 0.  1.
</event>
<event>
 5   0  0.2504064E-01  0.4995549E+03  0.7818609E-02  0.1013895E+00
        2   -1    0    0  501    0  0.00000000000E+00  0.00000000000E+00  0.25449271058E+03  0.25449271060E+03  0.25500000920E-02 0. -1.
       -2   -1    0    0    0  501  0.00000000000E+00  0.00000000000E+00 -0.24514958010E+03  0.24514958011E+03  0.25500000920E-02 0.  1.
    10030    2    1    2    0    0  0.00000000000E+00  0.00000000000E+00  0.93431304880E+01  0.49964229071E+03  0.49955492648E+03 0.  0.
        5    1    3    3  502    0 -0.52669396882E+02 -0.88063139933E+02 -0.22304677364E+03  0.24556289461E+03  0.46999998093E+01 0.  1.
       -5    1    3    3    0  502  0.52669396882E+02  0.88063139933E+02  0.23238990412E+03  0.25407939609E+03  0.46999998093E+01 0. -1.
</event>
<event>
 5   0  0.2488968E-01  0.4939930E+03  0.7818609E-02  0.1015359E+00
       -2   -1    0    0    0  501  0.00000000000E+00  0.00000000000E+00  0.10760228123E+04  0.10760228123E+04  0.25500000920E-02 0.  1.
        2   -1    0    0  501    0  0.00000000000E+00  0.00000000000E+00 -0.56697001504E+02  0.56697001561E+02  0.25500000920E-02 0. -1.
    10030    2    1    2    0    0  0.00000000000E+00  0.00000000000E+00  0.10193258108E+04  0.11327198138E+04  0.49399298391E+03 0.  0.
        2    1    3    3  502    0 -0.27018860296E+02 -0.23379028809E+03  0.33777523107E+03  0.41167951655E+03  0.25500000920E-02 0. -1.
       -2    1    3    3    0  502  0.27018860296E+02  0.23379028809E+03  0.68155057968E+03  0.72104029727E+03  0.25500000920E-02 0.  1.
</event>
<event>
 5   0  0.1439814E-01  0.4920063E+03  0.7818609E-02  0.1015887E+00
       -1   -1    0    0    0  501  0.00000000000E+00  0.00000000000E+00  0.59191771208E+03  0.59191771210E+03  0.50400001928E-02 0.  1.
        1   -1    0    0  501    0  0.00000000000E+00  0.00000000000E+00 -0.10223981199E+03  0.10223981212E+03  0.50400001928E-02 0. -1.
    10030    2    1    2    0    0  0.00000000000E+00  0.00000000000E+00  0.48967790009E+03  0.69415752422E+03  0.49200632374E+03 0.  0.
        4    1    3    3  502    0 -0.11910379234E+03  0.19198355459E+03  0.10752309987E+03  0.25021236678E+03  0.12699999809E+01 0. -1.
       -4    1    3    3    0  502  0.11910379234E+03 -0.19198355459E+03  0.38215480022E+03  0.44394515744E+03  0.12699999809E+01 0.  1.
</event>
<event>
 5   0  0.1529146E-01  0.4767033E+03  0.7818609E-02  0.1020045E+00
       -1   -1    0    0    0  501  0.00000000000E+00  0.00000000000E+00  0.46345051066E+03  0.46345051068E+03  0.50400001928E-02 0.  1.
        1   -1    0    0  501    0  0.00000000000E+00  0.00000000000E+00 -0.12258376690E+03  0.12258376700E+03  0.50400001928E-02 0. -1.
    10030    2    1    2    0    0  0.00000000000E+00  0.00000000000E+00  0.34086674376E+03  0.58603427768E+03  0.47670330146E+03 0.  0.
        1    1    3    3  502    0  0.10691643927E+03 -0.75761928561E+01  0.43215168667E+03  0.44524555473E+03  0.50400001928E-02 0.  1.
       -1    1    3    3    0  502 -0.10691643927E+03  0.75761928561E+01 -0.91284942914E+02  0.14078872296E+03  0.50400001928E-02 0. -1.
</event>
<event>
 5   0  0.2413301E-01  0.4985199E+03  0.7818609E-02  0.1014166E+00
       -2   -1    0    0    0  501  0.00000000000E+00  0.00000000000E+00  0.18159661158E+03  0.18159661160E+03  0.25500000920E-02 0. -1.
        2   -1    0    0  501    0  0.00000000000E+00  0.00000000000E+00 -0.34213477004E+03  0.34213477005E+03  0.25500000920E-02 0.  1.
    10030    2    1    2    0    0  0.00000000000E+00  0.00000000000E+00 -0.16053815846E+03  0.52373138165E+03  0.49851986902E+03 0.  0.
        4    1    3    3  502    0  0.24225740204E+03 -0.27353390412E+02 -0.25760193768E+02  0.24515720934E+03  0.12699999809E+01 0. -1.
       -4    1    3    3    0  502 -0.24225740204E+03  0.27353390412E+02 -0.13477796469E+03  0.27857417231E+03  0.12699999809E+01 0.  1.
</event>
<event>
 5   0  0.2413301E-01  0.5009864E+03  0.7818609E-02  0.1013522E+00
       -2   -1    0    0    0  501  0.00000000000E+00  0.00000000000E+00  0.22880662131E+03  0.22880662133E+03  0.25500000920E-02 0.  1.
        2   -1    0    0  501    0  0.00000000000E+00  0.00000000000E+00 -0.27423521945E+03  0.27423521947E+03  0.25500000920E-02 0. -1.
    10030    2    1    2    0    0  0.00000000000E+00  0.00000000000E+00 -0.45428598143E+02  0.50304184079E+03  0.50098636314E+03 0.  0.
        4    1    3    3  502    0 -0.21798082133E+03  0.19103796572E+02  0.99706503251E+02  0.24046536799E+03  0.12699999809E+01 0.  1.
       -4    1    3    3    0  502  0.21798082133E+03 -0.19103796572E+02 -0.14513510139E+03  0.26257647280E+03  0.12699999809E+01 0. -1.
</event>
<event>
 5   0  0.2511944E-01  0.4979066E+03  0.7818609E-02  0.1014327E+00
        2   -1    0    0  501    0  0.00000000000E+00  0.00000000000E+00  0.57566447013E+03  0.57566447014E+03  0.25500000920E-02 0.  1.
       -2   -1    0    0    0  501  0.00000000000E+00  0.00000000000E+00 -0.10766296345E+03  0.10766296348E+03  0.25500000920E-02 0. -1.
    10030    2    1    2    0    0  0.00000000000E+00  0.00000000000E+00  0.46800150668E+03  0.68332743362E+03  0.49790658891E+03 0.  0.
        1    1    3    3  502    0  0.46766383536E+02 -0.21981835824E+03  0.87015803437E+02  0.24099575789E+03  0.50400001928E-02 0.  1.
       -1    1    3    3    0  502 -0.46766383536E+02  0.21981835824E+03  0.38098570324E+03  0.44233167572E+03  0.50400001928E-02 0. -1.
</event>
<event>
 5   0  0.9868500E-02  0.5046272E+03  0.7818609E-02  0.1012578E+00
       -4   -1    0    0    0  501  0.00000000000E+00  0.00000000000E+00  0.64500960710E+03  0.64501085739E+03  0.12699999809E+01 0. -1.
        4   -1    0    0  501    0  0.00000000000E+00  0.00000000000E+00 -0.98694114203E+02  0.98702285071E+02  0.12699999809E+01 0.  1.
    10030    2    1    2    0    0  0.00000000000E+00  0.00000000000E+00  0.54631549290E+03  0.74371314246E+03  0.50462720942E+03 0.  0.
        2    1    3    3  502    0 -0.18540963829E+02 -0.12122375871E+03  0.59813765174E+03  0.61057973881E+03  0.25500000920E-02 0. -1.
       -2    1    3    3    0  502  0.18540963829E+02  0.12122375871E+03 -0.51822158840E+02  0.13313340365E+03  0.25500000920E-02 0.  1.
</event>
<event>
 5   0  0.1413361E-01  0.3638692E+03  0.7818609E-02  0.1057062E+00
        1   -1    0    0  501    0  0.00000000000E+00  0.00000000000E+00  0.13390379089E+03  0.13390379098E+03  0.50400001928E-02 0.  1.
       -1   -1    0    0    0  501  0.00000000000E+00  0.00000000000E+00 -0.24719385518E+03  0.24719385523E+03  0.50400001928E-02 0. -1.
    10030    2    1    2    0    0  0.00000000000E+00  0.00000000000E+00 -0.11329006429E+03  0.38109764621E+03  0.36386917605E+03 0.  0.
        3    1    3    3  502    0 -0.44472110222E+02 -0.32126365637E+02 -0.23832387105E+03  0.24455704789E+03  0.10100000352E+00 0. -1.
       -3    1    3    3    0  502  0.44472110222E+02  0.32126365637E+02  0.12503380676E+03  0.13654059833E+03  0.10100000352E+00 0.  1.
</event>
<event>
 5   0  0.1529146E-01  0.4935696E+03  0.7818609E-02  0.1015471E+00
       -1   -1    0    0    0  501  0.00000000000E+00  0.00000000000E+00  0.43239005551E+02  0.43239005845E+02  0.50400001928E-02 0. -1.
        1   -1    0    0  501    0  0.00000000000E+00  0.00000000000E+00 -0.14085136270E+04  0.14085136270E+04  0.50400001928E-02 0.  1.
    10030    2    1    2    0    0  0.00000000000E+00  0.00000000000E+00 -0.13652746214E+04  0.14517526328E+04  0.49356956452E+03 0.  0.
        1    1    3    3  502    0 -0.16753792764E+03  0.14029194956E+03 -0.10199550393E+04  0.10431007001E+04  0.50400001928E-02 0.  1.
       -1    1    3    3    0  502  0.16753792764E+03 -0.14029194956E+03 -0.34531958212E+03  0.40865193273E+03  0.50400001928E-02 0. -1.
</event>
<event>
 5   0  0.2488968E-01  0.4880680E+03  0.7818609E-02  0.1016941E+00
        2   -1    0    0  501    0  0.00000000000E+00  0.00000000000E+00  0.36462726623E+03  0.36462726624E+03  0.25500000920E-02 0.  1.
       -2   -1    0    0    0  501  0.00000000000E+00  0.00000000000E+00 -0.16332454944E+03  0.16332454946E+03  0.25500000920E-02 0. -1.
    10030    2    1    2    0    0  0.00000000000E+00  0.00000000000E+00  0.20130271678E+03  0.52795181570E+03  0.48806796239E+03 0.  0.
        2    1    3    3  502    0  0.26132279730E+02 -0.19452118477E+03 -0.56220838525E+02  0.20416211711E+03  0.25500000920E-02 0. -1.
       -2    1    3    3    0  502 -0.26132279730E+02  0.19452118477E+03  0.25752355531E+03  0.32378969859E+03  0.25500000920E-02 0.  1.
</event>
<event>
 5   0  0.1448458E-01  0.5294841E+03  0.7818609E-02  0.1006357E+00
       -1   -1    0    0    0  501  0.00000000000E+00  0.00000000000E+00  0.15749804276E+03  0.15749804284E+03  0.50400001928E-02 0.  1.
        1   -1    0    0  501    0  0.00000000000E+00  0.00000000000E+00 -0.44501087478E+03  0.44501087481E+03  0.50400001928E-02 0. -1.
    10030    2    1    2    0    0  0.00000000000E+00  0.00000000000E+00 -0.28751283202E+03  0.60250891765E+03  0.52948405762E+03 0.  0.
        5    1    3    3  502    0  0.13234270267E+03 -0.21639924398E+03 -0.22984063210E+03  0.34233321474E+03  0.46999998093E+01 0. -1.
       -5    1    3    3    0  502 -0.13234270267E+03  0.21639924398E+03 -0.57672199918E+02  0.26017570292E+03  0.46999998093E+01 0.  1.
</event>
<event>
 5   0  0.1529146E-01  0.4096162E+03  0.7818609E-02  0.1040500E+00
        1   -1    0    0  501    0  0.00000000000E+00  0.00000000000E+00  0.44754110406E+02  0.44754110690E+02  0.50400001928E-02 0.  1.
       -1   -1    0    0    0  501  0.00000000000E+00  0.00000000000E+00 -0.93726279237E+03  0.93726279239E+03  0.50400001928E-02 0. -1.
    10030    2    1    2    0    0  0.00000000000E+00  0.00000000000E+00 -0.89250868197E+03  0.98201690308E+03  0.40961622348E+03 0.  0.
        1    1    3    3  502    0 -0.12199431054E+03 -0.15942682970E+03 -0.34896458984E+03  0.40258640169E+03  0.50400001928E-02 0.  1.
       -1    1    3    3    0  502  0.12199431054E+03  0.15942682970E+03 -0.54354409212E+03  0.57943050139E+03  0.50400001928E-02 0. -1.
</event>
<event>
 5   0  0.1453602E-01  0.5070533E+03  0.7818609E-02  0.1011954E+00
       -1   -1    0    0    0  501  0.00000000000E+00  0.00000000000E+00  0.26015425945E+03  0.26015425950E+03  0.50400001928E-02 0. -1.
        1   -1    0    0  501    0  0.00000000000E+00  0.00000000000E+00 -0.24706790135E+03  0.24706790140E+03  0.50400001928E-02 0.  1.
    10030    2    1    2    0    0  0.00000000000E+00  0.00000000000E+00  0.13086358100E+02  0.50722216089E+03  0.50705331843E+03 0.  0.
        2    1    3    3  502    0  0.10525245442E+03  0.22387703675E+03 -0.48943842591E+02  0.25217951241E+03  0.25500000920E-02 0. -1.
       -2    1    3    3    0  502 -0.10525245442E+03 -0.22387703675E+03  0.62030200691E+02  0.25504264849E+03  0.25500000920E-02 0.  1.
</event>
<event>
 5   0  0.2488968E-01  0.6211671E+03  0.7818609E-02  0.9862439E-01
        2   -1    0    0  501    0  0.00000000000E+00  0.00000000000E+00  0.13134532639E+04  0.13134532639E+04  0.25500000920E-02 0.  1.
       -2   -1    0    0    0  501  0.00000000000E+00  0.00000000000E+00 -0.73441630809E+02  0.73441630854E+02  0.25500000920E-02 0. -1.
    10030    2    1    2    0    0  0.00000000000E+00  0.00000000000E+00  0.12400116331E+04  0.13868948948E+04  0.62116712638E+03 0.  0.
        2    1    3    3  502    0 -0.26358319982E+03  0.18027308506E+02  0.98456984393E+03  0.10194012285E+04  0.25500000920E-02 0.  1.
       -2    1    3    3    0  502  0.26358319982E+03 -0.18027308506E+02  0.25544178915E+03  0.36749366625E+03  0.25500000920E-02 0. -1.
</event>
<event>
 5   0  0.2466034E-01  0.4984573E+03  0.7818609E-02  0.1014182E+00
       -2   -1    0    0    0  501  0.00000000000E+00  0.00000000000E+00  0.20347973216E+03  0.20347973218E+03  0.25500000920E-02 0. -1.
        2   -1    0    0  501    0  0.00000000000E+00  0.00000000000E+00 -0.30526337934E+03  0.30526337935E+03  0.25500000920E-02 0.  1.
    10030    2    1    2    0    0  0.00000000000E+00  0.00000000000E+00 -0.10178364718E+03  0.50874311153E+03  0.49845726266E+03 0.  0.
        3    1    3    3  502    0 -0.74157541271E+02 -0.17319018657E+02  0.19131424166E+03  0.20591366782E+03  0.10100000352E+00 0. -1.
       -3    1    3    3    0  502  0.74157541271E+02  0.17319018657E+02 -0.29309788884E+03  0.30282944371E+03  0.10100000352E+00 0.  1.
</event>
<event>
 5   0  0.1448458E-01  0.4912610E+03  0.7818609E-02  0.1016085E+00
       -1   -1    0    0    0  501  0.00000000000E+00  0.00000000000E+00  0.28396535837E+03  0.28396535841E+03  0.50400001928E-02 0. -1.
        1   -1    0    0  501    0  0.00000000000E+00  0.00000000000E+00 -0.21247074871E+03  0.21247074877E+03  0.50400001928E-02 0.  1.
    10030    2    1    2    0    0  0.00000000000E+00  0.00000000000E+00  0.71494609662E+02  0.49643610718E+03  0.49126095846E+03 0.  0.
        5    1    3    3  502    0  0.11410486696E+03 -0.20460118425E+03  0.11021674678E+03  0.25894282483E+03  0.46999998093E+01 0. -1.
       -5    1    3    3    0  502 -0.11410486696E+03  0.20460118425E+03 -0.38722137123E+02  0.23749328235E+03  0.46999998093E+01 0.  1.
</event>
<event>
 5   0  0.1529146E-01  0.4953245E+03  0.7818609E-02  0.1015007E+00
        1   -1    0    0  501    0  0.00000000000E+00  0.00000000000E+00  0.25923234375E+03  0.25923234380E+03  0.50400001928E-02 0.  1.
       -1   -1    0    0    0  501  0.00000000000E+00  0.00000000000E+00 -0.23660851950E+03  0.23660851956E+03  0.50400001928E-02 0. -1.
    10030    2    1    2    0    0  0.00000000000E+00  0.00000000000E+00  0.22623824244E+02  0.49584086335E+03  0.49532446371E+03 0.  0.
        1    1    3    3  502    0 -0.10151039904E+02 -0.21659105985E+03 -0.10848678674E+03  0.24245435393E+03  0.50400001928E-02 0. -1.
       -1    1    3    3    0  502  0.10151039904E+02  0.21659105985E+03  0.13111061098E+03  0.25338650942E+03  0.50400001928E-02 0.  1.
</event>
<event>
 5   0  0.1413361E-01  0.5073642E+03  0.7818609E-02  0.1011874E+00
       -1   -1    0    0    0  501  0.00000000000E+00  0.00000000000E+00  0.93826064973E+02  0.93826065108E+02  0.50400001928E-02 0.  1.
        1   -1    0    0  501    0  0.00000000000E+00  0.00000000000E+00 -0.68589262277E+03  0.68589262279E+03  0.50400001928E-02 0. -1.
    10030    2    1    2    0    0  0.00000000000E+00  0.00000000000E+00 -0.59206655780E+03  0.77971868790E+03  0.50736419207E+03 0.  0.
        3    1    3    3  502    0 -0.15343287840E+03 -0.10547850224E+03 -0.56082413946E+03  0.59092392760E+03  0.10100000352E+00 0. -1.
       -3    1    3    3    0  502  0.15343287840E+03  0.10547850224E+03 -0.31242418337E+02  0.18879476029E+03  0.10100000352E+00 0.  1.
</event>
<event>
 5   0  0.2504064E-01  0.5069008E+03  0.7818609E-02  0.1011993E+00
        2   -1    0    0  501    0  0.00000000000E+00  0.00000000000E+00  0.69385141408E+03  0.69385141409E+03  0.25500000920E-02 0.  1.
       -2   -1    0    0    0  501  0.00000000000E+00  0.00000000000E+00 -0.92580507638E+02  0.92580507673E+02  0.25500000920E-02 0. -1.
    10030    2    1    2    0    0  0.00000000000E+00  0.00000000000E+00  0.60127090644E+03  0.78643192176E+03  0.50690084299E+03 0.  0.
        5    1    3    3  502    0 -0.23967326086E+03 -0.38230335191E+02  0.41369139226E+03  0.47965350883E+03  0.46999998093E+01 0.  1.
       -5    1    3    3    0  502  0.23967326086E+03  0.38230335191E+02  0.18757951418E+03  0.30677841293E+03  0.46999998093E+01 0. -1.
</event>
<event>
 5   0  0.1448458E-01  0.5082017E+03  0.7818609E-02  0.1011660E+00
       -1   -1    0    0    0  501  0.00000000000E+00  0.00000000000E+00  0.32476632110E+03  0.32476632114E+03  0.50400001928E-02 0. -1.
        1   -1    0    0  501    0  0.00000000000E+00  0.00000000000E+00 -0.19881138675E+03  0.19881138682E+03  0.50400001928E-02 0.  1.
    10030    2    1    2    0    0  0.00000000000E+00  0.00000000000E+00  0.12595493435E+03  0.52357770795E+03  0.50820170285E+03 0.  0.
        5    1    3    3  502    0  0.10905855600E+03  0.22723442594E+03  0.30139939331E+02  0.25388926505E+03  0.46999998093E+01 0. -1.
       -5    1    3    3    0  502 -0.10905855600E+03 -0.22723442594E+03  0.95814995015E+02  0.26968844290E+03  0.46999998093E+01 0.  1.
</event>
<event>
 5   0  0.2488968E-01  0.4988158E+03  0.7818609E-02  0.1014088E+00
       -2   -1    0    0    0  501  0.00000000000E+00  0.00000000000E+00  0.87556289694E+02  0.87556289732E+02  0.25500000920E-02 0. -1.
        2   -1    0    0  501    0  0.00000000000E+00  0.00000000000E+00 -0.71044924248E+03  0.71044924248E+03  0.25500000920E-02 0.  1.
    10030    2    1    2    0    0  0.00000000000E+00  0.00000000000E+00 -0.62289295278E+03  0.79800553222E+03  0.49881579648E+03 0.  0.
        2    1    3    3  502    0 -0.20444503982E+03 -0.66320504691E+01 -0.53973374554E+03  0.57719517885E+03  0.25500000920E-02 0.  1.
       -2    1    3    3    0  502  0.20444503982E+03  0.66320504691E+01 -0.83159207242E+02  0.22081035337E+03  0.25500000920E-02 0. -1.
</event>
<event>
 5   0  0.2488968E-01  0.5039147E+03  0.7818609E-02  0.1012762E+00
       -2   -1    0    0    0  501  0.00000000000E+00  0.00000000000E+00  0.51558814495E+02  0.51558814558E+02  0.25500000920E-02 0. -1.
        2   -1    0    0  501    0  0.00000000000E+00  0.00000000000E+00 -0.12312640724E+04  0.12312640724E+04  0.25500000920E-02 0.  1.
    10030    2    1    2    0    0  0.00000000000E+00  0.00000000000E+00 -0.11797052579E+04  0.12828228869E+04  0.50391473860E+03 0.  0.
        2    1    3    3  502    0 -0.10099678929E+03  0.22873334290E+03 -0.51084429365E+03  0.56875406457E+03  0.25500000920E-02 0. -1.
       -2    1    3    3    0  502  0.10099678929E+03 -0.22873334290E+03 -0.66886096422E+03  0.71406882236E+03  0.25500000920E-02 0.  1.
</event>
<event>
 5   0  0.2504064E-01  0.4885237E+03  0.7818609E-02  0.1016819E+00
       -2   -1    0    0    0  501  0.00000000000E+00  0.00000000000E+00  0.65734246544E+03  0.65734246544E+03  0.25500000920E-02 0.  1.
        2   -1    0    0  501    0  0.00000000000E+00  0.00000000000E+00 -0.90765247406E+02  0.90765247441E+02  0.25500000920E-02 0. -1.
    10030    2    1    2    0    0  0.00000000000E+00  0.00000000000E+00  0.56657721803E+03  0.74810771288E+03  0.48852370064E+03 0.  0.
        5    1    3    3  502    0 -0.16462331412E+03  0.14659769972E+03  0.12231287017E+03  0.25213934505E+03  0.46999998093E+01 0. -1.
       -5    1    3    3    0  502  0.16462331412E+03 -0.14659769972E+03  0.44426434786E+03  0.49596836784E+03  0.46999998093E+01 0.  1.
</event>
<event>
 5   0  0.2511944E-01  0.4967727E+03  0.7818609E-02  0.1014625E+00
       -2   -1    0    0    0  501  0.00000000000E+00  0.00000000000E+00  0.12138246566E+03  0.12138246569E+03  0.25500000920E-02 0. -1.
        2   -1    0    0  501    0  0.00000000000E+00  0.00000000000E+00 -0.50827580695E+03  0.50827580696E+03  0.25500000920E-02 0.  1.
    10030    2    1    2    0    0  0.00000000000E+00  0.00000000000E+00 -0.38689334129E+03  0.62965827265E+03  0.49677266710E+03 0.  0.
        1    1    3    3  502    0 -0.23074538956E+03 -0.23009024291E+01 -0.30993959308E+03  0.38640817841E+03  0.50400001928E-02 0.  1.
       -1    1    3    3    0  502  0.23074538956E+03  0.23009024291E+01 -0.76953748205E+02  0.24325009424E+03  0.50400001928E-02 0. -1.
</event>
<event>
 5   0  0.2488968E-01  0.5114199E+03  0.7818609E-02  0.1010840E+00
        2   -1    0    0  501    0  0.00000000000E+00  0.00000000000E+00  0.68520267383E+03  0.68520267383E+03  0.25500000920E-02 0.  1.
       -2   -1    0    0    0  501  0.00000000000E+00  0.00000000000E+00 -0.95428071828E+02  0.95428071862E+02  0.25500000920E-02 0. -1.
    10030    2    1    2    0    0  0.00000000000E+00  0.00000000000E+00  0.58977460200E+03  0.78063074570E+03  0.51141986661E+03 0.  0.
        2    1    3    3  502    0 -0.24577914769E+03  0.38028400493E+02  0.20414649365E+03  0.32175975441E+03  0.25500000920E-02 0. -1.
       -2    1    3    3    0  502  0.24577914769E+03 -0.38028400493E+02  0.38562810836E+03  0.45887099129E+03  0.25500000920E-02 0.  1.
</event>
<event>
 5   0  0.2511944E-01  0.5081606E+03  0.7818609E-02  0.1011671E+00
       -2   -1    0    0    0  501  0.00000000000E+00  0.00000000000E+00  0.50178747235E+02  0.50178747300E+02  0.25500000920E-02 0.  1.
        2   -1    0    0  501    0  0.00000000000E+00  0.00000000000E+00 -0.12865368442E+04  0.12865368442E+04  0.25500000920E-02 0. -1.
    10030    2    1    2    0    0  0.00000000000E+00  0.00000000000E+00 -0.12363580970E+04  0.13367155915E+04  0.50816063272E+03 0.  0.
        1    1    3    3  502    0  0.13321541413E+03  0.93742201316E+02 -0.11311117505E+04  0.11427807046E+04  0.50400001928E-02 0. -1.
       -1    1    3    3    0  502 -0.13321541413E+03 -0.93742201316E+02 -0.10524634655E+03  0.19393488690E+03  0.50400001928E-02 0.  1.
</event>
<event>
 5   0  0.1453602E-01  0.4884736E+03  0.7818609E-02  0.1016832E+00
       -1   -1    0    0    0  501  0.00000000000E+00  0.00000000000E+00  0.86893490769E+02  0.86893490915E+02  0.50400001928E-02 0. -1.
        1   -1    0    0  501    0  0.00000000000E+00  0.00000000000E+00 -0.68649106734E+03  0.68649106736E+03  0.50400001928E-02 0.  1.
    10030    2    1    2    0    0  0.00000000000E+00  0.00000000000E+00 -0.59959757657E+03  0.77338455827E+03  0.48847356238E+03 0.  0.
        2    1    3    3  502    0 -0.40633837620E+02 -0.67481695636E+02  0.66229752932E+02  0.10291388723E+03  0.25500000920E-02 0. -1.
       -2    1    3    3    0  502  0.40633837620E+02  0.67481695636E+02 -0.66582732950E+03  0.67047067104E+03  0.25500000920E-02 0.  1.
</event>
<event>
 5   0  0.1439814E-01  0.4917434E+03  0.7818609E-02  0.1015957E+00
        1   -1    0    0  501    0  0.00000000000E+00  0.00000000000E+00  0.48067402893E+03  0.48067402895E+03  0.50400001928E-02 0. -1.
       -1   -1    0    0    0  501  0.00000000000E+00  0.00000000000E+00 -0.12576691272E+03  0.12576691282E+03  0.50400001928E-02 0.  1.
    10030    2    1    2    0    0  0.00000000000E+00  0.00000000000E+00  0.35490711620E+03  0.60644094178E+03  0.49174338301E+03 0.  0.
        4    1    3    3  502    0 -0.17203130372E+03  0.61843470659E+02 -0.25309207558E+02  0.18455772325E+03  0.12699999809E+01 0.  1.
       -4    1    3    3    0  502  0.17203130372E+03 -0.61843470659E+02  0.38021632376E+03  0.42188321853E+03  0.12699999809E+01 0. -1.
</event>
<event>
 5   0  0.9868500E-02  0.5007878E+03  0.7818609E-02  0.1013573E+00
       -3   -1    0    0    0  501  0.00000000000E+00  0.00000000000E+00  0.45607601288E+02  0.45607713123E+02  0.10100000352E+00 0. -1.
        3   -1    0    0  501    0  0.00000000000E+00  0.00000000000E+00 -0.13747055211E+04  0.13747055248E+04  0.10100000352E+00 0.  1.
    10030    2    1    2    0    0  0.00000000000E+00  0.00000000000E+00 -0.13290979198E+04  0.14203132379E+04  0.50078779278E+03 0.  0.
        5    1    3    3  502    0  0.16834735625E+03 -0.15683172160E+03 -0.94442460633E+03  0.97205809924E+03  0.46999998093E+01 0.  1.
       -5    1    3    3    0  502 -0.16834735625E+03  0.15683172160E+03 -0.38467331345E+03  0.44825513866E+03  0.46999998093E+01 0. -1.
</event>
<event>
 5   0  0.1439814E-01  0.4772263E+03  0.7818609E-02  0.1019900E+00
       -1   -1    0    0    0  501  0.00000000000E+00  0.00000000000E+00  0.90458089684E+03  0.90458089685E+03  0.50400001928E-02 0.  1.
        1   -1    0    0  501    0  0.00000000000E+00  0.00000000000E+00 -0.62942123573E+02  0.62942123775E+02  0.50400001928E-02 0. -1.
    10030    2    1    2    0    0  0.00000000000E+00  0.00000000000E+00  0.84163877327E+03  0.96752302063E+03  0.47722633077E+03 0.  0.
        4    1    3    3  502    0  0.10154578648E+03 -0.12259443566E+03  0.60458980459E+02  0.17028753221E+03  0.12699999809E+01 0. -1.
       -4    1    3    3    0  502 -0.10154578648E+03  0.12259443566E+03  0.78117979281E+03  0.79723548842E+03  0.12699999809E+01 0.  1.
</event>
<event>
 5   0  0.2413301E-01  0.4919394E+03  0.7818609E-02  0.1015905E+00
       -2   -1    0    0    0  501  0.00000000000E+00  0.00000000000E+00  0.85167666740E+02  0.85167666778E+02  0.25500000920E-02 0. -1.
        2   -1    0    0  501    0  0.00000000000E+00  0.00000000000E+00 -0.71037619736E+03  0.71037619736E+03  0.25500000920E-02 0.  1.
    10030    2    1    2    0    0  0.00000000000E+00  0.00000000000E+00 -0.62520853062E+03  0.79554386414E+03  0.49193935908E+03 0.  0.
        4    1    3    3  502    0 -0.13484762671E+03  0.20240363683E+03 -0.25322226804E+03  0.35110432149E+03  0.12699999809E+01 0. -1.
       -4    1    3    3    0  502  0.13484762671E+03 -0.20240363683E+03 -0.37198626257E+03  0.44443954266E+03  0.12699999809E+01 0.  1.
</event>
<event>
 5   0  0.1448458E-01  0.5035178E+03  0.7818609E-02  0.1012865E+00
        1   -1    0    0  501    0  0.00000000000E+00  0.00000000000E+00  0.13438656537E+04  0.13438656537E+04  0.50400001928E-02 0.  1.
       -1   -1    0    0    0  501  0.00000000000E+00  0.00000000000E+00 -0.47164350343E+02  0.47164350613E+02  0.50400001928E-02 0. -1.
    10030    2    1    2    0    0  0.00000000000E+00  0.00000000000E+00  0.12967013033E+04  0.13910300043E+04  0.50351782768E+03 0.  0.
        5    1    3    3  502    0  0.10602777660E+03  0.18817478450E+03  0.10054545236E+04  0.10284029016E+04  0.46999998093E+01 0.  1.
       -5    1    3    3    0  502 -0.10602777660E+03 -0.18817478450E+03  0.29124677974E+03  0.36262710273E+03  0.46999998093E+01 0. -1.
</event>
<event>
 5   0  0.1453602E-01  0.5124055E+03  0.7818609E-02  0.1010591E+00
        1   -1    0    0  501    0  0.00000000000E+00  0.00000000000E+00  0.82097113486E+03  0.82097113488E+03  0.50400001928E-02 0. -1.
       -1   -1    0    0    0  501  0.00000000000E+00  0.00000000000E+00 -0.79953910437E+02  0.79953910596E+02  0.50400001928E-02 0.  1.
    10030    2    1    2    0    0  0.00000000000E+00  0.00000000000E+00  0.74101722443E+03  0.90092504548E+03  0.51240551389E+03 0.  0.
        2    1    3    3  502    0  0.15329357148E+03 -0.14136261144E+03  0.10878934679E+03  0.23519657512E+03  0.25500000920E-02 0.  1.
       -2    1    3    3    0  502 -0.15329357148E+03  0.14136261144E+03  0.63222787764E+03  0.66572847035E+03  0.25500000920E-02 0. -1.
</event>
<event>
 5   0  0.1439814E-01  0.4998656E+03  0.7818609E-02  0.1013814E+00
        1   -1    0    0  501    0  0.00000000000E+00  0.00000000000E+00  0.69137222732E+03  0.69137222734E+03  0.50400001928E-02 0. -1.
       -1   -1    0    0    0  501  0.00000000000E+00  0.00000000000E+00 -0.90351326681E+02  0.90351326822E+02  0.50400001928E-02 0.  1.
    10030    2    1    2    0    0  0.00000000000E+00  0.00000000000E+00  0.60102090064E+03  0.78172355417E+03  0.49986557406E+03 0.  0.
        4    1    3    3  502    0 -0.15607562376E+03  0.12830819349E+03  0.70445428221E+02  0.21397841972E+03  0.12699999809E+01 0.  1.
       -4    1    3    3    0  502  0.15607562376E+03 -0.12830819349E+03  0.53057547242E+03  0.56774513444E+03  0.12699999809E+01 0. -1.
</event>
<event>
 5   0  0.1439814E-01  0.4975785E+03  0.7818609E-02  0.1014413E+00
        1   -1    0    0  501    0  0.00000000000E+00  0.00000000000E+00  0.78399932644E+03  0.78399932646E+03  0.50400001928E-02 0.  1.
       -1   -1    0    0    0  501  0.00000000000E+00  0.00000000000E+00 -0.78949148301E+02  0.78949148462E+02  0.50400001928E-02 0. -1.
    10030    2    1    2    0    0  0.00000000000E+00  0.00000000000E+00  0.70505017814E+03  0.86294847492E+03  0.49757845278E+03 0.  0.
        4    1    3    3  502    0  0.12508371436E+03  0.20014893885E+03  0.48896178352E+03  0.54294638038E+03  0.12699999809E+01 0.  1.
       -4    1    3    3    0  502 -0.12508371436E+03 -0.20014893885E+03  0.21608839461E+03  0.32000209454E+03  0.12699999809E+01 0. -1.
</event>
<event>
 5   0  0.2466034E-01  0.5089288E+03  0.7818609E-02  0.1011474E+00
       -2   -1    0    0    0  501  0.00000000000E+00  0.00000000000E+00  0.18907021326E+03  0.18907021328E+03  0.25500000920E-02 0.  1.
        2   -1    0    0  501    0  0.00000000000E+00  0.00000000000E+00 -0.34247664556E+03  0.34247664557E+03  0.25500000920E-02 0. -1.
    10030    2    1    2    0    0  0.00000000000E+00  0.00000000000E+00 -0.15340643230E+03  0.53154685885E+03  0.50892880611E+03 0.  0.
        3    1    3    3  502    0  0.25674695259E+02 -0.12257635117E+03  0.15465427706E+03  0.19900278253E+03  0.10100000352E+00 0.  1.
       -3    1    3    3    0  502 -0.25674695259E+02  0.12257635117E+03 -0.30806070936E+03  0.33254407632E+03  0.10100000352E+00 0. -1.
</event>
<event>
 5   0  0.1453602E-01  0.5226119E+03  0.7818609E-02  0.1008040E+00
       -1   -1    0    0    0  501  0.00000000000E+00  0.00000000000E+00  0.74567755620E+02  0.74567755791E+02  0.50400001928E-02 0. -1.
        1   -1    0    0  501    0  0.00000000000E+00  0.00000000000E+00 -0.91568785735E+03  0.91568785737E+03  0.50400001928E-02 0.  1.
    10030    2    1    2    0    0  0.00000000000E+00  0.00000000000E+00 -0.84112010173E+03  0.99025561316E+03  0.52261185774E+03 0.  0.
        2    1    3    3  502    0 -0.64485995959E+02 -0.35581069202E+02 -0.89561360485E+03  0.89863684843E+03  0.25500000920E-02 0.  1.
       -2    1    3    3    0  502  0.64485995959E+02  0.35581069202E+02  0.54493503121E+02  0.91618764722E+02  0.25500000920E-02 0. -1.
</event>
<event>
 5   0  0.2466034E-01  0.5075492E+03  0.7818609E-02  0.1011827E+00
       -2   -1    0    0    0  501  0.00000000000E+00  0.00000000000E+00  0.10513244414E+03  0.10513244417E+03  0.25500000920E-02 0. -1.
        2   -1    0    0  501    0  0.00000000000E+00  0.00000000000E+00 -0.61257547019E+03  0.61257547019E+03  0.25500000920E-02 0.  1.
    10030    2    1    2    0    0  0.00000000000E+00  0.00000000000E+00 -0.50744302604E+03  0.71770791436E+03  0.50754923472E+03 0.  0.
        3    1    3    3  502    0  0.23888791235E+03 -0.12268068301E+02 -0.13387074766E+03  0.27411553667E+03  0.10100000352E+00 0. -1.
       -3    1    3    3    0  502 -0.23888791235E+03  0.12268068301E+02 -0.37357227838E+03  0.44359237769E+03  0.10100000352E+00 0.  1.
</event>
<event>
 5   0  0.1448458E-01  0.4915248E+03  0.7818609E-02  0.1016015E+00
        1   -1    0    0  501    0  0.00000000000E+00  0.00000000000E+00  0.15215536096E+03  0.15215536104E+03  0.50400001928E-02 0. -1.
       -1   -1    0    0    0  501  0.00000000000E+00  0.00000000000E+00 -0.39695708591E+03  0.39695708594E+03  0.50400001928E-02 0.  1.
    10030    2    1    2    0    0  0.00000000000E+00  0.00000000000E+00 -0.24480172495E+03  0.54911244698E+03  0.49152476529E+03 0.  0.
        5    1    3    3  502    0 -0.16327170170E+03  0.74691589339E+02  0.65004657980E+02  0.19100831828E+03  0.46999998093E+01 0. -1.
       -5    1    3    3    0  502  0.16327170170E+03 -0.74691589339E+02 -0.30980638293E+03  0.35810412871E+03  0.46999998093E+01 0.  1.
</event>
<event>
 5   0  0.2466034E-01  0.5069255E+03  0.7818609E-02  0.1011987E+00
       -2   -1    0    0    0  501  0.00000000000E+00  0.00000000000E+00  0.79014129744E+02  0.79014129785E+02  0.25500000920E-02 0.  1.
        2   -1    0    0  501    0  0.00000000000E+00  0.00000000000E+00 -0.81306185023E+03  0.81306185024E+03  0.25500000920E-02 0. -1.
    10030    2    1    2    0    0  0.00000000000E+00  0.00000000000E+00 -0.73404772049E+03  0.89207598002E+03  0.50692553514E+03 0.  0.
        3    1    3    3  502    0  0.19837339525E+03  0.53871847288E+02 -0.10607089343E+03  0.23131196361E+03  0.10100000352E+00 0.  1.
       -3    1    3    3    0  502 -0.19837339525E+03 -0.53871847288E+02 -0.62797682705E+03  0.66076401641E+03  0.10100000352E+00 0. -1.
</event>
<event>
 5   0  0.1529146E-01  0.5286436E+03  0.7818609E-02  0.1006562E+00
        1   -1    0    0  501    0  0.00000000000E+00  0.00000000000E+00  0.15705924634E+03  0.15705924642E+03  0.50400001928E-02 0.  1.
       -1   -1    0    0    0  501  0.00000000000E+00  0.00000000000E+00 -0.44483852673E+03  0.44483852676E+03  0.50400001928E-02 0. -1.
    10030    2    1    2    0    0  0.00000000000E+00  0.00000000000E+00 -0.28777928039E+03  0.60189777319E+03  0.52864356153E+03 0.  0.
        1    1    3    3  502    0  0.69338149353E+02  0.21735128373E+03  0.80855668718E+01  0.22828652153E+03  0.50400001928E-02 0.  1.
       -1    1    3    3    0  502 -0.69338149353E+02 -0.21735128373E+03 -0.29586484726E+03  0.37361125166E+03  0.50400001928E-02 0. -1.
</event>
<event>
 5   0  0.1448458E-01  0.4981095E+03  0.7818609E-02  0.1014274E+00
        1   -1    0    0  501    0  0.00000000000E+00  0.00000000000E+00  0.12901839806E+03  0.12901839816E+03  0.50400001928E-02 0. -1.
       -1   -1    0    0    0  501  0.00000000000E+00  0.00000000000E+00 -0.48077077640E+03  0.48077077643E+03  0.50400001928E-02 0.  1.
    10030    2    1    2    0    0  0.00000000000E+00  0.00000000000E+00 -0.35175237834E+03  0.60978917459E+03  0.49810952789E+03 0.  0.
        5    1    3    3  502    0 -0.56157291995E+02  0.29261320238E+02 -0.47069492299E+03  0.47495859486E+03  0.46999998093E+01 0.  1.
       -5    1    3    3    0  502  0.56157291995E+02 -0.29261320238E+02  0.11894254464E+03  0.13483057973E+03  0.46999998093E+01 0. -1.
</event>
<event>
 5   0  0.2504064E-01  0.5602548E+03  0.7818609E-02  0.9991478E-01
       -2   -1    0    0    0  501  0.00000000000E+00  0.00000000000E+00  0.87684266607E+02  0.87684266644E+02  0.25500000920E-02 0.  1.
        2   -1    0    0  501    0  0.00000000000E+00  0.00000000000E+00 -0.89493094127E+03  0.89493094127E+03  0.25500000920E-02 0. -1.
    10030    2    1    2    0    0  0.00000000000E+00  0.00000000000E+00 -0.80724667466E+03  0.98261520792E+03  0.56025481085E+03 0.  0.
        5    1    3    3  502    0  0.33678759556E+02  0.10691139627E+03 -0.85380837414E+03  0.86114756880E+03  0.46999998093E+01 0. -1.
       -5    1    3    3    0  502 -0.33678759556E+02 -0.10691139627E+03  0.46561699477E+02  0.12146763912E+03  0.46999998093E+01 0.  1.
</event>
<event>
 5   0  0.1529146E-01  0.4924971E+03  0.7818609E-02  0.1015756E+00
       -1   -1    0    0    0  501  0.00000000000E+00  0.00000000000E+00  0.99025453918E+02  0.99025454046E+02  0.50400001928E-02 0.  1.
        1   -1    0    0  501    0  0.00000000000E+00  0.00000000000E+00 -0.61235100569E+03  0.61235100571E+03  0.50400001928E-02 0. -1.
    10030    2    1    2    0    0  0.00000000000E+00  0.00000000000E+00 -0.51332555178E+03  0.71137645976E+03  0.49249705115E+03 0.  0.
        1    1    3    3  502    0 -0.20633829309E+03  0.53779768149E+02 -0.78754163794E+02  0.22731030113E+03  0.50400001928E-02 0. -1.
       -1    1    3    3    0  502  0.20633829309E+03 -0.53779768149E+02 -0.43457138798E+03  0.48406615863E+03  0.50400001928E-02 0.  1.
</event>
<event>
 5   0  0.1453602E-01  0.4995258E+03  0.7818609E-02  0.1013903E+00
       -1   -1    0    0    0  501  0.00000000000E+00  0.00000000000E+00  0.29373941041E+03  0.29373941045E+03  0.50400001928E-02 0.  1.
        1   -1    0    0  501    0  0.00000000000E+00  0.00000000000E+00 -0.21237022191E+03  0.21237022197E+03  0.50400001928E-02 0. -1.
    10030    2    1    2    0    0  0.00000000000E+00  0.00000000000E+00  0.81369188491E+02  0.50610963242E+03  0.49952579032E+03 0.  0.
        2    1    3    3  502    0  0.19182432643E+03  0.49122548616E+02  0.19491413802E+03  0.27785089203E+03  0.25500000920E-02 0. -1.
       -2    1    3    3    0  502 -0.19182432643E+03 -0.49122548616E+02 -0.11354494953E+03  0.22825874039E+03  0.25500000920E-02 0.  1.
</event>
<event>
 5   0  0.2488968E-01  0.4927161E+03  0.7818609E-02  0.1015698E+00
       -2   -1    0    0    0  501  0.00000000000E+00  0.00000000000E+00  0.11245036548E+03  0.11245036550E+03  0.25500000920E-02 0. -1.
        2   -1    0    0  501    0  0.00000000000E+00  0.00000000000E+00 -0.53972516810E+03  0.53972516810E+03  0.25500000920E-02 0.  1.
    10030    2    1    2    0    0  0.00000000000E+00  0.00000000000E+00 -0.42727480262E+03  0.65217553361E+03  0.49271611470E+03 0.  0.
        2    1    3    3  502    0 -0.59688925825E+02 -0.12382085965E+03  0.56973362505E+02  0.14879629428E+03  0.25500000920E-02 0. -1.
       -2    1    3    3    0  502  0.59688925825E+02  0.12382085965E+03 -0.48424816513E+03  0.50337923933E+03  0.25500000920E-02 0.  1.
</event>
<event>
 5   0  0.2488968E-01  0.4959389E+03  0.7818609E-02  0.1014844E+00
        2   -1    0    0  501    0  0.00000000000E+00  0.00000000000E+00  0.10923909087E+04  0.10923909087E+04  0.25500000920E-02 0. -1.
       -2   -1    0    0    0  501  0.00000000000E+00  0.00000000000E+00 -0.56288326130E+02  0.56288326188E+02  0.25500000920E-02 0.  1.
    10030    2    1    2    0    0  0.00000000000E+00  0.00000000000E+00  0.10361025825E+04  0.11486792348E+04  0.49593893077E+03 0.  0.
        2    1    3    3  502    0 -0.25929526595E+02  0.24646625977E+03  0.53755369634E+03  0.59193068345E+03  0.25500000920E-02 0. -1.
       -2    1    3    3    0  502  0.25929526595E+02 -0.24646625977E+03  0.49854888619E+03  0.55674855140E+03  0.25500000920E-02 0.  1.
</event>
<event>
 5   0  0.2413301E-01  0.5072893E+03  0.7818609E-02  0.1011894E+00
       -2   -1    0    0    0  501  0.00000000000E+00  0.00000000000E+00  0.16308464750E+03  0.16308464752E+03  0.25500000920E-02 0. -1.
        2   -1    0    0  501    0  0.00000000000E+00  0.00000000000E+00 -0.39449212521E+03  0.39449212522E+03  0.25500000920E-02 0.  1.
    10030    2    1    2    0    0  0.00000000000E+00  0.00000000000E+00 -0.23140747771E+03  0.55757677275E+03  0.50728930283E+03 0.  0.
        4    1    3    3  502    0  0.11989510710E+03  0.14377956955E+03 -0.30380140623E+03  0.35685334334E+03  0.12699999809E+01 0.  1.
       -4    1    3    3    0  502 -0.11989510710E+03 -0.14377956955E+03  0.72393928521E+02  0.20072342940E+03  0.12699999809E+01 0. -1.
</event>
<event>
 5   0  0.2511944E-01  0.4943444E+03  0.7818609E-02  0.1015266E+00
        2   -1    0    0  501    0  0.00000000000E+00  0.00000000000E+00  0.14241647857E+04  0.14241647857E+04  0.25500000920E-02 0. -1.
       -2   -1    0    0    0  501  0.00000000000E+00  0.00000000000E+00 -0.42898187924E+02  0.42898187999E+02  0.25500000920E-02 0.  1.
    10030    2    1    2    0    0  0.00000000000E+00  0.00000000000E+00  0.13812665978E+04  0.14670629737E+04  0.49434436850E+03 0.  0.
        1    1    3    3  502    0 -0.20832792400E+03  0.11858501514E+03  0.51180271575E+03  0.56515922500E+03  0.50400001928E-02 0.  1.
       -1    1    3    3    0  502  0.20832792400E+03 -0.11858501514E+03  0.86946388201E+03  0.90190374867E+03  0.50400001928E-02 0. -1.
</event>
<event>
 5   0  0.9868500E-02  0.5045562E+03  0.7818609E-02  0.1012596E+00
       -4   -1    0    0    0  501  0.00000000000E+00  0.00000000000E+00  0.17666564488E+03  0.17667020965E+03  0.12699999809E+01 0. -1.
        4   -1    0    0  501    0  0.00000000000E+00  0.00000000000E+00 -0.36024212160E+03  0.36024436023E+03  0.12699999809E+01 0.  1.
    10030    2    1    2    0    0  0.00000000000E+00  0.00000000000E+00 -0.18357647672E+03  0.53691456988E+03  0.50455617382E+03 0.  0.
        4    1    3    3  502    0  0.13306756967E+03 -0.18911997800E+03 -0.19909835902E+03  0.30514769152E+03  0.12699999809E+01 0.  1.
       -4    1    3    3    0  502 -0.13306756967E+03  0.18911997800E+03  0.15521882294E+02  0.23176687836E+03  0.12699999809E+01 0. -1.
</event>
<event>
 5   0  0.2413301E-01  0.4985373E+03  0.7818609E-02  0.1014161E+00
       -2   -1    0    0    0  501  0.00000000000E+00  0.00000000000E+00  0.33672585057E+02  0.33672585153E+02  0.25500000920E-02 0. -1.
        2   -1    0    0  501    0  0.00000000000E+00  0.00000000000E+00 -0.18452657990E+04  0.18452657990E+04  0.25500000920E-02 0.  1.
    10030    2    1    2    0    0  0.00000000000E+00  0.00000000000E+00 -0.18115932139E+04  0.18789383842E+04  0.49853733927E+03 0.  0.
        4    1    3    3  502    0  0.12531976978E+03 -0.19276897850E+03 -0.54295618663E+03  0.58963374842E+03  0.12699999809E+01 0. -1.
       -4    1    3    3    0  502 -0.12531976978E+03  0.19276897850E+03 -0.12686370273E+04  0.12893046357E+04  0.12699999809E+01 0.  1.
</event>
<event>
 5   0  0.2466034E-01  0.5009445E+03  0.7818609E-02  0.1013533E+00
       -2   -1    0    0    0  501  0.00000000000E+00  0.00000000000E+00  0.49044792550E+02  0.49044792616E+02  0.25500000920E-02 0.  1.
        2   -1    0    0  501    0  0.00000000000E+00  0.00000000000E+00 -0.12791643141E+04  0.12791643141E+04  0.25500000920E-02 0. -1.
    10030    2    1    2    0    0  0.00000000000E+00  0.00000000000E+00 -0.12301195215E+04  0.13282091067E+04  0.50094450179E+03 0.  0.
        3    1    3    3  502    0  0.20233493873E+03 -0.90539265209E+02 -0.92425951850E+03  0.95046959641E+03  0.10100000352E+00 0. -1.
       -3    1    3    3    0  502 -0.20233493873E+03  0.90539265209E+02 -0.30586000305E+03  0.37773951030E+03  0.10100000352E+00 0.  1.
</event>
<event>
 5   0  0.1448458E-01  0.5032192E+03  0.7818609E-02  0.1012942E+00
       -1   -1    0    0    0  501  0.00000000000E+00  0.00000000000E+00  0.27241661886E+03  0.27241661890E+03  0.50400001928E-02 0. -1.
        1   -1    0    0  501    0  0.00000000000E+00  0.00000000000E+00 -0.23239181452E+03  0.23239181458E+03  0.50400001928E-02 0.  1.
    10030    2    1    2    0    0  0.00000000000E+00  0.00000000000E+00  0.40024804332E+02  0.50480843348E+03  0.50321920626E+03 0.  0.
        5    1    3    3  502    0 -0.48510161773E+02 -0.15416642062E+03 -0.17337811928E+03  0.23707084022E+03  0.46999998093E+01 0.  1.
       -5    1    3    3    0  502  0.48510161773E+02  0.15416642062E+03  0.21340292361E+03  0.26773759326E+03  0.46999998093E+01 0. -1.
</event>
<event>
 5   0  0.1448458E-01  0.5004427E+03  0.7818609E-02  0.1013663E+00
       -1   -1    0    0    0  501  0.00000000000E+00  0.00000000000E+00  0.23610933928E+03  0.23610933933E+03  0.50400001928E-02 0. -1.
        1   -1    0    0  501    0  0.00000000000E+00  0.00000000000E+00 -0.26517686050E+03  0.26517686055E+03  0.50400001928E-02 0.  1.
    10030    2    1    2    0    0  0.00000000000E+00  0.00000000000E+00 -0.29067521223E+02  0.50128619988E+03  0.50044273739E+03 0.  0.
        5    1    3    3  502    0 -0.87414566597E+02  0.12744795702E+03 -0.21159956754E+03  0.26207013409E+03  0.46999998093E+01 0.  1.
       -5    1    3    3    0  502  0.87414566597E+02 -0.12744795702E+03  0.18253204632E+03  0.23921606579E+03  0.46999998093E+01 0. -1.
</event>
<event>
 5   0  0.1529146E-01  0.5109192E+03  0.7818609E-02  0.1010967E+00
        1   -1    0    0  501    0  0.00000000000E+00  0.00000000000E+00  0.11579406735E+04  0.11579406735E+04  0.50400001928E-02 0. -1.
       -1   -1    0    0    0  501  0.00000000000E+00  0.00000000000E+00 -0.56358342310E+02  0.56358342535E+02  0.50400001928E-02 0.  1.
    10030    2    1    2    0    0  0.00000000000E+00  0.00000000000E+00  0.11015823311E+04  0.12142990160E+04  0.51091923821E+03 0.  0.
        1    1    3    3  502    0  0.10658808414E+03  0.10762391333E+03  0.61886588080E+02  0.16362724776E+03  0.50400001928E-02 0.  1.
       -1    1    3    3    0  502 -0.10658808414E+03 -0.10762391333E+03  0.10396957431E+04  0.10506717682E+04  0.50400001928E-02 0. -1.
</event>
<event>
 5   0  0.9868500E-02  0.5109697E+03  0.7818609E-02  0.1010955E+00
        3   -1    0    0  501    0  0.00000000000E+00  0.00000000000E+00  0.54747256523E+03  0.54747257454E+03  0.10100000352E+00 0.  1.
       -3   -1    0    0    0  501  0.00000000000E+00  0.00000000000E+00 -0.11922513176E+03  0.11922517454E+03  0.10100000352E+00 0. -1.
    10030    2    1    2    0    0  0.00000000000E+00  0.00000000000E+00  0.42824743347E+03  0.66669774909E+03  0.51096969027E+03 0.  0.
        1    1    3    3  502    0  0.12198714022E+03  0.21721459719E+03  0.28804168127E+03  0.38082942873E+03  0.50400001928E-02 0.  1.
       -1    1    3    3    0  502 -0.12198714022E+03 -0.21721459719E+03  0.14020575219E+03  0.28586832036E+03  0.50400001928E-02 0. -1.
</event>
<event>
 5   0  0.2504064E-01  0.5032677E+03  0.7818609E-02  0.1012930E+00
        2   -1    0    0  501    0  0.00000000000E+00  0.00000000000E+00  0.62277016980E+02  0.62277017032E+02  0.25500000920E-02 0.  1.
       -2   -1    0    0    0  501  0.00000000000E+00  0.00000000000E+00 -0.10167409621E+04  0.10167409621E+04  0.25500000920E-02 0. -1.
    10030    2    1    2    0    0  0.00000000000E+00  0.00000000000E+00 -0.95446394516E+03  0.10790179792E+04  0.50326769892E+03 0.  0.
        5    1    3    3  502    0 -0.19321992987E+03 -0.64598329916E+02 -0.16073875729E+03  0.25954946277E+03  0.46999998093E+01 0.  1.
       -5    1    3    3    0  502  0.19321992987E+03  0.64598329916E+02 -0.79372518787E+03  0.81946851641E+03  0.46999998093E+01 0. -1.
</event>
<event>
 5   0  0.1439814E-01  0.5101237E+03  0.7818609E-02  0.1011170E+00
        1   -1    0    0  501    0  0.00000000000E+00  0.00000000000E+00  0.54123353336E+03  0.54123353338E+03  0.50400001928E-02 0.  1.
       -1   -1    0    0    0  501  0.00000000000E+00  0.00000000000E+00 -0.12020051625E+03  0.12020051636E+03  0.50400001928E-02 0. -1.
    10030    2    1    2    0    0  0.00000000000E+00  0.00000000000E+00  0.42103301711E+03  0.66143404974E+03  0.51012371113E+03 0.  0.
        4    1    3    3  502    0  0.13107601863E+03  0.25391151962E+02  0.49230082039E+03  0.51008562410E+03  0.12699999809E+01 0.  1.
       -4    1    3    3    0  502 -0.13107601863E+03 -0.25391151962E+02 -0.71267803284E+02  0.15134842564E+03  0.12699999809E+01 0. -1.
</event>
<event>
 5   0  0.2511944E-01  0.4979238E+03  0.7818609E-02  0.1014322E+00
        2   -1    0    0  501    0  0.00000000000E+00  0.00000000000E+00  0.19787965263E+03  0.19787965265E+03  0.25500000920E-02 0. -1.
       -2   -1    0    0    0  501  0.00000000000E+00  0.00000000000E+00 -0.31323091457E+03  0.31323091458E+03  0.25500000920E-02 0.  1.
    10030    2    1    2    0    0  0.00000000000E+00  0.00000000000E+00 -0.11535126194E+03  0.51111056723E+03  0.49792378765E+03 0.  0.
        1    1    3    3  502    0 -0.60377746109E+02 -0.12357542884E+03  0.15534298957E+03  0.20747964544E+03  0.50400001928E-02 0. -1.
       -1    1    3    3    0  502  0.60377746109E+02  0.12357542884E+03 -0.27069425152E+03  0.30363092179E+03  0.50400001928E-02 0.  1.
</event>
<event>
 5   0  0.1448458E-01  0.5161287E+03  0.7818609E-02  0.1009653E+00
       -1   -1    0    0    0  501  0.00000000000E+00  0.00000000000E+00  0.92400272624E+03  0.92400272625E+03  0.50400001928E-02 0.  1.
        1   -1    0    0  501    0  0.00000000000E+00  0.00000000000E+00 -0.72074677731E+02  0.72074677907E+02  0.50400001928E-02 0. -1.
    10030    2    1    2    0    0  0.00000000000E+00  0.00000000000E+00  0.85192804851E+03  0.99607740416E+03  0.51612866152E+03 0.  0.
        5    1    3    3  502    0  0.81644513874E+02 -0.13059131988E+03  0.82548245628E+03  0.83974001637E+03  0.46999998093E+01 0.  1.
       -5    1    3    3    0  502 -0.81644513874E+02  0.13059131988E+03  0.26445592232E+02  0.15633738779E+03  0.46999998093E+01 0. -1.
</event>
<event>
 5   0  0.2488968E-01  0.5115370E+03  0.7818609E-02  0.1010811E+00
        2   -1    0    0  501    0  0.00000000000E+00  0.00000000000E+00  0.47796856415E+03  0.47796856416E+03  0.25500000920E-02 0.  1.
       -2   -1    0    0    0  501  0.00000000000E+00  0.00000000000E+00 -0.13686575391E+03  0.13686575394E+03  0.25500000920E-02 0. -1.
    10030    2    1    2    0    0  0.00000000000E+00  0.00000000000E+00  0.34110281024E+03  0.61483431809E+03  0.51153700898E+03 0.  0.
        2    1    3    3  502    0  0.25295438442E+03 -0.27498722630E+02  0.20178848456E+03  0.32474712139E+03  0.25500000920E-02 0.  1.
       -2    1    3    3    0  502 -0.25295438442E+03  0.27498722630E+02  0.13931432567E+03  0.29008719670E+03  0.25500000920E-02 0. -1.
</event>
<event>
 5   0  0.1448458E-01  0.4950593E+03  0.7818609E-02  0.1015077E+00
        1   -1    0    0  501    0  0.00000000000E+00  0.00000000000E+00  0.11296521231E+04  0.11296521231E+04  0.50400001928E-02 0.  1.
       -1   -1    0    0    0  501  0.00000000000E+00  0.00000000000E+00 -0.54238762739E+02  0.54238762973E+02  0.50400001928E-02 0. -1.
    10030    2    1    2    0    0  0.00000000000E+00  0.00000000000E+00  0.10754133603E+04  0.11838908861E+04  0.49505932423E+03 0.  0.
        5    1    3    3  502    0  0.13319895601E+03 -0.19503063918E+03  0.71457309701E+03  0.75260594807E+03  0.46999998093E+01 0.  1.
       -5    1    3    3    0  502 -0.13319895601E+03  0.19503063918E+03  0.36084026333E+03  0.43128493799E+03  0.46999998093E+01 0. -1.
</event>
<event>
 5   0  0.2413301E-01  0.5004319E+03  0.7818609E-02  0.1013666E+00
        2   -1    0    0  501    0  0.00000000000E+00  0.00000000000E+00  0.24835424786E+04  0.24835424786E+04  0.25500000920E-02 0.  1.
       -2   -1    0    0    0  501  0.00000000000E+00  0.00000000000E+00 -0.25209165310E+02  0.25209165439E+02  0.25500000920E-02 0. -1.
    10030    2    1    2    0    0  0.00000000000E+00  0.00000000000E+00  0.24583333133E+04  0.25087516441E+04  0.50043194568E+03 0.  0.
        4    1    3    3  502    0  0.24700027271E+02 -0.28135670274E+02  0.24694047802E+04  0.24696889052E+04  0.12699999809E+01 0.  1.
       -4    1    3    3    0  502 -0.24700027271E+02  0.28135670274E+02 -0.11071466852E+02  0.39062738859E+02  0.12699999809E+01 0. -1.
</event>
<event>
 5   0  0.2504064E-01  0.5047711E+03  0.7818609E-02  0.1012541E+00
        2   -1    0    0  501    0  0.00000000000E+00  0.00000000000E+00  0.86241399785E+03  0.86241399785E+03  0.25500000920E-02 0. -1.
       -2   -1    0    0    0  501  0.00000000000E+00  0.00000000000E+00 -0.73860657506E+02  0.73860657550E+02  0.25500000920E-02 0.  1.
    10030    2    1    2    0    0  0.00000000000E+00  0.00000000000E+00  0.78855334034E+03  0.93627465540E+03  0.50477109642E+03 0.  0.
        5    1    3    3  502    0  0.13549103927E+03  0.70615183400E+02  0.21770104354E+02  0.15440321658E+03  0.46999998093E+01 0.  1.
       -5    1    3    3    0  502 -0.13549103927E+03 -0.70615183400E+02  0.76678323599E+03  0.78187143882E+03  0.46999998093E+01 0. -1.
</event>
<event>
 5   0  0.1439814E-01  0.5051894E+03  0.7818609E-02  0.1012433E+00
        1   -1    0    0  501    0  0.00000000000E+00  0.00000000000E+00  0.19622953174E+03  0.19622953180E+03  0.50400001928E-02 0. -1.
       -1   -1    0    0    0  501  0.00000000000E+00  0.00000000000E+00 -0.32515026090E+03  0.32515026094E+03  0.50400001928E-02 0.  1.
    10030    2    1    2    0    0  0.00000000000E+00  0.00000000000E+00 -0.12892072917E+03  0.52137979274E+03  0.50518940396E+03 0.  0.
        4    1    3    3  502    0  0.18509132209E+02 -0.56999596565E+02 -0.31770346664E+03  0.32330890430E+03  0.12699999809E+01 0.  1.
       -4    1    3    3    0  502 -0.18509132209E+02  0.56999596565E+02  0.18878273747E+03  0.19807088845E+03  0.12699999809E+01 0. -1.
</event>
<event>
 5   0  0.2466034E-01  0.5047258E+03  0.7818609E-02  0.1012553E+00
        2   -1    0    0  501    0  0.00000000000E+00  0.00000000000E+00  0.14379187182E+04  0.14379187182E+04  0.25500000920E-02 0.  1.
       -2   -1    0    0    0  501  0.00000000000E+00  0.00000000000E+00 -0.44291130476E+02  0.44291130549E+02  0.25500000920E-02 0. -1.
    10030    2    1    2    0    0  0.00000000000E+00  0.00000000000E+00  0.13936275877E+04  0.14822098488E+04  0.50472584882E+03 0.  0.
        3    1    3    3  502    0  0.12451610737E+03 -0.11040095148E+03  0.13966442481E+03  0.21725283161E+03  0.10100000352E+00 0. -1.
       -3    1    3    3    0  502 -0.12451610737E+03  0.11040095148E+03  0.12539631629E+04  0.12649570172E+04  0.10100000352E+00 0.  1.
</event>
<event>
 5   0  0.1448458E-01  0.5032542E+03  0.7818609E-02  0.1012933E+00
       -1   -1    0    0    0  501  0.00000000000E+00  0.00000000000E+00  0.51818165758E+02  0.51818166003E+02  0.50400001928E-02 0. -1.
        1   -1    0    0  501    0  0.00000000000E+00  0.00000000000E+00 -0.12218920099E+04  0.12218920099E+04  0.50400001928E-02 0.  1.
    10030    2    1    2    0    0  0.00000000000E+00  0.00000000000E+00 -0.11700738441E+04  0.12737101759E+04  0.50325422152E+03 0.  0.
        5    1    3    3  502    0  0.15066975973E+03  0.14493671170E+03 -0.93924382458E+03  0.96224169464E+03  0.46999998093E+01 0.  1.
       -5    1    3    3    0  502 -0.15066975973E+03 -0.14493671170E+03 -0.23083001955E+03  0.31146848126E+03  0.46999998093E+01 0. -1.
</event>
<event>
 5   0  0.1529146E-01  0.4971174E+03  0.7818609E-02  0.1014534E+00
        1   -1    0    0  501    0  0.00000000000E+00  0.00000000000E+00  0.27911087230E+03  0.27911087234E+03  0.50400001928E-02 0.  1.
       -1   -1    0    0    0  501  0.00000000000E+00  0.00000000000E+00 -0.22135086474E+03  0.22135086479E+03  0.50400001928E-02 0. -1.
    10030    2    1    2    0    0  0.00000000000E+00  0.00000000000E+00  0.57760007560E+02  0.50046173714E+03  0.49711742261E+03 0.  0.
        1    1    3    3  502    0 -0.95210029403E+02  0.16707410951E+03  0.18742830583E+03  0.26852947253E+03  0.50400001928E-02 0.  1.
       -1    1    3    3    0  502  0.95210029403E+02 -0.16707410951E+03 -0.12966829827E+03  0.23193226461E+03  0.50400001928E-02 0. -1.
</event>
<event>
 5   0  0.1413361E-01  0.4956921E+03  0.7818609E-02  0.1014909E+00
       -1   -1    0    0    0  501  0.00000000000E+00  0.00000000000E+00  0.59401372870E+03  0.59401372872E+03  0.50400001928E-02 0. -1.
        1   -1    0    0  501    0  0.00000000000E+00  0.00000000000E+00 -0.10341118611E+03  0.10341118623E+03  0.50400001928E-02 0.  1.
    10030    2    1    2    0    0  0.00000000000E+00  0.00000000000E+00  0.49060254259E+03  0.69742491496E+03  0.49569209920E+03 0.  0.
        3    1    3    3  502    0  0.49440168000E+02 -0.16698103516E+03 -0.28235713304E+01  0.17416939763E+03  0.10100000352E+00 0.  1.
       -3    1    3    3    0  502 -0.49440168000E+02  0.16698103516E+03  0.49342611392E+03  0.52325551733E+03  0.10100000352E+00 0. -1.
</event>
<event>
 5   0  0.1439814E-01  0.5044256E+03  0.7818609E-02  0.1012630E+00
        1   -1    0    0  501    0  0.00000000000E+00  0.00000000000E+00  0.83292577787E+03  0.83292577789E+03  0.50400001928E-02 0. -1.
       -1   -1    0    0    0  501  0.00000000000E+00  0.00000000000E+00 -0.76370898778E+02  0.76370898944E+02  0.50400001928E-02 0.  1.
    10030    2    1    2    0    0  0.00000000000E+00  0.00000000000E+00  0.75655487909E+03  0.90929667683E+03  0.50442557569E+03 0.  0.
        4    1    3    3  502    0  0.12798253864E+03  0.13079028393E+03  0.69114834384E+03  0.71496382752E+03  0.12699999809E+01 0. -1.
       -4    1    3    3    0  502 -0.12798253864E+03 -0.13079028393E+03  0.65406535254E+02  0.19433284931E+03  0.12699999809E+01 0.  1.
</event>
<event>
 5   0  0.2466034E-01  0.5060841E+03  0.7818609E-02  0.1012203E+00
        2   -1    0    0  501    0  0.00000000000E+00  0.00000000000E+00  0.16612424408E+03  0.16612424410E+03  0.25500000920E-02 0. -1.
       -2   -1    0    0    0  501  0.00000000000E+00  0.00000000000E+00 -0.38543608955E+03  0.38543608956E+03  0.25500000920E-02 0.  1.
    10030    2    1    2    0    0  0.00000000000E+00  0.00000000000E+00 -0.21931184547E+03  0.55156033366E+03  0.50608409983E+03 0.  0.
        3    1    3    3  502    0 -0.87395469269E+02 -0.11084976400E+03  0.11922649232E+03  0.18477176434E+03  0.10100000352E+00 0. -1.
       -3    1    3    3    0  502  0.87395469269E+02  0.11084976400E+03 -0.33853833779E+03  0.36678856932E+03  0.10100000352E+00 0.  1.
</event>
<event>
 5   0  0.1448458E-01  0.4954762E+03  0.7818609E-02  0.1014966E+00
        1   -1    0    0  501    0  0.00000000000E+00  0.00000000000E+00  0.15060666577E+03  0.15060666586E+03  0.50400001928E-02 0. -1.
       -1   -1    0    0    0  501  0.00000000000E+00  0.00000000000E+00 -0.40751299061E+03  0.40751299065E+03  0.50400001928E-02 0.  1.
    10030    2    1    2    0    0  0.00000000000E+00  0.00000000000E+00 -0.25690632484E+03  0.55811965650E+03  0.49547622671E+03 0.  0.
        5    1    3    3  502    0 -0.81755475843E+02  0.15852960570E+03  0.65137288826E+02  0.18994880918E+03  0.46999998093E+01 0. -1.
       -5    1    3    3    0  502  0.81755475843E+02 -0.15852960570E+03 -0.32204361367E+03  0.36817084732E+03  0.46999998093E+01 0.  1.
</event>
<event>
 5   0  0.2466034E-01  0.4989007E+03  0.7818609E-02  0.1014066E+00
        2   -1    0    0  501    0  0.00000000000E+00  0.00000000000E+00  0.25332075099E+03  0.25332075100E+03  0.25500000920E-02 0. -1.
       -2   -1    0    0    0  501  0.00000000000E+00  0.00000000000E+00 -0.24563904765E+03  0.24563904766E+03  0.25500000920E-02 0.  1.
    10030    2    1    2    0    0  0.00000000000E+00  0.00000000000E+00  0.76817033391E+01  0.49895979867E+03  0.49890066358E+03 0.  0.
        3    1    3    3  502    0  0.13530268716E+02  0.19785631253E+03  0.15517061464E+03  0.25180968692E+03  0.10100000352E+00 0. -1.
       -3    1    3    3    0  502 -0.13530268716E+02 -0.19785631253E+03 -0.14748891130E+03  0.24715011175E+03  0.10100000352E+00 0.  1.
</event>
<event>
 5   0  0.2504064E-01  0.5033406E+03  0.7818609E-02  0.1012911E+00
       -2   -1    0    0    0  501  0.00000000000E+00  0.00000000000E+00  0.19691958740E+03  0.19691958742E+03  0.25500000920E-02 0.  1.
        2   -1    0    0  501    0  0.00000000000E+00  0.00000000000E+00 -0.32164362448E+03  0.32164362449E+03  0.25500000920E-02 0. -1.
    10030    2    1    2    0    0  0.00000000000E+00  0.00000000000E+00 -0.12472403708E+03  0.51856321190E+03  0.50334055997E+03 0.  0.
        5    1    3    3  502    0 -0.11481808935E+03 -0.10760968888E+03 -0.26464891168E+03  0.30793534263E+03  0.46999998093E+01 0. -1.
       -5    1    3    3    0  502  0.11481808935E+03  0.10760968888E+03  0.13992487461E+03  0.21062786928E+03  0.46999998093E+01 0.  1.
</event>
<event>
 5   0  0.1453602E-01  0.4999363E+03  0.7818609E-02  0.1013796E+00
       -1   -1    0    0    0  501  0.00000000000E+00  0.00000000000E+00  0.60683359949E+02  0.60683360158E+02  0.50400001928E-02 0.  1.
        1   -1    0    0  501    0  0.00000000000E+00  0.00000000000E+00 -0.10296741492E+04  0.10296741492E+04  0.50400001928E-02 0. -1.
    10030    2    1    2    0    0  0.00000000000E+00  0.00000000000E+00 -0.96899078928E+03  0.10903575094E+04  0.49993634454E+03 0.  0.
        2    1    3    3  502    0 -0.14103699836E+03  0.10344062854E+03 -0.87398850038E+03  0.89131773086E+03  0.25500000920E-02 0.  1.
       -2    1    3    3    0  502  0.14103699836E+03 -0.10344062854E+03 -0.95002288902E+02  0.19903977854E+03  0.25500000920E-02 0. -1.
</event>
<event>
 5   0  0.1439814E-01  0.4898380E+03  0.7818609E-02  0.1016466E+00
       -1   -1    0    0    0  501  0.00000000000E+00  0.00000000000E+00  0.15022000512E+03  0.15022000520E+03  0.50400001928E-02 0. -1.
        1   -1    0    0  501    0  0.00000000000E+00  0.00000000000E+00 -0.39931643848E+03  0.39931643851E+03  0.50400001928E-02 0.  1.
    10030    2    1    2    0    0  0.00000000000E+00  0.00000000000E+00 -0.24909643336E+03  0.54953644371E+03  0.48983800368E+03 0.  0.
        4    1    3    3  502    0  0.41720028959E+02  0.20232743018E+02  0.14524735135E+03  0.15247403281E+03  0.12699999809E+01 0. -1.
       -4    1    3    3    0  502 -0.41720028959E+02 -0.20232743018E+02 -0.39434378472E+03  0.39706241090E+03  0.12699999809E+01 0.  1.
</event>
<event>
 5   0  0.2488968E-01  0.4921152E+03  0.7818609E-02  0.1015858E+00
        2   -1    0    0  501    0  0.00000000000E+00  0.00000000000E+00  0.20130512654E+04  0.20130512654E+04  0.25500000920E-02 0.  1.
       -2   -1    0    0    0  501  0.00000000000E+00  0.00000000000E+00 -0.30075906129E+02  0.30075906237E+02  0.25500000920E-02 0. -1.
    10030    2    1    2    0    0  0.00000000000E+00  0.00000000000E+00  0.19829753593E+04  0.20431271716E+04  0.49211519384E+03 0.  0.
        2    1    3    3  502    0 -0.21151215837E+03  0.72373694351E+02  0.56466695673E+03  0.60730891382E+03  0.25500000920E-02 0. -1.
       -2    1    3    3    0  502  0.21151215837E+03 -0.72373694351E+02  0.14183084025E+04  0.14358182578E+04  0.25500000920E-02 0.  1.
</event>
<event>
 5   0  0.2466034E-01  0.4905368E+03  0.7818609E-02  0.1016279E+00
       -2   -1    0    0    0  501  0.00000000000E+00  0.00000000000E+00  0.99246103656E+02  0.99246103688E+02  0.25500000920E-02 0. -1.
        2   -1    0    0  501    0  0.00000000000E+00  0.00000000000E+00 -0.60613540440E+03  0.60613540441E+03  0.25500000920E-02 0.  1.
    10030    2    1    2    0    0  0.00000000000E+00  0.00000000000E+00 -0.50688930075E+03  0.70538150809E+03  0.49053675576E+03 0.  0.
        3    1    3    3  502    0  0.15784613803E+03  0.76452159625E+01 -0.52316715697E+03  0.54651416903E+03  0.10100000352E+00 0.  1.
       -3    1    3    3    0  502 -0.15784613803E+03 -0.76452159625E+01  0.16277856224E+02  0.15886733907E+03  0.10100000352E+00 0. -1.
</event>
<event>
 5   0  0.1529146E-01  0.4870499E+03  0.7818609E-02  0.1017215E+00
       -1   -1    0    0    0  501  0.00000000000E+00  0.00000000000E+00  0.19349475116E+03  0.19349475123E+03  0.50400001928E-02 0. -1.
        1   -1    0    0  501    0  0.00000000000E+00  0.00000000000E+00 -0.30649095970E+03  0.30649095974E+03  0.50400001928E-02 0.  1.
    10030    2    1    2    0    0  0.00000000000E+00  0.00000000000E+00 -0.11299620854E+03  0.49998571097E+03  0.48704986195E+03 0.  0.
        1    1    3    3  502    0  0.10930418507E+02 -0.95046159102E+02  0.17339428672E+03  0.19803743359E+03  0.50400001928E-02 0. -1.
       -1    1    3    3    0  502 -0.10930418507E+02  0.95046159102E+02 -0.28639049527E+03  0.30194827738E+03  0.50400001928E-02 0.  1.
</event>
<event>
 5   0  0.2504064E-01  0.5056821E+03  0.7818609E-02  0.1012306E+00
       -2   -1    0    0    0  501  0.00000000000E+00  0.00000000000E+00  0.84061017382E+02  0.84061017420E+02  0.25500000920E-02 0. -1.
        2   -1    0    0  501    0  0.00000000000E+00  0.00000000000E+00 -0.76050239825E+03  0.76050239826E+03  0.25500000920E-02 0.  1.
    10030    2    1    2    0    0  0.00000000000E+00  0.00000000000E+00 -0.67644138087E+03  0.84456341568E+03  0.50568213469E+03 0.  0.
        5    1    3    3  502    0  0.15754031542E+03  0.83427187615E+02 -0.38861284005E+02  0.18251393374E+03  0.46999998093E+01 0. -1.
       -5    1    3    3    0  502 -0.15754031542E+03 -0.83427187615E+02 -0.63758009687E+03  0.66204948194E+03  0.46999998093E+01 0.  1.
</event>
<event>
 5   0  0.9868500E-02  0.5084389E+03  0.7818609E-02  0.1011599E+00
       -3   -1    0    0    0  501  0.00000000000E+00  0.00000000000E+00  0.23861069077E+03  0.23861071215E+03  0.10100000352E+00 0.  1.
        3   -1    0    0  501    0  0.00000000000E+00  0.00000000000E+00 -0.27084921495E+03  0.27084923378E+03  0.10100000352E+00 0. -1.
    10030    2    1    2    0    0  0.00000000000E+00  0.00000000000E+00 -0.32238524174E+02  0.50945994593E+03  0.50843889905E+03 0.  0.
        5    1    3    3  502    0 -0.23919624317E+03 -0.70728174637E+02  0.32847281230E+02  0.25163137983E+03  0.46999998093E+01 0.  1.
       -5    1    3    3    0  502  0.23919624317E+03  0.70728174637E+02 -0.65085805404E+02  0.25782856610E+03  0.46999998093E+01 0. -1.
</event>
<event>
 5   0  0.1439814E-01  0.4912809E+03  0.7818609E-02  0.1016080E+00
       -1   -1    0    0    0  501  0.00000000000E+00  0.00000000000E+00  0.11891631435E+03  0.11891631446E+03  0.50400001928E-02 0. -1.
        1   -1    0    0  501    0  0.00000000000E+00  0.00000000000E+00 -0.50740925750E+03  0.50740925752E+03  0.50400001928E-02 0.  1.
    10030    2    1    2    0    0  0.00000000000E+00  0.00000000000E+00 -0.38849294315E+03  0.62632557198E+03  0.49128093312E+03 0.  0.
        4    1    3    3  502    0  0.21604731285E+03  0.10585880111E+03 -0.13107736755E+03  0.27398068608E+03  0.12699999809E+01 0. -1.
       -4    1    3    3    0  502 -0.21604731285E+03 -0.10585880111E+03 -0.25741557560E+03  0.35234488590E+03  0.12699999809E+01 0.  1.
</event>
<event>
 5   0  0.9868500E-02  0.4455695E+03  0.7818609E-02  0.1029052E+00
        3   -1    0    0  501    0  0.00000000000E+00  0.00000000000E+00  0.33811203078E+03  0.33811204586E+03  0.10100000352E+00 0.  1.
       -3   -1    0    0    0  501  0.00000000000E+00  0.00000000000E+00 -0.14679466340E+03  0.14679469815E+03  0.10100000352E+00 0. -1.
    10030    2    1    2    0    0  0.00000000000E+00  0.00000000000E+00  0.19131736737E+03  0.48490674401E+03  0.44556954040E+03 0.  0.
        3    1    3    3  502    0  0.82900494172E+02 -0.12834666174E+03  0.27210756536E+03  0.31207033637E+03  0.10100000352E+00 0. -1.
       -3    1    3    3    0  502 -0.82900494172E+02  0.12834666174E+03 -0.80790197990E+02  0.17283640764E+03  0.10100000352E+00 0.  1.
</event>
<event>
 5   0  0.1448458E-01  0.5147190E+03  0.7818609E-02  0.1010007E+00
        1   -1    0    0  501    0  0.00000000000E+00  0.00000000000E+00  0.34855593661E+03  0.34855593665E+03  0.50400001928E-02 0.  1.
       -1   -1    0    0    0  501  0.00000000000E+00  0.00000000000E+00 -0.19002379445E+03  0.19002379452E+03  0.50400001928E-02 0. -1.
    10030    2    1    2    0    0  0.00000000000E+00  0.00000000000E+00  0.15853214216E+03  0.53857973117E+03  0.51471903668E+03 0.  0.
        5    1    3    3  502    0  0.13833258043E+03  0.16326184174E+03 -0.70262296739E+02  0.22527585783E+03  0.46999998093E+01 0. -1.
       -5    1    3    3    0  502 -0.13833258043E+03 -0.16326184174E+03  0.22879443890E+03  0.31330387334E+03  0.46999998093E+01 0.  1.
</event>
<event>
 5   0  0.2488968E-01  0.4882778E+03  0.7818609E-02  0.1016885E+00
       -2   -1    0    0    0  501  0.00000000000E+00  0.00000000000E+00  0.10204081289E+03  0.10204081292E+03  0.25500000920E-02 0. -1.
        2   -1    0    0  501    0  0.00000000000E+00  0.00000000000E+00 -0.58411725682E+03  0.58411725683E+03  0.25500000920E-02 0.  1.
    10030    2    1    2    0    0  0.00000000000E+00  0.00000000000E+00 -0.48207644393E+03  0.68615806975E+03  0.48827778865E+03 0.  0.
        2    1    3    3  502    0 -0.18012775732E+03  0.86178541528E+02 -0.43644969953E+02  0.20439577634E+03  0.25500000920E-02 0.  1.
       -2    1    3    3    0  502  0.18012775732E+03 -0.86178541528E+02 -0.43843147398E+03  0.48176229341E+03  0.25500000920E-02 0. -1.
</event>
<event>
 5   0  0.1529146E-01  0.4866912E+03  0.7818609E-02  0.1017312E+00
       -1   -1    0    0    0  501  0.00000000000E+00  0.00000000000E+00  0.30956440954E+03  0.30956440958E+03  0.50400001928E-02 0.  1.
        1   -1    0    0  501    0  0.00000000000E+00  0.00000000000E+00 -0.19129166914E+03  0.19129166921E+03  0.50400001928E-02 0. -1.
    10030    2    1    2    0    0  0.00000000000E+00  0.00000000000E+00  0.11827274040E+03  0.50085607879E+03  0.48669124765E+03 0.  0.
        1    1    3    3  502    0  0.17811574773E+03 -0.21491933534E+01  0.22975446597E+03  0.29071799614E+03  0.50400001928E-02 0.  1.
       -1    1    3    3    0  502 -0.17811574773E+03  0.21491933534E+01 -0.11148172557E+03  0.21013808266E+03  0.50400001928E-02 0. -1.
</event>
<event>
 5   0  0.1453602E-01  0.5073760E+03  0.7818609E-02  0.1011871E+00
        1   -1    0    0  501    0  0.00000000000E+00  0.00000000000E+00  0.34570381458E+03  0.34570381462E+03  0.50400001928E-02 0.  1.
       -1   -1    0    0    0  501  0.00000000000E+00  0.00000000000E+00 -0.18616400041E+03  0.18616400048E+03  0.50400001928E-02 0. -1.
    10030    2    1    2    0    0  0.00000000000E+00  0.00000000000E+00  0.15953981417E+03  0.53186781510E+03  0.50737601484E+03 0.  0.
        2    1    3    3  502    0 -0.23927796440E+03  0.65251766866E+02  0.13569170642E+03  0.28270828874E+03  0.25500000920E-02 0. -1.
       -2    1    3    3    0  502  0.23927796440E+03 -0.65251766866E+02  0.23848107747E+02  0.24915952636E+03  0.25500000920E-02 0.  1.
</event>
<event>
 5   0  0.2504064E-01  0.5022795E+03  0.7818609E-02  0.1013186E+00
        2   -1    0    0  501    0  0.00000000000E+00  0.00000000000E+00  0.18648382867E+03  0.18648382869E+03  0.25500000920E-02 0.  1.
       -2   -1    0    0    0  501  0.00000000000E+00  0.00000000000E+00 -0.33821252562E+03  0.33821252563E+03  0.25500000920E-02 0. -1.
    10030    2    1    2    0    0  0.00000000000E+00  0.00000000000E+00 -0.15172869696E+03  0.52469635432E+03  0.50227947077E+03 0.  0.
        5    1    3    3  502    0 -0.11116081400E+03 -0.42484696808E+02  0.15510858593E+03  0.19555674230E+03  0.46999998093E+01 0.  1.
       -5    1    3    3    0  502  0.11116081400E+03  0.42484696808E+02 -0.30683728289E+03  0.32913961202E+03  0.46999998093E+01 0. -1.
</event>
<event>
 5   0  0.2413301E-01  0.5025710E+03  0.7818609E-02  0.1013110E+00
       -2   -1    0    0    0  501  0.00000000000E+00  0.00000000000E+00  0.96366591532E+02  0.96366591565E+02  0.25500000920E-02 0. -1.
        2   -1    0    0  501    0  0.00000000000E+00  0.00000000000E+00 -0.65525201765E+03  0.65525201766E+03  0.25500000920E-02 0.  1.
    10030    2    1    2    0    0  0.00000000000E+00  0.00000000000E+00 -0.55888542612E+03  0.75161860922E+03  0.50257100414E+03 0.  0.
        4    1    3    3  502    0 -0.20999532701E+02 -0.22047164847E+03 -0.10189372870E+03  0.24378817240E+03  0.12699999809E+01 0. -1.
       -4    1    3    3    0  502  0.20999532701E+02  0.22047164847E+03 -0.45699169742E+03  0.50783043683E+03  0.12699999809E+01 0.  1.
</event>
<event>
 5   0  0.1453602E-01  0.5040926E+03  0.7818609E-02  0.1012716E+00
       -1   -1    0    0    0  501  0.00000000000E+00  0.00000000000E+00  0.18580945631E+03  0.18580945637E+03  0.50400001928E-02 0.  1.
        1   -1    0    0  501    0  0.00000000000E+00  0.00000000000E+00 -0.34189511720E+03  0.34189511724E+03  0.50400001928E-02 0. -1.
    10030    2    1    2    0    0  0.00000000000E+00  0.00000000000E+00 -0.15608566090E+03  0.52770457362E+03  0.50409263382E+03 0.  0.
        2    1    3    3  502    0 -0.63531091132E+02  0.90000759735E+02 -0.31535722505E+03  0.33404567905E+03  0.25500000920E-02 0. -1.
       -2    1    3    3    0  502  0.63531091132E+02 -0.90000759735E+02  0.15927156415E+03  0.19365889457E+03  0.25500000920E-02 0.  1.
</event>
<event>
 5   0  0.1413361E-01  0.4916075E+03  0.7818609E-02  0.1015993E+00
        1   -1    0    0  501    0  0.00000000000E+00  0.00000000000E+00  0.22422635144E+03  0.22422635150E+03  0.50400001928E-02 0.  1.
       -1   -1    0    0    0  501  0.00000000000E+00  0.00000000000E+00 -0.26945757926E+03  0.26945757931E+03  0.50400001928E-02 0. -1.
    10030    2    1    2    0    0  0.00000000000E+00  0.00000000000E+00 -0.45231227819E+02  0.49368393081E+03  0.49160752595E+03 0.  0.
        3    1    3    3  502    0  0.14690302475E+03 -0.19256047670E+03 -0.64738505009E+02  0.25070125668E+03  0.10100000352E+00 0.  1.
       -3    1    3    3    0  502 -0.14690302475E+03  0.19256047670E+03  0.19507277190E+02  0.24298267414E+03  0.10100000352E+00 0. -1.
</event>
<event>
 5   0  0.1453602E-01  0.4851454E+03  0.7818609E-02  0.1017731E+00
       -1   -1    0    0    0  501  0.00000000000E+00  0.00000000000E+00  0.13832137618E+03  0.13832137627E+03  0.50400001928E-02 0. -1.
        1   -1    0    0  501    0  0.00000000000E+00  0.00000000000E+00 -0.42539713586E+03  0.42539713589E+03  0.50400001928E-02 0.  1.
    10030    2    1    2    0    0  0.00000000000E+00  0.00000000000E+00 -0.28707575968E+03  0.56371851216E+03  0.48514541032E+03 0.  0.
        2    1    3    3  502    0 -0.22784020142E+03 -0.68203106332E+02 -0.88071019667E+02  0.25361255018E+03  0.25500000920E-02 0. -1.
       -2    1    3    3    0  502  0.22784020142E+03  0.68203106332E+02 -0.19900474002E+03  0.31010596198E+03  0.25500000920E-02 0.  1.
</event>
<event>
 5   0  0.2466034E-01  0.5321152E+03  0.7818609E-02  0.1005720E+00
       -2   -1    0    0    0  501  0.00000000000E+00  0.00000000000E+00  0.45444414852E+02  0.45444414924E+02  0.25500000920E-02 0.  1.
        2   -1    0    0  501    0  0.00000000000E+00  0.00000000000E+00 -0.15576533562E+04  0.15576533562E+04  0.25500000920E-02 0. -1.
    10030    2    1    2    0    0  0.00000000000E+00  0.00000000000E+00 -0.15122089413E+04  0.16030977711E+04  0.53211519570E+03 0.  0.
        3    1    3    3  502    0  0.18692406223E+03  0.18065404580E+03 -0.58541106934E+03  0.64053307457E+03  0.10100000352E+00 0.  1.
       -3    1    3    3    0  502 -0.18692406223E+03 -0.18065404580E+03 -0.92679787200E+03  0.96256469655E+03  0.10100000352E+00 0. -1.
</event>
<event>
 5   0  0.1448458E-01  0.5044312E+03  0.7818609E-02  0.1012629E+00
        1   -1    0    0  501    0  0.00000000000E+00  0.00000000000E+00  0.72812363460E+03  0.72812363462E+03  0.50400001928E-02 0.  1.
       -1   -1    0    0    0  501  0.00000000000E+00  0.00000000000E+00 -0.87365240441E+02  0.87365240586E+02  0.50400001928E-02 0. -1.
    10030    2    1    2    0    0  0.00000000000E+00  0.00000000000E+00  0.64075839416E+03  0.81548887521E+03  0.50443115080E+03 0.  0.
        5    1    3    3  502    0  0.22625418285E+03 -0.91504784526E+02  0.21779478439E+03  0.32714024355E+03  0.46999998093E+01 0. -1.
       -5    1    3    3    0  502 -0.22625418285E+03  0.91504784526E+02  0.42296360977E+03  0.48834863165E+03  0.46999998093E+01 0.  1.
</event>
<event>
 5   0  0.1439814E-01  0.5381533E+03  0.7818609E-02  0.1004274E+00
       -1   -1    0    0    0  501  0.00000000000E+00  0.00000000000E+00  0.18818864934E+03  0.18818864941E+03  0.50400001928E-02 0. -1.
        1   -1    0    0  501    0  0.00000000000E+00  0.00000000000E+00 -0.38473221622E+03  0.38473221625E+03  0.50400001928E-02 0.  1.
    10030    2    1    2    0    0  0.00000000000E+00  0.00000000000E+00 -0.19654356688E+03  0.57292086566E+03  0.53815327243E+03 0.  0.
        4    1    3    3  502    0 -0.16219045610E+03 -0.82060404115E+02  0.11294165479E+03  0.21400253330E+03  0.12699999809E+01 0. -1.
       -4    1    3    3    0  502  0.16219045610E+03  0.82060404115E+02 -0.30948522167E+03  0.35891833236E+03  0.12699999809E+01 0.  1.
</event>
<event>
 5   0  0.1529146E-01  0.5011120E+03  0.7818609E-02  0.1013489E+00
        1   -1    0    0  501    0  0.00000000000E+00  0.00000000000E+00  0.22991455929E+04  0.22991455929E+04  0.50400001928E-02 0. -1.
       -1   -1    0    0    0  501  0.00000000000E+00  0.00000000000E+00 -0.27305062754E+02  0.27305063219E+02  0.50400001928E-02 0.  1.
    10030    2    1    2    0    0  0.00000000000E+00  0.00000000000E+00  0.22718405302E+04  0.23264506561E+04  0.50111202437E+03 0.  0.
        1    1    3    3  502    0  0.13037022367E+03  0.13294399764E+03  0.19142660058E+04  0.19233005077E+04  0.50400001928E-02 0. -1.
       -1    1    3    3    0  502 -0.13037022367E+03 -0.13294399764E+03  0.35757452431E+03  0.40315014844E+03  0.50400001928E-02 0.  1.
</event>
<event>
 5   0  0.2511944E-01  0.5115337E+03  0.7818609E-02  0.1010812E+00
       -2   -1    0    0    0  501  0.00000000000E+00  0.00000000000E+00  0.48554194707E+03  0.48554194708E+03  0.25500000920E-02 0.  1.
        2   -1    0    0  501    0  0.00000000000E+00  0.00000000000E+00 -0.13472918144E+03  0.13472918146E+03  0.25500000920E-02 0. -1.
    10030    2    1    2    0    0  0.00000000000E+00  0.00000000000E+00  0.35081276564E+03  0.62027112854E+03  0.51153365126E+03 0.  0.
        1    1    3    3  502    0 -0.17699072926E+03  0.15572627968E+03  0.55121510467E+02  0.24210488093E+03  0.50400001928E-02 0.  1.
       -1    1    3    3    0  502  0.17699072926E+03 -0.15572627968E+03  0.29569125517E+03  0.37816624762E+03  0.50400001928E-02 0. -1.
</event>
<event>
 5   0  0.1529146E-01  0.4361786E+03  0.7818609E-02  0.1031926E+00
        1   -1    0    0  501    0  0.00000000000E+00  0.00000000000E+00  0.10208514804E+03  0.10208514817E+03  0.50400001928E-02 0. -1.
       -1   -1    0    0    0  501  0.00000000000E+00  0.00000000000E+00 -0.46591445549E+03  0.46591445552E+03  0.50400001928E-02 0.  1.
    10030    2    1    2    0    0  0.00000000000E+00  0.00000000000E+00 -0.36382930745E+03  0.56799960369E+03  0.43617861574E+03 0.  0.
        1    1    3    3  502    0  0.10204923929E+03 -0.19061980431E+03 -0.14478456069E+03  0.26021630631E+03  0.50400001928E-02 0.  1.
       -1    1    3    3    0  502 -0.10204923929E+03  0.19061980431E+03 -0.21904474676E+03  0.30778329737E+03  0.50400001928E-02 0. -1.
</event>
<event>
 5   0  0.2466034E-01  0.4988060E+03  0.7818609E-02  0.1014091E+00
        2   -1    0    0  501    0  0.00000000000E+00  0.00000000000E+00  0.27878624706E+03  0.27878624707E+03  0.25500000920E-02 0. -1.
       -2   -1    0    0    0  501  0.00000000000E+00  0.00000000000E+00 -0.22311667706E+03  0.22311667708E+03  0.25500000920E-02 0.  1.
    10030    2    1    2    0    0  0.00000000000E+00  0.00000000000E+00  0.55669569994E+02  0.50190292415E+03  0.49880601866E+03 0.  0.
        3    1    3    3  502    0 -0.22587934503E+03  0.93430657949E+02  0.77650593464E+02  0.25647688244E+03  0.10100000352E+00 0. -1.
       -3    1    3    3    0  502  0.22587934503E+03 -0.93430657949E+02 -0.21981023470E+02  0.24542604171E+03  0.10100000352E+00 0.  1.
</event>
<event>
 5   0  0.2466034E-01  0.5031893E+03  0.7818609E-02  0.1012950E+00
       -2   -1    0    0    0  501  0.00000000000E+00  0.00000000000E+00  0.22976666831E+03  0.22976666832E+03  0.25500000920E-02 0. -1.
        2   -1    0    0  501    0  0.00000000000E+00  0.00000000000E+00 -0.27549627589E+03  0.27549627590E+03  0.25500000920E-02 0.  1.
    10030    2    1    2    0    0  0.00000000000E+00  0.00000000000E+00 -0.45729607584E+02  0.50526294422E+03  0.50318927433E+03 0.  0.
        3    1    3    3  502    0  0.16721582444E+03 -0.18034832727E+03  0.30393384572E+02  0.24781125705E+03  0.10100000352E+00 0.  1.
       -3    1    3    3    0  502 -0.16721582444E+03  0.18034832727E+03 -0.76122992156E+02  0.25745168718E+03  0.10100000352E+00 0. -1.
</event>
<event>
 5   0  0.2413301E-01  0.5922726E+03  0.7818609E-02  0.9921569E-01
        2   -1    0    0  501    0  0.00000000000E+00  0.00000000000E+00  0.67127951074E+03  0.67127951074E+03  0.25500000920E-02 0. -1.
       -2   -1    0    0    0  501  0.00000000000E+00  0.00000000000E+00 -0.13064111280E+03  0.13064111282E+03  0.25500000920E-02 0.  1.
    10030    2    1    2    0    0  0.00000000000E+00  0.00000000000E+00  0.54063839794E+03  0.80192062357E+03  0.59227258013E+03 0.  0.
        4    1    3    3  502    0 -0.19858080252E+03  0.20011191145E+03  0.39304598676E+03  0.48370018901E+03  0.12699999809E+01 0. -1.
       -4    1    3    3    0  502  0.19858080252E+03 -0.20011191145E+03  0.14759241118E+03  0.31822043456E+03  0.12699999809E+01 0.  1.
</event>
<event>
 5   0  0.1413361E-01  0.5199324E+03  0.7818609E-02  0.1008703E+00
        1   -1    0    0  501    0  0.00000000000E+00  0.00000000000E+00  0.34914073038E+03  0.34914073041E+03  0.50400001928E-02 0. -1.
       -1   -1    0    0    0  501  0.00000000000E+00  0.00000000000E+00 -0.19356789015E+03  0.19356789022E+03  0.50400001928E-02 0.  1.
    10030    2    1    2    0    0  0.00000000000E+00  0.00000000000E+00  0.15557284022E+03  0.54270862063E+03  0.51993243628E+03 0.  0.
        3    1    3    3  502    0 -0.28405214174E+02  0.23023770028E+02  0.34644326790E+03  0.34836747588E+03  0.10100000352E+00 0. -1.
       -3    1    3    3    0  502  0.28405214174E+02 -0.23023770028E+02 -0.19087042768E+03  0.19434114475E+03  0.10100000352E+00 0.  1.
</event>
<event>
 5   0  0.2413301E-01  0.4883840E+03  0.7818609E-02  0.1016856E+00
       -2   -1    0    0    0  501  0.00000000000E+00  0.00000000000E+00  0.28332497588E+03  0.28332497589E+03  0.25500000920E-02 0.  1.
        2   -1    0    0  501    0  0.00000000000E+00  0.00000000000E+00 -0.21046407402E+03  0.21046407404E+03  0.25500000920E-02 0. -1.
    10030    2    1    2    0    0  0.00000000000E+00  0.00000000000E+00  0.72860901859E+02  0.49378904993E+03  0.48838398296E+03 0.  0.
        4    1    3    3  502    0  0.92074909598E+02 -0.13383683608E+03 -0.14790024729E+03  0.21969566158E+03  0.12699999809E+01 0. -1.
       -4    1    3    3    0  502 -0.92074909598E+02  0.13383683608E+03  0.22076114914E+03  0.27409338836E+03  0.12699999809E+01 0.  1.
</event>
<event>
 5   0  0.1448458E-01  0.5015876E+03  0.7818609E-02  0.1013365E+00
       -1   -1    0    0    0  501  0.00000000000E+00  0.00000000000E+00  0.70225268712E+03  0.70225268714E+03  0.50400001928E-02 0.  1.
        1   -1    0    0  501    0  0.00000000000E+00  0.00000000000E+00 -0.89565379934E+02  0.89565380076E+02  0.50400001928E-02 0. -1.
    10030    2    1    2    0    0  0.00000000000E+00  0.00000000000E+00  0.61268730719E+03  0.79181806721E+03  0.50158759472E+03 0.  0.
        5    1    3    3  502    0 -0.11268882251E+03  0.15637007902E+03  0.53147634715E+02  0.19999283338E+03  0.46999998093E+01 0. -1.
       -5    1    3    3    0  502  0.11268882251E+03 -0.15637007902E+03  0.55953967247E+03  0.59182523383E+03  0.46999998093E+01 0.  1.
</event>
<event>
 5   0  0.2511944E-01  0.4871697E+03  0.7818609E-02  0.1017183E+00
        2   -1    0    0  501    0  0.00000000000E+00  0.00000000000E+00  0.11750688567E+04  0.11750688567E+04  0.25500000920E-02 0. -1.
       -2   -1    0    0    0  501  0.00000000000E+00  0.00000000000E+00 -0.50493710851E+02  0.50493710916E+02  0.25500000920E-02 0.  1.
    10030    2    1    2    0    0  0.00000000000E+00  0.00000000000E+00  0.11245751458E+04  0.12255625676E+04  0.48716973273E+03 0.  0.
        1    1    3    3  502    0 -0.11407610140E+03  0.21151977882E+03  0.66227159140E+03  0.70452653218E+03  0.50400001928E-02 0. -1.
       -1    1    3    3    0  502  0.11407610140E+03 -0.21151977882E+03  0.46230355444E+03  0.52103603543E+03  0.50400001928E-02 0.  1.
</event>
<event>
 5   0  0.1453602E-01  0.4921761E+03  0.7818609E-02  0.1015841E+00
       -1   -1    0    0    0  501  0.00000000000E+00  0.00000000000E+00  0.67854406141E+02  0.67854406328E+02  0.50400001928E-02 0.  1.
        1   -1    0    0  501    0  0.00000000000E+00  0.00000000000E+00 -0.89248933473E+03  0.89248933474E+03  0.50400001928E-02 0. -1.
    10030    2    1    2    0    0  0.00000000000E+00  0.00000000000E+00 -0.82463492859E+03  0.96034374107E+03  0.49217612251E+03 0.  0.
        2    1    3    3  502    0  0.94629262476E+02 -0.20907008964E+03 -0.58568346205E+03  0.62903904284E+03  0.25500000920E-02 0. -1.
       -2    1    3    3    0  502 -0.94629262476E+02  0.20907008964E+03 -0.23895146654E+03  0.33130469823E+03  0.25500000920E-02 0.  1.
</event>
<event>
 5   0  0.2504064E-01  0.4927690E+03  0.7818609E-02  0.1015684E+00
        2   -1    0    0  501    0  0.00000000000E+00  0.00000000000E+00  0.70573928700E+03  0.70573928700E+03  0.25500000920E-02 0. -1.
       -2   -1    0    0    0  501  0.00000000000E+00  0.00000000000E+00 -0.86016651361E+02  0.86016651399E+02  0.25500000920E-02 0.  1.
    10030    2    1    2    0    0  0.00000000000E+00  0.00000000000E+00  0.61972263564E+03  0.79175593840E+03  0.49276903400E+03 0.  0.
        5    1    3    3  502    0  0.83528217470E+02  0.82337033716E+02  0.65792507769E+03  0.66831418366E+03  0.46999998093E+01 0. -1.
       -5    1    3    3    0  502 -0.83528217470E+02 -0.82337033716E+02 -0.38202442055E+02  0.12344175473E+03  0.46999998093E+01 0.  1.
</event>
<event>
 5   0  0.1413361E-01  0.4933391E+03  0.7818609E-02  0.1015532E+00
        1   -1    0    0  501    0  0.00000000000E+00  0.00000000000E+00  0.81347451115E+03  0.81347451117E+03  0.50400001928E-02 0. -1.
       -1   -1    0    0    0  501  0.00000000000E+00  0.00000000000E+00 -0.74797519149E+02  0.74797519319E+02  0.50400001928E-02 0.  1.
    10030    2    1    2    0    0  0.00000000000E+00  0.00000000000E+00  0.73867699200E+03  0.88827203049E+03  0.49333913450E+03 0.  0.
        3    1    3    3  502    0 -0.32410632630E+02  0.20332239010E+03  0.12473514222E+03  0.24072662780E+03  0.10100000352E+00 0.  1.
       -3    1    3    3    0  502  0.32410632630E+02 -0.20332239010E+03  0.61394184978E+03  0.64754540269E+03  0.10100000352E+00 0. -1.
</event>
<event>
 5   0  0.1529146E-01  0.4978953E+03  0.7818609E-02  0.1014330E+00
       -1   -1    0    0    0  501  0.00000000000E+00  0.00000000000E+00  0.18874187017E+03  0.18874187023E+03  0.50400001928E-02 0. -1.
        1   -1    0    0  501    0  0.00000000000E+00  0.00000000000E+00 -0.32835820259E+03  0.32835820263E+03  0.50400001928E-02 0.  1.
    10030    2    1    2    0    0  0.00000000000E+00  0.00000000000E+00 -0.13961633242E+03  0.51710007286E+03  0.49789533546E+03 0.  0.
        1    1    3    3  502    0  0.60377422439E+02 -0.19318395313E+03  0.80729116583E+02  0.21790517015E+03  0.50400001928E-02 0. -1.
       -1    1    3    3    0  502 -0.60377422439E+02  0.19318395313E+03 -0.22034544901E+03  0.29919490271E+03  0.50400001928E-02 0.  1.
</event>
<event>
 5   0  0.9868500E-02  0.5000764E+03  0.7818609E-02  0.1013759E+00
       -3   -1    0    0    0  501  0.00000000000E+00  0.00000000000E+00  0.21170549807E+03  0.21170552217E+03  0.10100000352E+00 0.  1.
        3   -1    0    0  501    0  0.00000000000E+00  0.00000000000E+00 -0.29531160861E+03  0.29531162588E+03  0.10100000352E+00 0. -1.
    10030    2    1    2    0    0  0.00000000000E+00  0.00000000000E+00 -0.83606110536E+02  0.50701714805E+03  0.50007640086E+03 0.  0.
        1    1    3    3  502    0 -0.16238964715E+02  0.19190990169E+03 -0.20347147781E+03  0.28016737256E+03  0.50400001928E-02 0. -1.
       -1    1    3    3    0  502  0.16238964715E+02 -0.19190990169E+03  0.11986536727E+03  0.22684977549E+03  0.50400001928E-02 0.  1.
</event>
<event>
 5   0  0.1448458E-01  0.4978302E+03  0.7818609E-02  0.1014347E+00
        1   -1    0    0  501    0  0.00000000000E+00  0.00000000000E+00  0.10036887219E+04  0.10036887219E+04  0.50400001928E-02 0. -1.
       -1   -1    0    0    0  501  0.00000000000E+00  0.00000000000E+00 -0.61731007882E+02  0.61731008088E+02  0.50400001928E-02 0.  1.
    10030    2    1    2    0    0  0.00000000000E+00  0.00000000000E+00  0.94195771403E+03  0.10654197300E+04  0.49783015787E+03 0.  0.
        5    1    3    3  502    0 -0.92718088368E+02  0.14318520814E+02 -0.22342278518E+02  0.96555327955E+02  0.46999998093E+01 0.  1.
       -5    1    3    3    0  502  0.92718088368E+02 -0.14318520814E+02  0.96429999255E+03  0.96886440206E+03  0.46999998093E+01 0. -1.
</event>
<event>
 5   0  0.1529146E-01  0.5065408E+03  0.7818609E-02  0.1012086E+00
       -1   -1    0    0    0  501  0.00000000000E+00  0.00000000000E+00  0.93452182213E+03  0.93452182214E+03  0.50400001928E-02 0. -1.
        1   -1    0    0  501    0  0.00000000000E+00  0.00000000000E+00 -0.68640341632E+02  0.68640341817E+02  0.50400001928E-02 0.  1.
    10030    2    1    2    0    0  0.00000000000E+00  0.00000000000E+00  0.86588148050E+03  0.10031621640E+04  0.50654080678E+03 0.  0.
        1    1    3    3  502    0 -0.12526828254E+03  0.17695478477E+03  0.17365912296E+03  0.27778162192E+03  0.50400001928E-02 0.  1.
       -1    1    3    3    0  502  0.12526828254E+03 -0.17695478477E+03  0.69222235754E+03  0.72538054204E+03  0.50400001928E-02 0. -1.
</event>
<event>
 5   0  0.1453602E-01  0.5239352E+03  0.7818609E-02  0.1007714E+00
       -1   -1    0    0    0  501  0.00000000000E+00  0.00000000000E+00  0.41328427712E+03  0.41328427715E+03  0.50400001928E-02 0. -1.
        1   -1    0    0  501    0  0.00000000000E+00  0.00000000000E+00 -0.16605282807E+03  0.16605282815E+03  0.50400001928E-02 0.  1.
    10030    2    1    2    0    0  0.00000000000E+00  0.00000000000E+00  0.24723144905E+03  0.57933710530E+03  0.52393519845E+03 0.  0.
        2    1    3    3  502    0  0.20886024752E+03  0.15249034738E+03  0.16988694762E+03  0.30941474434E+03  0.25500000920E-02 0.  1.
       -2    1    3    3    0  502 -0.20886024752E+03 -0.15249034738E+03  0.77344501434E+02  0.26992236096E+03  0.25500000920E-02 0. -1.
</event>
<event>
 5   0  0.1413361E-01  0.5026671E+03  0.7818609E-02  0.1013085E+00
       -1   -1    0    0    0  501  0.00000000000E+00  0.00000000000E+00  0.96312481331E+02  0.96312481463E+02  0.50400001928E-02 0. -1.
        1   -1    0    0  501    0  0.00000000000E+00  0.00000000000E+00 -0.65587097386E+03  0.65587097388E+03  0.50400001928E-02 0.  1.
    10030    2    1    2    0    0  0.00000000000E+00  0.00000000000E+00 -0.55955849253E+03  0.75218345534E+03  0.50266713035E+03 0.  0.
        3    1    3    3  502    0 -0.50277921897E+02  0.17795543176E+03 -0.53448374583E+03  0.56556952701E+03  0.10100000352E+00 0.  1.
       -3    1    3    3    0  502  0.50277921897E+02 -0.17795543176E+03 -0.25074746698E+02  0.18661392833E+03  0.10100000352E+00 0. -1.
</event>
<event>
 5   0  0.2504064E-01  0.4854529E+03  0.7818609E-02  0.1017647E+00
       -2   -1    0    0    0  501  0.00000000000E+00  0.00000000000E+00  0.39737245385E+03  0.39737245386E+03  0.25500000920E-02 0. -1.
        2   -1    0    0  501    0  0.00000000000E+00  0.00000000000E+00 -0.14826422275E+03  0.14826422277E+03  0.25500000920E-02 0.  1.
    10030    2    1    2    0    0  0.00000000000E+00  0.00000000000E+00  0.24910823110E+03  0.54563667664E+03  0.48545285259E+03 0.  0.
        5    1    3    3  502    0  0.53875936617E+02 -0.23503092350E+03  0.93734320486E+02  0.25874768479E+03  0.46999998093E+01 0.  1.
       -5    1    3    3    0  502 -0.53875936617E+02  0.23503092350E+03  0.15537391062E+03  0.28688899185E+03  0.46999998093E+01 0. -1.
</event>
<event>
 5   0  0.1448458E-01  0.4779962E+03  0.7818609E-02  0.1019687E+00
        1   -1    0    0  501    0  0.00000000000E+00  0.00000000000E+00  0.11735934400E+04  0.11735934400E+04  0.50400001928E-02 0. -1.
       -1   -1    0    0    0  501  0.00000000000E+00  0.00000000000E+00 -0.48671096979E+02  0.48671097240E+02  0.50400001928E-02 0.  1.
    10030    2    1    2    0    0  0.00000000000E+00  0.00000000000E+00  0.11249223430E+04  0.12222645372E+04  0.47799615185E+03 0.  0.
        5    1    3    3  502    0  0.97629903652E+02 -0.38585540390E+01  0.48609484047E+01  0.97939804696E+02  0.46999998093E+01 0.  1.
       -5    1    3    3    0  502 -0.97629903652E+02  0.38585540390E+01  0.11200613946E+04  0.11243247325E+04  0.46999998093E+01 0. -1.
</event>
<event>
 5   0  0.2511944E-01  0.5005437E+03  0.7818609E-02  0.1013637E+00
        2   -1    0    0  501    0  0.00000000000E+00  0.00000000000E+00  0.11126497182E+04  0.11126497182E+04  0.25500000920E-02 0. -1.
       -2   -1    0    0    0  501  0.00000000000E+00  0.00000000000E+00 -0.56294450561E+02  0.56294450619E+02  0.25500000920E-02 0.  1.
    10030    2    1    2    0    0  0.00000000000E+00  0.00000000000E+00  0.10563552677E+04  0.11689441689E+04  0.50054372273E+03 0.  0.
        1    1    3    3  502    0 -0.10412152037E+03 -0.22535897855E+03  0.60232428975E+03  0.65147717556E+03  0.50400001928E-02 0. -1.
       -1    1    3    3    0  502  0.10412152037E+03  0.22535897855E+03  0.45403097793E+03  0.51746699331E+03  0.50400001928E-02 0.  1.
</event>
<event>
 5   0  0.1529146E-01  0.4733320E+03  0.7818609E-02  0.1020984E+00
       -1   -1    0    0    0  501  0.00000000000E+00  0.00000000000E+00  0.16788700948E+03  0.16788700956E+03  0.50400001928E-02 0.  1.
        1   -1    0    0  501    0  0.00000000000E+00  0.00000000000E+00 -0.33362191067E+03  0.33362191071E+03  0.50400001928E-02 0. -1.
    10030    2    1    2    0    0  0.00000000000E+00  0.00000000000E+00 -0.16573490119E+03  0.50150892027E+03  0.47333195501E+03 0.  0.
        1    1    3    3  502    0  0.91987811067E+02  0.20601641701E+03 -0.71554983363E+01  0.22573374281E+03  0.50400001928E-02 0.  1.
       -1    1    3    3    0  502 -0.91987811067E+02 -0.20601641701E+03 -0.15857940285E+03  0.27577517745E+03  0.50400001928E-02 0. -1.
</event>
<event>
 5   0  0.2413301E-01  0.5083382E+03  0.7818609E-02  0.1011625E+00
       -2   -1    0    0    0  501  0.00000000000E+00  0.00000000000E+00  0.79421510612E+02  0.79421510653E+02  0.25500000920E-02 0. -1.
        2   -1    0    0  501    0  0.00000000000E+00  0.00000000000E+00 -0.81340607018E+03  0.81340607018E+03  0.25500000920E-02 0.  1.
    10030    2    1    2    0    0  0.00000000000E+00  0.00000000000E+00 -0.73398455956E+03  0.89282758083E+03  0.50833822935E+03 0.  0.
        4    1    3    3  502    0  0.40480194084E+01  0.96026012502E+02 -0.78025327359E+03  0.78615149010E+03  0.12699999809E+01 0.  1.
       -4    1    3    3    0  502 -0.40480194084E+01 -0.96026012502E+02  0.46268714022E+02  0.10667609074E+03  0.12699999809E+01 0. -1.
</event>
<event>
 5   0  0.2466034E-01  0.5049502E+03  0.7818609E-02  0.1012495E+00
        2   -1    0    0  501    0  0.00000000000E+00  0.00000000000E+00  0.62703330064E+03  0.62703330065E+03  0.25500000920E-02 0. -1.
       -2   -1    0    0    0  501  0.00000000000E+00  0.00000000000E+00 -0.10165914801E+03  0.10165914804E+03  0.25500000920E-02 0.  1.
    10030    2    1    2    0    0  0.00000000000E+00  0.00000000000E+00  0.52537415264E+03  0.72869244869E+03  0.50495018023E+03 0.  0.
        3    1    3    3  502    0  0.19537285716E+03  0.16668948363E+02  0.33169865333E+02  0.19886844225E+03  0.10100000352E+00 0.  1.
       -3    1    3    3    0  502 -0.19537285716E+03 -0.16668948363E+02  0.49220428731E+03  0.52982400644E+03  0.10100000352E+00 0. -1.
</event>
<event>
 5   0  0.1529146E-01  0.5023166E+03  0.7818609E-02  0.1013176E+00
        1   -1    0    0  501    0  0.00000000000E+00  0.00000000000E+00  0.89078133215E+03  0.89078133217E+03  0.50400001928E-02 0.  1.
       -1   -1    0    0    0  501  0.00000000000E+00  0.00000000000E+00 -0.70814777693E+02  0.70814777873E+02  0.50400001928E-02 0. -1.
    10030    2    1    2    0    0  0.00000000000E+00  0.00000000000E+00  0.81996655446E+03  0.96159611004E+03  0.50231656195E+03 0.  0.
        1    1    3    3  502    0  0.20413918888E+03  0.11282545024E+02  0.13072576333E+03  0.24267123744E+03  0.50400001928E-02 0. -1.
       -1    1    3    3    0  502 -0.20413918888E+03 -0.11282545024E+02  0.68924079113E+03  0.71892487260E+03  0.50400001928E-02 0.  1.
</event>
<event>
 5   0  0.1448458E-01  0.4812739E+03  0.7818609E-02  0.1018786E+00
       -1   -1    0    0    0  501  0.00000000000E+00  0.00000000000E+00  0.21011401344E+03  0.21011401350E+03  0.50400001928E-02 0.  1.
        1   -1    0    0  501    0  0.00000000000E+00  0.00000000000E+00 -0.27559389057E+03  0.27559389061E+03  0.50400001928E-02 0. -1.
    10030    2    1    2    0    0  0.00000000000E+00  0.00000000000E+00 -0.65479877129E+02  0.48570790411E+03  0.48127388648E+03 0.  0.
        5    1    3    3  502    0  0.22541771012E+02  0.97602946676E+02 -0.25350073205E+03  0.27261543938E+03  0.46999998093E+01 0. -1.
       -5    1    3    3    0  502 -0.22541771012E+02 -0.97602946676E+02  0.18802085492E+03  0.21309246473E+03  0.46999998093E+01 0.  1.
</event>
<event>
 5   0  0.1448458E-01  0.4971070E+03  0.7818609E-02  0.1014537E+00
        1   -1    0    0  501    0  0.00000000000E+00  0.00000000000E+00  0.72498013377E+03  0.72498013378E+03  0.50400001928E-02 0.  1.
       -1   -1    0    0    0  501  0.00000000000E+00  0.00000000000E+00 -0.85214516831E+02  0.85214516980E+02  0.50400001928E-02 0. -1.
    10030    2    1    2    0    0  0.00000000000E+00  0.00000000000E+00  0.63976561694E+03  0.81019465076E+03  0.49710695782E+03 0.  0.
        5    1    3    3  502    0  0.10069783153E+03  0.21984468064E+03  0.41329585732E+03  0.47886041031E+03  0.46999998093E+01 0.  1.
       -5    1    3    3    0  502 -0.10069783153E+03 -0.21984468064E+03  0.22646975961E+03  0.33133424046E+03  0.46999998093E+01 0. -1.
</event>
<event>
 5   0  0.1453602E-01  0.4879608E+03  0.7818609E-02  0.1016970E+00
        1   -1    0    0  501    0  0.00000000000E+00  0.00000000000E+00  0.13466790901E+03  0.13466790911E+03  0.50400001928E-02 0. -1.
       -1   -1    0    0    0  501  0.00000000000E+00  0.00000000000E+00 -0.44202395202E+03  0.44202395205E+03  0.50400001928E-02 0.  1.
    10030    2    1    2    0    0  0.00000000000E+00  0.00000000000E+00 -0.30735604301E+03  0.57669186116E+03  0.48796082379E+03 0.  0.
        2    1    3    3  502    0 -0.11386611177E+03 -0.12945410642E+03 -0.35770416895E+03  0.39708453706E+03  0.25500000920E-02 0.  1.
       -2    1    3    3    0  502  0.11386611177E+03  0.12945410642E+03  0.50348125941E+02  0.17960732410E+03  0.25500000920E-02 0. -1.
</event>
<event>
 5   0  0.2504064E-01  0.5009513E+03  0.7818609E-02  0.1013531E+00
        2   -1    0    0  501    0  0.00000000000E+00  0.00000000000E+00  0.74271198197E+03  0.74271198198E+03  0.25500000920E-02 0. -1.
       -2   -1    0    0    0  501  0.00000000000E+00  0.00000000000E+00 -0.84471564586E+02  0.84471564625E+02  0.25500000920E-02 0.  1.
    10030    2    1    2    0    0  0.00000000000E+00  0.00000000000E+00  0.65824041738E+03  0.82718354660E+03  0.50095126778E+03 0.  0.
        5    1    3    3  502    0  0.19234641188E+03  0.84254684189E+02  0.55443814758E+03  0.59289100470E+03  0.46999998093E+01 0. -1.
       -5    1    3    3    0  502 -0.19234641188E+03 -0.84254684189E+02  0.10380226981E+03  0.23429254190E+03  0.46999998093E+01 0.  1.
</event>
<event>
 5   0  0.2488968E-01  0.5013172E+03  0.7818609E-02  0.1013436E+00
        2   -1    0    0  501    0  0.00000000000E+00  0.00000000000E+00  0.51638256708E+03  0.51638256708E+03  0.25500000920E-02 0. -1.
       -2   -1    0    0    0  501  0.00000000000E+00  0.00000000000E+00 -0.12167285488E+03  0.12167285490E+03  0.25500000920E-02 0.  1.
    10030    2    1    2    0    0  0.00000000000E+00  0.00000000000E+00  0.39470971220E+03  0.63805542198E+03  0.50131722952E+03 0.  0.
        2    1    3    3  502    0  0.18617128024E+02 -0.21622789924E+03  0.35697634183E+03  0.41777172056E+03  0.25500000920E-02 0. -1.
       -2    1    3    3    0  502 -0.18617128024E+02  0.21622789924E+03  0.37733370367E+02  0.22028370142E+03  0.25500000920E-02 0.  1.
</event>
<event>
 5   0  0.2466034E-01  0.5062115E+03  0.7818609E-02  0.1012170E+00
        2   -1    0    0  501    0  0.00000000000E+00  0.00000000000E+00  0.19112937801E+03  0.19112937802E+03  0.25500000920E-02 0.  1.
       -2   -1    0    0    0  501  0.00000000000E+00  0.00000000000E+00 -0.33517885331E+03  0.33517885332E+03  0.25500000920E-02 0. -1.
    10030    2    1    2    0    0  0.00000000000E+00  0.00000000000E+00 -0.14404947531E+03  0.52630823135E+03  0.50621152007E+03 0.  0.
        3    1    3    3  502    0  0.15870782574E+03  0.19665918310E+03 -0.86710197339E+02  0.26717349564E+03  0.10100000352E+00 0. -1.
       -3    1    3    3    0  502 -0.15870782574E+03 -0.19665918310E+03 -0.57339277967E+02  0.25913473571E+03  0.10100000352E+00 0.  1.
</event>
<event>
 5   0  0.2488968E-01  0.4970463E+03  0.7818609E-02  0.1014553E+00
       -2   -1    0    0    0  501  0.00000000000E+00  0.00000000000E+00  0.71545035480E+02  0.71545035525E+02  0.25500000920E-02 0. -1.
        2   -1    0    0  501    0  0.00000000000E+00  0.00000000000E+00 -0.86328513274E+03  0.86328513274E+03  0.25500000920E-02 0.  1.
    10030    2    1    2    0    0  0.00000000000E+00  0.00000000000E+00 -0.79174009726E+03  0.93483016827E+03  0.49704633777E+03 0.  0.
        2    1    3    3  502    0 -0.15158672487E+03 -0.16866851462E+03 -0.20465788977E+03  0.30547087395E+03  0.25500000920E-02 0. -1.
       -2    1    3    3    0  502  0.15158672487E+03  0.16866851462E+03 -0.58708220749E+03  0.62935929432E+03  0.25500000920E-02 0.  1.
</event>
<event>
 5   0  0.2466034E-01  0.4991586E+03  0.7818609E-02  0.1013999E+00
       -2   -1    0    0    0  501  0.00000000000E+00  0.00000000000E+00  0.38825864969E+02  0.38825865053E+02  0.25500000920E-02 0.  1.
        2   -1    0    0  501    0  0.00000000000E+00  0.00000000000E+00 -0.16043381973E+04  0.16043381973E+04  0.25500000920E-02 0. -1.
    10030    2    1    2    0    0  0.00000000000E+00  0.00000000000E+00 -0.15655123323E+04  0.16431640623E+04  0.49915856512E+03 0.  0.
        3    1    3    3  502    0 -0.13780002924E+03  0.12009826944E+03 -0.22335780891E+03  0.28861940923E+03  0.10100000352E+00 0. -1.
       -3    1    3    3    0  502  0.13780002924E+03 -0.12009826944E+03 -0.13421545234E+04  0.13545446531E+04  0.10100000352E+00 0.  1.
</event>
<event>
 5   0  0.2504064E-01  0.5119070E+03  0.7818609E-02  0.1010717E+00
        2   -1    0    0  501    0  0.00000000000E+00  0.00000000000E+00  0.18816055324E+03  0.18816055326E+03  0.25500000920E-02 0. -1.
       -2   -1    0    0    0  501  0.00000000000E+00  0.00000000000E+00 -0.34817184334E+03  0.34817184335E+03  0.25500000920E-02 0.  1.
    10030    2    1    2    0    0  0.00000000000E+00  0.00000000000E+00 -0.16001129010E+03  0.53633239661E+03  0.51190704888E+03 0.  0.
        5    1    3    3  502    0  0.13264022030E+03 -0.10763706933E+02 -0.30902372620E+03  0.33649225665E+03  0.46999998093E+01 0.  1.
       -5    1    3    3    0  502 -0.13264022030E+03  0.10763706933E+02  0.14901243611E+03  0.19984013996E+03  0.46999998093E+01 0. -1.
</event>
<event>
 5   0  0.2413301E-01  0.4998636E+03  0.7818609E-02  0.1013815E+00
        2   -1    0    0  501    0  0.00000000000E+00  0.00000000000E+00  0.12609995209E+03  0.12609995211E+03  0.25500000920E-02 0. -1.
       -2   -1    0    0    0  501  0.00000000000E+00  0.00000000000E+00 -0.49536824644E+03  0.49536824645E+03  0.25500000920E-02 0.  1.
    10030    2    1    2    0    0  0.00000000000E+00  0.00000000000E+00 -0.36926829435E+03  0.62146819856E+03  0.49986363001E+03 0.  0.
        4    1    3    3  502    0  0.18126418141E+03  0.42209649563E+02 -0.39202629220E+03  0.43396380570E+03  0.12699999809E+01 0.  1.
       -4    1    3    3    0  502 -0.18126418141E+03 -0.42209649563E+02  0.22757997850E+02  0.18750439286E+03  0.12699999809E+01 0. -1.
</event>
<event>
 5   0  0.2413301E-01  0.5068093E+03  0.7818609E-02  0.1012017E+00
        2   -1    0    0  501    0  0.00000000000E+00  0.00000000000E+00  0.33463313284E+03  0.33463313285E+03  0.25500000920E-02 0.  1.
       -2   -1    0    0    0  501  0.00000000000E+00  0.00000000000E+00 -0.19189347379E+03  0.19189347380E+03  0.25500000920E-02 0. -1.
    10030    2    1    2    0    0  0.00000000000E+00  0.00000000000E+00  0.14273965906E+03  0.52652660665E+03  0.50680929081E+03 0.  0.
        4    1    3    3  502    0  0.38861291809E+02 -0.89100923235E+02 -0.17174971482E+03  0.19735438167E+03  0.12699999809E+01 0. -1.
       -4    1    3    3    0  502 -0.38861291809E+02  0.89100923235E+02  0.31448937388E+03  0.32917222499E+03  0.12699999809E+01 0.  1.
</event>
<event>
 5   0  0.1529146E-01  0.4986936E+03  0.7818609E-02  0.1014120E+00
       -1   -1    0    0    0  501  0.00000000000E+00  0.00000000000E+00  0.12401934970E+03  0.12401934980E+03  0.50400001928E-02 0.  1.
        1   -1    0    0  501    0  0.00000000000E+00  0.00000000000E+00 -0.50132352757E+03  0.50132352759E+03  0.50400001928E-02 0. -1.
    10030    2    1    2    0    0  0.00000000000E+00  0.00000000000E+00 -0.37730417787E+03  0.62534287739E+03  0.49869356489E+03 0.  0.
        1    1    3    3  502    0  0.24292891899E+03 -0.56128127737E+02 -0.19241219536E+03  0.31494012027E+03  0.50400001928E-02 0.  1.
       -1    1    3    3    0  502 -0.24292891899E+03  0.56128127737E+02 -0.18489198251E+03  0.31040275712E+03  0.50400001928E-02 0. -1.
</event>
<event>
 5   0  0.2488968E-01  0.6647646E+03  0.7818609E-02  0.9779462E-01
       -2   -1    0    0    0  501  0.00000000000E+00  0.00000000000E+00  0.69161890127E+02  0.69161890174E+02  0.25500000920E-02 0. -1.
        2   -1    0    0  501    0  0.00000000000E+00  0.00000000000E+00 -0.15973823894E+04  0.15973823894E+04  0.25500000920E-02 0.  1.
    10030    2    1    2    0    0  0.00000000000E+00  0.00000000000E+00 -0.15282204993E+04  0.16665442796E+04  0.66476457592E+03 0.  0.
        2    1    3    3  502    0 -0.11097945776E+03  0.55246693636E+02 -0.15372546080E+04  0.15422452357E+04  0.25500000920E-02 0.  1.
       -2    1    3    3    0  502  0.11097945776E+03 -0.55246693636E+02  0.90341086537E+01  0.12429904395E+03  0.25500000920E-02 0. -1.
</event>
<event>
 5   0  0.1448458E-01  0.5254242E+03  0.7818609E-02  0.1007348E+00
        1   -1    0    0  501    0  0.00000000000E+00  0.00000000000E+00  0.14732429313E+04  0.14732429313E+04  0.50400001928E-02 0.  1.
       -1   -1    0    0    0  501  0.00000000000E+00  0.00000000000E+00 -0.46847439186E+02  0.46847439458E+02  0.50400001928E-02 0. -1.
    10030    2    1    2    0    0  0.00000000000E+00  0.00000000000E+00  0.14263954921E+04  0.15200903708E+04  0.52542424324E+03 0.  0.
        5    1    3    3  502    0 -0.17737580488E+03  0.18166352825E+03  0.51844099493E+03  0.57729279302E+03  0.46999998093E+01 0.  1.
       -5    1    3    3    0  502  0.17737580488E+03 -0.18166352825E+03  0.90795449720E+03  0.94279757777E+03  0.46999998093E+01 0. -1.
</event>
<event>
 5   0  0.1439814E-01  0.4921034E+03  0.7818609E-02  0.1015861E+00
       -1   -1    0    0    0  501  0.00000000000E+00  0.00000000000E+00  0.65470371939E+03  0.65470371941E+03  0.50400001928E-02 0. -1.
        1   -1    0    0  501    0  0.00000000000E+00  0.00000000000E+00 -0.92471519294E+02  0.92471519432E+02  0.50400001928E-02 0.  1.
    10030    2    1    2    0    0  0.00000000000E+00  0.00000000000E+00  0.56223220009E+03  0.74717523884E+03  0.49210343497E+03 0.  0.
        4    1    3    3  502    0 -0.14295318555E+03  0.18521441138E+03  0.16548512018E+03  0.28657796382E+03  0.12699999809E+01 0. -1.
       -4    1    3    3    0  502  0.14295318555E+03 -0.18521441138E+03  0.39674707991E+03  0.46059727502E+03  0.12699999809E+01 0.  1.
</event>
<event>
 5   0  0.1413361E-01  0.4663871E+03  0.7818609E-02  0.1022945E+00
       -1   -1    0    0    0  501  0.00000000000E+00  0.00000000000E+00  0.11211114291E+03  0.11211114302E+03  0.50400001928E-02 0. -1.
        1   -1    0    0  501    0  0.00000000000E+00  0.00000000000E+00 -0.48504747766E+03  0.48504747769E+03  0.50400001928E-02 0.  1.
    10030    2    1    2    0    0  0.00000000000E+00  0.00000000000E+00 -0.37293633476E+03  0.59715862071E+03  0.46638708012E+03 0.  0.
        3    1    3    3  502    0 -0.18943352218E+03 -0.11995971735E+03 -0.26849152605E+03  0.34980437801E+03  0.10100000352E+00 0.  1.
       -3    1    3    3    0  502  0.18943352218E+03  0.11995971735E+03 -0.10444480871E+03  0.24735424270E+03  0.10100000352E+00 0. -1.
</event>
<event>
 5   0  0.2511944E-01  0.5513155E+03  0.7818609E-02  0.1001190E+00
       -2   -1    0    0    0  501  0.00000000000E+00  0.00000000000E+00  0.29499802101E+03  0.29499802102E+03  0.25500000920E-02 0. -1.
        2   -1    0    0  501    0  0.00000000000E+00  0.00000000000E+00 -0.25758539476E+03  0.25758539477E+03  0.25500000920E-02 0.  1.
    10030    2    1    2    0    0  0.00000000000E+00  0.00000000000E+00  0.37412626255E+02  0.55258341579E+03  0.55131545127E+03 0.  0.
        1    1    3    3  502    0  0.72739741239E+02  0.26312895117E+03  0.56994520203E+02  0.27888400861E+03  0.50400001928E-02 0.  1.
       -1    1    3    3    0  502 -0.72739741239E+02 -0.26312895117E+03 -0.19581893947E+02  0.27369940719E+03  0.50400001928E-02 0. -1.
</event>
<event>
 5   0  0.2466034E-01  0.4997501E+03  0.7818609E-02  0.1013844E+00
        2   -1    0    0  501    0  0.00000000000E+00  0.00000000000E+00  0.40339126576E+03  0.40339126576E+03  0.25500000920E-02 0.  1.
       -2   -1    0    0    0  501  0.00000000000E+00  0.00000000000E+00 -0.15478156987E+03  0.15478156989E+03  0.25500000920E-02 0. -1.
    10030    2    1    2    0    0  0.00000000000E+00  0.00000000000E+00  0.24860969589E+03  0.55817283565E+03  0.49975007110E+03 0.  0.
        3    1    3    3  502    0 -0.77535992726E+02  0.83659305395E+02 -0.12400682707E+03  0.16848861358E+03  0.10100000352E+00 0. -1.
       -3    1    3    3    0  502  0.77535992726E+02 -0.83659305395E+02  0.37261652296E+03  0.38968422207E+03  0.10100000352E+00 0.  1.
</event>
<event>
 5   0  0.2504064E-01  0.4990943E+03  0.7818609E-02  0.1014016E+00
       -2   -1    0    0    0  501  0.00000000000E+00  0.00000000000E+00  0.20430932061E+03  0.20430932063E+03  0.25500000920E-02 0. -1.
        2   -1    0    0  501    0  0.00000000000E+00  0.00000000000E+00 -0.30480146843E+03  0.30480146844E+03  0.25500000920E-02 0.  1.
    10030    2    1    2    0    0  0.00000000000E+00  0.00000000000E+00 -0.10049214782E+03  0.50911078907E+03  0.49909430349E+03 0.  0.
        5    1    3    3  502    0  0.16062461515E+02 -0.20604911144E+03  0.92335580342E+02  0.22641154651E+03  0.46999998093E+01 0. -1.
       -5    1    3    3    0  502 -0.16062461515E+02  0.20604911144E+03 -0.19282772816E+03  0.28269924256E+03  0.46999998093E+01 0.  1.
</event>
<event>
 5   0  0.1448458E-01  0.4978972E+03  0.7818609E-02  0.1014329E+00
        1   -1    0    0  501    0  0.00000000000E+00  0.00000000000E+00  0.20651059555E+03  0.20651059561E+03  0.50400001928E-02 0.  1.
       -1   -1    0    0    0  501  0.00000000000E+00  0.00000000000E+00 -0.30010766697E+03  0.30010766702E+03  0.50400001928E-02 0. -1.
    10030    2    1    2    0    0  0.00000000000E+00  0.00000000000E+00 -0.93597071422E+02  0.50661826263E+03  0.49789723061E+03 0.  0.
        5    1    3    3  502    0 -0.15725020878E+03  0.17841706325E+03 -0.12152220862E+03  0.26711423363E+03  0.46999998093E+01 0. -1.
       -5    1    3    3    0  502  0.15725020878E+03 -0.17841706325E+03  0.27925137193E+02  0.23950402900E+03  0.46999998093E+01 0.  1.
</event>
<event>
 5   0  0.2466034E-01  0.5005528E+03  0.7818609E-02  0.1013635E+00
        2   -1    0    0  501    0  0.00000000000E+00  0.00000000000E+00  0.62636169015E+03  0.62636169016E+03  0.25500000920E-02 0.  1.
       -2   -1    0    0    0  501  0.00000000000E+00  0.00000000000E+00 -0.10000337228E+03  0.10000337231E+03  0.25500000920E-02 0. -1.
    10030    2    1    2    0    0  0.00000000000E+00  0.00000000000E+00  0.52635831788E+03  0.72636506247E+03  0.50055281957E+03 0.  0.
        3    1    3    3  502    0  0.12399476918E+03  0.18421875840E+03  0.43070103059E+03  0.48457676552E+03  0.10100000352E+00 0. -1.
       -3    1    3    3    0  502 -0.12399476918E+03 -0.18421875840E+03  0.95657287287E+02  0.24178829695E+03  0.10100000352E+00 0.  1.
</event>
<event>
 5   0  0.2413301E-01  0.4825536E+03  0.7818609E-02  0.1018436E+00
       -2   -1    0    0    0  501  0.00000000000E+00  0.00000000000E+00  0.49183674052E+03  0.49183674053E+03  0.25500000920E-02 0. -1.
        2   -1    0    0  501    0  0.00000000000E+00  0.00000000000E+00 -0.11836143543E+03  0.11836143545E+03  0.25500000920E-02 0.  1.
    10030    2    1    2    0    0  0.00000000000E+00  0.00000000000E+00  0.37347530510E+03  0.61019817598E+03  0.48255363480E+03 0.  0.
        4    1    3    3  502    0 -0.32999027316E+02  0.27413329176E+02 -0.11349562000E+03  0.12133958579E+03  0.12699999809E+01 0.  1.
       -4    1    3    3    0  502  0.32999027316E+02 -0.27413329176E+02  0.48697092509E+03  0.48885859019E+03  0.12699999809E+01 0. -1.
</event>
<event>
 5   0  0.2504064E-01  0.5030033E+03  0.7818609E-02  0.1012998E+00
       -2   -1    0    0    0  501  0.00000000000E+00  0.00000000000E+00  0.10085676945E+03  0.10085676948E+03  0.25500000920E-02 0.  1.
        2   -1    0    0  501    0  0.00000000000E+00  0.00000000000E+00 -0.62715745605E+03  0.62715745605E+03  0.25500000920E-02 0. -1.
    10030    2    1    2    0    0  0.00000000000E+00  0.00000000000E+00 -0.52630068660E+03  0.72801422553E+03  0.50300328017E+03 0.  0.
        5    1    3    3  502    0 -0.96287597740E+02 -0.14383478420E+03 -0.52715010274E+03  0.55485950243E+03  0.46999998093E+01 0. -1.
       -5    1    3    3    0  502  0.96287597740E+02  0.14383478420E+03  0.84941613656E+00  0.17315472310E+03  0.46999998093E+01 0.  1.
</event>
<event>
 5   0  0.1413361E-01  0.5157003E+03  0.7818609E-02  0.1009760E+00
        1   -1    0    0  501    0  0.00000000000E+00  0.00000000000E+00  0.15902458147E+04  0.15902458147E+04  0.50400001928E-02 0. -1.
       -1   -1    0    0    0  501  0.00000000000E+00  0.00000000000E+00 -0.41809073122E+02  0.41809073426E+02  0.50400001928E-02 0.  1.
    10030    2    1    2    0    0  0.00000000000E+00  0.00000000000E+00  0.15484367416E+04  0.16320548881E+04  0.51570031531E+03 0.  0.
        3    1    3    3  502    0  0.23111295289E+03 -0.49585655615E+02  0.44816218772E+03  0.50667671246E+03  0.10100000352E+00 0.  1.
       -3    1    3    3    0  502 -0.23111295289E+03  0.49585655615E+02  0.11002745539E+04  0.11253781757E+04  0.10100000352E+00 0. -1.
</event>
<event>
 5   0  0.2466034E-01  0.5062459E+03  0.7818609E-02  0.1012161E+00
        2   -1    0    0  501    0  0.00000000000E+00  0.00000000000E+00  0.30729269414E+03  0.30729269415E+03  0.25500000920E-02 0.  1.
       -2   -1    0    0    0  501  0.00000000000E+00  0.00000000000E+00 -0.20850227676E+03  0.20850227677E+03  0.25500000920E-02 0. -1.
    10030    2    1    2    0    0  0.00000000000E+00  0.00000000000E+00  0.98790417381E+02  0.51579497093E+03  0.50624589427E+03 0.  0.
        3    1    3    3  502    0  0.53995583675E+02 -0.13543191384E+03  0.26021332712E+03  0.29827556413E+03  0.10100000352E+00 0.  1.
       -3    1    3    3    0  502 -0.53995583675E+02  0.13543191384E+03 -0.16142290974E+03  0.21751940680E+03  0.10100000352E+00 0. -1.
</event>
<event>
 5   0  0.2511944E-01  0.3357045E+03  0.7818609E-02  0.1068640E+00
        2   -1    0    0  501    0  0.00000000000E+00  0.00000000000E+00  0.91368705974E+03  0.91368705974E+03  0.25500000920E-02 0. -1.
       -2   -1    0    0    0  501  0.00000000000E+00  0.00000000000E+00 -0.30835923815E+02  0.30835923921E+02  0.25500000920E-02 0.  1.
    10030    2    1    2    0    0  0.00000000000E+00  0.00000000000E+00  0.88285113592E+03  0.94452298366E+03  0.33570454043E+03 0.  0.
        1    1    3    3  502    0 -0.16001624938E+03  0.64176753206E+00  0.58402511645E+03  0.60555012063E+03  0.50400001928E-02 0.  1.
       -1    1    3    3    0  502  0.16001624938E+03 -0.64176753206E+00  0.29882601947E+03  0.33897286303E+03  0.50400001928E-02 0. -1.
</event>
<event>
 5   0  0.2413301E-01  0.4942137E+03  0.7818609E-02  0.1015300E+00
        2   -1    0    0  501    0  0.00000000000E+00  0.00000000000E+00  0.13335170733E+04  0.13335170733E+04  0.25500000920E-02 0. -1.
       -2   -1    0    0    0  501  0.00000000000E+00  0.00000000000E+00 -0.45790044493E+02  0.45790044564E+02  0.25500000920E-02 0.  1.
    10030    2    1    2    0    0  0.00000000000E+00  0.00000000000E+00  0.12877270288E+04  0.13793071179E+04  0.49421374391E+03 0.  0.
        4    1    3    3  502    0 -0.20073332754E+01 -0.13017220283E+03  0.12300305480E+04  0.12369016103E+04  0.12699999809E+01 0. -1.
       -4    1    3    3    0  502  0.20073332754E+01  0.13017220283E+03  0.57696480824E+02  0.14240550753E+03  0.12699999809E+01 0.  1.
</event>
<event>
 5   0  0.2511944E-01  0.5069645E+03  0.7818609E-02  0.1011977E+00
        2   -1    0    0  501    0  0.00000000000E+00  0.00000000000E+00  0.10427246272E+04  0.10427246272E+04  0.25500000920E-02 0.  1.
       -2   -1    0    0    0  501  0.00000000000E+00  0.00000000000E+00 -0.61620524572E+02  0.61620524625E+02  0.25500000920E-02 0. -1.
    10030    2    1    2    0    0  0.00000000000E+00  0.00000000000E+00  0.98110410263E+03  0.11043451518E+04  0.50696445060E+03 0.  0.
        1    1    3    3  502    0 -0.16054701300E+03  0.16690897496E+03  0.71503070375E+03  0.75160019734E+03  0.50400001928E-02 0.  1.
       -1    1    3    3    0  502  0.16054701300E+03 -0.16690897496E+03  0.26607339888E+03  0.35274495449E+03  0.50400001928E-02 0. -1.
</event>
<event>
 5   0  0.2466034E-01  0.5045115E+03  0.7818609E-02  0.1012608E+00
        2   -1    0    0  501    0  0.00000000000E+00  0.00000000000E+00  0.53810043236E+03  0.53810043237E+03  0.25500000920E-02 0.  1.
       -2   -1    0    0    0  501  0.00000000000E+00  0.00000000000E+00 -0.11825479049E+03  0.11825479052E+03  0.25500000920E-02 0. -1.
    10030    2    1    2    0    0  0.00000000000E+00  0.00000000000E+00  0.41984564187E+03  0.65635522289E+03  0.50451146232E+03 0.  0.
        3    1    3    3  502    0  0.11601748191E+03 -0.58814087407E+01  0.50123101136E+03  0.51451645652E+03  0.10100000352E+00 0.  1.
       -3    1    3    3    0  502 -0.11601748191E+03  0.58814087407E+01 -0.81385369492E+02  0.14183876637E+03  0.10100000352E+00 0. -1.
</event>
<event>
 5   0  0.2488968E-01  0.4994461E+03  0.7818609E-02  0.1013924E+00
        2   -1    0    0  501    0  0.00000000000E+00  0.00000000000E+00  0.26610974465E+03  0.26610974466E+03  0.25500000920E-02 0. -1.
       -2   -1    0    0    0  501  0.00000000000E+00  0.00000000000E+00 -0.23434542890E+03  0.23434542891E+03  0.25500000920E-02 0.  1.
    10030    2    1    2    0    0  0.00000000000E+00  0.00000000000E+00  0.31764315746E+02  0.50045517357E+03  0.49944610220E+03 0.  0.
        2    1    3    3  502    0 -0.40689918746E+02 -0.19613325285E+03  0.16530647926E+03  0.25971167562E+03  0.25500000920E-02 0. -1.
       -2    1    3    3    0  502  0.40689918746E+02  0.19613325285E+03 -0.13354216352E+03  0.24074349795E+03  0.25500000920E-02 0.  1.
</event>
<event>
 5   0  0.2511944E-01  0.5007879E+03  0.7818609E-02  0.1013573E+00
       -2   -1    0    0    0  501  0.00000000000E+00  0.00000000000E+00  0.11456614971E+03  0.11456614974E+03  0.25500000920E-02 0.  1.
        2   -1    0    0  501    0  0.00000000000E+00  0.00000000000E+00 -0.54725696034E+03  0.54725696035E+03  0.25500000920E-02 0. -1.
    10030    2    1    2    0    0  0.00000000000E+00  0.00000000000E+00 -0.43269081063E+03  0.66182311009E+03  0.50078787071E+03 0.  0.
        1    1    3    3  502    0  0.37330119392E+02 -0.10135130191E+02 -0.54328453623E+03  0.54465984432E+03  0.50400001928E-02 0. -1.
       -1    1    3    3    0  502 -0.37330119392E+02  0.10135130191E+02  0.11059372560E+03  0.11716326577E+03  0.50400001928E-02 0.  1.
</event>
<event>
 5   0  0.2488968E-01  0.5045572E+03  0.7818609E-02  0.1012596E+00
        2   -1    0    0  501    0  0.00000000000E+00  0.00000000000E+00  0.24380120305E+03  0.24380120306E+03  0.25500000920E-02 0. -1.
       -2   -1    0    0    0  501  0.00000000000E+00  0.00000000000E+00 -0.26105076680E+03  0.26105076681E+03  0.25500000920E-02 0.  1.
    10030    2    1    2    0    0  0.00000000000E+00  0.00000000000E+00 -0.17249563745E+02  0.50485196987E+03  0.50455719600E+03 0.  0.
        2    1    3    3  502    0 -0.24282843788E+03  0.36415113498E+02  0.49312243897E+02  0.25044641770E+03  0.25500000920E-02 0. -1.
       -2    1    3    3    0  502  0.24282843788E+03 -0.36415113498E+02 -0.66561807642E+02  0.25440555217E+03  0.25500000920E-02 0.  1.
</event>
<event>
 5   0  0.1439814E-01  0.4845179E+03  0.7818609E-02  0.1017901E+00
       -1   -1    0    0    0  501  0.00000000000E+00  0.00000000000E+00  0.15302221886E+03  0.15302221895E+03  0.50400001928E-02 0.  1.
        1   -1    0    0  501    0  0.00000000000E+00  0.00000000000E+00 -0.38353510303E+03  0.38353510306E+03  0.50400001928E-02 0. -1.
    10030    2    1    2    0    0  0.00000000000E+00  0.00000000000E+00 -0.23051288417E+03  0.53655732201E+03  0.48451787380E+03 0.  0.
        4    1    3    3  502    0 -0.17833695092E+03 -0.15546123966E+03 -0.17296395887E+03  0.29307065542E+03  0.12699999809E+01 0. -1.
       -4    1    3    3    0  502  0.17833695092E+03  0.15546123966E+03 -0.57548925294E+02  0.24348666658E+03  0.12699999809E+01 0.  1.
</event>
<event>
 5   0  0.1453602E-01  0.4999494E+03  0.7818609E-02  0.1013792E+00
        1   -1    0    0  501    0  0.00000000000E+00  0.00000000000E+00  0.87925615728E+03  0.87925615729E+03  0.50400001928E-02 0. -1.
       -1   -1    0    0    0  501  0.00000000000E+00  0.00000000000E+00 -0.71068434578E+02  0.71068434757E+02  0.50400001928E-02 0.  1.
    10030    2    1    2    0    0  0.00000000000E+00  0.00000000000E+00  0.80818772270E+03  0.95032459205E+03  0.49994943257E+03 0.  0.
        2    1    3    3  502    0  0.17884090328E+03  0.59488534242E+02  0.91959698938E+02  0.20971299585E+03  0.25500000920E-02 0.  1.
       -2    1    3    3    0  502 -0.17884090328E+03 -0.59488534242E+02  0.71622802376E+03  0.74061159620E+03  0.25500000920E-02 0. -1.
</event>
<event>
 5   0  0.1439814E-01  0.4923292E+03  0.7818609E-02  0.1015801E+00
       -1   -1    0    0    0  501  0.00000000000E+00  0.00000000000E+00  0.74343218468E+02  0.74343218639E+02  0.50400001928E-02 0.  1.
        1   -1    0    0  501    0  0.00000000000E+00  0.00000000000E+00 -0.81509813846E+03  0.81509813847E+03  0.50400001928E-02 0. -1.
    10030    2    1    2    0    0  0.00000000000E+00  0.00000000000E+00 -0.74075491999E+03  0.88944135711E+03  0.49232923563E+03 0.  0.
        4    1    3    3  502    0 -0.73206564552E+02  0.18382840332E+03 -0.63492744372E+03  0.66504628009E+03  0.12699999809E+01 0. -1.
       -4    1    3    3    0  502  0.73206564552E+02 -0.18382840332E+03 -0.10582747626E+03  0.22439507703E+03  0.12699999809E+01 0.  1.
</event>
<event>
 5   0  0.9868500E-02  0.4901128E+03  0.7818609E-02  0.1016392E+00
       -3   -1    0    0    0  501  0.00000000000E+00  0.00000000000E+00  0.60162828746E+03  0.60162829594E+03  0.10100000352E+00 0.  1.
        3   -1    0    0  501    0  0.00000000000E+00  0.00000000000E+00 -0.99816818556E+02  0.99816869655E+02  0.10100000352E+00 0. -1.
    10030    2    1    2    0    0  0.00000000000E+00  0.00000000000E+00  0.50181146891E+03  0.70144516559E+03  0.49011281355E+03 0.  0.
        3    1    3    3  502    0  0.10387433452E+03  0.10680061190E+03  0.52936856599E+03  0.54993393870E+03  0.10100000352E+00 0.  1.
       -3    1    3    3    0  502 -0.10387433452E+03 -0.10680061190E+03 -0.27557097082E+02  0.15151122690E+03  0.10100000352E+00 0. -1.
</event>
<event>
 5   0  0.1448458E-01  0.4946791E+03  0.7818609E-02  0.1015177E+00
        1   -1    0    0  501    0  0.00000000000E+00  0.00000000000E+00  0.30610410849E+03  0.30610410853E+03  0.50400001928E-02 0. -1.
       -1   -1    0    0    0  501  0.00000000000E+00  0.00000000000E+00 -0.19985639294E+03  0.19985639300E+03  0.50400001928E-02 0.  1.
    10030    2    1    2    0    0  0.00000000000E+00  0.00000000000E+00  0.10624771555E+03  0.50596050153E+03  0.49467914050E+03 0.  0.
        5    1    3    3  502    0 -0.11593428328E+03 -0.15969570541E+03  0.20555720039E+03  0.28499005069E+03  0.46999998093E+01 0. -1.
       -5    1    3    3    0  502  0.11593428328E+03  0.15969570541E+03 -0.99309484836E+02  0.22097045083E+03  0.46999998093E+01 0.  1.
</event>
<event>
 5   0  0.2466034E-01  0.5284246E+03  0.7818609E-02  0.1006615E+00
        2   -1    0    0  501    0  0.00000000000E+00  0.00000000000E+00  0.58704302774E+03  0.58704302775E+03  0.25500000920E-02 0. -1.
       -2   -1    0    0    0  501  0.00000000000E+00  0.00000000000E+00 -0.11891484559E+03  0.11891484562E+03  0.25500000920E-02 0.  1.
    10030    2    1    2    0    0  0.00000000000E+00  0.00000000000E+00  0.46812818215E+03  0.70595787336E+03  0.52842456797E+03 0.  0.
        3    1    3    3  502    0 -0.25071135298E+03 -0.69587254666E+02  0.17270330259E+03  0.31228994453E+03  0.10100000352E+00 0. -1.
       -3    1    3    3    0  502  0.25071135298E+03  0.69587254666E+02  0.29542487956E+03  0.39366792883E+03  0.10100000352E+00 0.  1.
</event>
<event>
 5   0  0.1448458E-01  0.4995719E+03  0.7818609E-02  0.1013891E+00
       -1   -1    0    0    0  501  0.00000000000E+00  0.00000000000E+00  0.32673847068E+02  0.32673847457E+02  0.50400001928E-02 0. -1.
        1   -1    0    0  501    0  0.00000000000E+00  0.00000000000E+00 -0.19095709860E+04  0.19095709860E+04  0.50400001928E-02 0.  1.
    10030    2    1    2    0    0  0.00000000000E+00  0.00000000000E+00 -0.18768971390E+04  0.19422448335E+04  0.49957193976E+03 0.  0.
        5    1    3    3  502    0 -0.20603450040E+03 -0.13453433331E+03 -0.11043649849E+04  0.11314565003E+04  0.46999998093E+01 0. -1.
       -5    1    3    3    0  502  0.20603450040E+03  0.13453433331E+03 -0.77253215409E+03  0.81078833322E+03  0.46999998093E+01 0.  1.
</event>
<event>
 5   0  0.2466034E-01  0.4976490E+03  0.7818609E-02  0.1014394E+00
       -2   -1    0    0    0  501  0.00000000000E+00  0.00000000000E+00  0.87333474585E+02  0.87333474622E+02  0.25500000920E-02 0. -1.
        2   -1    0    0  501    0  0.00000000000E+00  0.00000000000E+00 -0.70893367431E+03  0.70893367432E+03  0.25500000920E-02 0.  1.
    10030    2    1    2    0    0  0.00000000000E+00  0.00000000000E+00 -0.62160019973E+03  0.79626714894E+03  0.49764903715E+03 0.  0.
        3    1    3    3  502    0 -0.16509348428E+03  0.14797630677E+03 -0.13005175668E+03  0.25703368560E+03  0.10100000352E+00 0. -1.
       -3    1    3    3    0  502  0.16509348428E+03 -0.14797630677E+03 -0.49154844305E+03  0.53923346334E+03  0.10100000352E+00 0.  1.
</event>
<event>
 5   0  0.1413361E-01  0.4975507E+03  0.7818609E-02  0.1014420E+00
       -1   -1    0    0    0  501  0.00000000000E+00  0.00000000000E+00  0.51909651604E+03  0.51909651607E+03  0.50400001928E-02 0. -1.
        1   -1    0    0  501    0  0.00000000000E+00  0.00000000000E+00 -0.11922480392E+03  0.11922480403E+03  0.50400001928E-02 0.  1.
    10030    2    1    2    0    0  0.00000000000E+00  0.00000000000E+00  0.39987171212E+03  0.63832132010E+03  0.49755072258E+03 0.  0.
        3    1    3    3  502    0  0.10846219949E+03  0.22374074717E+03  0.18957670463E+03  0.31267124557E+03  0.10100000352E+00 0.  1.
       -3    1    3    3    0  502 -0.10846219949E+03 -0.22374074717E+03  0.21029500749E+03  0.32565007453E+03  0.10100000352E+00 0. -1.
</event>
<event>
 5   0  0.1453602E-01  0.4724338E+03  0.7818609E-02  0.1021236E+00
        1   -1    0    0  501    0  0.00000000000E+00  0.00000000000E+00  0.57286630635E+03  0.57286630637E+03  0.50400001928E-02 0.  1.
       -1   -1    0    0    0  501  0.00000000000E+00  0.00000000000E+00 -0.97402181710E+02  0.97402181840E+02  0.50400001928E-02 0. -1.
    10030    2    1    2    0    0  0.00000000000E+00  0.00000000000E+00  0.47546412464E+03  0.67026848821E+03  0.47243381809E+03 0.  0.
        2    1    3    3  502    0  0.26106799227E+02 -0.17966446172E+03  0.23328238871E+02  0.18304395786E+03  0.25500000920E-02 0. -1.
       -2    1    3    3    0  502 -0.26106799227E+02  0.17966446172E+03  0.45213588577E+03  0.48722453036E+03  0.25500000920E-02 0.  1.
</event>
<event>
 5   0  0.1448458E-01  0.4975003E+03  0.7818609E-02  0.1014433E+00
       -1   -1    0    0    0  501  0.00000000000E+00  0.00000000000E+00  0.78289933629E+02  0.78289933791E+02  0.50400001928E-02 0. -1.
        1   -1    0    0  501    0  0.00000000000E+00  0.00000000000E+00 -0.79035248945E+03  0.79035248947E+03  0.50400001928E-02 0.  1.
    10030    2    1    2    0    0  0.00000000000E+00  0.00000000000E+00 -0.71206255582E+03  0.86864242326E+03  0.49750032772E+03 0.  0.
        5    1    3    3  502    0  0.27147794566E+02  0.15898611367E+03 -0.25481002341E+02  0.16335531387E+03  0.46999998093E+01 0. -1.
       -5    1    3    3    0  502 -0.27147794566E+02 -0.15898611367E+03 -0.68658155348E+03  0.70528710939E+03  0.46999998093E+01 0.  1.
</event>
<event>
 5   0  0.2413301E-01  0.4905264E+03  0.7818609E-02  0.1016282E+00
        2   -1    0    0  501    0  0.00000000000E+00  0.00000000000E+00  0.13526636310E+03  0.13526636312E+03  0.25500000920E-02 0. -1.
       -2   -1    0    0    0  501  0.00000000000E+00  0.00000000000E+00 -0.44470808672E+03  0.44470808673E+03  0.25500000920E-02 0.  1.
    10030    2    1    2    0    0  0.00000000000E+00  0.00000000000E+00 -0.30944172363E+03  0.57997444985E+03  0.49052643370E+03 0.  0.
        4    1    3    3  502    0 -0.22311145470E+03  0.10412926289E+02 -0.34927736302E+02  0.22607235549E+03  0.12699999809E+01 0. -1.
       -4    1    3    3    0  502  0.22311145470E+03 -0.10412926289E+02 -0.27451398732E+03  0.35390209436E+03  0.12699999809E+01 0.  1.
</event>
<event>
 5   0  0.2413301E-01  0.4846012E+03  0.7818609E-02  0.1017878E+00
        2   -1    0    0  501    0  0.00000000000E+00  0.00000000000E+00  0.49835543405E+03  0.49835543405E+03  0.25500000920E-02 0. -1.
       -2   -1    0    0    0  501  0.00000000000E+00  0.00000000000E+00 -0.11780663029E+03  0.11780663032E+03  0.25500000920E-02 0.  1.
    10030    2    1    2    0    0  0.00000000000E+00  0.00000000000E+00  0.38054880375E+03  0.61616206437E+03  0.48460117369E+03 0.  0.
        4    1    3    3  502    0 -0.16673627251E+03  0.17579764250E+03  0.19214560239E+03  0.30923670723E+03  0.12699999809E+01 0.  1.
       -4    1    3    3    0  502  0.16673627251E+03 -0.17579764250E+03  0.18840320136E+03  0.30692535715E+03  0.12699999809E+01 0. -1.
</event>
<event>
 5   0  0.2466034E-01  0.4973545E+03  0.7818609E-02  0.1014472E+00
       -2   -1    0    0    0  501  0.00000000000E+00  0.00000000000E+00  0.69604330750E+02  0.69604330797E+02  0.25500000920E-02 0.  1.
        2   -1    0    0  501    0  0.00000000000E+00  0.00000000000E+00 -0.88845582518E+03  0.88845582519E+03  0.25500000920E-02 0. -1.
    10030    2    1    2    0    0  0.00000000000E+00  0.00000000000E+00 -0.81885149443E+03  0.95806015598E+03  0.49735449385E+03 0.  0.
        3    1    3    3  502    0  0.34029248688E+02 -0.14327473921E+03 -0.79543262766E+03  0.80894914303E+03  0.10100000352E+00 0. -1.
       -3    1    3    3    0  502 -0.34029248688E+02  0.14327473921E+03 -0.23418866771E+02  0.14911101295E+03  0.10100000352E+00 0.  1.
</event>
<event>
 5   0  0.9868500E-02  0.4989156E+03  0.7818609E-02  0.1014062E+00
        3   -1    0    0  501    0  0.00000000000E+00  0.00000000000E+00  0.22553480753E+03  0.22553483015E+03  0.10100000352E+00 0. -1.
       -3   -1    0    0    0  501  0.00000000000E+00  0.00000000000E+00 -0.27591826276E+03  0.27591828125E+03  0.10100000352E+00 0.  1.
    10030    2    1    2    0    0  0.00000000000E+00  0.00000000000E+00 -0.50383455229E+02  0.50145311140E+03  0.49891555435E+03 0.  0.
        5    1    3    3  502    0  0.73623642078E+02  0.18020686117E+03  0.13152482602E+03  0.23498047439E+03  0.46999998093E+01 0. -1.
       -5    1    3    3    0  502 -0.73623642078E+02 -0.18020686117E+03 -0.18190828125E+03  0.26647263701E+03  0.46999998093E+01 0.  1.
</event>
<event>
 5   0  0.1439814E-01  0.4871854E+03  0.7818609E-02  0.1017179E+00
        1   -1    0    0  501    0  0.00000000000E+00  0.00000000000E+00  0.13879335717E+03  0.13879335726E+03  0.50400001928E-02 0. -1.
       -1   -1    0    0    0  501  0.00000000000E+00  0.00000000000E+00 -0.42752331071E+03  0.42752331074E+03  0.50400001928E-02 0.  1.
    10030    2    1    2    0    0  0.00000000000E+00  0.00000000000E+00 -0.28872995354E+03  0.56631666801E+03  0.48718536759E+03 0.  0.
        4    1    3    3  502    0 -0.16508885299E+03 -0.14601374038E+03 -0.23778023814E+02  0.22167848131E+03  0.12699999809E+01 0.  1.
       -4    1    3    3    0  502  0.16508885299E+03  0.14601374038E+03 -0.26495192973E+03  0.34463818669E+03  0.12699999809E+01 0. -1.
</event>
<event>
 5   0  0.2413301E-01  0.4975658E+03  0.7818609E-02  0.1014416E+00
       -2   -1    0    0    0  501  0.00000000000E+00  0.00000000000E+00  0.53463552012E+02  0.53463552073E+02  0.25500000920E-02 0.  1.
        2   -1    0    0  501    0  0.00000000000E+00  0.00000000000E+00 -0.11576660493E+04  0.11576660493E+04  0.25500000920E-02 0. -1.
    10030    2    1    2    0    0  0.00000000000E+00  0.00000000000E+00 -0.11042024973E+04  0.12111296014E+04  0.49756583113E+03 0.  0.
        4    1    3    3  502    0 -0.95889066203E+02  0.22572143512E+03 -0.45037857625E+03  0.51282292668E+03  0.12699999809E+01 0.  1.
       -4    1    3    3    0  502  0.95889066203E+02 -0.22572143512E+03 -0.65382392104E+03  0.69830667469E+03  0.12699999809E+01 0. -1.
</event>
<event>
 5   0  0.1439814E-01  0.4970524E+03  0.7818609E-02  0.1014551E+00
       -1   -1    0    0    0  501  0.00000000000E+00  0.00000000000E+00  0.36207217746E+03  0.36207217750E+03  0.50400001928E-02 0.  1.
        1   -1    0    0  501    0  0.00000000000E+00  0.00000000000E+00 -0.17058831718E+03  0.17058831726E+03  0.50400001928E-02 0. -1.
    10030    2    1    2    0    0  0.00000000000E+00  0.00000000000E+00  0.19148386028E+03  0.53266049476E+03  0.49705244585E+03 0.  0.
        4    1    3    3  502    0 -0.11537348027E+03 -0.12599604419E+03 -0.97681018411E+02  0.19679745262E+03  0.12699999809E+01 0. -1.
       -4    1    3    3    0  502  0.11537348027E+03  0.12599604419E+03  0.28916487869E+03  0.33586304213E+03  0.12699999809E+01 0.  1.
</event>
<event>
 5   0  0.2511944E-01  0.4321167E+03  0.7818609E-02  0.1033193E+00
       -2   -1    0    0    0  501  0.00000000000E+00  0.00000000000E+00  0.16185117844E+03  0.16185117846E+03  0.25500000920E-02 0.  1.
        2   -1    0    0  501    0  0.00000000000E+00  0.00000000000E+00 -0.28842055787E+03  0.28842055788E+03  0.25500000920E-02 0. -1.
    10030    2    1    2    0    0  0.00000000000E+00  0.00000000000E+00 -0.12656937944E+03  0.45027173634E+03  0.43211668417E+03 0.  0.
        1    1    3    3  502    0 -0.11065122609E+02  0.75238800063E+02 -0.27401359951E+03  0.28437082606E+03  0.50400001928E-02 0. -1.
       -1    1    3    3    0  502  0.11065122609E+02 -0.75238800063E+02  0.14744422007E+03  0.16590091028E+03  0.50400001928E-02 0.  1.
</event>
<event>
 5   0  0.2504064E-01  0.4931204E+03  0.7818609E-02  0.1015590E+00
       -2   -1    0    0    0  501  0.00000000000E+00  0.00000000000E+00  0.51663138304E+03  0.51663138304E+03  0.25500000920E-02 0.  1.
        2   -1    0    0  501    0  0.00000000000E+00  0.00000000000E+00 -0.11766985448E+03  0.11766985451E+03  0.25500000920E-02 0. -1.
    10030    2    1    2    0    0  0.00000000000E+00  0.00000000000E+00  0.39896152855E+03  0.63430123755E+03  0.49312043022E+03 0.  0.
        5    1    3    3  502    0  0.31110339604E+02 -0.97730721166E+02  0.48782656561E+03  0.49851378637E+03  0.46999998093E+01 0.  1.
       -5    1    3    3    0  502 -0.31110339604E+02  0.97730721166E+02 -0.88865037056E+02  0.13578745118E+03  0.46999998093E+01 0. -1.
</event>
<event>
 5   0  0.1439814E-01  0.4743269E+03  0.7818609E-02  0.1020706E+00
        1   -1    0    0  501    0  0.00000000000E+00  0.00000000000E+00  0.11410567922E+03  0.11410567934E+03  0.50400001928E-02 0. -1.
       -1   -1    0    0    0  501  0.00000000000E+00  0.00000000000E+00 -0.49293337294E+03  0.49293337297E+03  0.50400001928E-02 0.  1.
    10030    2    1    2    0    0  0.00000000000E+00  0.00000000000E+00 -0.37882769372E+03  0.60703905230E+03  0.47432688042E+03 0.  0.
        4    1    3    3  502    0 -0.16338983282E+03  0.16298315165E+03 -0.25933703055E+03  0.34715566177E+03  0.12699999809E+01 0. -1.
       -4    1    3    3    0  502  0.16338983282E+03 -0.16298315165E+03 -0.11949066317E+03  0.25988339053E+03  0.12699999809E+01 0.  1.
</event>
<event>
 5   0  0.1439814E-01  0.5039866E+03  0.7818609E-02  0.1012744E+00
        1   -1    0    0  501    0  0.00000000000E+00  0.00000000000E+00  0.28529013650E+03  0.28529013655E+03  0.50400001928E-02 0.  1.
       -1   -1    0    0    0  501  0.00000000000E+00  0.00000000000E+00 -0.22258261644E+03  0.22258261650E+03  0.50400001928E-02 0. -1.
    10030    2    1    2    0    0  0.00000000000E+00  0.00000000000E+00  0.62707520061E+02  0.50787275304E+03  0.50398660717E+03 0.  0.
        4    1    3    3  502    0  0.76575586962E+02 -0.22920115828E+03 -0.40625441623E+02  0.24504903771E+03  0.12699999809E+01 0.  1.
       -4    1    3    3    0  502 -0.76575586962E+02  0.22920115828E+03  0.10333296168E+03  0.26282371534E+03  0.12699999809E+01 0. -1.
</event>
<event>
 5   0  0.1439814E-01  0.4984853E+03  0.7818609E-02  0.1014175E+00
        1   -1    0    0  501    0  0.00000000000E+00  0.00000000000E+00  0.22965729281E+03  0.22965729287E+03  0.50400001928E-02 0. -1.
       -1   -1    0    0    0  501  0.00000000000E+00  0.00000000000E+00 -0.27049824545E+03  0.27049824550E+03  0.50400001928E-02 0.  1.
    10030    2    1    2    0    0  0.00000000000E+00  0.00000000000E+00 -0.40840952642E+02  0.50015553836E+03  0.49848528478E+03 0.  0.
        4    1    3    3  502    0  0.13026315030E+03  0.38496579298E+01  0.19274602560E+03  0.23267133790E+03  0.12699999809E+01 0. -1.
       -4    1    3    3    0  502 -0.13026315030E+03 -0.38496579298E+01 -0.23358697824E+03  0.26748420047E+03  0.12699999809E+01 0.  1.
</event>
<event>
 5   0  0.2413301E-01  0.5107265E+03  0.7818609E-02  0.1011016E+00
        2   -1    0    0  501    0  0.00000000000E+00  0.00000000000E+00  0.13282369173E+04  0.13282369173E+04  0.25500000920E-02 0. -1.
       -2   -1    0    0    0  501  0.00000000000E+00  0.00000000000E+00 -0.49095454821E+02  0.49095454887E+02  0.25500000920E-02 0.  1.
    10030    2    1    2    0    0  0.00000000000E+00  0.00000000000E+00  0.12791414625E+04  0.13773323722E+04  0.51072652414E+03 0.  0.
        4    1    3    3  502    0  0.51228281425E+02 -0.24812992670E+03  0.55361119379E+03  0.60883475929E+03  0.12699999809E+01 0.  1.
       -4    1    3    3    0  502 -0.51228281425E+02  0.24812992670E+03  0.72553026873E+03  0.76849761293E+03  0.12699999809E+01 0. -1.
</event>
<event>
 5   0  0.1529146E-01  0.4983683E+03  0.7818609E-02  0.1014206E+00
        1   -1    0    0  501    0  0.00000000000E+00  0.00000000000E+00  0.12739140256E+03  0.12739140266E+03  0.50400001928E-02 0. -1.
       -1   -1    0    0    0  501  0.00000000000E+00  0.00000000000E+00 -0.48741704284E+03  0.48741704287E+03  0.50400001928E-02 0.  1.
    10030    2    1    2    0    0  0.00000000000E+00  0.00000000000E+00 -0.36002564029E+03  0.61480844553E+03  0.49836830058E+03 0.  0.
        1    1    3    3  502    0  0.51151043251E+02 -0.23472958207E+03 -0.98383928728E+02  0.25960316520E+03  0.50400001928E-02 0. -1.
       -1    1    3    3    0  502 -0.51151043251E+02  0.23472958207E+03 -0.26164171156E+03  0.35520528033E+03  0.50400001928E-02 0.  1.
</event>
<event>
 5   0  0.2511944E-01  0.4995876E+03  0.7818609E-02  0.1013887E+00
       -2   -1    0    0    0  501  0.00000000000E+00  0.00000000000E+00  0.13178311673E+03  0.13178311675E+03  0.25500000920E-02 0. -1.
        2   -1    0    0  501    0  0.00000000000E+00  0.00000000000E+00 -0.47348207412E+03  0.47348207413E+03  0.25500000920E-02 0.  1.
    10030    2    1    2    0    0  0.00000000000E+00  0.00000000000E+00 -0.34169895739E+03  0.60526519088E+03  0.49958760374E+03 0.  0.
        1    1    3    3  502    0  0.17046289338E+03 -0.17989653960E+03 -0.20871012794E+03  0.32400660566E+03  0.50400001928E-02 0.  1.
       -1    1    3    3    0  502 -0.17046289338E+03  0.17989653960E+03 -0.13298882945E+03  0.28125858522E+03  0.50400001928E-02 0. -1.
</event>
<event>
 5   0  0.1448458E-01  0.4865178E+03  0.7818609E-02  0.1017359E+00
        1   -1    0    0  501    0  0.00000000000E+00  0.00000000000E+00  0.18249729837E+03  0.18249729843E+03  0.50400001928E-02 0.  1.
       -1   -1    0    0    0  501  0.00000000000E+00  0.00000000000E+00 -0.32425075562E+03  0.32425075566E+03  0.50400001928E-02 0. -1.
    10030    2    1    2    0    0  0.00000000000E+00  0.00000000000E+00 -0.14175345725E+03  0.50674805409E+03  0.48651777736E+03 0.  0.
        5    1    3    3  502    0 -0.24238513207E+03 -0.18760432884E+02 -0.78263213135E+02  0.25544026037E+03  0.46999998093E+01 0.  1.
       -5    1    3    3    0  502  0.24238513207E+03  0.18760432884E+02 -0.63490244119E+02  0.25130779372E+03  0.46999998093E+01 0. -1.
</event>
<event>
 5   0  0.1448458E-01  0.4978387E+03  0.7818609E-02  0.1014345E+00
        1   -1    0    0  501    0  0.00000000000E+00  0.00000000000E+00  0.11830669344E+03  0.11830669355E+03  0.50400001928E-02 0. -1.
       -1   -1    0    0    0  501  0.00000000000E+00  0.00000000000E+00 -0.52373059828E+03  0.52373059830E+03  0.50400001928E-02 0.  1.
    10030    2    1    2    0    0  0.00000000000E+00  0.00000000000E+00 -0.40542390484E+03  0.64203729185E+03  0.49783867016E+03 0.  0.
        5    1    3    3  502    0 -0.12784219689E+03  0.18549812396E+02 -0.47704986197E+03  0.49425335978E+03  0.46999998093E+01 0.  1.
       -5    1    3    3    0  502  0.12784219689E+03 -0.18549812396E+02  0.71625957132E+02  0.14778393207E+03  0.46999998093E+01 0. -1.
</event>
<event>
 5   0  0.2466034E-01  0.5012891E+03  0.7818609E-02  0.1013443E+00
       -2   -1    0    0    0  501  0.00000000000E+00  0.00000000000E+00  0.87967246024E+02  0.87967246061E+02  0.25500000920E-02 0. -1.
        2   -1    0    0  501    0  0.00000000000E+00  0.00000000000E+00 -0.71415989984E+03  0.71415989985E+03  0.25500000920E-02 0.  1.
    10030    2    1    2    0    0  0.00000000000E+00  0.00000000000E+00 -0.62619265382E+03  0.80212714591E+03  0.50128905684E+03 0.  0.
        3    1    3    3  502    0 -0.23705762114E+03  0.77532704160E+02 -0.35277931492E+03  0.43204269602E+03  0.10100000352E+00 0.  1.
       -3    1    3    3    0  502  0.23705762114E+03 -0.77532704160E+02 -0.27341333890E+03  0.37008444988E+03  0.10100000352E+00 0. -1.
</event>
<event>
 5   0  0.1529146E-01  0.4667647E+03  0.7818609E-02  0.1022837E+00
        1   -1    0    0  501    0  0.00000000000E+00  0.00000000000E+00  0.10408957107E+04  0.10408957107E+04  0.50400001928E-02 0.  1.
       -1   -1    0    0    0  501  0.00000000000E+00  0.00000000000E+00 -0.52327350429E+02  0.52327350672E+02  0.50400001928E-02 0. -1.
    10030    2    1    2    0    0  0.00000000000E+00  0.00000000000E+00  0.98856836031E+03  0.10932230614E+04  0.46676467199E+03 0.  0.
        1    1    3    3  502    0 -0.61272921415E+02 -0.10575499836E+03  0.95994291536E+03  0.96769256034E+03  0.50400001928E-02 0.  1.
       -1    1    3    3    0  502  0.61272921415E+02  0.10575499836E+03  0.28625444949E+02  0.12553050107E+03  0.50400001928E-02 0. -1.
</event>
<event>
 5   0  0.1448458E-01  0.5035569E+03  0.7818609E-02  0.1012855E+00
       -1   -1    0    0    0  501  0.00000000000E+00  0.00000000000E+00  0.17338446161E+03  0.17338446169E+03  0.50400001928E-02 0.  1.
        1   -1    0    0  501    0  0.00000000000E+00  0.00000000000E+00 -0.36561744318E+03  0.36561744322E+03  0.50400001928E-02 0. -1.
    10030    2    1    2    0    0  0.00000000000E+00  0.00000000000E+00 -0.19223298157E+03  0.53900190490E+03  0.50355688287E+03 0.  0.
        5    1    3    3  502    0 -0.14943379155E+03 -0.39261806294E+02 -0.30884770500E+03  0.34537073178E+03  0.46999998093E+01 0. -1.
       -5    1    3    3    0  502  0.14943379155E+03  0.39261806294E+02  0.11661472342E+03  0.19363117313E+03  0.46999998093E+01 0.  1.
</event>
<event>
 5   0  0.1448458E-01  0.5058022E+03  0.7818609E-02  0.1012275E+00
       -1   -1    0    0    0  501  0.00000000000E+00  0.00000000000E+00  0.86891101575E+03  0.86891101577E+03  0.50400001928E-02 0. -1.
        1   -1    0    0  501    0  0.00000000000E+00  0.00000000000E+00 -0.73608185248E+02  0.73608185420E+02  0.50400001928E-02 0.  1.
    10030    2    1    2    0    0  0.00000000000E+00  0.00000000000E+00  0.79530283051E+03  0.94251920119E+03  0.50580218702E+03 0.  0.
        5    1    3    3  502    0 -0.19874825063E+02 -0.93391025063E+02 -0.38642286327E+02  0.10311260119E+03  0.46999998093E+01 0.  1.
       -5    1    3    3    0  502  0.19874825063E+02  0.93391025063E+02  0.83394511683E+03  0.83940660000E+03  0.46999998093E+01 0. -1.
</event>
<event>
 5   0  0.9868500E-02  0.4913402E+03  0.7818609E-02  0.1016064E+00
        3   -1    0    0  501    0  0.00000000000E+00  0.00000000000E+00  0.33149035769E+03  0.33149037308E+03  0.10100000352E+00 0.  1.
       -3   -1    0    0    0  501  0.00000000000E+00  0.00000000000E+00 -0.18206797073E+03  0.18206799875E+03  0.10100000352E+00 0. -1.
    10030    2    1    2    0    0  0.00000000000E+00  0.00000000000E+00  0.14942238696E+03  0.51355837182E+03  0.49134015869E+03 0.  0.
        3    1    3    3  502    0  0.46912114012E+02  0.23871190998E+03  0.38964449187E+02  0.24637849117E+03  0.10100000352E+00 0. -1.
       -3    1    3    3    0  502 -0.46912114012E+02 -0.23871190998E+03  0.11045793777E+03  0.26717988065E+03  0.10100000352E+00 0.  1.
</event>
<event>
 5   0  0.2504064E-01  0.5100296E+03  0.7818609E-02  0.1011194E+00
       -2   -1    0    0    0  501  0.00000000000E+00  0.00000000000E+00  0.57100049514E+02  0.57100049571E+02  0.25500000920E-02 0.  1.
        2   -1    0    0  501    0  0.00000000000E+00  0.00000000000E+00 -0.11389227993E+04  0.11389227993E+04  0.25500000920E-02 0. -1.
    10030    2    1    2    0    0  0.00000000000E+00  0.00000000000E+00 -0.10818227497E+04  0.11960228488E+04  0.51002960018E+03 0.  0.
        5    1    3    3  502    0 -0.13587237611E+03  0.12081141738E+03 -0.96009572442E+03  0.97717070731E+03  0.46999998093E+01 0. -1.
       -5    1    3    3    0  502  0.13587237611E+03 -0.12081141738E+03 -0.12172702532E+03  0.21885214153E+03  0.46999998093E+01 0.  1.
</event>
<event>
 5   0  0.1529146E-01  0.4937441E+03  0.7818609E-02  0.1015425E+00
       -1   -1    0    0    0  501  0.00000000000E+00  0.00000000000E+00  0.93576466083E+02  0.93576466219E+02  0.50400001928E-02 0. -1.
        1   -1    0    0  501    0  0.00000000000E+00  0.00000000000E+00 -0.65129424909E+03  0.65129424911E+03  0.50400001928E-02 0.  1.
    10030    2    1    2    0    0  0.00000000000E+00  0.00000000000E+00 -0.55771778301E+03  0.74487071533E+03  0.49374412105E+03 0.  0.
        1    1    3    3  502    0  0.63117411219E+02  0.17586695962E+03 -0.52226953441E+03  0.55468771546E+03  0.50400001928E-02 0.  1.
       -1    1    3    3    0  502 -0.63117411219E+02 -0.17586695962E+03 -0.35448248598E+02  0.19018299987E+03  0.50400001928E-02 0. -1.
</event>
<event>
 5   0  0.1448458E-01  0.4897442E+03  0.7818609E-02  0.1016491E+00
        1   -1    0    0  501    0  0.00000000000E+00  0.00000000000E+00  0.11465343121E+04  0.11465343121E+04  0.50400001928E-02 0. -1.
       -1   -1    0    0    0  501  0.00000000000E+00  0.00000000000E+00 -0.52298782501E+02  0.52298782744E+02  0.50400001928E-02 0.  1.
    10030    2    1    2    0    0  0.00000000000E+00  0.00000000000E+00  0.10942355296E+04  0.11988330949E+04  0.48974421394E+03 0.  0.
        5    1    3    3  502    0  0.15793627511E+03 -0.90514166402E+02  0.94787907822E+03  0.96521164427E+03  0.46999998093E+01 0. -1.
       -5    1    3    3    0  502 -0.15793627511E+03  0.90514166402E+02  0.14635645138E+03  0.23362145058E+03  0.46999998093E+01 0.  1.
</event>
<event>
 5   0  0.1529146E-01  0.5299370E+03  0.7818609E-02  0.1006247E+00
        1   -1    0    0  501    0  0.00000000000E+00  0.00000000000E+00  0.42232361150E+03  0.42232361153E+03  0.50400001928E-02 0. -1.
       -1   -1    0    0    0  501  0.00000000000E+00  0.00000000000E+00 -0.16624289298E+03  0.16624289306E+03  0.50400001928E-02 0.  1.
    10030    2    1    2    0    0  0.00000000000E+00  0.00000000000E+00  0.25608071852E+03  0.58856650458E+03  0.52993697354E+03 0.  0.
        1    1    3    3  502    0  0.12112270868E+03  0.14552118220E+03 -0.77835449357E+02  0.20470828568E+03  0.50400001928E-02 0.  1.
       -1    1    3    3    0  502 -0.12112270868E+03 -0.14552118220E+03  0.33391616787E+03  0.38385821890E+03  0.50400001928E-02 0. -1.
</event>
<event>
 5   0  0.2413301E-01  0.4364555E+03  0.7818609E-02  0.1031840E+00
        2   -1    0    0  501    0  0.00000000000E+00  0.00000000000E+00  0.44381329538E+03  0.44381329539E+03  0.25500000920E-02 0. -1.
       -2   -1    0    0    0  501  0.00000000000E+00  0.00000000000E+00 -0.10730493580E+03  0.10730493583E+03  0.25500000920E-02 0.  1.
    10030    2    1    2    0    0  0.00000000000E+00  0.00000000000E+00  0.33650835958E+03  0.55111823121E+03  0.43645552890E+03 0.  0.
        4    1    3    3  502    0 -0.26428668472E+01  0.10709413725E+03  0.40832121524E+03  0.42214211670E+03  0.12699999809E+01 0. -1.
       -4    1    3    3    0  502  0.26428668472E+01 -0.10709413725E+03 -0.71812855656E+02  0.12897611452E+03  0.12699999809E+01 0.  1.
</event>
<event>
 5   0  0.1453602E-01  0.5127497E+03  0.7818609E-02  0.1010504E+00
        1   -1    0    0  501    0  0.00000000000E+00  0.00000000000E+00  0.12267582437E+04  0.12267582437E+04  0.50400001928E-02 0.  1.
       -1   -1    0    0    0  501  0.00000000000E+00  0.00000000000E+00 -0.53578669934E+02  0.53578670171E+02  0.50400001928E-02 0. -1.
    10030    2    1    2    0    0  0.00000000000E+00  0.00000000000E+00  0.11731795737E+04  0.12803369138E+04  0.51274974475E+03 0.  0.
        2    1    3    3  502    0  0.25138993411E+03 -0.42529891016E+02  0.65370222952E+03  0.70166394769E+03  0.25500000920E-02 0.  1.
       -2    1    3    3    0  502 -0.25138993411E+03  0.42529891016E+02  0.51947734421E+03  0.57867296616E+03  0.25500000920E-02 0. -1.
</event>
<event>
 5   0  0.1448458E-01  0.4980869E+03  0.7818609E-02  0.1014279E+00
       -1   -1    0    0    0  501  0.00000000000E+00  0.00000000000E+00  0.32465379898E+03  0.32465379902E+03  0.50400001928E-02 0.  1.
        1   -1    0    0  501    0  0.00000000000E+00  0.00000000000E+00 -0.19104237108E+03  0.19104237115E+03  0.50400001928E-02 0. -1.
    10030    2    1    2    0    0  0.00000000000E+00  0.00000000000E+00  0.13361142790E+03  0.51569617017E+03  0.49808686618E+03 0.  0.
        5    1    3    3  502    0 -0.50065776782E+02 -0.41910688573E+02 -0.18197552689E+03  0.19339149466E+03  0.46999998093E+01 0. -1.
       -5    1    3    3    0  502  0.50065776782E+02  0.41910688573E+02  0.31558695479E+03  0.32230467551E+03  0.46999998093E+01 0.  1.
</event>
<event>
 5   0  0.2511944E-01  0.5006960E+03  0.7818609E-02  0.1013597E+00
        2   -1    0    0  501    0  0.00000000000E+00  0.00000000000E+00  0.24109357618E+04  0.24109357618E+04  0.25500000920E-02 0. -1.
       -2   -1    0    0    0  501  0.00000000000E+00  0.00000000000E+00 -0.25995770215E+02  0.25995770340E+02  0.25500000920E-02 0.  1.
    10030    2    1    2    0    0  0.00000000000E+00  0.00000000000E+00  0.23849399916E+04  0.24369315322E+04  0.50069604441E+03 0.  0.
        1    1    3    3  502    0  0.96186543869E+02 -0.21352780350E+03  0.16230947202E+04  0.16399031816E+04  0.50400001928E-02 0.  1.
       -1    1    3    3    0  502 -0.96186543869E+02  0.21352780350E+03  0.76184527139E+03  0.79702835060E+03  0.50400001928E-02 0. -1.
</event>
<event>
 5   0  0.2413301E-01  0.5074492E+03  0.7818609E-02  0.1011853E+00
       -2   -1    0    0    0  501  0.00000000000E+00  0.00000000000E+00  0.30923068442E+03  0.30923068443E+03  0.25500000920E-02 0. -1.
        2   -1    0    0  501    0  0.00000000000E+00  0.00000000000E+00 -0.20818175038E+03  0.20818175039E+03  0.25500000920E-02 0.  1.
    10030    2    1    2    0    0  0.00000000000E+00  0.00000000000E+00  0.10104893404E+03  0.51741243483E+03  0.50744924933E+03 0.  0.
        4    1    3    3  502    0  0.65273475170E+02 -0.20511506305E+03  0.18748128504E+03  0.28545343016E+03  0.12699999809E+01 0. -1.
       -4    1    3    3    0  502 -0.65273475170E+02  0.20511506305E+03 -0.86432350992E+02  0.23195900467E+03  0.12699999809E+01 0.  1.
</event>
<event>
 5   0  0.2413301E-01  0.4972256E+03  0.7818609E-02  0.1014506E+00
       -2   -1    0    0    0  501  0.00000000000E+00  0.00000000000E+00  0.84875655974E+02  0.84875656012E+02  0.25500000920E-02 0.  1.
        2   -1    0    0  501    0  0.00000000000E+00  0.00000000000E+00 -0.72822213984E+03  0.72822213984E+03  0.25500000920E-02 0. -1.
    10030    2    1    2    0    0  0.00000000000E+00  0.00000000000E+00 -0.64334648387E+03  0.81309779586E+03  0.49722563020E+03 0.  0.
        4    1    3    3  502    0  0.12154911129E+03  0.19625196129E+03 -0.47259451189E+03  0.52596217007E+03  0.12699999809E+01 0. -1.
       -4    1    3    3    0  502 -0.12154911129E+03 -0.19625196129E+03 -0.17075197197E+03  0.28713562579E+03  0.12699999809E+01 0.  1.
</event>
<event>
 5   0  0.2413301E-01  0.4981981E+03  0.7818609E-02  0.1014250E+00
       -2   -1    0    0    0  501  0.00000000000E+00  0.00000000000E+00  0.77508036496E+02  0.77508036538E+02  0.25500000920E-02 0. -1.
        2   -1    0    0  501    0  0.00000000000E+00  0.00000000000E+00 -0.80056661823E+03  0.80056661823E+03  0.25500000920E-02 0.  1.
    10030    2    1    2    0    0  0.00000000000E+00  0.00000000000E+00 -0.72305858173E+03  0.87807465477E+03  0.49819814003E+03 0.  0.
        4    1    3    3  502    0 -0.19470916932E+02 -0.15242312028E+02  0.75333807890E+02  0.79298424911E+02  0.12699999809E+01 0. -1.
       -4    1    3    3    0  502  0.19470916932E+02  0.15242312028E+02 -0.79839238962E+03  0.79877622986E+03  0.12699999809E+01 0.  1.
</event>
<event>
 5   0  0.2466034E-01  0.5190161E+03  0.7818609E-02  0.1008931E+00
       -2   -1    0    0    0  501  0.00000000000E+00  0.00000000000E+00  0.39138178338E+02  0.39138178421E+02  0.25500000920E-02 0. -1.
        2   -1    0    0  501    0  0.00000000000E+00  0.00000000000E+00 -0.17206835804E+04  0.17206835804E+04  0.25500000920E-02 0.  1.
    10030    2    1    2    0    0  0.00000000000E+00  0.00000000000E+00 -0.16815454021E+04  0.17598217588E+04  0.51901607261E+03 0.  0.
        3    1    3    3  502    0 -0.58836419799E+01  0.22768750978E+03 -0.41906877519E+03  0.47696422077E+03  0.10100000352E+00 0. -1.
       -3    1    3    3    0  502  0.58836419799E+01 -0.22768750978E+03 -0.12624766269E+04  0.12828575381E+04  0.10100000352E+00 0.  1.
</event>
<event>
 5   0  0.1413361E-01  0.4992818E+03  0.7818609E-02  0.1013967E+00
       -1   -1    0    0    0  501  0.00000000000E+00  0.00000000000E+00  0.12528252675E+04  0.12528252675E+04  0.50400001928E-02 0. -1.
        1   -1    0    0  501    0  0.00000000000E+00  0.00000000000E+00 -0.49744039224E+02  0.49744039479E+02  0.50400001928E-02 0.  1.
    10030    2    1    2    0    0  0.00000000000E+00  0.00000000000E+00  0.12030812283E+04  0.13025693070E+04  0.49928184193E+03 0.  0.
        3    1    3    3  502    0  0.22236944641E+03 -0.11297089802E+03  0.57418028941E+03  0.62601406489E+03  0.10100000352E+00 0. -1.
       -3    1    3    3    0  502 -0.22236944641E+03  0.11297089802E+03  0.62890093885E+03  0.67655524208E+03  0.10100000352E+00 0.  1.
</event>
<event>
 5   0  0.1439814E-01  0.4614930E+03  0.7818609E-02  0.1024349E+00
       -1   -1    0    0    0  501  0.00000000000E+00  0.00000000000E+00  0.69473600256E+02  0.69473600439E+02  0.50400001928E-02 0.  1.
        1   -1    0    0  501    0  0.00000000000E+00  0.00000000000E+00 -0.76639100938E+03  0.76639100940E+03  0.50400001928E-02 0. -1.
    10030    2    1    2    0    0  0.00000000000E+00  0.00000000000E+00 -0.69691740913E+03  0.83586460984E+03  0.46149298027E+03 0.  0.
        4    1    3    3  502    0  0.22843864300E+02 -0.21805369542E+03 -0.47872893054E+03  0.52654748889E+03  0.12699999809E+01 0. -1.
       -4    1    3    3    0  502 -0.22843864300E+02  0.21805369542E+03 -0.21818847859E+03  0.30931712095E+03  0.12699999809E+01 0.  1.
</event>
<event>
 5   0  0.2466034E-01  0.4958774E+03  0.7818609E-02  0.1014861E+00
       -2   -1    0    0    0  501  0.00000000000E+00  0.00000000000E+00  0.14337188749E+03  0.14337188751E+03  0.25500000920E-02 0. -1.
        2   -1    0    0  501    0  0.00000000000E+00  0.00000000000E+00 -0.42877024201E+03  0.42877024202E+03  0.25500000920E-02 0.  1.
    10030    2    1    2    0    0  0.00000000000E+00  0.00000000000E+00 -0.28539835453E+03  0.57214212953E+03  0.49587739978E+03 0.  0.
        3    1    3    3  502    0  0.15421706715E+02 -0.24628593783E+03 -0.17046225305E+03  0.29991995953E+03  0.10100000352E+00 0.  1.
       -3    1    3    3    0  502 -0.15421706715E+02  0.24628593783E+03 -0.11493610148E+03  0.27222216999E+03  0.10100000352E+00 0. -1.
</event>
<event>
 5   0  0.2488968E-01  0.4975406E+03  0.7818609E-02  0.1014423E+00
        2   -1    0    0  501    0  0.00000000000E+00  0.00000000000E+00  0.77467321976E+03  0.77467321977E+03  0.25500000920E-02 0. -1.
       -2   -1    0    0    0  501  0.00000000000E+00  0.00000000000E+00 -0.79887450278E+02  0.79887450319E+02  0.25500000920E-02 0.  1.
    10030    2    1    2    0    0  0.00000000000E+00  0.00000000000E+00  0.69478576948E+03  0.85456067008E+03  0.49754062485E+03 0.  0.
        2    1    3    3  502    0  0.82280724800E+02 -0.23411230433E+03  0.37753511247E+03  0.45178695186E+03  0.25500000920E-02 0. -1.
       -2    1    3    3    0  502 -0.82280724800E+02  0.23411230433E+03  0.31725065701E+03  0.40277371822E+03  0.25500000920E-02 0.  1.
</event>
<event>
 5   0  0.1529146E-01  0.4873962E+03  0.7818609E-02  0.1017122E+00
       -1   -1    0    0    0  501  0.00000000000E+00  0.00000000000E+00  0.47141923098E+02  0.47141923368E+02  0.50400001928E-02 0. -1.
        1   -1    0    0  501    0  0.00000000000E+00  0.00000000000E+00 -0.12597866774E+04  0.12597866774E+04  0.50400001928E-02 0.  1.
    10030    2    1    2    0    0  0.00000000000E+00  0.00000000000E+00 -0.12126447543E+04  0.13069286007E+04  0.48739621191E+03 0.  0.
        1    1    3    3  502    0 -0.17478147296E+03 -0.14964556501E+03 -0.39103001597E+03  0.45370346244E+03  0.50400001928E-02 0. -1.
       -1    1    3    3    0  502  0.17478147296E+03  0.14964556501E+03 -0.82161473828E+03  0.85322513829E+03  0.50400001928E-02 0.  1.
</event>
<event>
 5   0  0.2511944E-01  0.5110774E+03  0.7818609E-02  0.1010927E+00
        2   -1    0    0  501    0  0.00000000000E+00  0.00000000000E+00  0.11927948463E+04  0.11927948463E+04  0.25500000920E-02 0. -1.
       -2   -1    0    0    0  501  0.00000000000E+00  0.00000000000E+00 -0.54745405921E+02  0.54745405981E+02  0.25500000920E-02 0.  1.
    10030    2    1    2    0    0  0.00000000000E+00  0.00000000000E+00  0.11380494404E+04  0.12475402523E+04  0.51107744258E+03 0.  0.
        1    1    3    3  502    0 -0.54349560998E+02 -0.16533640256E+03  0.11228988057E+03  0.20712078142E+03  0.50400001928E-02 0.  1.
       -1    1    3    3    0  502  0.54349560998E+02  0.16533640256E+03  0.10257595598E+04  0.10404194708E+04  0.50400001928E-02 0. -1.
</event>
<event>
 5   0  0.1453602E-01  0.5064659E+03  0.7818609E-02  0.1012105E+00
        1   -1    0    0  501    0  0.00000000000E+00  0.00000000000E+00  0.15375988297E+04  0.15375988297E+04  0.50400001928E-02 0.  1.
       -1   -1    0    0    0  501  0.00000000000E+00  0.00000000000E+00 -0.41705887073E+02  0.41705887377E+02  0.50400001928E-02 0. -1.
    10030    2    1    2    0    0  0.00000000000E+00  0.00000000000E+00  0.14958929426E+04  0.15793047170E+04  0.50646588592E+03 0.  0.
        2    1    3    3  502    0  0.14567469557E+03 -0.65532233192E+02  0.13521084592E+03  0.20927867397E+03  0.25500000920E-02 0. -1.
       -2    1    3    3    0  502 -0.14567469557E+03  0.65532233192E+02  0.13606820967E+04  0.13700260431E+04  0.25500000920E-02 0.  1.
</event>
<event>
 5   0  0.2504064E-01  0.5753110E+03  0.7818609E-02  0.9957994E-01
        2   -1    0    0  501    0  0.00000000000E+00  0.00000000000E+00  0.19679175991E+04  0.19679175991E+04  0.25500000920E-02 0. -1.
       -2   -1    0    0    0  501  0.00000000000E+00  0.00000000000E+00 -0.42047338995E+02  0.42047339072E+02  0.25500000920E-02 0.  1.
    10030    2    1    2    0    0  0.00000000000E+00  0.00000000000E+00  0.19258702601E+04  0.20099649382E+04  0.57531104104E+03 0.  0.
        5    1    3    3  502    0 -0.32986154033E+02  0.77852498481E+02  0.19233822191E+04  0.19252455294E+04  0.46999998093E+01 0. -1.
       -5    1    3    3    0  502  0.32986154033E+02 -0.77852498481E+02  0.24880410504E+01  0.84719408780E+02  0.46999998093E+01 0.  1.
</event>
<event>
 5   0  0.9868500E-02  0.3513284E+03  0.7818609E-02  0.1062071E+00
        4   -1    0    0  501    0  0.00000000000E+00  0.00000000000E+00  0.26399092435E+03  0.26399397917E+03  0.12699999809E+01 0.  1.
       -4   -1    0    0    0  501  0.00000000000E+00  0.00000000000E+00 -0.11688287443E+03  0.11688977386E+03  0.12699999809E+01 0. -1.
    10030    2    1    2    0    0  0.00000000000E+00  0.00000000000E+00  0.14710804992E+03  0.38088375303E+03  0.35132841470E+03 0.  0.
        5    1    3    3  502    0  0.15008481912E+03  0.47133201014E+02  0.15814931305E+03  0.22311496316E+03  0.46999998093E+01 0.  1.
       -5    1    3    3    0  502 -0.15008481912E+03 -0.47133201014E+02 -0.11041263131E+02  0.15776878987E+03  0.46999998093E+01 0. -1.
</event>
<event>
 5   0  0.1529146E-01  0.4956625E+03  0.7818609E-02  0.1014917E+00
        1   -1    0    0  501    0  0.00000000000E+00  0.00000000000E+00  0.93686700569E+03  0.93686700570E+03  0.50400001928E-02 0. -1.
       -1   -1    0    0    0  501  0.00000000000E+00  0.00000000000E+00 -0.65559293870E+02  0.65559294064E+02  0.50400001928E-02 0.  1.
    10030    2    1    2    0    0  0.00000000000E+00  0.00000000000E+00  0.87130771182E+03  0.10024262998E+04  0.49566254426E+03 0.  0.
        1    1    3    3  502    0 -0.80581199864E+02  0.22332672431E+03  0.29190449449E+03  0.37626638103E+03  0.50400001928E-02 0.  1.
       -1    1    3    3    0  502  0.80581199864E+02 -0.22332672431E+03  0.57940321732E+03  0.62615991873E+03  0.50400001928E-02 0. -1.
</event>
<event>
 5   0  0.1448458E-01  0.5057178E+03  0.7818609E-02  0.1012297E+00
        1   -1    0    0  501    0  0.00000000000E+00  0.00000000000E+00  0.94283320434E+03  0.94283320435E+03  0.50400001928E-02 0.  1.
       -1   -1    0    0    0  501  0.00000000000E+00  0.00000000000E+00 -0.67814339264E+02  0.67814339451E+02  0.50400001928E-02 0. -1.
    10030    2    1    2    0    0  0.00000000000E+00  0.00000000000E+00  0.87501886508E+03  0.10106475438E+04  0.50571775088E+03 0.  0.
        5    1    3    3  502    0 -0.23374673598E+03  0.27251877637E+02  0.62213907033E+03  0.66517615279E+03  0.46999998093E+01 0.  1.
       -5    1    3    3    0  502  0.23374673598E+03 -0.27251877637E+02  0.25287979475E+03  0.34547139101E+03  0.46999998093E+01 0. -1.
</event>
<event>
 5   0  0.2511944E-01  0.4956865E+03  0.7818609E-02  0.1014911E+00
       -2   -1    0    0    0  501  0.00000000000E+00  0.00000000000E+00  0.11345405119E+03  0.11345405121E+03  0.25500000920E-02 0.  1.
        2   -1    0    0  501    0  0.00000000000E+00  0.00000000000E+00 -0.54141982379E+03  0.54141982380E+03  0.25500000920E-02 0. -1.
    10030    2    1    2    0    0  0.00000000000E+00  0.00000000000E+00 -0.42796577261E+03  0.65487387502E+03  0.49568648323E+03 0.  0.
        1    1    3    3  502    0 -0.15459719568E+03  0.49319199754E+02 -0.46147680104E+03  0.48917636318E+03  0.50400001928E-02 0. -1.
       -1    1    3    3    0  502  0.15459719568E+03 -0.49319199754E+02  0.33511028430E+02  0.16569751183E+03  0.50400001928E-02 0.  1.
</event>
<event>
 5   0  0.1413361E-01  0.4931901E+03  0.7818609E-02  0.1015572E+00
        1   -1    0    0  501    0  0.00000000000E+00  0.00000000000E+00  0.92402151409E+02  0.92402151546E+02  0.50400001928E-02 0. -1.
       -1   -1    0    0    0  501  0.00000000000E+00  0.00000000000E+00 -0.65809200976E+03  0.65809200978E+03  0.50400001928E-02 0.  1.
    10030    2    1    2    0    0  0.00000000000E+00  0.00000000000E+00 -0.56568985835E+03  0.75049416132E+03  0.49319009554E+03 0.  0.
        3    1    3    3  502    0  0.80463264912E+02 -0.23276335738E+03 -0.26383934890E+03  0.36092150084E+03  0.10100000352E+00 0. -1.
       -3    1    3    3    0  502 -0.80463264912E+02  0.23276335738E+03 -0.30185050945E+03  0.38957266048E+03  0.10100000352E+00 0.  1.
</event>
<event>
 5   0  0.2488968E-01  0.4955213E+03  0.7818609E-02  0.1014955E+00
        2   -1    0    0  501    0  0.00000000000E+00  0.00000000000E+00  0.26871322677E+03  0.26871322679E+03  0.25500000920E-02 0. -1.
       -2   -1    0    0    0  501  0.00000000000E+00  0.00000000000E+00 -0.22844184996E+03  0.22844184997E+03  0.25500000920E-02 0.  1.
    10030    2    1    2    0    0  0.00000000000E+00  0.00000000000E+00  0.40271376818E+02  0.49715507676E+03  0.49552132805E+03 0.  0.
        2    1    3    3  502    0  0.10771926198E+03 -0.41438532378E+02 -0.19982389795E+03  0.23076000860E+03  0.25500000920E-02 0.  1.
       -2    1    3    3    0  502 -0.10771926198E+03  0.41438532378E+02  0.24009527477E+03  0.26639506816E+03  0.25500000920E-02 0. -1.
</event>
<event>
 5   0  0.1439814E-01  0.5088645E+03  0.7818609E-02  0.1011491E+00
       -1   -1    0    0    0  501  0.00000000000E+00  0.00000000000E+00  0.15343354646E+03  0.15343354654E+03  0.50400001928E-02 0. -1.
        1   -1    0    0  501    0  0.00000000000E+00  0.00000000000E+00 -0.42191397950E+03  0.42191397953E+03  0.50400001928E-02 0.  1.
    10030    2    1    2    0    0  0.00000000000E+00  0.00000000000E+00 -0.26848043304E+03  0.57534752607E+03  0.50886445428E+03 0.  0.
        4    1    3    3  502    0 -0.74278115485E+02  0.23553207871E+03 -0.65080417301E+02  0.25540100266E+03  0.12699999809E+01 0. -1.
       -4    1    3    3    0  502  0.74278115485E+02 -0.23553207871E+03 -0.20340001574E+03  0.31994652342E+03  0.12699999809E+01 0.  1.
</event>
<event>
 5   0  0.1413361E-01  0.4954326E+03  0.7818609E-02  0.1014978E+00
        1   -1    0    0  501    0  0.00000000000E+00  0.00000000000E+00  0.58913677052E+03  0.58913677054E+03  0.50400001928E-02 0. -1.
       -1   -1    0    0    0  501  0.00000000000E+00  0.00000000000E+00 -0.10415808301E+03  0.10415808313E+03  0.50400001928E-02 0.  1.
    10030    2    1    2    0    0  0.00000000000E+00  0.00000000000E+00  0.48497868751E+03  0.69329485367E+03  0.49543256533E+03 0.  0.
        3    1    3    3  502    0  0.17132927700E+03 -0.37398168726E+02  0.48732361081E+03  0.51791568430E+03  0.10100000352E+00 0. -1.
       -3    1    3    3    0  502 -0.17132927700E+03  0.37398168726E+02 -0.23449233066E+01  0.17537916937E+03  0.10100000352E+00 0.  1.
</event>
<event>
 5   0  0.2504064E-01  0.4056893E+03  0.7818609E-02  0.1041827E+00
       -2   -1    0    0    0  501  0.00000000000E+00  0.00000000000E+00  0.65940664276E+02  0.65940664325E+02  0.25500000920E-02 0. -1.
        2   -1    0    0  501    0  0.00000000000E+00  0.00000000000E+00 -0.62398464109E+03  0.62398464109E+03  0.25500000920E-02 0.  1.
    10030    2    1    2    0    0  0.00000000000E+00  0.00000000000E+00 -0.55804397681E+03  0.68992530542E+03  0.40568934790E+03 0.  0.
        5    1    3    3  502    0 -0.63705523348E+02 -0.58096547724E+02  0.33126122067E+02  0.92482606602E+02  0.46999998093E+01 0. -1.
       -5    1    3    3    0  502  0.63705523348E+02  0.58096547724E+02 -0.59117009888E+03  0.59744269881E+03  0.46999998093E+01 0.  1.
</event>
<event>
 5   0  0.1448458E-01  0.4954718E+03  0.7818609E-02  0.1014968E+00
       -1   -1    0    0    0  501  0.00000000000E+00  0.00000000000E+00  0.17729989012E+03  0.17729989020E+03  0.50400001928E-02 0. -1.
        1   -1    0    0  501    0  0.00000000000E+00  0.00000000000E+00 -0.34615410679E+03  0.34615410682E+03  0.50400001928E-02 0.  1.
    10030    2    1    2    0    0  0.00000000000E+00  0.00000000000E+00 -0.16885421666E+03  0.52345399702E+03  0.49547183624E+03 0.  0.
        5    1    3    3  502    0 -0.39818404282E+02 -0.17310575244E+03 -0.26680276352E+03  0.32055718907E+03  0.46999998093E+01 0.  1.
       -5    1    3    3    0  502  0.39818404282E+02  0.17310575244E+03  0.97948546856E+02  0.20289680795E+03  0.46999998093E+01 0. -1.
</event>
<event>
 5   0  0.9868500E-02  0.4967534E+03  0.7818609E-02  0.1014630E+00
       -4   -1    0    0    0  501  0.00000000000E+00  0.00000000000E+00  0.12896604964E+03  0.12897230269E+03  0.12699999809E+01 0.  1.
        4   -1    0    0  501    0  0.00000000000E+00  0.00000000000E+00 -0.47833194211E+03  0.47833362807E+03  0.12699999809E+01 0. -1.
    10030    2    1    2    0    0  0.00000000000E+00  0.00000000000E+00 -0.34936589247E+03  0.60730593075E+03  0.49675342647E+03 0.  0.
        5    1    3    3  502    0 -0.16296515748E+03 -0.11355297336E+03  0.75425645679E+01  0.19882379282E+03  0.46999998093E+01 0.  1.
       -5    1    3    3    0  502  0.16296515748E+03  0.11355297336E+03 -0.35690845703E+03  0.40848213794E+03  0.46999998093E+01 0. -1.
</event>
<event>
 5   0  0.2511944E-01  0.5175764E+03  0.7818609E-02  0.1009290E+00
        2   -1    0    0  501    0  0.00000000000E+00  0.00000000000E+00  0.75111861139E+03  0.75111861140E+03  0.25500000920E-02 0.  1.
       -2   -1    0    0    0  501  0.00000000000E+00  0.00000000000E+00 -0.89162133433E+02  0.89162133469E+02  0.25500000920E-02 0. -1.
    10030    2    1    2    0    0  0.00000000000E+00  0.00000000000E+00  0.66195647796E+03  0.84028074487E+03  0.51757642091E+03 0.  0.
        1    1    3    3  502    0  0.33513707393E+02 -0.73130703349E+02  0.73030449414E+03  0.73472166332E+03  0.50400001928E-02 0.  1.
       -1    1    3    3    0  502 -0.33513707393E+02  0.73130703349E+02 -0.68348016185E+02  0.10555908155E+03  0.50400001928E-02 0. -1.
</event>
<event>
 5   0  0.1439814E-01  0.4926876E+03  0.7818609E-02  0.1015705E+00
       -1   -1    0    0    0  501  0.00000000000E+00  0.00000000000E+00  0.15872097344E+03  0.15872097352E+03  0.50400001928E-02 0.  1.
        1   -1    0    0  501    0  0.00000000000E+00  0.00000000000E+00 -0.38233923619E+03  0.38233923622E+03  0.50400001928E-02 0. -1.
    10030    2    1    2    0    0  0.00000000000E+00  0.00000000000E+00 -0.22361826275E+03  0.54106020974E+03  0.49268755122E+03 0.  0.
        4    1    3    3  502    0 -0.91657822222E+02  0.20379739813E+03  0.20479903855E+01  0.22347336088E+03  0.12699999809E+01 0.  1.
       -4    1    3    3    0  502  0.91657822222E+02 -0.20379739813E+03 -0.22566625314E+03  0.31758684886E+03  0.12699999809E+01 0. -1.
</event>
<event>
 5   0  0.2511944E-01  0.4991712E+03  0.7818609E-02  0.1013995E+00
       -2   -1    0    0    0  501  0.00000000000E+00  0.00000000000E+00  0.51321510324E+02  0.51321510387E+02  0.25500000920E-02 0.  1.
        2   -1    0    0  501    0  0.00000000000E+00  0.00000000000E+00 -0.12137789545E+04  0.12137789545E+04  0.25500000920E-02 0. -1.
    10030    2    1    2    0    0  0.00000000000E+00  0.00000000000E+00 -0.11624574442E+04  0.12651004649E+04  0.49917118981E+03 0.  0.
        1    1    3    3  502    0  0.48903360518E+02 -0.23623237429E+03 -0.74342442769E+03  0.78158630556E+03  0.50400001928E-02 0. -1.
       -1    1    3    3    0  502 -0.48903360518E+02  0.23623237429E+03 -0.41903301647E+03  0.48351415931E+03  0.50400001928E-02 0.  1.
</event>
<event>
 5   0  0.2511944E-01  0.4966865E+03  0.7818609E-02  0.1014647E+00
        2   -1    0    0  501    0  0.00000000000E+00  0.00000000000E+00  0.14103162400E+04  0.14103162400E+04  0.25500000920E-02 0.  1.
       -2   -1    0    0    0  501  0.00000000000E+00  0.00000000000E+00 -0.43730872158E+02  0.43730872232E+02  0.25500000920E-02 0. -1.
    10030    2    1    2    0    0  0.00000000000E+00  0.00000000000E+00  0.13665853678E+04  0.14540471122E+04  0.49668645743E+03 0.  0.
        1    1    3    3  502    0  0.57947173120E+02  0.16030529164E+03  0.15456814247E+03  0.23010209058E+03  0.50400001928E-02 0. -1.
       -1    1    3    3    0  502 -0.57947173120E+02 -0.16030529164E+03  0.12120172254E+04  0.12239450217E+04  0.50400001928E-02 0.  1.
</event>
<event>
 5   0  0.1439814E-01  0.5063850E+03  0.7818609E-02  0.1012126E+00
        1   -1    0    0  501    0  0.00000000000E+00  0.00000000000E+00  0.55631917760E+03  0.55631917762E+03  0.50400001928E-02 0.  1.
       -1   -1    0    0    0  501  0.00000000000E+00  0.00000000000E+00 -0.11523318430E+03  0.11523318441E+03  0.50400001928E-02 0. -1.
    10030    2    1    2    0    0  0.00000000000E+00  0.00000000000E+00  0.44108599329E+03  0.67155236204E+03  0.50638495384E+03 0.  0.
        4    1    3    3  502    0  0.19142226549E+03  0.16570704098E+03  0.22302768517E+03  0.33740816292E+03  0.12699999809E+01 0.  1.
       -4    1    3    3    0  502 -0.19142226549E+03 -0.16570704098E+03  0.21805830813E+03  0.33414419911E+03  0.12699999809E+01 0. -1.
</event>
<event>
 5   0  0.1413361E-01  0.4938892E+03  0.7818609E-02  0.1015386E+00
       -1   -1    0    0    0  501  0.00000000000E+00  0.00000000000E+00  0.19545825762E+03  0.19545825769E+03  0.50400001928E-02 0. -1.
        1   -1    0    0  501    0  0.00000000000E+00  0.00000000000E+00 -0.31199315654E+03  0.31199315658E+03  0.50400001928E-02 0.  1.
    10030    2    1    2    0    0  0.00000000000E+00  0.00000000000E+00 -0.11653489892E+03  0.50745141427E+03  0.49388921347E+03 0.  0.
        3    1    3    3  502    0  0.12470412284E+03 -0.94021201642E+02 -0.25480667496E+03  0.29886042966E+03  0.10100000352E+00 0.  1.
       -3    1    3    3    0  502 -0.12470412284E+03  0.94021201642E+02  0.13827177604E+03  0.20859098461E+03  0.10100000352E+00 0. -1.
</event>
<event>
 5   0  0.9868500E-02  0.5021375E+03  0.7818609E-02  0.1013222E+00
       -3   -1    0    0    0  501  0.00000000000E+00  0.00000000000E+00  0.28254147632E+03  0.28254149438E+03  0.10100000352E+00 0.  1.
        3   -1    0    0  501    0  0.00000000000E+00  0.00000000000E+00 -0.22310178375E+03  0.22310180661E+03  0.10100000352E+00 0. -1.
    10030    2    1    2    0    0  0.00000000000E+00  0.00000000000E+00  0.59439692572E+02  0.50564330099E+03  0.50213750187E+03 0.  0.
        4    1    3    3  502    0  0.54157418164E+02 -0.94749431942E+02  0.25740335043E+03  0.27958644193E+03  0.12699999809E+01 0.  1.
       -4    1    3    3    0  502 -0.54157418164E+02  0.94749431942E+02 -0.19796365786E+03  0.22605685906E+03  0.12699999809E+01 0. -1.
</event>
<event>
 5   0  0.2413301E-01  0.4674476E+03  0.7818609E-02  0.1022643E+00
        2   -1    0    0  501    0  0.00000000000E+00  0.00000000000E+00  0.36893537553E+03  0.36893537554E+03  0.25500000920E-02 0. -1.
       -2   -1    0    0    0  501  0.00000000000E+00  0.00000000000E+00 -0.14806608581E+03  0.14806608583E+03  0.25500000920E-02 0.  1.
    10030    2    1    2    0    0  0.00000000000E+00  0.00000000000E+00  0.22086928973E+03  0.51700146138E+03  0.46744760981E+03 0.  0.
        4    1    3    3  502    0  0.64407860777E+02 -0.89617853458E+02 -0.11742872212E+03  0.16115473889E+03  0.12699999809E+01 0.  1.
       -4    1    3    3    0  502 -0.64407860777E+02  0.89617853458E+02  0.33829801184E+03  0.35584672249E+03  0.12699999809E+01 0. -1.
</event>
<event>
 5   0  0.1439814E-01  0.5801914E+03  0.7818609E-02  0.9947377E-01
        1   -1    0    0  501    0  0.00000000000E+00  0.00000000000E+00  0.14935633585E+04  0.14935633585E+04  0.50400001928E-02 0. -1.
       -1   -1    0    0    0  501  0.00000000000E+00  0.00000000000E+00 -0.56345453609E+02  0.56345453834E+02  0.50400001928E-02 0.  1.
    10030    2    1    2    0    0  0.00000000000E+00  0.00000000000E+00  0.14372179049E+04  0.15499088124E+04  0.58019136537E+03 0.  0.
        4    1    3    3  502    0  0.13899694693E+03  0.21954093904E+02  0.13962740162E+04  0.14033477383E+04  0.12699999809E+01 0. -1.
       -4    1    3    3    0  502 -0.13899694693E+03 -0.21954093904E+02  0.40943888714E+02  0.14656107402E+03  0.12699999809E+01 0.  1.
</event>
<event>
 5   0  0.1529146E-01  0.4974932E+03  0.7818609E-02  0.1014435E+00
       -1   -1    0    0    0  501  0.00000000000E+00  0.00000000000E+00  0.21551990578E+03  0.21551990583E+03  0.50400001928E-02 0. -1.
        1   -1    0    0  501    0  0.00000000000E+00  0.00000000000E+00 -0.28709580040E+03  0.28709580044E+03  0.50400001928E-02 0.  1.
    10030    2    1    2    0    0  0.00000000000E+00  0.00000000000E+00 -0.71575894624E+02  0.50261570628E+03  0.49749315524E+03 0.  0.
        1    1    3    3  502    0 -0.22944474382E+03  0.71585887133E+02 -0.10052132664E+03  0.26052632658E+03  0.50400001928E-02 0. -1.
       -1    1    3    3    0  502  0.22944474382E+03 -0.71585887133E+02  0.28945432021E+02  0.24208937970E+03  0.50400001928E-02 0.  1.
</event>
<event>
 5   0  0.1448458E-01  0.5073092E+03  0.7818609E-02  0.1011889E+00
        1   -1    0    0  501    0  0.00000000000E+00  0.00000000000E+00  0.19562849755E+03  0.19562849761E+03  0.50400001928E-02 0.  1.
       -1   -1    0    0    0  501  0.00000000000E+00  0.00000000000E+00 -0.32889204902E+03  0.32889204906E+03  0.50400001928E-02 0. -1.
    10030    2    1    2    0    0  0.00000000000E+00  0.00000000000E+00 -0.13326355147E+03  0.52452054667E+03  0.50730920525E+03 0.  0.
        5    1    3    3  502    0  0.18609909455E+02  0.13053515092E+03 -0.29062147949E+03  0.31916874643E+03  0.46999998093E+01 0. -1.
       -5    1    3    3    0  502 -0.18609909455E+02 -0.13053515092E+03  0.15735792802E+03  0.20535180024E+03  0.46999998093E+01 0.  1.
</event>
<event>
 5   0  0.2413301E-01  0.5024041E+03  0.7818609E-02  0.1013153E+00
       -2   -1    0    0    0  501  0.00000000000E+00  0.00000000000E+00  0.61330097612E+02  0.61330097665E+02  0.25500000920E-02 0. -1.
        2   -1    0    0  501    0  0.00000000000E+00  0.00000000000E+00 -0.10288990704E+04  0.10288990704E+04  0.25500000920E-02 0.  1.
    10030    2    1    2    0    0  0.00000000000E+00  0.00000000000E+00 -0.96756897276E+03  0.10902291680E+04  0.50240414190E+03 0.  0.
        4    1    3    3  502    0  0.24609498106E+03  0.10485620583E+02 -0.59071582153E+03  0.64001522064E+03  0.12699999809E+01 0.  1.
       -4    1    3    3    0  502 -0.24609498106E+03 -0.10485620583E+02 -0.37685315123E+03  0.45021394740E+03  0.12699999809E+01 0. -1.
</event>
<event>
 5   0  0.2488968E-01  0.3541815E+03  0.7818609E-02  0.1060912E+00
        2   -1    0    0  501    0  0.00000000000E+00  0.00000000000E+00  0.26104901991E+03  0.26104901992E+03  0.25500000920E-02 0. -1.
       -2   -1    0    0    0  501  0.00000000000E+00  0.00000000000E+00 -0.12013501594E+03  0.12013501596E+03  0.25500000920E-02 0.  1.
    10030    2    1    2    0    0  0.00000000000E+00  0.00000000000E+00  0.14091400397E+03  0.38118403589E+03  0.35418146860E+03 0.  0.
        2    1    3    3  502    0  0.29383773616E+02 -0.95534892520E+02  0.22778982086E+03  0.24875394336E+03  0.25500000920E-02 0. -1.
       -2    1    3    3    0  502 -0.29383773616E+02  0.95534892520E+02 -0.86875816890E+02  0.13243009253E+03  0.25500000920E-02 0.  1.
</event>
<event>
 5   0  0.1448458E-01  0.4893134E+03  0.7818609E-02  0.1016607E+00
       -1   -1    0    0    0  501  0.00000000000E+00  0.00000000000E+00  0.66165643443E+02  0.66165643635E+02  0.50400001928E-02 0. -1.
        1   -1    0    0  501    0  0.00000000000E+00  0.00000000000E+00 -0.90465230479E+03  0.90465230480E+03  0.50400001928E-02 0.  1.
    10030    2    1    2    0    0  0.00000000000E+00  0.00000000000E+00 -0.83848666134E+03  0.97081794844E+03  0.48931340443E+03 0.  0.
        5    1    3    3  502    0 -0.20811259116E+03 -0.10229897483E+03 -0.57367874527E+03  0.61879344181E+03  0.46999998093E+01 0.  1.
       -5    1    3    3    0  502  0.20811259116E+03  0.10229897483E+03 -0.26480791607E+03  0.35202450663E+03  0.46999998093E+01 0. -1.
</event>
<event>
 5   0  0.1529146E-01  0.5011497E+03  0.7818609E-02  0.1013479E+00
       -1   -1    0    0    0  501  0.00000000000E+00  0.00000000000E+00  0.16169060154E+03  0.16169060162E+03  0.50400001928E-02 0. -1.
        1   -1    0    0  501    0  0.00000000000E+00  0.00000000000E+00 -0.38832037001E+03  0.38832037005E+03  0.50400001928E-02 0.  1.
    10030    2    1    2    0    0  0.00000000000E+00  0.00000000000E+00 -0.22662976847E+03  0.55001097167E+03  0.50114969520E+03 0.  0.
        1    1    3    3  502    0 -0.25025132637E+03 -0.11993333740E+02 -0.10863436284E+03  0.27307689616E+03  0.50400001928E-02 0.  1.
       -1    1    3    3    0  502  0.25025132637E+03  0.11993333740E+02 -0.11799540563E+03  0.27693407551E+03  0.50400001928E-02 0. -1.
</event>
<event>
 5   0  0.2466034E-01  0.4814848E+03  0.7818609E-02  0.1018728E+00
        2   -1    0    0  501    0  0.00000000000E+00  0.00000000000E+00  0.44980084100E+03  0.44980084101E+03  0.25500000920E-02 0.  1.
       -2   -1    0    0    0  501  0.00000000000E+00  0.00000000000E+00 -0.12885014779E+03  0.12885014782E+03  0.25500000920E-02 0. -1.
    10030    2    1    2    0    0  0.00000000000E+00  0.00000000000E+00  0.32095069321E+03  0.57865098883E+03  0.48148480702E+03 0.  0.
        3    1    3    3  502    0 -0.28652930658E+02  0.35589195635E+02 -0.12359164949E+03  0.13176679137E+03  0.10100000352E+00 0. -1.
       -3    1    3    3    0  502  0.28652930658E+02 -0.35589195635E+02  0.44454234270E+03  0.44688419746E+03  0.10100000352E+00 0.  1.
</event>
<event>
 5   0  0.2413301E-01  0.4965818E+03  0.7818609E-02  0.1014675E+00
        2   -1    0    0  501    0  0.00000000000E+00  0.00000000000E+00  0.16788229049E+04  0.16788229049E+04  0.25500000920E-02 0.  1.
       -2   -1    0    0    0  501  0.00000000000E+00  0.00000000000E+00 -0.36721187769E+02  0.36721187858E+02  0.25500000920E-02 0. -1.
    10030    2    1    2    0    0  0.00000000000E+00  0.00000000000E+00  0.16421017172E+04  0.17155440928E+04  0.49658180072E+03 0.  0.
        4    1    3    3  502    0  0.17812131694E+02  0.11526650073E+03  0.15782788993E+04  0.15825831842E+04  0.12699999809E+01 0.  1.
       -4    1    3    3    0  502 -0.17812131694E+02 -0.11526650073E+03  0.63822817923E+02  0.13296090859E+03  0.12699999809E+01 0. -1.
</event>
<event>
 5   0  0.2413301E-01  0.4928198E+03  0.7818609E-02  0.1015670E+00
       -2   -1    0    0    0  501  0.00000000000E+00  0.00000000000E+00  0.12062456431E+03  0.12062456434E+03  0.25500000920E-02 0. -1.
        2   -1    0    0  501    0  0.00000000000E+00  0.00000000000E+00 -0.50336218979E+03  0.50336218980E+03  0.25500000920E-02 0.  1.
    10030    2    1    2    0    0  0.00000000000E+00  0.00000000000E+00 -0.38273762548E+03  0.62398675414E+03  0.49281982446E+03 0.  0.
        4    1    3    3  502    0 -0.22580052846E+03  0.85020085199E+02 -0.12803647663E+03  0.27314693077E+03  0.12699999809E+01 0. -1.
       -4    1    3    3    0  502  0.22580052846E+03 -0.85020085199E+02 -0.25470114884E+03  0.35083982337E+03  0.12699999809E+01 0.  1.
</event>
<event>
 5   0  0.1413361E-01  0.5015724E+03  0.7818609E-02  0.1013369E+00
        1   -1    0    0  501    0  0.00000000000E+00  0.00000000000E+00  0.15516876844E+03  0.15516876852E+03  0.50400001928E-02 0. -1.
       -1   -1    0    0    0  501  0.00000000000E+00  0.00000000000E+00 -0.40532451885E+03  0.40532451889E+03  0.50400001928E-02 0.  1.
    10030    2    1    2    0    0  0.00000000000E+00  0.00000000000E+00 -0.25015575042E+03  0.56049328741E+03  0.50157235347E+03 0.  0.
        3    1    3    3  502    0  0.10755255846E+03 -0.22538521896E+03 -0.15074683973E+03  0.29170305046E+03  0.10100000352E+00 0.  1.
       -3    1    3    3    0  502 -0.10755255846E+03  0.22538521896E+03 -0.99408910686E+02  0.26879023695E+03  0.10100000352E+00 0. -1.
</event>
<event>
 5   0  0.1413361E-01  0.5583395E+03  0.7818609E-02  0.9995819E-01
       -1   -1    0    0    0  501  0.00000000000E+00  0.00000000000E+00  0.14594131014E+03  0.14594131023E+03  0.50400001928E-02 0.  1.
        1   -1    0    0  501    0  0.00000000000E+00  0.00000000000E+00 -0.53402121534E+03  0.53402121536E+03  0.50400001928E-02 0. -1.
    10030    2    1    2    0    0  0.00000000000E+00  0.00000000000E+00 -0.38807990520E+03  0.67996252559E+03  0.55833952340E+03 0.  0.
        3    1    3    3  502    0  0.14804271809E+03  0.23111811961E+03 -0.25617928313E+03  0.37544649006E+03  0.10100000352E+00 0. -1.
       -3    1    3    3    0  502 -0.14804271809E+03 -0.23111811961E+03 -0.13190062207E+03  0.30451603553E+03  0.10100000352E+00 0.  1.
</event>
<event>
 5   0  0.1529146E-01  0.4958576E+03  0.7818609E-02  0.1014866E+00
       -1   -1    0    0    0  501  0.00000000000E+00  0.00000000000E+00  0.12390818470E+03  0.12390818481E+03  0.50400001928E-02 0. -1.
        1   -1    0    0  501    0  0.00000000000E+00  0.00000000000E+00 -0.49608261460E+03  0.49608261462E+03  0.50400001928E-02 0.  1.
    10030    2    1    2    0    0  0.00000000000E+00  0.00000000000E+00 -0.37217442989E+03  0.61999079943E+03  0.49585762584E+03 0.  0.
        1    1    3    3  502    0 -0.10994777492E+03 -0.21048129828E+03 -0.96989553487E+02  0.25651094254E+03  0.50400001928E-02 0.  1.
       -1    1    3    3    0  502  0.10994777492E+03  0.21048129828E+03 -0.27518487641E+03  0.36347985689E+03  0.50400001928E-02 0. -1.
</event>
<event>
 5   0  0.9868500E-02  0.4960210E+03  0.7818609E-02  0.1014823E+00
       -4   -1    0    0    0  501  0.00000000000E+00  0.00000000000E+00  0.63196357877E+03  0.63196485487E+03  0.12699999809E+01 0. -1.
        4   -1    0    0  501    0  0.00000000000E+00  0.00000000000E+00 -0.97324778297E+02  0.97333064118E+02  0.12699999809E+01 0.  1.
    10030    2    1    2    0    0  0.00000000000E+00  0.00000000000E+00  0.53463880047E+03  0.72929791899E+03  0.49602097503E+03 0.  0.
        3    1    3    3  502    0 -0.17681305811E+03 -0.16570716189E+03  0.18969288544E+03  0.30774197310E+03  0.10100000352E+00 0.  1.
       -3    1    3    3    0  502  0.17681305811E+03  0.16570716189E+03  0.34494591503E+03  0.42155594589E+03  0.10100000352E+00 0. -1.
</event>
<event>
 5   0  0.2466034E-01  0.5060687E+03  0.7818609E-02  0.1012207E+00
        2   -1    0    0  501    0  0.00000000000E+00  0.00000000000E+00  0.51935334956E+03  0.51935334957E+03  0.25500000920E-02 0. -1.
       -2   -1    0    0    0  501  0.00000000000E+00  0.00000000000E+00 -0.12328095415E+03  0.12328095418E+03  0.25500000920E-02 0.  1.
    10030    2    1    2    0    0  0.00000000000E+00  0.00000000000E+00  0.39607239541E+03  0.64263430374E+03  0.50606867710E+03 0.  0.
        3    1    3    3  502    0  0.11552432423E+03  0.10030501900E+03  0.45396619881E+03  0.47905353165E+03  0.10100000352E+00 0. -1.
       -3    1    3    3    0  502 -0.11552432423E+03 -0.10030501900E+03 -0.57893803394E+02  0.16358077209E+03  0.10100000352E+00 0.  1.
</event>
<event>
 5   0  0.2466034E-01  0.5066741E+03  0.7818609E-02  0.1012051E+00
        2   -1    0    0  501    0  0.00000000000E+00  0.00000000000E+00  0.52802555457E+03  0.52802555458E+03  0.25500000920E-02 0.  1.
       -2   -1    0    0    0  501  0.00000000000E+00  0.00000000000E+00 -0.12154651011E+03  0.12154651014E+03  0.25500000920E-02 0. -1.
    10030    2    1    2    0    0  0.00000000000E+00  0.00000000000E+00  0.40647904446E+03  0.64957206472E+03  0.50667410993E+03 0.  0.
        3    1    3    3  502    0  0.19913129306E+03 -0.57358747692E+01  0.40388246211E+03  0.45034123233E+03  0.10100000352E+00 0.  1.
       -3    1    3    3    0  502 -0.19913129306E+03  0.57358747692E+01  0.25965823508E+01  0.19923083239E+03  0.10100000352E+00 0. -1.
</event>
<event>
 5   0  0.9868500E-02  0.5589733E+03  0.7818609E-02  0.9994380E-01
       -3   -1    0    0    0  501  0.00000000000E+00  0.00000000000E+00  0.30174320948E+03  0.30174322638E+03  0.10100000352E+00 0. -1.
        3   -1    0    0  501    0  0.00000000000E+00  0.00000000000E+00 -0.25887173100E+03  0.25887175071E+03  0.10100000352E+00 0.  1.
    10030    2    1    2    0    0  0.00000000000E+00  0.00000000000E+00  0.42871478479E+02  0.56061497709E+03  0.55897333467E+03 0.  0.
        4    1    3    3  502    0  0.10482961490E+03 -0.25857659163E+03  0.52613048755E+01  0.27907059345E+03  0.12699999809E+01 0.  1.
       -4    1    3    3    0  502 -0.10482961490E+03  0.25857659163E+03  0.37610173603E+02  0.28154438364E+03  0.12699999809E+01 0. -1.
</event>
<event>
 5   0  0.1413361E-01  0.4978700E+03  0.7818609E-02  0.1014336E+00
        1   -1    0    0  501    0  0.00000000000E+00  0.00000000000E+00  0.24939324201E+03  0.24939324206E+03  0.50400001928E-02 0. -1.
       -1   -1    0    0    0  501  0.00000000000E+00  0.00000000000E+00 -0.24847758791E+03  0.24847758796E+03  0.50400001928E-02 0.  1.
    10030    2    1    2    0    0  0.00000000000E+00  0.00000000000E+00  0.91565410139E+00  0.49787083002E+03  0.49786998801E+03 0.  0.
        3    1    3    3  502    0  0.23233943882E+03 -0.21527836299E+02  0.87196422390E+02  0.24909493942E+03  0.10100000352E+00 0.  1.
       -3    1    3    3    0  502 -0.23233943882E+03  0.21527836299E+02 -0.86280768289E+02  0.24877589060E+03  0.10100000352E+00 0. -1.
</event>
<event>
 5   0  0.2488968E-01  0.4916456E+03  0.7818609E-02  0.1015983E+00
       -2   -1    0    0    0  501  0.00000000000E+00  0.00000000000E+00  0.75070007483E+02  0.75070007526E+02  0.25500000920E-02 0.  1.
        2   -1    0    0  501    0  0.00000000000E+00  0.00000000000E+00 -0.80496666088E+03  0.80496666089E+03  0.25500000920E-02 0. -1.
    10030    2    1    2    0    0  0.00000000000E+00  0.00000000000E+00 -0.72989665340E+03  0.88003666841E+03  0.49164561740E+03 0.  0.
        2    1    3    3  502    0 -0.19465938462E+02 -0.15617581825E+03 -0.26935293819E+02  0.15967253685E+03  0.25500000920E-02 0.  1.
       -2    1    3    3    0  502  0.19465938462E+02  0.15617581825E+03 -0.70296135958E+03  0.72036413156E+03  0.25500000920E-02 0. -1.
</event>
<event>
 5   0  0.2511944E-01  0.4954545E+03  0.7818609E-02  0.1014972E+00
       -2   -1    0    0    0  501  0.00000000000E+00  0.00000000000E+00  0.70686507276E+02  0.70686507322E+02  0.25500000920E-02 0.  1.
        2   -1    0    0  501    0  0.00000000000E+00  0.00000000000E+00 -0.86818260136E+03  0.86818260137E+03  0.25500000920E-02 0. -1.
    10030    2    1    2    0    0  0.00000000000E+00  0.00000000000E+00 -0.79749609409E+03  0.93886910869E+03  0.49545452179E+03 0.  0.
        1    1    3    3  502    0 -0.83402966150E+02 -0.10526708636E+02  0.42831433120E+02  0.94347220657E+02  0.50400001928E-02 0.  1.
       -1    1    3    3    0  502  0.83402966150E+02  0.10526708636E+02 -0.84032752721E+03  0.84452188803E+03  0.50400001928E-02 0. -1.
</event>
<event>
 5   0  0.2413301E-01  0.5189359E+03  0.7818609E-02  0.1008951E+00
        2   -1    0    0  501    0  0.00000000000E+00  0.00000000000E+00  0.70491461652E+02  0.70491461698E+02  0.25500000920E-02 0.  1.
       -2   -1    0    0    0  501  0.00000000000E+00  0.00000000000E+00 -0.95506048707E+03  0.95506048708E+03  0.25500000920E-02 0. -1.
    10030    2    1    2    0    0  0.00000000000E+00  0.00000000000E+00 -0.88456902542E+03  0.10255519488E+04  0.51893587167E+03 0.  0.
        4    1    3    3  502    0 -0.52627518729E+02 -0.38225801849E+02 -0.93868033960E+03  0.94093212322E+03  0.12699999809E+01 0. -1.
       -4    1    3    3    0  502  0.52627518729E+02  0.38225801849E+02  0.54111314180E+02  0.84619825554E+02  0.12699999809E+01 0.  1.
</event>
<event>
 5   0  0.9868500E-02  0.4983612E+03  0.7818609E-02  0.1014208E+00
       -3   -1    0    0    0  501  0.00000000000E+00  0.00000000000E+00  0.73017725308E+02  0.73017795160E+02  0.10100000352E+00 0. -1.
        3   -1    0    0  501    0  0.00000000000E+00  0.00000000000E+00 -0.85035436916E+03  0.85035437516E+03  0.10100000352E+00 0.  1.
    10030    2    1    2    0    0  0.00000000000E+00  0.00000000000E+00 -0.77733664386E+03  0.92337217032E+03  0.49836122145E+03 0.  0.
        4    1    3    3  502    0 -0.65801280581E+02  0.11212277705E+03 -0.78253050447E+03  0.79325716447E+03  0.12699999809E+01 0.  1.
       -4    1    3    3    0  502  0.65801280581E+02 -0.11212277705E+03  0.51938606183E+01  0.13011500585E+03  0.12699999809E+01 0. -1.
</event>
<event>
 5   0  0.1448458E-01  0.5025640E+03  0.7818609E-02  0.1013112E+00
        1   -1    0    0  501    0  0.00000000000E+00  0.00000000000E+00  0.45194077914E+03  0.45194077917E+03  0.50400001928E-02 0.  1.
       -1   -1    0    0    0  501  0.00000000000E+00  0.00000000000E+00 -0.13971443012E+03  0.13971443021E+03  0.50400001928E-02 0. -1.
    10030    2    1    2    0    0  0.00000000000E+00  0.00000000000E+00  0.31222634902E+03  0.59165520938E+03  0.50256401957E+03 0.  0.
        5    1    3    3  502    0 -0.18681924102E+03 -0.16753543520E+03  0.14164623478E+03  0.28819315864E+03  0.46999998093E+01 0. -1.
       -5    1    3    3    0  502  0.18681924102E+03  0.16753543520E+03  0.17058011424E+03  0.30346205074E+03  0.46999998093E+01 0.  1.
</event>
<event>
 5   0  0.2511944E-01  0.4762202E+03  0.7818609E-02  0.1020179E+00
       -2   -1    0    0    0  501  0.00000000000E+00  0.00000000000E+00  0.12734926030E+03  0.12734926032E+03  0.25500000920E-02 0.  1.
        2   -1    0    0  501    0  0.00000000000E+00  0.00000000000E+00 -0.44520415235E+03  0.44520415236E+03  0.25500000920E-02 0. -1.
    10030    2    1    2    0    0  0.00000000000E+00  0.00000000000E+00 -0.31785489206E+03  0.57255341268E+03  0.47622019904E+03 0.  0.
        1    1    3    3  502    0  0.20830983922E+03 -0.48827982019E+02 -0.33294145425E+02  0.21653097028E+03  0.50400001928E-02 0. -1.
       -1    1    3    3    0  502 -0.20830983922E+03  0.48827982019E+02 -0.28456074663E+03  0.35602244240E+03  0.50400001928E-02 0.  1.
</event>
<event>
 5   0  0.2466034E-01  0.5042950E+03  0.7818609E-02  0.1012664E+00
       -2   -1    0    0    0  501  0.00000000000E+00  0.00000000000E+00  0.15294308937E+03  0.15294308939E+03  0.25500000920E-02 0. -1.
        2   -1    0    0  501    0  0.00000000000E+00  0.00000000000E+00 -0.41569946482E+03  0.41569946482E+03  0.25500000920E-02 0.  1.
    10030    2    1    2    0    0  0.00000000000E+00  0.00000000000E+00 -0.26275637545E+03  0.56864255422E+03  0.50429499465E+03 0.  0.
        3    1    3    3  502    0 -0.21278855042E+01  0.23946507718E+03 -0.42374264942E+02  0.24319465375E+03  0.10100000352E+00 0. -1.
       -3    1    3    3    0  502  0.21278855042E+01 -0.23946507718E+03 -0.22038211050E+03  0.32544790046E+03  0.10100000352E+00 0.  1.
</event>
<event>
 5   0  0.1439814E-01  0.4953439E+03  0.7818609E-02  0.1015001E+00
       -1   -1    0    0    0  501  0.00000000000E+00  0.00000000000E+00  0.18786697119E+03  0.18786697125E+03  0.50400001928E-02 0. -1.
        1   -1    0    0  501    0  0.00000000000E+00  0.00000000000E+00 -0.32651506100E+03  0.32651506103E+03  0.50400001928E-02 0.  1.
    10030    2    1    2    0    0  0.00000000000E+00  0.00000000000E+00 -0.13864808981E+03  0.51438203229E+03  0.49534390310E+03 0.  0.
        4    1    3    3  502    0  0.46379421405E+02  0.17984302080E+03  0.10081831427E+03  0.21133032970E+03  0.12699999809E+01 0. -1.
       -4    1    3    3    0  502 -0.46379421405E+02 -0.17984302080E+03 -0.23946640408E+03  0.30305170259E+03  0.12699999809E+01 0.  1.
</event>
<event>
 5   0  0.9868500E-02  0.5015311E+03  0.7818609E-02  0.1013380E+00
        3   -1    0    0  501    0  0.00000000000E+00  0.00000000000E+00  0.26845914199E+03  0.26845916099E+03  0.10100000352E+00 0. -1.
       -3   -1    0    0    0  501  0.00000000000E+00  0.00000000000E+00 -0.23423809793E+03  0.23423811970E+03  0.10100000352E+00 0.  1.
    10030    2    1    2    0    0  0.00000000000E+00  0.00000000000E+00  0.34221044058E+02  0.50269728069E+03  0.50153113179E+03 0.  0.
        1    1    3    3  502    0 -0.38425908741E+01  0.11732520114E+03  0.23921863626E+03  0.26646861783E+03  0.50400001928E-02 0. -1.
       -1    1    3    3    0  502  0.38425908741E+01 -0.11732520114E+03 -0.20499759220E+03  0.23622866287E+03  0.50400001928E-02 0.  1.
</event>
<event>
 5   0  0.2504064E-01  0.4729783E+03  0.7818609E-02  0.1021083E+00
       -2   -1    0    0    0  501  0.00000000000E+00  0.00000000000E+00  0.94360280994E+02  0.94360281029E+02  0.25500000920E-02 0. -1.
        2   -1    0    0  501    0  0.00000000000E+00  0.00000000000E+00 -0.59269758946E+03  0.59269758946E+03  0.25500000920E-02 0.  1.
    10030    2    1    2    0    0  0.00000000000E+00  0.00000000000E+00 -0.49833730846E+03  0.68705787049E+03  0.47297827054E+03 0.  0.
        5    1    3    3  502    0 -0.14299843671E+03 -0.15629684457E+03 -0.96624393305E+02  0.23288542227E+03  0.46999998093E+01 0. -1.
       -5    1    3    3    0  502  0.14299843671E+03  0.15629684457E+03 -0.40171291516E+03  0.45417244822E+03  0.46999998093E+01 0.  1.
</event>
<event>
 5   0  0.2488968E-01  0.5427613E+03  0.7818609E-02  0.1003183E+00
        2   -1    0    0  501    0  0.00000000000E+00  0.00000000000E+00  0.34175448029E+03  0.34175448030E+03  0.25500000920E-02 0. -1.
       -2   -1    0    0    0  501  0.00000000000E+00  0.00000000000E+00 -0.21549816184E+03  0.21549816186E+03  0.25500000920E-02 0.  1.
    10030    2    1    2    0    0  0.00000000000E+00  0.00000000000E+00  0.12625631845E+03  0.55725264216E+03  0.54276131885E+03 0.  0.
        2    1    3    3  502    0  0.11265265748E+03  0.20540243474E+03 -0.77520948591E+02  0.24675955688E+03  0.25500000920E-02 0.  1.
       -2    1    3    3    0  502 -0.11265265748E+03 -0.20540243474E+03  0.20377726704E+03  0.31049308528E+03  0.25500000920E-02 0. -1.
</event>
<event>
 5   0  0.2488968E-01  0.4957906E+03  0.7818609E-02  0.1014883E+00
       -2   -1    0    0    0  501  0.00000000000E+00  0.00000000000E+00  0.26231315121E+03  0.26231315122E+03  0.25500000920E-02 0. -1.
        2   -1    0    0  501    0  0.00000000000E+00  0.00000000000E+00 -0.23426994690E+03  0.23426994691E+03  0.25500000920E-02 0.  1.
    10030    2    1    2    0    0  0.00000000000E+00  0.00000000000E+00  0.28043204313E+02  0.49658309813E+03  0.49579063328E+03 0.  0.
        2    1    3    3  502    0  0.23626600305E+03  0.38524807772E+02 -0.50473113697E+02  0.24464938223E+03  0.25500000920E-02 0. -1.
       -2    1    3    3    0  502 -0.23626600305E+03 -0.38524807772E+02  0.78516318010E+02  0.25193371591E+03  0.25500000920E-02 0.  1.
</event>
<event>
 5   0  0.1413361E-01  0.5123950E+03  0.7818609E-02  0.1010593E+00
        1   -1    0    0  501    0  0.00000000000E+00  0.00000000000E+00  0.11033438740E+04  0.11033438740E+04  0.50400001928E-02 0. -1.
       -1   -1    0    0    0  501  0.00000000000E+00  0.00000000000E+00 -0.59489296729E+02  0.59489296943E+02  0.50400001928E-02 0.  1.
    10030    2    1    2    0    0  0.00000000000E+00  0.00000000000E+00  0.10438545772E+04  0.11628331709E+04  0.51239496970E+03 0.  0.
        3    1    3    3  502    0 -0.22403297090E+03 -0.83815027463E+02  0.73018685727E+03  0.76836748214E+03  0.10100000352E+00 0. -1.
       -3    1    3    3    0  502  0.22403297090E+03  0.83815027463E+02  0.31366771998E+03  0.39446568879E+03  0.10100000352E+00 0.  1.
</event>
<event>
 5   0  0.1453602E-01  0.4953750E+03  0.7818609E-02  0.1014993E+00
        1   -1    0    0  501    0  0.00000000000E+00  0.00000000000E+00  0.13078082922E+04  0.13078082923E+04  0.50400001928E-02 0.  1.
       -1   -1    0    0    0  501  0.00000000000E+00  0.00000000000E+00 -0.46909847286E+02  0.46909847557E+02  0.50400001928E-02 0. -1.
    10030    2    1    2    0    0  0.00000000000E+00  0.00000000000E+00  0.12608984450E+04  0.13547181398E+04  0.49537495883E+03 0.  0.
        2    1    3    3  502    0 -0.76031712552E+02 -0.19388603329E+03  0.26378618574E+03  0.33608892724E+03  0.25500000920E-02 0. -1.
       -2    1    3    3    0  502  0.76031712552E+02  0.19388603329E+03  0.99711225922E+03  0.10186292126E+04  0.25500000920E-02 0.  1.
</event>
<event>
 5   0  0.2511944E-01  0.5196558E+03  0.7818609E-02  0.1008772E+00
        2   -1    0    0  501    0  0.00000000000E+00  0.00000000000E+00  0.74013029488E+03  0.74013029488E+03  0.25500000920E-02 0. -1.
       -2   -1    0    0    0  501  0.00000000000E+00  0.00000000000E+00 -0.91214382847E+02  0.91214382883E+02  0.25500000920E-02 0.  1.
    10030    2    1    2    0    0  0.00000000000E+00  0.00000000000E+00  0.64891591203E+03  0.83134467776E+03  0.51965576333E+03 0.  0.
        1    1    3    3  502    0  0.24929045341E+03 -0.31251021500E+02  0.21848204182E+03  0.33295158677E+03  0.50400001928E-02 0.  1.
       -1    1    3    3    0  502 -0.24929045341E+03  0.31251021500E+02  0.43043387020E+03  0.49839309099E+03  0.50400001928E-02 0. -1.
</event>
<event>
 5   0  0.9868500E-02  0.4762271E+03  0.7818609E-02  0.1020177E+00
       -4   -1    0    0    0  501  0.00000000000E+00  0.00000000000E+00  0.30948146602E+03  0.30948407182E+03  0.12699999809E+01 0. -1.
        4   -1    0    0  501    0  0.00000000000E+00  0.00000000000E+00 -0.18319781444E+03  0.18320221646E+03  0.12699999809E+01 0.  1.
    10030    2    1    2    0    0  0.00000000000E+00  0.00000000000E+00  0.12628365157E+03  0.49268628828E+03  0.47622706559E+03 0.  0.
        1    1    3    3  502    0  0.22702034538E+03  0.32775953478E+02 -0.29856410397E+01  0.22939357972E+03  0.50400001928E-02 0.  1.
       -1    1    3    3    0  502 -0.22702034538E+03 -0.32775953478E+02  0.12926929261E+03  0.26329270856E+03  0.50400001928E-02 0. -1.
</event>
<event>
 5   0  0.1448458E-01  0.4180100E+03  0.7818609E-02  0.1037716E+00
        1   -1    0    0  501    0  0.00000000000E+00  0.00000000000E+00  0.76255202395E+03  0.76255202396E+03  0.50400001928E-02 0. -1.
       -1   -1    0    0    0  501  0.00000000000E+00  0.00000000000E+00 -0.57285378162E+02  0.57285378384E+02  0.50400001928E-02 0.  1.
    10030    2    1    2    0    0  0.00000000000E+00  0.00000000000E+00  0.70526664578E+03  0.81983740235E+03  0.41800995757E+03 0.  0.
        5    1    3    3  502    0 -0.18649189626E+02  0.18567883553E+03  0.53700021502E+03  0.56852066204E+03  0.46999998093E+01 0. -1.
       -5    1    3    3    0  502  0.18649189626E+02 -0.18567883553E+03  0.16826643076E+03  0.25131674031E+03  0.46999998093E+01 0.  1.
</event>
<event>
 5   0  0.2504064E-01  0.5246891E+03  0.7818609E-02  0.1007528E+00
        2   -1    0    0  501    0  0.00000000000E+00  0.00000000000E+00  0.14111928338E+04  0.14111928338E+04  0.25500000920E-02 0. -1.
       -2   -1    0    0    0  501  0.00000000000E+00  0.00000000000E+00 -0.48770566938E+02  0.48770567004E+02  0.25500000920E-02 0.  1.
    10030    2    1    2    0    0  0.00000000000E+00  0.00000000000E+00  0.13624222669E+04  0.14599634008E+04  0.52468914460E+03 0.  0.
        5    1    3    3  502    0 -0.81170049719E+02  0.24163483149E+03  0.85333746902E+03  0.89060816007E+03  0.46999998093E+01 0.  1.
       -5    1    3    3    0  502  0.81170049719E+02 -0.24163483149E+03  0.50908479787E+03  0.56935524076E+03  0.46999998093E+01 0. -1.
</event>
<event>
 5   0  0.9868500E-02  0.4967381E+03  0.7818609E-02  0.1014634E+00
       -4   -1    0    0    0  501  0.00000000000E+00  0.00000000000E+00  0.29812393728E+03  0.29812664235E+03  0.12699999809E+01 0.  1.
        4   -1    0    0  501    0  0.00000000000E+00  0.00000000000E+00 -0.20691234635E+03  0.20691624385E+03  0.12699999809E+01 0. -1.
    10030    2    1    2    0    0  0.00000000000E+00  0.00000000000E+00  0.91211590931E+02  0.50504288620E+03  0.49673812274E+03 0.  0.
        3    1    3    3  502    0  0.82051611583E+02 -0.13500849068E+03  0.24045380907E+03  0.28771132063E+03  0.10100000352E+00 0.  1.
       -3    1    3    3    0  502 -0.82051611583E+02  0.13500849068E+03 -0.14924221814E+03  0.21733156558E+03  0.10100000352E+00 0. -1.
</event>
<event>
 5   0  0.1413361E-01  0.4973596E+03  0.7818609E-02  0.1014470E+00
       -1   -1    0    0    0  501  0.00000000000E+00  0.00000000000E+00  0.11202791954E+03  0.11202791965E+03  0.50400001928E-02 0.  1.
        1   -1    0    0  501    0  0.00000000000E+00  0.00000000000E+00 -0.55201984320E+03  0.55201984322E+03  0.50400001928E-02 0. -1.
    10030    2    1    2    0    0  0.00000000000E+00  0.00000000000E+00 -0.43999192366E+03  0.66404776287E+03  0.49735956661E+03 0.  0.
        3    1    3    3  502    0  0.57143551586E+01  0.23516378021E+03 -0.32769656752E+03  0.40338530953E+03  0.10100000352E+00 0.  1.
       -3    1    3    3    0  502 -0.57143551586E+01 -0.23516378021E+03 -0.11229535614E+03  0.26066245335E+03  0.10100000352E+00 0. -1.
</event>
<event>
 5   0  0.1413361E-01  0.5088552E+03  0.7818609E-02  0.1011493E+00
       -1   -1    0    0    0  501  0.00000000000E+00  0.00000000000E+00  0.17428492076E+03  0.17428492083E+03  0.50400001928E-02 0.  1.
        1   -1    0    0  501    0  0.00000000000E+00  0.00000000000E+00 -0.37142284256E+03  0.37142284259E+03  0.50400001928E-02 0. -1.
    10030    2    1    2    0    0  0.00000000000E+00  0.00000000000E+00 -0.19713792180E+03  0.54570776342E+03  0.50885518848E+03 0.  0.
        3    1    3    3  502    0 -0.87796675712E+02  0.18750719134E+03 -0.25715043788E+03  0.33014172862E+03  0.10100000352E+00 0. -1.
       -3    1    3    3    0  502  0.87796675712E+02 -0.18750719134E+03  0.60012516081E+02  0.21556603480E+03  0.10100000352E+00 0.  1.
</event>
<event>
 5   0  0.2488968E-01  0.5078858E+03  0.7818609E-02  0.1011741E+00
        2   -1    0    0  501    0  0.00000000000E+00  0.00000000000E+00  0.88906307696E+03  0.88906307696E+03  0.25500000920E-02 0. -1.
       -2   -1    0    0    0  501  0.00000000000E+00  0.00000000000E+00 -0.72533643940E+02  0.72533643984E+02  0.25500000920E-02 0.  1.
    10030    2    1    2    0    0  0.00000000000E+00  0.00000000000E+00  0.81652943302E+03  0.96159672095E+03  0.50788575364E+03 0.  0.
        2    1    3    3  502    0  0.25151987932E+03 -0.27144171840E+02  0.36644267547E+03  0.44528562762E+03  0.25500000920E-02 0. -1.
       -2    1    3    3    0  502 -0.25151987932E+03  0.27144171840E+02  0.45008675755E+03  0.51631109332E+03  0.25500000920E-02 0.  1.
</event>
<event>
 5   0  0.2466034E-01  0.5058073E+03  0.7818609E-02  0.1012274E+00
        2   -1    0    0  501    0  0.00000000000E+00  0.00000000000E+00  0.29698631971E+03  0.29698631972E+03  0.25500000920E-02 0. -1.
       -2   -1    0    0    0  501  0.00000000000E+00  0.00000000000E+00 -0.21536430389E+03  0.21536430390E+03  0.25500000920E-02 0.  1.
    10030    2    1    2    0    0  0.00000000000E+00  0.00000000000E+00  0.81622015819E+02  0.51235062362E+03  0.50580728352E+03 0.  0.
        3    1    3    3  502    0 -0.51642512266E+02  0.22359618070E+03 -0.66856276188E+02  0.23902295489E+03  0.10100000352E+00 0.  1.
       -3    1    3    3    0  502  0.51642512266E+02 -0.22359618070E+03  0.14847829201E+03  0.27332766873E+03  0.10100000352E+00 0. -1.
</event>
<event>
 5   0  0.1529146E-01  0.5068094E+03  0.7818609E-02  0.1012017E+00
       -1   -1    0    0    0  501  0.00000000000E+00  0.00000000000E+00  0.21414462131E+03  0.21414462137E+03  0.50400001928E-02 0.  1.
        1   -1    0    0  501    0  0.00000000000E+00  0.00000000000E+00 -0.29986249807E+03  0.29986249811E+03  0.50400001928E-02 0. -1.
    10030    2    1    2    0    0  0.00000000000E+00  0.00000000000E+00 -0.85717876759E+02  0.51400711948E+03  0.50680939660E+03 0.  0.
        1    1    3    3  502    0  0.25033326170E+03  0.26773378447E+01 -0.30583755406E+01  0.25036625918E+03  0.50400001928E-02 0.  1.
       -1    1    3    3    0  502 -0.25033326170E+03 -0.26773378447E+01 -0.82659501218E+02  0.26364086030E+03  0.50400001928E-02 0. -1.
</event>
<event>
 5   0  0.2511944E-01  0.5051085E+03  0.7818609E-02  0.1012454E+00
       -2   -1    0    0    0  501  0.00000000000E+00  0.00000000000E+00  0.13067810580E+03  0.13067810582E+03  0.25500000920E-02 0. -1.
        2   -1    0    0  501    0  0.00000000000E+00  0.00000000000E+00 -0.48809738999E+03  0.48809739000E+03  0.25500000920E-02 0.  1.
    10030    2    1    2    0    0  0.00000000000E+00  0.00000000000E+00 -0.35741928419E+03  0.61877549582E+03  0.50510847302E+03 0.  0.
        1    1    3    3  502    0 -0.66260113800E+02  0.47910424343E+02  0.11401430881E+03  0.14030350701E+03  0.50400001928E-02 0. -1.
       -1    1    3    3    0  502  0.66260113800E+02 -0.47910424343E+02 -0.47143359300E+03  0.47847198881E+03  0.50400001928E-02 0.  1.
</event>
<event>
 5   0  0.2511944E-01  0.4873843E+03  0.7818609E-02  0.1017125E+00
       -2   -1    0    0    0  501  0.00000000000E+00  0.00000000000E+00  0.36754377346E+02  0.36754377434E+02  0.25500000920E-02 0. -1.
        2   -1    0    0  501    0  0.00000000000E+00  0.00000000000E+00 -0.16157493446E+04  0.16157493446E+04  0.25500000920E-02 0.  1.
    10030    2    1    2    0    0  0.00000000000E+00  0.00000000000E+00 -0.15789949672E+04  0.16525037220E+04  0.48738428855E+03 0.  0.
        1    1    3    3  502    0 -0.10932268072E+03  0.10011729589E+03 -0.14452956980E+04  0.14528780321E+04  0.50400001928E-02 0.  1.
       -1    1    3    3    0  502  0.10932268072E+03 -0.10011729589E+03 -0.13369926921E+03  0.19962568990E+03  0.50400001928E-02 0. -1.
</event>
<event>
 5   0  0.2504064E-01  0.4953694E+03  0.7818609E-02  0.1014995E+00
        2   -1    0    0  501    0  0.00000000000E+00  0.00000000000E+00  0.31645497672E+03  0.31645497673E+03  0.25500000920E-02 0. -1.
       -2   -1    0    0    0  501  0.00000000000E+00  0.00000000000E+00 -0.19385920393E+03  0.19385920395E+03  0.25500000920E-02 0.  1.
    10030    2    1    2    0    0  0.00000000000E+00  0.00000000000E+00  0.12259577279E+03  0.51031418068E+03  0.49536939701E+03 0.  0.
        5    1    3    3  502    0 -0.42769335420E+02  0.17541147581E+03 -0.11330653965E+03  0.21321084359E+03  0.46999998093E+01 0.  1.
       -5    1    3    3    0  502  0.42769335420E+02 -0.17541147581E+03  0.23590231244E+03  0.29710333709E+03  0.46999998093E+01 0. -1.
</event>
<event>
 5   0  0.2466034E-01  0.4698705E+03  0.7818609E-02  0.1021957E+00
        2   -1    0    0  501    0  0.00000000000E+00  0.00000000000E+00  0.37670281326E+03  0.37670281327E+03  0.25500000920E-02 0. -1.
       -2   -1    0    0    0  501  0.00000000000E+00  0.00000000000E+00 -0.14652018218E+03  0.14652018220E+03  0.25500000920E-02 0.  1.
    10030    2    1    2    0    0  0.00000000000E+00  0.00000000000E+00  0.23018263108E+03  0.52322299547E+03  0.46987047081E+03 0.  0.
        3    1    3    3  502    0 -0.12060274777E+03 -0.20030604879E+03  0.14065489562E+03  0.27285773915E+03  0.10100000352E+00 0. -1.
       -3    1    3    3    0  502  0.12060274777E+03  0.20030604879E+03  0.89527735462E+02  0.25036525632E+03  0.10100000352E+00 0.  1.
</event>
<event>
 5   0  0.1439814E-01  0.4879454E+03  0.7818609E-02  0.1016974E+00
       -1   -1    0    0    0  501  0.00000000000E+00  0.00000000000E+00  0.14050582613E+03  0.14050582622E+03  0.50400001928E-02 0.  1.
        1   -1    0    0  501    0  0.00000000000E+00  0.00000000000E+00 -0.42363134013E+03  0.42363134016E+03  0.50400001928E-02 0. -1.
    10030    2    1    2    0    0  0.00000000000E+00  0.00000000000E+00 -0.28312551400E+03  0.56413716638E+03  0.48794537175E+03 0.  0.
        4    1    3    3  502    0  0.40706111840E+02  0.87440935345E+02  0.11752320430E+03  0.15204019588E+03  0.12699999809E+01 0.  1.
       -4    1    3    3    0  502 -0.40706111840E+02 -0.87440935345E+02 -0.40064871830E+03  0.41209697050E+03  0.12699999809E+01 0. -1.
</event>
<event>
 5   0  0.1529146E-01  0.4997766E+03  0.7818609E-02  0.1013837E+00
        1   -1    0    0  501    0  0.00000000000E+00  0.00000000000E+00  0.60339920414E+02  0.60339920625E+02  0.50400001928E-02 0.  1.
       -1   -1    0    0    0  501  0.00000000000E+00  0.00000000000E+00 -0.10348729458E+04  0.10348729458E+04  0.50400001928E-02 0. -1.
    10030    2    1    2    0    0  0.00000000000E+00  0.00000000000E+00 -0.97453302539E+03  0.10952128664E+04  0.49977655532E+03 0.  0.
        1    1    3    3  502    0  0.22869527269E+03  0.75096717494E+02 -0.34021186004E+03  0.41675550922E+03  0.50400001928E-02 0.  1.
       -1    1    3    3    0  502 -0.22869527269E+03 -0.75096717494E+02 -0.63432116535E+03  0.67845735722E+03  0.50400001928E-02 0. -1.
</event>
<event>
 5   0  0.1529146E-01  0.5014524E+03  0.7818609E-02  0.1013401E+00
       -1   -1    0    0    0  501  0.00000000000E+00  0.00000000000E+00  0.54123160312E+02  0.54123160547E+02  0.50400001928E-02 0. -1.
        1   -1    0    0  501    0  0.00000000000E+00  0.00000000000E+00 -0.11614920746E+04  0.11614920746E+04  0.50400001928E-02 0.  1.
    10030    2    1    2    0    0  0.00000000000E+00  0.00000000000E+00 -0.11073689142E+04  0.12156152351E+04  0.50145237820E+03 0.  0.
        1    1    3    3  502    0 -0.86537092960E+02  0.46642552124E+02  0.54547048992E+01  0.98457858790E+02  0.50400001928E-02 0. -1.
       -1    1    3    3    0  502  0.86537092960E+02 -0.46642552124E+02 -0.11128236191E+04  0.11171573763E+04  0.50400001928E-02 0.  1.
</event>
<event>
 5   0  0.2504064E-01  0.5052126E+03  0.7818609E-02  0.1012427E+00
        2   -1    0    0  501    0  0.00000000000E+00  0.00000000000E+00  0.15936794599E+04  0.15936794599E+04  0.25500000920E-02 0. -1.
       -2   -1    0    0    0  501  0.00000000000E+00  0.00000000000E+00 -0.40039377800E+02  0.40039377882E+02  0.25500000920E-02 0.  1.
    10030    2    1    2    0    0  0.00000000000E+00  0.00000000000E+00  0.15536400821E+04  0.16337188378E+04  0.50521256538E+03 0.  0.
        5    1    3    3  502    0 -0.46978119759E+02 -0.10721991967E+03  0.15005159175E+04  0.15050824441E+04  0.46999998093E+01 0. -1.
       -5    1    3    3    0  502  0.46978119759E+02  0.10721991967E+03  0.53124164581E+02  0.12863639365E+03  0.46999998093E+01 0.  1.
</event>
<event>
 5   0  0.2511944E-01  0.5059536E+03  0.7818609E-02  0.1012237E+00
        2   -1    0    0  501    0  0.00000000000E+00  0.00000000000E+00  0.24458059613E+03  0.24458059614E+03  0.25500000920E-02 0.  1.
       -2   -1    0    0    0  501  0.00000000000E+00  0.00000000000E+00 -0.26166119816E+03  0.26166119818E+03  0.25500000920E-02 0. -1.
    10030    2    1    2    0    0  0.00000000000E+00  0.00000000000E+00 -0.17080602036E+02  0.50624179432E+03  0.50595356244E+03 0.  0.
        1    1    3    3  502    0 -0.72827200096E+02  0.21955797978E+03  0.93927728069E+02  0.24966362507E+03  0.50400001928E-02 0.  1.
       -1    1    3    3    0  502  0.72827200096E+02 -0.21955797978E+03 -0.11100833011E+03  0.25657816925E+03  0.50400001928E-02 0. -1.
</event>
<event>
 5   0  0.9868500E-02  0.4465076E+03  0.7818609E-02  0.1028769E+00
        3   -1    0    0  501    0  0.00000000000E+00  0.00000000000E+00  0.11344311749E+03  0.11344316245E+03  0.10100000352E+00 0. -1.
       -3   -1    0    0    0  501  0.00000000000E+00  0.00000000000E+00 -0.43935895432E+03  0.43935896593E+03  0.10100000352E+00 0.  1.
    10030    2    1    2    0    0  0.00000000000E+00  0.00000000000E+00 -0.32591583683E+03  0.55280212838E+03  0.44650762641E+03 0.  0.
        5    1    3    3  502    0 -0.76940238276E+02 -0.13922148378E+03 -0.35681477253E+03  0.39069334997E+03  0.46999998093E+01 0.  1.
       -5    1    3    3    0  502  0.76940238276E+02  0.13922148378E+03  0.30898935698E+02  0.16210877841E+03  0.46999998093E+01 0. -1.
</event>
<event>
 5   0  0.1413361E-01  0.4046568E+03  0.7818609E-02  0.1042179E+00
       -1   -1    0    0    0  501  0.00000000000E+00  0.00000000000E+00  0.15296983358E+03  0.15296983366E+03  0.50400001928E-02 0. -1.
        1   -1    0    0  501    0  0.00000000000E+00  0.00000000000E+00 -0.26761340787E+03  0.26761340792E+03  0.50400001928E-02 0.  1.
    10030    2    1    2    0    0  0.00000000000E+00  0.00000000000E+00 -0.11464357429E+03  0.42058324158E+03  0.40465678540E+03 0.  0.
        3    1    3    3  502    0  0.62274265819E+02 -0.18110755626E+03 -0.12514924748E+03  0.22878019028E+03  0.10100000352E+00 0.  1.
       -3    1    3    3    0  502 -0.62274265819E+02  0.18110755626E+03  0.10505673188E+02  0.19180305130E+03  0.10100000352E+00 0. -1.
</event>
<event>
 5   0  0.1413361E-01  0.4967728E+03  0.7818609E-02  0.1014625E+00
       -1   -1    0    0    0  501  0.00000000000E+00  0.00000000000E+00  0.28159015348E+03  0.28159015352E+03  0.50400001928E-02 0. -1.
        1   -1    0    0  501    0  0.00000000000E+00  0.00000000000E+00 -0.21909788151E+03  0.21909788157E+03  0.50400001928E-02 0.  1.
    10030    2    1    2    0    0  0.00000000000E+00  0.00000000000E+00  0.62492271968E+02  0.50068803509E+03  0.49677280967E+03 0.  0.
        3    1    3    3  502    0 -0.48199656902E+02  0.85704095655E+01 -0.21418721826E+03  0.21971079516E+03  0.10100000352E+00 0.  1.
       -3    1    3    3    0  502  0.48199656902E+02 -0.85704095655E+01  0.27667949023E+03  0.28097723993E+03  0.10100000352E+00 0. -1.
</event>
<event>
 5   0  0.2511944E-01  0.5340090E+03  0.7818609E-02  0.1005264E+00
       -2   -1    0    0    0  501  0.00000000000E+00  0.00000000000E+00  0.30644829358E+03  0.30644829360E+03  0.25500000920E-02 0. -1.
        2   -1    0    0  501    0  0.00000000000E+00  0.00000000000E+00 -0.23263765182E+03  0.23263765184E+03  0.25500000920E-02 0.  1.
    10030    2    1    2    0    0  0.00000000000E+00  0.00000000000E+00  0.73810641760E+02  0.53908594543E+03  0.53400903150E+03 0.  0.
        1    1    3    3  502    0  0.21403629138E+03  0.60549855006E+02  0.18600372829E+03  0.28995724845E+03  0.50400001928E-02 0. -1.
       -1    1    3    3    0  502 -0.21403629138E+03 -0.60549855006E+02 -0.11219308653E+03  0.24912869698E+03  0.50400001928E-02 0.  1.
</event>
<event>
 5   0  0.9868500E-02  0.5102716E+03  0.7818609E-02  0.1011132E+00
        3   -1    0    0  501    0  0.00000000000E+00  0.00000000000E+00  0.68371810920E+02  0.68371885520E+02  0.10100000352E+00 0. -1.
       -3   -1    0    0    0  501  0.00000000000E+00  0.00000000000E+00 -0.95206258358E+03  0.95206258894E+03  0.10100000352E+00 0.  1.
    10030    2    1    2    0    0  0.00000000000E+00  0.00000000000E+00 -0.88369077266E+03  0.10204344745E+04  0.51027162862E+03 0.  0.
        3    1    3    3  502    0  0.15150149791E+03  0.18842830455E+03 -0.27893523909E+03  0.36913792494E+03  0.10100000352E+00 0.  1.
       -3    1    3    3    0  502 -0.15150149791E+03 -0.18842830455E+03 -0.60475553357E+03  0.65129654952E+03  0.10100000352E+00 0. -1.
</event>
<event>
 5   0  0.1529146E-01  0.5051185E+03  0.7818609E-02  0.1012451E+00
        1   -1    0    0  501    0  0.00000000000E+00  0.00000000000E+00  0.23969602564E+03  0.23969602569E+03  0.50400001928E-02 0.  1.
       -1   -1    0    0    0  501  0.00000000000E+00  0.00000000000E+00 -0.26611274802E+03  0.26611274807E+03  0.50400001928E-02 0. -1.
    10030    2    1    2    0    0  0.00000000000E+00  0.00000000000E+00 -0.26416722383E+02  0.50580877377E+03  0.50511847363E+03 0.  0.
        1    1    3    3  502    0  0.12109295590E+03 -0.15499890317E+03  0.14543163812E+03  0.24461914345E+03  0.50400001928E-02 0.  1.
       -1    1    3    3    0  502 -0.12109295590E+03  0.15499890317E+03 -0.17184836050E+03  0.26118963032E+03  0.50400001928E-02 0. -1.
</event>
<event>
 5   0  0.1453602E-01  0.5043751E+03  0.7818609E-02  0.1012643E+00
       -1   -1    0    0    0  501  0.00000000000E+00  0.00000000000E+00  0.47571296584E+02  0.47571296851E+02  0.50400001928E-02 0. -1.
        1   -1    0    0  501    0  0.00000000000E+00  0.00000000000E+00 -0.13369106040E+04  0.13369106040E+04  0.50400001928E-02 0.  1.
    10030    2    1    2    0    0  0.00000000000E+00  0.00000000000E+00 -0.12893393074E+04  0.13844819009E+04  0.50437514229E+03 0.  0.
        2    1    3    3  502    0  0.20047893846E+03 -0.12051467498E+03 -0.38595982101E+03  0.45130984378E+03  0.25500000920E-02 0. -1.
       -2    1    3    3    0  502 -0.20047893846E+03  0.12051467498E+03 -0.90337948641E+03  0.93317205709E+03  0.25500000920E-02 0.  1.
</event>
<event>
 5   0  0.1439814E-01  0.6169349E+03  0.7818609E-02  0.9870881E-01
        1   -1    0    0  501    0  0.00000000000E+00  0.00000000000E+00  0.41754707310E+03  0.41754707313E+03  0.50400001928E-02 0. -1.
       -1   -1    0    0    0  501  0.00000000000E+00  0.00000000000E+00 -0.22788369919E+03  0.22788369925E+03  0.50400001928E-02 0.  1.
    10030    2    1    2    0    0  0.00000000000E+00  0.00000000000E+00  0.18966337391E+03  0.64543077238E+03  0.61693491272E+03 0.  0.
        4    1    3    3  502    0  0.22897469897E+03  0.60977324383E+02  0.30144525395E+03  0.38342991653E+03  0.12699999809E+01 0. -1.
       -4    1    3    3    0  502 -0.22897469897E+03 -0.60977324383E+02 -0.11178188004E+03  0.26200085585E+03  0.12699999809E+01 0.  1.
</event>
<event>
 5   0  0.1453602E-01  0.4464643E+03  0.7818609E-02  0.1028782E+00
       -1   -1    0    0    0  501  0.00000000000E+00  0.00000000000E+00  0.20992343570E+03  0.20992343576E+03  0.50400001928E-02 0.  1.
        1   -1    0    0  501    0  0.00000000000E+00  0.00000000000E+00 -0.23738460363E+03  0.23738460369E+03  0.50400001928E-02 0. -1.
    10030    2    1    2    0    0  0.00000000000E+00  0.00000000000E+00 -0.27461167937E+02  0.44730803944E+03  0.44646429466E+03 0.  0.
        2    1    3    3  502    0  0.14407712098E+03  0.16529376499E+03  0.28209559292E+02  0.22107922737E+03  0.25500000920E-02 0.  1.
       -2    1    3    3    0  502 -0.14407712098E+03 -0.16529376499E+03 -0.55670727229E+02  0.22622881207E+03  0.25500000920E-02 0. -1.
</event>
<event>
 5   0  0.1439814E-01  0.4977697E+03  0.7818609E-02  0.1014363E+00
       -1   -1    0    0    0  501  0.00000000000E+00  0.00000000000E+00  0.15426812102E+03  0.15426812110E+03  0.50400001928E-02 0.  1.
        1   -1    0    0  501    0  0.00000000000E+00  0.00000000000E+00 -0.40153251551E+03  0.40153251554E+03  0.50400001928E-02 0. -1.
    10030    2    1    2    0    0  0.00000000000E+00  0.00000000000E+00 -0.24726439449E+03  0.55580063664E+03  0.49776969263E+03 0.  0.
        4    1    3    3  502    0  0.11640934036E+03 -0.21804801723E+03 -0.91155562701E+02  0.26345212440E+03  0.12699999809E+01 0. -1.
       -4    1    3    3    0  502 -0.11640934036E+03  0.21804801723E+03 -0.15610883179E+03  0.29234851223E+03  0.12699999809E+01 0.  1.
</event>
<event>
 5   0  0.1413361E-01  0.4769620E+03  0.7818609E-02  0.1019973E+00
        1   -1    0    0  501    0  0.00000000000E+00  0.00000000000E+00  0.89106893981E+03  0.89106893982E+03  0.50400001928E-02 0. -1.
       -1   -1    0    0    0  501  0.00000000000E+00  0.00000000000E+00 -0.63825793862E+02  0.63825794061E+02  0.50400001928E-02 0.  1.
    10030    2    1    2    0    0  0.00000000000E+00  0.00000000000E+00  0.82724314595E+03  0.95489473388E+03  0.47696197991E+03 0.  0.
        3    1    3    3  502    0 -0.20585118608E+03  0.10105600765E+03  0.28255101144E+03  0.36389849102E+03  0.10100000352E+00 0.  1.
       -3    1    3    3    0  502  0.20585118608E+03 -0.10105600765E+03  0.54469213450E+03  0.59099624287E+03  0.10100000352E+00 0. -1.
</event>
<event>
 5   0  0.1439814E-01  0.4973726E+03  0.7818609E-02  0.1014467E+00
        1   -1    0    0  501    0  0.00000000000E+00  0.00000000000E+00  0.99380185121E+03  0.99380185122E+03  0.50400001928E-02 0. -1.
       -1   -1    0    0    0  501  0.00000000000E+00  0.00000000000E+00 -0.62230589353E+02  0.62230589557E+02  0.50400001928E-02 0.  1.
    10030    2    1    2    0    0  0.00000000000E+00  0.00000000000E+00  0.93157126186E+03  0.10560324408E+04  0.49737259681E+03 0.  0.
        4    1    3    3  502    0  0.98946271289E+02 -0.52306428256E+02 -0.57271238005E+01  0.11207470672E+03  0.12699999809E+01 0.  1.
       -4    1    3    3    0  502 -0.98946271289E+02  0.52306428256E+02  0.93729838566E+03  0.94395773406E+03  0.12699999809E+01 0. -1.
</event>
<event>
 5   0  0.2504064E-01  0.4985071E+03  0.7818609E-02  0.1014169E+00
       -2   -1    0    0    0  501  0.00000000000E+00  0.00000000000E+00  0.91207139744E+02  0.91207139780E+02  0.25500000920E-02 0.  1.
        2   -1    0    0  501    0  0.00000000000E+00  0.00000000000E+00 -0.68116743570E+03  0.68116743570E+03  0.25500000920E-02 0. -1.
    10030    2    1    2    0    0  0.00000000000E+00  0.00000000000E+00 -0.58996029595E+03  0.77237457548E+03  0.49850710532E+03 0.  0.
        5    1    3    3  502    0  0.91112469469E+02  0.16127418138E+03 -0.55328660773E+03  0.58348864939E+03  0.46999998093E+01 0. -1.
       -5    1    3    3    0  502 -0.91112469469E+02 -0.16127418138E+03 -0.36673688222E+02  0.18888592610E+03  0.46999998093E+01 0.  1.
</event>
<event>
 5   0  0.1453602E-01  0.5073493E+03  0.7818609E-02  0.1011878E+00
       -1   -1    0    0    0  501  0.00000000000E+00  0.00000000000E+00  0.29104265885E+03  0.29104265890E+03  0.50400001928E-02 0.  1.
        1   -1    0    0  501    0  0.00000000000E+00  0.00000000000E+00 -0.22110448619E+03  0.22110448625E+03  0.50400001928E-02 0. -1.
    10030    2    1    2    0    0  0.00000000000E+00  0.00000000000E+00  0.69938172663E+02  0.51214714514E+03  0.50734933752E+03 0.  0.
        2    1    3    3  502    0 -0.60479140405E+01  0.35369348075E+02  0.28846788179E+03  0.29069105057E+03  0.25500000920E-02 0.  1.
       -2    1    3    3    0  502  0.60479140405E+01 -0.35369348075E+02 -0.21852970913E+03  0.22145609458E+03  0.25500000920E-02 0. -1.
</event>
<event>
 5   0  0.1413361E-01  0.5151728E+03  0.7818609E-02  0.1009893E+00
       -1   -1    0    0    0  501  0.00000000000E+00  0.00000000000E+00  0.23593632906E+03  0.23593632911E+03  0.50400001928E-02 0.  1.
        1   -1    0    0  501    0  0.00000000000E+00  0.00000000000E+00 -0.28122315791E+03  0.28122315796E+03  0.50400001928E-02 0. -1.
    10030    2    1    2    0    0  0.00000000000E+00  0.00000000000E+00 -0.45286828855E+02  0.51715948707E+03  0.51517282362E+03 0.  0.
        3    1    3    3  502    0  0.14919930309E+03 -0.15961633193E+03  0.11431196170E+03  0.24658678037E+03  0.10100000352E+00 0.  1.
       -3    1    3    3    0  502 -0.14919930309E+03  0.15961633193E+03 -0.15959879055E+03  0.27057270670E+03  0.10100000352E+00 0. -1.
</event>
<event>
 5   0  0.9868500E-02  0.4999542E+03  0.7818609E-02  0.1013791E+00
       -4   -1    0    0    0  501  0.00000000000E+00  0.00000000000E+00  0.26827521616E+03  0.26827822220E+03  0.12699999809E+01 0.  1.
        4   -1    0    0  501    0  0.00000000000E+00  0.00000000000E+00 -0.23292098519E+03  0.23292444750E+03  0.12699999809E+01 0. -1.
    10030    2    1    2    0    0  0.00000000000E+00  0.00000000000E+00  0.35354230975E+02  0.50120266970E+03  0.49995419237E+03 0.  0.
        3    1    3    3  502    0  0.32124436464E+02  0.51524674195E+02 -0.22541918483E+03  0.23345361543E+03  0.10100000352E+00 0. -1.
       -3    1    3    3    0  502 -0.32124436464E+02 -0.51524674195E+02  0.26077341580E+03  0.26774905427E+03  0.10100000352E+00 0.  1.
</event>
<event>
 5   0  0.2511944E-01  0.5114030E+03  0.7818609E-02  0.1010845E+00
       -2   -1    0    0    0  501  0.00000000000E+00  0.00000000000E+00  0.71854435565E+02  0.71854435610E+02  0.25500000920E-02 0. -1.
        2   -1    0    0  501    0  0.00000000000E+00  0.00000000000E+00 -0.90994059978E+03  0.90994059978E+03  0.25500000920E-02 0.  1.
    10030    2    1    2    0    0  0.00000000000E+00  0.00000000000E+00 -0.83808616421E+03  0.98179503539E+03  0.51140304348E+03 0.  0.
        1    1    3    3  502    0  0.11681254081E+03 -0.17236678306E+03 -0.13410992309E+03  0.24767105017E+03  0.50400001928E-02 0. -1.
       -1    1    3    3    0  502 -0.11681254081E+03  0.17236678306E+03 -0.70397624112E+03  0.73412398523E+03  0.50400001928E-02 0.  1.
</event>
<event>
 5   0  0.9868500E-02  0.4996949E+03  0.7818609E-02  0.1013859E+00
       -3   -1    0    0    0  501  0.00000000000E+00  0.00000000000E+00  0.26923418370E+03  0.26923420264E+03  0.10100000352E+00 0. -1.
        3   -1    0    0  501    0  0.00000000000E+00  0.00000000000E+00 -0.23185669416E+03  0.23185671616E+03  0.10100000352E+00 0.  1.
    10030    2    1    2    0    0  0.00000000000E+00  0.00000000000E+00  0.37377489533E+02  0.50109091880E+03  0.49969493912E+03 0.  0.
        4    1    3    3  502    0  0.10041253781E+02  0.73204694268E+02 -0.22064596483E+03  0.23269294947E+03  0.12699999809E+01 0.  1.
       -4    1    3    3    0  502 -0.10041253781E+02 -0.73204694268E+02  0.25802345436E+03  0.26839796933E+03  0.12699999809E+01 0. -1.
</event>
<event>
 5   0  0.1529146E-01  0.5032786E+03  0.7818609E-02  0.1012927E+00
        1   -1    0    0  501    0  0.00000000000E+00  0.00000000000E+00  0.51917105285E+03  0.51917105288E+03  0.50400001928E-02 0. -1.
       -1   -1    0    0    0  501  0.00000000000E+00  0.00000000000E+00 -0.12196818119E+03  0.12196818130E+03  0.50400001928E-02 0.  1.
    10030    2    1    2    0    0  0.00000000000E+00  0.00000000000E+00  0.39720287166E+03  0.64113923417E+03  0.50327864681E+03 0.  0.
        1    1    3    3  502    0  0.14474143204E+03 -0.20513353794E+02  0.45952748433E+03  0.48222026991E+03  0.50400001928E-02 0. -1.
       -1    1    3    3    0  502 -0.14474143204E+03  0.20513353794E+02 -0.62324612664E+02  0.15891896427E+03  0.50400001928E-02 0.  1.
</event>
<event>
 5   0  0.2488968E-01  0.4954902E+03  0.7818609E-02  0.1014963E+00
        2   -1    0    0  501    0  0.00000000000E+00  0.00000000000E+00  0.18482397432E+03  0.18482397434E+03  0.25500000920E-02 0.  1.
       -2   -1    0    0    0  501  0.00000000000E+00  0.00000000000E+00 -0.33208690904E+03  0.33208690905E+03  0.25500000920E-02 0. -1.
    10030    2    1    2    0    0  0.00000000000E+00  0.00000000000E+00 -0.14726293472E+03  0.51691088339E+03  0.49549015069E+03 0.  0.
        2    1    3    3  502    0 -0.15664639874E+03 -0.15316829309E+02  0.12596387292E+03  0.20159265062E+03  0.25500000920E-02 0.  1.
       -2    1    3    3    0  502  0.15664639874E+03  0.15316829309E+02 -0.27322680764E+03  0.31531823277E+03  0.25500000920E-02 0. -1.
</event>
<event>
 5   0  0.1448458E-01  0.5033804E+03  0.7818609E-02  0.1012900E+00
       -1   -1    0    0    0  501  0.00000000000E+00  0.00000000000E+00  0.21808052351E+03  0.21808052357E+03  0.50400001928E-02 0. -1.
        1   -1    0    0  501    0  0.00000000000E+00  0.00000000000E+00 -0.29047962584E+03  0.29047962588E+03  0.50400001928E-02 0.  1.
    10030    2    1    2    0    0  0.00000000000E+00  0.00000000000E+00 -0.72399102329E+02  0.50856014945E+03  0.50338036870E+03 0.  0.
        5    1    3    3  502    0 -0.12332931185E+03  0.61756880395E+02  0.17644627963E+03  0.22400761378E+03  0.46999998093E+01 0. -1.
       -5    1    3    3    0  502  0.12332931185E+03 -0.61756880395E+02 -0.24884538196E+03  0.28455253567E+03  0.46999998093E+01 0.  1.
</event>
<event>
 5   0  0.1439814E-01  0.5094066E+03  0.7818609E-02  0.1011352E+00
        1   -1    0    0  501    0  0.00000000000E+00  0.00000000000E+00  0.21223700511E+03  0.21223700517E+03  0.50400001928E-02 0. -1.
       -1   -1    0    0    0  501  0.00000000000E+00  0.00000000000E+00 -0.30566667487E+03  0.30566667491E+03  0.50400001928E-02 0.  1.
    10030    2    1    2    0    0  0.00000000000E+00  0.00000000000E+00 -0.93429669754E+02  0.51790368009E+03  0.50940663389E+03 0.  0.
        4    1    3    3  502    0  0.75738170188E+02 -0.13235791204E+03  0.16069113082E+03  0.22153586556E+03  0.12699999809E+01 0. -1.
       -4    1    3    3    0  502 -0.75738170188E+02  0.13235791204E+03 -0.25412080057E+03  0.29636781453E+03  0.12699999809E+01 0.  1.
</event>
<event>
 5   0  0.1413361E-01  0.5167648E+03  0.7818609E-02  0.1009493E+00
        1   -1    0    0  501    0  0.00000000000E+00  0.00000000000E+00  0.77478241115E+03  0.77478241117E+03  0.50400001928E-02 0.  1.
       -1   -1    0    0    0  501  0.00000000000E+00  0.00000000000E+00 -0.86168029253E+02  0.86168029400E+02  0.50400001928E-02 0. -1.
    10030    2    1    2    0    0  0.00000000000E+00  0.00000000000E+00  0.68861438190E+03  0.86095044057E+03  0.51676483448E+03 0.  0.
        3    1    3    3  502    0  0.21324807267E+03  0.16547155870E+02  0.10280095649E+03  0.23731117909E+03  0.10100000352E+00 0. -1.
       -3    1    3    3    0  502 -0.21324807267E+03 -0.16547155870E+02  0.58581342541E+03  0.62363926148E+03  0.10100000352E+00 0.  1.
</event>
<event>
 5   0  0.1448458E-01  0.4959189E+03  0.7818609E-02  0.1014850E+00
        1   -1    0    0  501    0  0.00000000000E+00  0.00000000000E+00  0.58215062415E+03  0.58215062417E+03  0.50400001928E-02 0.  1.
       -1   -1    0    0    0  501  0.00000000000E+00  0.00000000000E+00 -0.10561509636E+03  0.10561509649E+03  0.50400001928E-02 0. -1.
    10030    2    1    2    0    0  0.00000000000E+00  0.00000000000E+00  0.47653552778E+03  0.68776572066E+03  0.49591892207E+03 0.  0.
        5    1    3    3  502    0  0.13228825835E+02  0.32745862155E+01  0.58156897256E+03  0.58174761245E+03  0.46999998093E+01 0.  1.
       -5    1    3    3    0  502 -0.13228825835E+02 -0.32745862155E+01 -0.10503344478E+03  0.10601810821E+03  0.46999998093E+01 0. -1.
</event>
<event>
 5   0  0.2466034E-01  0.4976547E+03  0.7818609E-02  0.1014393E+00
       -2   -1    0    0    0  501  0.00000000000E+00  0.00000000000E+00  0.20622975303E+03  0.20622975305E+03  0.25500000920E-02 0.  1.
        2   -1    0    0  501    0  0.00000000000E+00  0.00000000000E+00 -0.30022365602E+03  0.30022365603E+03  0.25500000920E-02 0. -1.
    10030    2    1    2    0    0  0.00000000000E+00  0.00000000000E+00 -0.93993902987E+02  0.50645340908E+03  0.49765470134E+03 0.  0.
        3    1    3    3  502    0  0.12218368437E+03 -0.29074185198E+02  0.17160514402E+03  0.21265581729E+03  0.10100000352E+00 0.  1.
       -3    1    3    3    0  502 -0.12218368437E+03  0.29074185198E+02 -0.26559904700E+03  0.29379759179E+03  0.10100000352E+00 0. -1.
</event>
<event>
 5   0  0.2413301E-01  0.4989030E+03  0.7818609E-02  0.1014066E+00
       -2   -1    0    0    0  501  0.00000000000E+00  0.00000000000E+00  0.28620383156E+03  0.28620383157E+03  0.25500000920E-02 0.  1.
        2   -1    0    0  501    0  0.00000000000E+00  0.00000000000E+00 -0.21741861176E+03  0.21741861178E+03  0.25500000920E-02 0. -1.
    10030    2    1    2    0    0  0.00000000000E+00  0.00000000000E+00  0.68785219800E+02  0.50362244335E+03  0.49890295548E+03 0.  0.
        4    1    3    3  502    0  0.30630323346E+02 -0.20997739438E+03  0.16676547815E+03  0.26989083063E+03  0.12699999809E+01 0.  1.
       -4    1    3    3    0  502 -0.30630323346E+02  0.20997739438E+03 -0.97980258346E+02  0.23373161272E+03  0.12699999809E+01 0. -1.
</event>
<event>
 5   0  0.1439814E-01  0.4969680E+03  0.7818609E-02  0.1014573E+00
       -1   -1    0    0    0  501  0.00000000000E+00  0.00000000000E+00  0.96961542335E+02  0.96961542466E+02  0.50400001928E-02 0. -1.
        1   -1    0    0  501    0  0.00000000000E+00  0.00000000000E+00 -0.63679153557E+03  0.63679153559E+03  0.50400001928E-02 0.  1.
    10030    2    1    2    0    0  0.00000000000E+00  0.00000000000E+00 -0.53982999324E+03  0.73375307806E+03  0.49696796472E+03 0.  0.
        4    1    3    3  502    0 -0.23276895942E+03 -0.18449839425E+01 -0.14155737621E+03  0.27244246382E+03  0.12699999809E+01 0. -1.
       -4    1    3    3    0  502  0.23276895942E+03  0.18449839425E+01 -0.39827261703E+03  0.46131061424E+03  0.12699999809E+01 0.  1.
</event>
<event>
 5   0  0.1413361E-01  0.5000836E+03  0.7818609E-02  0.1013757E+00
       -1   -1    0    0    0  501  0.00000000000E+00  0.00000000000E+00  0.11678053292E+03  0.11678053303E+03  0.50400001928E-02 0. -1.
        1   -1    0    0  501    0  0.00000000000E+00  0.00000000000E+00 -0.53537101032E+03  0.53537101034E+03  0.50400001928E-02 0.  1.
    10030    2    1    2    0    0  0.00000000000E+00  0.00000000000E+00 -0.41859047739E+03  0.65215154337E+03  0.50008364076E+03 0.  0.
        3    1    3    3  502    0  0.18203523038E+03  0.32917073288E+02  0.10087908448E+02  0.18526234078E+03  0.10100000352E+00 0. -1.
       -3    1    3    3    0  502 -0.18203523038E+03 -0.32917073288E+02 -0.42867838584E+03  0.46688920260E+03  0.10100000352E+00 0.  1.
</event>
<event>
 5   0  0.2466034E-01  0.5030374E+03  0.7818609E-02  0.1012989E+00
       -2   -1    0    0    0  501  0.00000000000E+00  0.00000000000E+00  0.64994115223E+02  0.64994115273E+02  0.25500000920E-02 0.  1.
        2   -1    0    0  501    0  0.00000000000E+00  0.00000000000E+00 -0.97334432674E+03  0.97334432674E+03  0.25500000920E-02 0. -1.
    10030    2    1    2    0    0  0.00000000000E+00  0.00000000000E+00 -0.90835021151E+03  0.10383384420E+04  0.50303738768E+03 0.  0.
        3    1    3    3  502    0  0.18227763000E+03  0.14529565721E+03 -0.25916400089E+03  0.34857130111E+03  0.10100000352E+00 0.  1.
       -3    1    3    3    0  502 -0.18227763000E+03 -0.14529565721E+03 -0.64918621062E+03  0.68976714090E+03  0.10100000352E+00 0. -1.
</event>
<event>
 5   0  0.1453602E-01  0.4932262E+03  0.7818609E-02  0.1015562E+00
        1   -1    0    0  501    0  0.00000000000E+00  0.00000000000E+00  0.39454187204E+03  0.39454187207E+03  0.50400001928E-02 0. -1.
       -1   -1    0    0    0  501  0.00000000000E+00  0.00000000000E+00 -0.15414843104E+03  0.15414843112E+03  0.50400001928E-02 0.  1.
    10030    2    1    2    0    0  0.00000000000E+00  0.00000000000E+00  0.24039344100E+03  0.54869030320E+03  0.49322615740E+03 0.  0.
        2    1    3    3  502    0 -0.38787385567E+02  0.10237807218E+03 -0.12563316791E+03  0.16664160293E+03  0.25500000920E-02 0.  1.
       -2    1    3    3    0  502  0.38787385567E+02 -0.10237807218E+03  0.36602660891E+03  0.38204870027E+03  0.25500000920E-02 0. -1.
</event>
<event>
 5   0  0.2466034E-01  0.5000330E+03  0.7818609E-02  0.1013770E+00
       -2   -1    0    0    0  501  0.00000000000E+00  0.00000000000E+00  0.13267331040E+03  0.13267331042E+03  0.25500000920E-02 0.  1.
        2   -1    0    0  501    0  0.00000000000E+00  0.00000000000E+00 -0.47114414515E+03  0.47114414516E+03  0.25500000920E-02 0. -1.
    10030    2    1    2    0    0  0.00000000000E+00  0.00000000000E+00 -0.33847083475E+03  0.60381745558E+03  0.50003301259E+03 0.  0.
        3    1    3    3  502    0 -0.62181534508E+01  0.24975040996E+03 -0.18096242033E+03  0.30848231794E+03  0.10100000352E+00 0. -1.
       -3    1    3    3    0  502  0.62181534508E+01 -0.24975040996E+03 -0.15750841442E+03  0.29533513764E+03  0.10100000352E+00 0.  1.
</event>
<event>
 5   0  0.1448458E-01  0.4976630E+03  0.7818609E-02  0.1014391E+00
       -1   -1    0    0    0  501  0.00000000000E+00  0.00000000000E+00  0.43685424049E+02  0.43685424340E+02  0.50400001928E-02 0. -1.
        1   -1    0    0  501    0  0.00000000000E+00  0.00000000000E+00 -0.14173406287E+04  0.14173406287E+04  0.50400001928E-02 0.  1.
    10030    2    1    2    0    0  0.00000000000E+00  0.00000000000E+00 -0.13736552047E+04  0.14610260531E+04  0.49766304507E+03 0.  0.
        5    1    3    3  502    0  0.17446842920E+03  0.14418828755E+03 -0.38363819518E+03  0.44545465521E+03  0.46999998093E+01 0.  1.
       -5    1    3    3    0  502 -0.17446842920E+03 -0.14418828755E+03 -0.99001700949E+03  0.10155713979E+04  0.46999998093E+01 0. -1.
</event>
<event>
 5   0  0.1453602E-01  0.5048558E+03  0.7818609E-02  0.1012519E+00
        1   -1    0    0  501    0  0.00000000000E+00  0.00000000000E+00  0.16243717181E+04  0.16243717181E+04  0.50400001928E-02 0.  1.
       -1   -1    0    0    0  501  0.00000000000E+00  0.00000000000E+00 -0.39227380973E+02  0.39227381296E+02  0.50400001928E-02 0. -1.
    10030    2    1    2    0    0  0.00000000000E+00  0.00000000000E+00  0.15851443371E+04  0.16635990994E+04  0.50485581507E+03 0.  0.
        2    1    3    3  502    0 -0.12174692634E+03 -0.19299001657E+03  0.11482761947E+04  0.11707286961E+04  0.25500000920E-02 0.  1.
       -2    1    3    3    0  502  0.12174692634E+03  0.19299001657E+03  0.43686814241E+03  0.49287040328E+03  0.25500000920E-02 0. -1.
</event>
<event>
 5   0  0.2504064E-01  0.4054654E+03  0.7818609E-02  0.1041903E+00
        2   -1    0    0  501    0  0.00000000000E+00  0.00000000000E+00  0.38584071330E+03  0.38584071331E+03  0.25500000920E-02 0. -1.
       -2   -1    0    0    0  501  0.00000000000E+00  0.00000000000E+00 -0.10652206046E+03  0.10652206049E+03  0.25500000920E-02 0.  1.
    10030    2    1    2    0    0  0.00000000000E+00  0.00000000000E+00  0.27931865284E+03  0.49236277380E+03  0.40546540074E+03 0.  0.
        5    1    3    3  502    0  0.56854969890E+02 -0.19309872390E+03  0.11095282851E+03  0.22989611768E+03  0.46999998093E+01 0. -1.
       -5    1    3    3    0  502 -0.56854969890E+02  0.19309872390E+03  0.16836582433E+03  0.26246665612E+03  0.46999998093E+01 0.  1.
</event>
<event>
 5   0  0.1529146E-01  0.5050160E+03  0.7818609E-02  0.1012478E+00
       -1   -1    0    0    0  501  0.00000000000E+00  0.00000000000E+00  0.55810066297E+02  0.55810066524E+02  0.50400001928E-02 0. -1.
        1   -1    0    0  501    0  0.00000000000E+00  0.00000000000E+00 -0.11424512174E+04  0.11424512174E+04  0.50400001928E-02 0.  1.
    10030    2    1    2    0    0  0.00000000000E+00  0.00000000000E+00 -0.10866411511E+04  0.11982612839E+04  0.50501595351E+03 0.  0.
        1    1    3    3  502    0  0.15658164994E+02  0.33104533365E+02  0.49475737849E+02  0.61554341207E+02  0.50400001928E-02 0. -1.
       -1    1    3    3    0  502 -0.15658164994E+02 -0.33104533365E+02 -0.11361168889E+04  0.11367069427E+04  0.50400001928E-02 0.  1.
</event>
<event>
 5   0  0.1529146E-01  0.5268015E+03  0.7818609E-02  0.1007011E+00
       -1   -1    0    0    0  501  0.00000000000E+00  0.00000000000E+00  0.11169180536E+03  0.11169180548E+03  0.50400001928E-02 0. -1.
        1   -1    0    0  501    0  0.00000000000E+00  0.00000000000E+00 -0.62117320770E+03  0.62117320772E+03  0.50400001928E-02 0.  1.
    10030    2    1    2    0    0  0.00000000000E+00  0.00000000000E+00 -0.50948140234E+03  0.73286501319E+03  0.52680150744E+03 0.  0.
        1    1    3    3  502    0  0.65821423081E+02  0.21084273507E+03 -0.45437496628E+03  0.50521651663E+03  0.50400001928E-02 0.  1.
       -1    1    3    3    0  502 -0.65821423081E+02 -0.21084273507E+03 -0.55106436057E+02  0.22764849656E+03  0.50400001928E-02 0. -1.
</event>
<event>
 5   0  0.2504064E-01  0.5043440E+03  0.7818609E-02  0.1012651E+00
       -2   -1    0    0    0  501  0.00000000000E+00  0.00000000000E+00  0.66609251404E+02  0.66609251453E+02  0.25500000920E-02 0.  1.
        2   -1    0    0  501    0  0.00000000000E+00  0.00000000000E+00 -0.95468310108E+03  0.95468310108E+03  0.25500000920E-02 0. -1.
    10030    2    1    2    0    0  0.00000000000E+00  0.00000000000E+00 -0.88807384967E+03  0.10212923525E+04  0.50434403622E+03 0.  0.
        5    1    3    3  502    0 -0.64909223040E+02 -0.15049183821E+03 -0.83200983201E+03  0.84801146877E+03  0.46999998093E+01 0. -1.
       -5    1    3    3    0  502  0.64909223040E+02  0.15049183821E+03 -0.56064017660E+02  0.17328088376E+03  0.46999998093E+01 0.  1.
</event>
<event>
 5   0  0.1453602E-01  0.5105983E+03  0.7818609E-02  0.1011049E+00
       -1   -1    0    0    0  501  0.00000000000E+00  0.00000000000E+00  0.10097363937E+03  0.10097363950E+03  0.50400001928E-02 0. -1.
        1   -1    0    0  501    0  0.00000000000E+00  0.00000000000E+00 -0.64549177152E+03  0.64549177153E+03  0.50400001928E-02 0.  1.
    10030    2    1    2    0    0  0.00000000000E+00  0.00000000000E+00 -0.54451813214E+03  0.74646541103E+03  0.51059828989E+03 0.  0.
        2    1    3    3  502    0 -0.10938152792E+03  0.17088317346E+03 -0.45717971788E+02  0.20797959172E+03  0.25500000920E-02 0. -1.
       -2    1    3    3    0  502  0.10938152792E+03 -0.17088317346E+03 -0.49880016035E+03  0.53848581931E+03  0.25500000920E-02 0.  1.
</event>
<event>
 5   0  0.1529146E-01  0.4989448E+03  0.7818609E-02  0.1014055E+00
        1   -1    0    0  501    0  0.00000000000E+00  0.00000000000E+00  0.55887720639E+03  0.55887720641E+03  0.50400001928E-02 0.  1.
       -1   -1    0    0    0  501  0.00000000000E+00  0.00000000000E+00 -0.11135983213E+03  0.11135983224E+03  0.50400001928E-02 0. -1.
    10030    2    1    2    0    0  0.00000000000E+00  0.00000000000E+00  0.44751737426E+03  0.67023703865E+03  0.49894477421E+03 0.  0.
        1    1    3    3  502    0 -0.91777624000E+02  0.10915771184E+02  0.53503034268E+03  0.54295465183E+03  0.50400001928E-02 0.  1.
       -1    1    3    3    0  502  0.91777624000E+02 -0.10915771184E+02 -0.87512968422E+02  0.12728238682E+03  0.50400001928E-02 0. -1.
</event>
<event>
 5   0  0.2504064E-01  0.4792912E+03  0.7818609E-02  0.1019330E+00
        2   -1    0    0  501    0  0.00000000000E+00  0.00000000000E+00  0.43518747088E+03  0.43518747089E+03  0.25500000920E-02 0.  1.
       -2   -1    0    0    0  501  0.00000000000E+00  0.00000000000E+00 -0.13196616490E+03  0.13196616492E+03  0.25500000920E-02 0. -1.
    10030    2    1    2    0    0  0.00000000000E+00  0.00000000000E+00  0.30322130598E+03  0.56715363581E+03  0.47929123318E+03 0.  0.
        5    1    3    3  502    0 -0.55826735742E+02  0.18394886104E+03 -0.17624926856E+02  0.19309721890E+03  0.46999998093E+01 0. -1.
       -5    1    3    3    0  502  0.55826735742E+02 -0.18394886104E+03  0.32084623284E+03  0.37405641691E+03  0.46999998093E+01 0.  1.
</event>
<event>
 5   0  0.1448458E-01  0.4906787E+03  0.7818609E-02  0.1016241E+00
       -1   -1    0    0    0  501  0.00000000000E+00  0.00000000000E+00  0.16672148346E+03  0.16672148354E+03  0.50400001928E-02 0.  1.
        1   -1    0    0  501    0  0.00000000000E+00  0.00000000000E+00 -0.36102970688E+03  0.36102970692E+03  0.50400001928E-02 0. -1.
    10030    2    1    2    0    0  0.00000000000E+00  0.00000000000E+00 -0.19430822342E+03  0.52775119046E+03  0.49067874760E+03 0.  0.
        5    1    3    3  502    0 -0.20699171906E+02 -0.24436690084E+03 -0.10260456729E+03  0.26588235212E+03  0.46999998093E+01 0.  1.
       -5    1    3    3    0  502  0.20699171906E+02  0.24436690084E+03 -0.91703656130E+02  0.26186883833E+03  0.46999998093E+01 0. -1.
</event>
<event>
 5   0  0.2466034E-01  0.5002661E+03  0.7818609E-02  0.1013709E+00
       -2   -1    0    0    0  501  0.00000000000E+00  0.00000000000E+00  0.17551367809E+03  0.17551367811E+03  0.25500000920E-02 0. -1.
        2   -1    0    0  501    0  0.00000000000E+00  0.00000000000E+00 -0.35647670648E+03  0.35647670649E+03  0.25500000920E-02 0.  1.
    10030    2    1    2    0    0  0.00000000000E+00  0.00000000000E+00 -0.18096302839E+03  0.53199038460E+03  0.50026608087E+03 0.  0.
        3    1    3    3  502    0 -0.65549641212E+02  0.19739394581E+03  0.57273474954E+02  0.21573452769E+03  0.10100000352E+00 0. -1.
       -3    1    3    3    0  502  0.65549641212E+02 -0.19739394581E+03 -0.23823650335E+03  0.31625585691E+03  0.10100000352E+00 0.  1.
</event>
<event>
 5   0  0.1453602E-01  0.5022019E+03  0.7818609E-02  0.1013206E+00
       -1   -1    0    0    0  501  0.00000000000E+00  0.00000000000E+00  0.78488697645E+02  0.78488697807E+02  0.50400001928E-02 0.  1.
        1   -1    0    0  501    0  0.00000000000E+00  0.00000000000E+00 -0.80332174201E+03  0.80332174203E+03  0.50400001928E-02 0. -1.
    10030    2    1    2    0    0  0.00000000000E+00  0.00000000000E+00 -0.72483304437E+03  0.88181043983E+03  0.50220186140E+03 0.  0.
        2    1    3    3  502    0  0.37247665122E+02 -0.15460084730E+03 -0.70363252941E+03  0.72137892054E+03  0.25500000920E-02 0. -1.
       -2    1    3    3    0  502 -0.37247665122E+02  0.15460084730E+03 -0.21200514952E+02  0.16043151929E+03  0.25500000920E-02 0.  1.
</event>
<event>
 5   0  0.1453602E-01  0.4950608E+03  0.7818609E-02  0.1015076E+00
       -1   -1    0    0    0  501  0.00000000000E+00  0.00000000000E+00  0.12669472371E+03  0.12669472381E+03  0.50400001928E-02 0.  1.
        1   -1    0    0  501    0  0.00000000000E+00  0.00000000000E+00 -0.48361373422E+03  0.48361373424E+03  0.50400001928E-02 0. -1.
    10030    2    1    2    0    0  0.00000000000E+00  0.00000000000E+00 -0.35691901051E+03  0.61030845805E+03  0.49506083860E+03 0.  0.
        2    1    3    3  502    0  0.74483822394E+02  0.18856068980E+03 -0.35353519181E+03  0.40754153824E+03  0.25500000920E-02 0. -1.
       -2    1    3    3    0  502 -0.74483822394E+02 -0.18856068980E+03 -0.33838186942E+01  0.20276691981E+03  0.25500000920E-02 0.  1.
</event>
<event>
 5   0  0.1439814E-01  0.5062277E+03  0.7818609E-02  0.1012166E+00
       -1   -1    0    0    0  501  0.00000000000E+00  0.00000000000E+00  0.41014930677E+03  0.41014930680E+03  0.50400001928E-02 0.  1.
        1   -1    0    0  501    0  0.00000000000E+00  0.00000000000E+00 -0.15620313988E+03  0.15620313996E+03  0.50400001928E-02 0. -1.
    10030    2    1    2    0    0  0.00000000000E+00  0.00000000000E+00  0.25394616688E+03  0.56635244676E+03  0.50622765460E+03 0.  0.
        4    1    3    3  502    0 -0.87106312751E+02  0.23583278489E+03  0.15978920173E+03  0.29789060750E+03  0.12699999809E+01 0. -1.
       -4    1    3    3    0  502  0.87106312751E+02 -0.23583278489E+03  0.94156965157E+02  0.26846183926E+03  0.12699999809E+01 0.  1.
</event>
<event>
 5   0  0.1439814E-01  0.5139843E+03  0.7818609E-02  0.1010192E+00
       -1   -1    0    0    0  501  0.00000000000E+00  0.00000000000E+00  0.42054854100E+03  0.42054854103E+03  0.50400001928E-02 0. -1.
        1   -1    0    0  501    0  0.00000000000E+00  0.00000000000E+00 -0.15704479816E+03  0.15704479824E+03  0.50400001928E-02 0.  1.
    10030    2    1    2    0    0  0.00000000000E+00  0.00000000000E+00  0.26350374284E+03  0.57759333928E+03  0.51398428291E+03 0.  0.
        4    1    3    3  502    0 -0.57295405481E+02  0.24903644071E+03  0.10115274356E+03  0.27483704758E+03  0.12699999809E+01 0. -1.
       -4    1    3    3    0  502  0.57295405481E+02 -0.24903644071E+03  0.16235099928E+03  0.30275629169E+03  0.12699999809E+01 0.  1.
</event>
<event>
 5   0  0.2488968E-01  0.5111431E+03  0.7818609E-02  0.1010911E+00
       -2   -1    0    0    0  501  0.00000000000E+00  0.00000000000E+00  0.46875913478E+02  0.46875913547E+02  0.25500000920E-02 0.  1.
        2   -1    0    0  501    0  0.00000000000E+00  0.00000000000E+00 -0.13933982502E+04  0.13933982502E+04  0.25500000920E-02 0. -1.
    10030    2    1    2    0    0  0.00000000000E+00  0.00000000000E+00 -0.13465223367E+04  0.14402741637E+04  0.51114309491E+03 0.  0.
        2    1    3    3  502    0  0.94927628714E+02  0.97720872383E+02 -0.63973708261E+02  0.15050999617E+03  0.25500000920E-02 0.  1.
       -2    1    3    3    0  502 -0.94927628714E+02 -0.97720872383E+02 -0.12825486285E+04  0.12897641676E+04  0.25500000920E-02 0. -1.
</event>
<event>
 5   0  0.2511944E-01  0.4921385E+03  0.7818609E-02  0.1015851E+00
        2   -1    0    0  501    0  0.00000000000E+00  0.00000000000E+00  0.61022009227E+03  0.61022009227E+03  0.25500000920E-02 0.  1.
       -2   -1    0    0    0  501  0.00000000000E+00  0.00000000000E+00 -0.99226609232E+02  0.99226609265E+02  0.25500000920E-02 0. -1.
    10030    2    1    2    0    0  0.00000000000E+00  0.00000000000E+00  0.51099348303E+03  0.70944670154E+03  0.49213847911E+03 0.  0.
        1    1    3    3  502    0 -0.13141713597E+03 -0.60261285964E+02  0.54253785326E+03  0.56147057666E+03  0.50400001928E-02 0.  1.
       -1    1    3    3    0  502  0.13141713597E+03  0.60261285964E+02 -0.31544370226E+02  0.14797612487E+03  0.50400001928E-02 0. -1.
</event>
<event>
 5   0  0.2466034E-01  0.5080990E+03  0.7818609E-02  0.1011686E+00
        2   -1    0    0  501    0  0.00000000000E+00  0.00000000000E+00  0.10073889796E+04  0.10073889796E+04  0.25500000920E-02 0. -1.
       -2   -1    0    0    0  501  0.00000000000E+00  0.00000000000E+00 -0.64067753084E+02  0.64067753135E+02  0.25500000920E-02 0.  1.
    10030    2    1    2    0    0  0.00000000000E+00  0.00000000000E+00  0.94332122649E+03  0.10714567327E+04  0.50809899993E+03 0.  0.
        3    1    3    3  502    0  0.24951879313E+03 -0.26656881244E+02  0.55524082006E+03  0.60931321658E+03  0.10100000352E+00 0. -1.
       -3    1    3    3    0  502 -0.24951879313E+03  0.26656881244E+02  0.38808040643E+03  0.46214351613E+03  0.10100000352E+00 0.  1.
</event>
<event>
 5   0  0.2511944E-01  0.4865531E+03  0.7818609E-02  0.1017350E+00
        2   -1    0    0  501    0  0.00000000000E+00  0.00000000000E+00  0.24902557369E+03  0.24902557370E+03  0.25500000920E-02 0.  1.
       -2   -1    0    0    0  501  0.00000000000E+00  0.00000000000E+00 -0.23766024785E+03  0.23766024786E+03  0.25500000920E-02 0. -1.
    10030    2    1    2    0    0  0.00000000000E+00  0.00000000000E+00  0.11365325838E+02  0.48668582157E+03  0.48655309914E+03 0.  0.
        1    1    3    3  502    0 -0.32066277049E+02  0.74608113199E+02 -0.22370250936E+03  0.23798619581E+03  0.50400001928E-02 0. -1.
       -1    1    3    3    0  502  0.32066277049E+02 -0.74608113199E+02  0.23506783520E+03  0.24869962575E+03  0.50400001928E-02 0.  1.
</event>
<event>
 5   0  0.2413301E-01  0.4910276E+03  0.7818609E-02  0.1016148E+00
        2   -1    0    0  501    0  0.00000000000E+00  0.00000000000E+00  0.17620221949E+04  0.17620221949E+04  0.25500000920E-02 0.  1.
       -2   -1    0    0    0  501  0.00000000000E+00  0.00000000000E+00 -0.34209002574E+02  0.34209002669E+02  0.25500000920E-02 0. -1.
    10030    2    1    2    0    0  0.00000000000E+00  0.00000000000E+00  0.17278131924E+04  0.17962311976E+04  0.49102758329E+03 0.  0.
        4    1    3    3  502    0  0.97379774031E+02 -0.12097278786E+03  0.15595066170E+04  0.15672203856E+04  0.12699999809E+01 0.  1.
       -4    1    3    3    0  502 -0.97379774031E+02  0.12097278786E+03  0.16830657540E+03  0.22901081200E+03  0.12699999809E+01 0. -1.
</event>
<event>
 5   0  0.1529146E-01  0.5057699E+03  0.7818609E-02  0.1012284E+00
       -1   -1    0    0    0  501  0.00000000000E+00  0.00000000000E+00  0.23618874875E+03  0.23618874880E+03  0.50400001928E-02 0.  1.
        1   -1    0    0  501    0  0.00000000000E+00  0.00000000000E+00 -0.27076145135E+03  0.27076145140E+03  0.50400001928E-02 0. -1.
    10030    2    1    2    0    0  0.00000000000E+00  0.00000000000E+00 -0.34572702605E+02  0.50695020020E+03  0.50576994149E+03 0.  0.
        1    1    3    3  502    0 -0.28522986790E+02 -0.20811090424E+03  0.12385097084E+03  0.24384989695E+03  0.50400001928E-02 0.  1.
       -1    1    3    3    0  502  0.28522986790E+02  0.20811090424E+03 -0.15842367344E+03  0.26310030325E+03  0.50400001928E-02 0. -1.
</event>
<event>
 5   0  0.1529146E-01  0.5215610E+03  0.7818609E-02  0.1008300E+00
        1   -1    0    0  501    0  0.00000000000E+00  0.00000000000E+00  0.56296302364E+03  0.56296302366E+03  0.50400001928E-02 0.  1.
       -1   -1    0    0    0  501  0.00000000000E+00  0.00000000000E+00 -0.12080095125E+03  0.12080095136E+03  0.50400001928E-02 0. -1.
    10030    2    1    2    0    0  0.00000000000E+00  0.00000000000E+00  0.44216207238E+03  0.68376397502E+03  0.52156099862E+03 0.  0.
        1    1    3    3  502    0 -0.24689431731E+03  0.83962276328E+02  0.22112307259E+03  0.34190917072E+03  0.50400001928E-02 0.  1.
       -1    1    3    3    0  502  0.24689431731E+03 -0.83962276328E+02  0.22103899979E+03  0.34185480430E+03  0.50400001928E-02 0. -1.
</event>
<event>
 5   0  0.1448458E-01  0.5018534E+03  0.7818609E-02  0.1013296E+00
        1   -1    0    0  501    0  0.00000000000E+00  0.00000000000E+00  0.27179083661E+03  0.27179083666E+03  0.50400001928E-02 0.  1.
       -1   -1    0    0    0  501  0.00000000000E+00  0.00000000000E+00 -0.23166422458E+03  0.23166422464E+03  0.50400001928E-02 0. -1.
    10030    2    1    2    0    0  0.00000000000E+00  0.00000000000E+00  0.40126612027E+02  0.50345506129E+03  0.50185341859E+03 0.  0.
        5    1    3    3  502    0 -0.34782150792E+02 -0.24456030715E+03 -0.23923883513E+02  0.24822164298E+03  0.46999998093E+01 0.  1.
       -5    1    3    3    0  502  0.34782150792E+02  0.24456030715E+03  0.64050495539E+02  0.25523341831E+03  0.46999998093E+01 0. -1.
</event>
<event>
 5   0  0.1439814E-01  0.6222274E+03  0.7818609E-02  0.9860335E-01
       -1   -1    0    0    0  501  0.00000000000E+00  0.00000000000E+00  0.12530437857E+03  0.12530437867E+03  0.50400001928E-02 0.  1.
        1   -1    0    0  501    0  0.00000000000E+00  0.00000000000E+00 -0.77245296896E+03  0.77245296898E+03  0.50400001928E-02 0. -1.
    10030    2    1    2    0    0  0.00000000000E+00  0.00000000000E+00 -0.64714859039E+03  0.89775734764E+03  0.62222741598E+03 0.  0.
        4    1    3    3  502    0  0.11578401353E+03  0.32591589044E+02  0.90394610437E+02  0.15046909305E+03  0.12699999809E+01 0.  1.
       -4    1    3    3    0  502 -0.11578401353E+03 -0.32591589044E+02 -0.73754320083E+03  0.74728825460E+03  0.12699999809E+01 0. -1.
</event>
<event>
 5   0  0.1439814E-01  0.5120514E+03  0.7818609E-02  0.1010680E+00
       -1   -1    0    0    0  501  0.00000000000E+00  0.00000000000E+00  0.52328569801E+02  0.52328570043E+02  0.50400001928E-02 0. -1.
        1   -1    0    0  501    0  0.00000000000E+00  0.00000000000E+00 -0.12526457841E+04  0.12526457841E+04  0.50400001928E-02 0.  1.
    10030    2    1    2    0    0  0.00000000000E+00  0.00000000000E+00 -0.12003172143E+04  0.13049743542E+04  0.51205141349E+03 0.  0.
        4    1    3    3  502    0 -0.71688533192E+01 -0.22478074248E+03 -0.91197291800E+03  0.93929441110E+03  0.12699999809E+01 0.  1.
       -4    1    3    3    0  502  0.71688533192E+01  0.22478074248E+03 -0.28834429631E+03  0.36567994307E+03  0.12699999809E+01 0. -1.
</event>
<event>
 5   0  0.1413361E-01  0.5032269E+03  0.7818609E-02  0.1012940E+00
        1   -1    0    0  501    0  0.00000000000E+00  0.00000000000E+00  0.72999800724E+03  0.72999800726E+03  0.50400001928E-02 0.  1.
       -1   -1    0    0    0  501  0.00000000000E+00  0.00000000000E+00 -0.86725346697E+02  0.86725346843E+02  0.50400001928E-02 0. -1.
    10030    2    1    2    0    0  0.00000000000E+00  0.00000000000E+00  0.64327266054E+03  0.81672335410E+03  0.50322690839E+03 0.  0.
        3    1    3    3  502    0 -0.12528343706E+03 -0.99462196848E+02  0.63684685786E+03  0.65662972729E+03  0.10100000352E+00 0.  1.
       -3    1    3    3    0  502  0.12528343706E+03  0.99462196848E+02  0.64258026860E+01  0.16009362681E+03  0.10100000352E+00 0. -1.
</event>
<event>
 5   0  0.2413301E-01  0.5060553E+03  0.7818609E-02  0.1012210E+00
        2   -1    0    0  501    0  0.00000000000E+00  0.00000000000E+00  0.14832132849E+04  0.14832132849E+04  0.25500000920E-02 0.  1.
       -2   -1    0    0    0  501  0.00000000000E+00  0.00000000000E+00 -0.43165056014E+02  0.43165056090E+02  0.25500000920E-02 0. -1.
    10030    2    1    2    0    0  0.00000000000E+00  0.00000000000E+00  0.14400482289E+04  0.15263783410E+04  0.50605527202E+03 0.  0.
        4    1    3    3  502    0  0.22180323411E+03  0.83228099179E+01  0.10864111895E+04  0.11088538359E+04  0.12699999809E+01 0.  1.
       -4    1    3    3    0  502 -0.22180323411E+03 -0.83228099179E+01  0.35363703939E+03  0.41752450509E+03  0.12699999809E+01 0. -1.
</event>
<event>
 5   0  0.1453602E-01  0.5011661E+03  0.7818609E-02  0.1013475E+00
        1   -1    0    0  501    0  0.00000000000E+00  0.00000000000E+00  0.19003987465E+03  0.19003987471E+03  0.50400001928E-02 0. -1.
       -1   -1    0    0    0  501  0.00000000000E+00  0.00000000000E+00 -0.33041413497E+03  0.33041413501E+03  0.50400001928E-02 0.  1.
    10030    2    1    2    0    0  0.00000000000E+00  0.00000000000E+00 -0.14037426033E+03  0.52045400972E+03  0.50116608352E+03 0.  0.
        2    1    3    3  502    0 -0.19556984721E+03 -0.36846159428E+02 -0.22831912435E+03  0.30287757783E+03  0.25500000920E-02 0.  1.
       -2    1    3    3    0  502  0.19556984721E+03  0.36846159428E+02  0.87944864017E+02  0.21757643190E+03  0.25500000920E-02 0. -1.
</event>
<event>
 5   0  0.1413361E-01  0.5050204E+03  0.7818609E-02  0.1012477E+00
       -1   -1    0    0    0  501  0.00000000000E+00  0.00000000000E+00  0.24775181783E+02  0.24775182295E+02  0.50400001928E-02 0.  1.
        1   -1    0    0  501    0  0.00000000000E+00  0.00000000000E+00 -0.25735998299E+04  0.25735998299E+04  0.50400001928E-02 0. -1.
    10030    2    1    2    0    0  0.00000000000E+00  0.00000000000E+00 -0.25488246481E+04  0.25983750122E+04  0.50502041263E+03 0.  0.
        3    1    3    3  502    0 -0.32345783129E+02  0.24493063231E+03 -0.10058736784E+04  0.10357698255E+04  0.10100000352E+00 0.  1.
       -3    1    3    3    0  502  0.32345783129E+02 -0.24493063231E+03 -0.15429509697E+04  0.15626051867E+04  0.10100000352E+00 0. -1.
</event>
<event>
 5   0  0.2504064E-01  0.4615983E+03  0.7818609E-02  0.1024319E+00
       -2   -1    0    0    0  501  0.00000000000E+00  0.00000000000E+00  0.37837883605E+03  0.37837883606E+03  0.25500000920E-02 0.  1.
        2   -1    0    0  501    0  0.00000000000E+00  0.00000000000E+00 -0.14078017620E+03  0.14078017623E+03  0.25500000920E-02 0. -1.
    10030    2    1    2    0    0  0.00000000000E+00  0.00000000000E+00  0.23759865985E+03  0.51915901229E+03  0.46159826351E+03 0.  0.
        5    1    3    3  502    0  0.17337077109E+03  0.86510069734E+02 -0.22146264904E+02  0.19507425120E+03  0.46999998093E+01 0. -1.
       -5    1    3    3    0  502 -0.17337077109E+03 -0.86510069734E+02  0.25974492475E+03  0.32408476109E+03  0.46999998093E+01 0.  1.
</event>
<event>
 5   0  0.1453602E-01  0.4776569E+03  0.7818609E-02  0.1019781E+00
       -1   -1    0    0    0  501  0.00000000000E+00  0.00000000000E+00  0.81511215002E+02  0.81511215158E+02  0.50400001928E-02 0. -1.
        1   -1    0    0  501    0  0.00000000000E+00  0.00000000000E+00 -0.69976917322E+03  0.69976917324E+03  0.50400001928E-02 0.  1.
    10030    2    1    2    0    0  0.00000000000E+00  0.00000000000E+00 -0.61825795822E+03  0.78128038840E+03  0.47765692960E+03 0.  0.
        2    1    3    3  502    0 -0.94217270565E+02  0.20838300607E+03 -0.42172390303E+03  0.47974099437E+03  0.25500000920E-02 0.  1.
       -2    1    3    3    0  502  0.94217270565E+02 -0.20838300607E+03 -0.19653405519E+03  0.30153939403E+03  0.25500000920E-02 0. -1.
</event>
<event>
 5   0  0.1413361E-01  0.4986708E+03  0.7818609E-02  0.1014126E+00
        1   -1    0    0  501    0  0.00000000000E+00  0.00000000000E+00  0.10721979770E+03  0.10721979782E+03  0.50400001928E-02 0. -1.
       -1   -1    0    0    0  501  0.00000000000E+00  0.00000000000E+00 -0.57981963676E+03  0.57981963678E+03  0.50400001928E-02 0.  1.
    10030    2    1    2    0    0  0.00000000000E+00  0.00000000000E+00 -0.47259983906E+03  0.68703943460E+03  0.49867081007E+03 0.  0.
        3    1    3    3  502    0 -0.28266021640E+02 -0.91425956770E+02  0.80911275678E+02  0.12531687150E+03  0.10100000352E+00 0. -1.
       -3    1    3    3    0  502  0.28266021640E+02  0.91425956770E+02 -0.55351111474E+03  0.56172256309E+03  0.10100000352E+00 0.  1.
</event>
<event>
 5   0  0.1448458E-01  0.5763611E+03  0.7818609E-02  0.9955700E-01
       -1   -1    0    0    0  501  0.00000000000E+00  0.00000000000E+00  0.52458860961E+02  0.52458861204E+02  0.50400001928E-02 0. -1.
        1   -1    0    0  501    0  0.00000000000E+00  0.00000000000E+00 -0.15831078346E+04  0.15831078346E+04  0.50400001928E-02 0.  1.
    10030    2    1    2    0    0  0.00000000000E+00  0.00000000000E+00 -0.15306489737E+04  0.16355666959E+04  0.57636111593E+03 0.  0.
        5    1    3    3  502    0  0.15079155601E+03 -0.17946987016E+03 -0.12408347443E+04  0.12627907508E+04  0.46999998093E+01 0.  1.
       -5    1    3    3    0  502 -0.15079155601E+03  0.17946987016E+03 -0.28981422942E+03  0.37277594509E+03  0.46999998093E+01 0. -1.
</event>
<event>
 5   0  0.9868500E-02  0.5021239E+03  0.7818609E-02  0.1013226E+00
       -3   -1    0    0    0  501  0.00000000000E+00  0.00000000000E+00  0.36947282250E+03  0.36947283630E+03  0.10100000352E+00 0. -1.
        3   -1    0    0  501    0  0.00000000000E+00  0.00000000000E+00 -0.17060006208E+03  0.17060009198E+03  0.10100000352E+00 0.  1.
    10030    2    1    2    0    0  0.00000000000E+00  0.00000000000E+00  0.19887276041E+03  0.54007292828E+03  0.50212388215E+03 0.  0.
        3    1    3    3  502    0  0.23764524664E+03  0.44399707100E+02  0.17227042762E+03  0.29685637550E+03  0.10100000352E+00 0.  1.
       -3    1    3    3    0  502 -0.23764524664E+03 -0.44399707100E+02  0.26602332795E+02  0.24321655279E+03  0.10100000352E+00 0. -1.
</event>
<event>
 5   0  0.2488968E-01  0.4972479E+03  0.7818609E-02  0.1014500E+00
       -2   -1    0    0    0  501  0.00000000000E+00  0.00000000000E+00  0.30292896210E+03  0.30292896211E+03  0.25500000920E-02 0. -1.
        2   -1    0    0  501    0  0.00000000000E+00  0.00000000000E+00 -0.20405402937E+03  0.20405402939E+03  0.25500000920E-02 0.  1.
    10030    2    1    2    0    0  0.00000000000E+00  0.00000000000E+00  0.98874932727E+02  0.50698299150E+03  0.49724792745E+03 0.  0.
        2    1    3    3  502    0 -0.56764671465E+02  0.23336649823E+02 -0.19620897554E+03  0.20558401991E+03  0.25500000920E-02 0.  1.
       -2    1    3    3    0  502  0.56764671465E+02 -0.23336649823E+02  0.29508390827E+03  0.30139897159E+03  0.25500000920E-02 0. -1.
</event>
<event>
 5   0  0.2488968E-01  0.5016911E+03  0.7818609E-02  0.1013338E+00
       -2   -1    0    0    0  501  0.00000000000E+00  0.00000000000E+00  0.16700707128E+03  0.16700707130E+03  0.25500000920E-02 0.  1.
        2   -1    0    0  501    0  0.00000000000E+00  0.00000000000E+00 -0.37677133651E+03  0.37677133652E+03  0.25500000920E-02 0. -1.
    10030    2    1    2    0    0  0.00000000000E+00  0.00000000000E+00 -0.20976426524E+03  0.54377840782E+03  0.50169105019E+03 0.  0.
        2    1    3    3  502    0 -0.20994829125E+03  0.10117748629E+03 -0.20544659172E+03  0.31068226662E+03  0.25500000920E-02 0.  1.
       -2    1    3    3    0  502  0.20994829125E+03 -0.10117748629E+03 -0.43176735168E+01  0.23309614120E+03  0.25500000920E-02 0. -1.
</event>
<event>
 5   0  0.2504064E-01  0.4984751E+03  0.7818609E-02  0.1014178E+00
        2   -1    0    0  501    0  0.00000000000E+00  0.00000000000E+00  0.13916415441E+03  0.13916415444E+03  0.25500000920E-02 0.  1.
       -2   -1    0    0    0  501  0.00000000000E+00  0.00000000000E+00 -0.44637473387E+03  0.44637473388E+03  0.25500000920E-02 0. -1.
    10030    2    1    2    0    0  0.00000000000E+00  0.00000000000E+00 -0.30721057946E+03  0.58553888831E+03  0.49847512435E+03 0.  0.
        5    1    3    3  502    0  0.60419074670E+02 -0.12539995635E+03  0.89187791614E+02  0.16538490199E+03  0.46999998093E+01 0.  1.
       -5    1    3    3    0  502 -0.60419074670E+02  0.12539995635E+03 -0.39639837107E+03  0.42015398632E+03  0.46999998093E+01 0. -1.
</event>
<event>
 5   0  0.2413301E-01  0.4943759E+03  0.7818609E-02  0.1015257E+00
       -2   -1    0    0    0  501  0.00000000000E+00  0.00000000000E+00  0.52106224233E+02  0.52106224295E+02  0.25500000920E-02 0. -1.
        2   -1    0    0  501    0  0.00000000000E+00  0.00000000000E+00 -0.11726409904E+04  0.11726409904E+04  0.25500000920E-02 0.  1.
    10030    2    1    2    0    0  0.00000000000E+00  0.00000000000E+00 -0.11205347662E+04  0.12247472147E+04  0.49437594776E+03 0.  0.
        4    1    3    3  502    0  0.15858663605E+02 -0.15340161477E+03 -0.10388323584E+04  0.10502179938E+04  0.12699999809E+01 0.  1.
       -4    1    3    3    0  502 -0.15858663605E+02  0.15340161477E+03 -0.81702407733E+02  0.17452922092E+03  0.12699999809E+01 0. -1.
</event>
<event>
 5   0  0.1529146E-01  0.6458901E+03  0.7818609E-02  0.9814522E-01
       -1   -1    0    0    0  501  0.00000000000E+00  0.00000000000E+00  0.36513690973E+03  0.36513690977E+03  0.50400001928E-02 0. -1.
        1   -1    0    0  501    0  0.00000000000E+00  0.00000000000E+00 -0.28562851825E+03  0.28562851830E+03  0.50400001928E-02 0.  1.
    10030    2    1    2    0    0  0.00000000000E+00  0.00000000000E+00  0.79508391479E+02  0.65076542806E+03  0.64589012846E+03 0.  0.
        1    1    3    3  502    0 -0.85169884968E+02 -0.46916031376E+01 -0.27407336129E+03  0.28704028958E+03  0.50400001928E-02 0.  1.
       -1    1    3    3    0  502  0.85169884968E+02  0.46916031376E+01  0.35358175277E+03  0.36372513848E+03  0.50400001928E-02 0. -1.
</event>
<event>
 5   0  0.2413301E-01  0.4959249E+03  0.7818609E-02  0.1014848E+00
        2   -1    0    0  501    0  0.00000000000E+00  0.00000000000E+00  0.24086243446E+03  0.24086243448E+03  0.25500000920E-02 0.  1.
       -2   -1    0    0    0  501  0.00000000000E+00  0.00000000000E+00 -0.25527171020E+03  0.25527171021E+03  0.25500000920E-02 0. -1.
    10030    2    1    2    0    0  0.00000000000E+00  0.00000000000E+00 -0.14409275735E+02  0.49613414469E+03  0.49592485550E+03 0.  0.
        4    1    3    3  502    0 -0.10449045313E+03 -0.15560903889E+03  0.15519478040E+03  0.24335048909E+03  0.12699999809E+01 0.  1.
       -4    1    3    3    0  502  0.10449045313E+03  0.15560903889E+03 -0.16960405613E+03  0.25278365559E+03  0.12699999809E+01 0. -1.
</event>
<event>
 5   0  0.1439814E-01  0.4988835E+03  0.7818609E-02  0.1014071E+00
        1   -1    0    0  501    0  0.00000000000E+00  0.00000000000E+00  0.94189201681E+03  0.94189201683E+03  0.50400001928E-02 0.  1.
       -1   -1    0    0    0  501  0.00000000000E+00  0.00000000000E+00 -0.66059787641E+02  0.66059787833E+02  0.50400001928E-02 0. -1.
    10030    2    1    2    0    0  0.00000000000E+00  0.00000000000E+00  0.87583222917E+03  0.10079518047E+04  0.49888350029E+03 0.  0.
        4    1    3    3  502    0 -0.38005790419E+02 -0.69996998643E+02  0.91550206995E+03  0.91896119228E+03  0.12699999809E+01 0.  1.
       -4    1    3    3    0  502  0.38005790419E+02  0.69996998643E+02 -0.39669840781E+02  0.88990612381E+02  0.12699999809E+01 0. -1.
</event>
<event>
 5   0  0.2511944E-01  0.3768954E+03  0.7818609E-02  0.1052087E+00
       -2   -1    0    0    0  501  0.00000000000E+00  0.00000000000E+00  0.32889434647E+02  0.32889434746E+02  0.25500000920E-02 0.  1.
        2   -1    0    0  501    0  0.00000000000E+00  0.00000000000E+00 -0.10797552523E+04  0.10797552523E+04  0.25500000920E-02 0. -1.
    10030    2    1    2    0    0  0.00000000000E+00  0.00000000000E+00 -0.10468658176E+04  0.11126446870E+04  0.37689542243E+03 0.  0.
        1    1    3    3  502    0  0.53818686338E+02 -0.12097561540E+03 -0.12757217336E+03  0.18386465120E+03  0.50400001928E-02 0.  1.
       -1    1    3    3    0  502 -0.53818686338E+02  0.12097561540E+03 -0.91929364428E+03  0.92878003583E+03  0.50400001928E-02 0. -1.
</event>
<event>
 5   0  0.1413361E-01  0.5113540E+03  0.7818609E-02  0.1010857E+00
       -1   -1    0    0    0  501  0.00000000000E+00  0.00000000000E+00  0.92361842171E+02  0.92361842308E+02  0.50400001928E-02 0.  1.
        1   -1    0    0  501    0  0.00000000000E+00  0.00000000000E+00 -0.70776763103E+03  0.70776763105E+03  0.50400001928E-02 0. -1.
    10030    2    1    2    0    0  0.00000000000E+00  0.00000000000E+00 -0.61540578886E+03  0.80012947335E+03  0.51135397639E+03 0.  0.
        3    1    3    3  502    0 -0.96450514690E+02 -0.23675608663E+03 -0.31367469229E+03  0.40465784204E+03  0.10100000352E+00 0. -1.
       -3    1    3    3    0  502  0.96450514690E+02  0.23675608663E+03 -0.30173109656E+03  0.39547163131E+03  0.10100000352E+00 0.  1.
</event>
<event>
 5   0  0.2466034E-01  0.5149178E+03  0.7818609E-02  0.1009957E+00
       -2   -1    0    0    0  501  0.00000000000E+00  0.00000000000E+00  0.66230110913E+02  0.66230110962E+02  0.25500000920E-02 0.  1.
        2   -1    0    0  501    0  0.00000000000E+00  0.00000000000E+00 -0.10008299759E+04  0.10008299759E+04  0.25500000920E-02 0. -1.
    10030    2    1    2    0    0  0.00000000000E+00  0.00000000000E+00 -0.93459986498E+03  0.10670600869E+04  0.51491778115E+03 0.  0.
        3    1    3    3  502    0 -0.13904661851E+03 -0.38615021143E+02 -0.25459306512E+02  0.14653760086E+03  0.10100000352E+00 0.  1.
       -3    1    3    3    0  502  0.13904661851E+03  0.38615021143E+02 -0.90914055847E+03  0.92052248600E+03  0.10100000352E+00 0. -1.
</event>
<event>
 5   0  0.1448458E-01  0.5065139E+03  0.7818609E-02  0.1012093E+00
        1   -1    0    0  501    0  0.00000000000E+00  0.00000000000E+00  0.30331538503E+03  0.30331538507E+03  0.50400001928E-02 0. -1.
       -1   -1    0    0    0  501  0.00000000000E+00  0.00000000000E+00 -0.21146007410E+03  0.21146007416E+03  0.50400001928E-02 0.  1.
    10030    2    1    2    0    0  0.00000000000E+00  0.00000000000E+00  0.91855310926E+02  0.51477545924E+03  0.50651394382E+03 0.  0.
        5    1    3    3  502    0 -0.44708718162E+02  0.24186305146E+03 -0.15223494457E+02  0.24647606359E+03  0.46999998093E+01 0.  1.
       -5    1    3    3    0  502  0.44708718162E+02 -0.24186305146E+03  0.10707880538E+03  0.26829939564E+03  0.46999998093E+01 0. -1.
</event>
<event>
 5   0  0.2511944E-01  0.4986347E+03  0.7818609E-02  0.1014136E+00
        2   -1    0    0  501    0  0.00000000000E+00  0.00000000000E+00  0.10843173715E+04  0.10843173715E+04  0.25500000920E-02 0.  1.
       -2   -1    0    0    0  501  0.00000000000E+00  0.00000000000E+00 -0.57325591604E+02  0.57325591661E+02  0.25500000920E-02 0. -1.
    10030    2    1    2    0    0  0.00000000000E+00  0.00000000000E+00  0.10269917799E+04  0.11416429632E+04  0.49863467526E+03 0.  0.
        1    1    3    3  502    0  0.12392277322E+03 -0.15604705624E+03  0.85655696970E+03  0.87943014495E+03  0.50400001928E-02 0.  1.
       -1    1    3    3    0  502 -0.12392277322E+03  0.15604705624E+03  0.17043481021E+03  0.26221281822E+03  0.50400001928E-02 0. -1.
</event>
<event>
 5   0  0.2466034E-01  0.4940056E+03  0.7818609E-02  0.1015355E+00
        2   -1    0    0  501    0  0.00000000000E+00  0.00000000000E+00  0.71519649645E+03  0.71519649645E+03  0.25500000920E-02 0.  1.
       -2   -1    0    0    0  501  0.00000000000E+00  0.00000000000E+00 -0.85305766067E+02  0.85305766105E+02  0.25500000920E-02 0. -1.
    10030    2    1    2    0    0  0.00000000000E+00  0.00000000000E+00  0.62989073038E+03  0.80050226256E+03  0.49400560740E+03 0.  0.
        3    1    3    3  502    0 -0.17620066198E+03  0.16673281433E+03  0.39032365601E+03  0.45956400131E+03  0.10100000352E+00 0.  1.
       -3    1    3    3    0  502  0.17620066198E+03 -0.16673281433E+03  0.23956707437E+03  0.34093826125E+03  0.10100000352E+00 0. -1.
</event>
<event>
 5   0  0.1448458E-01  0.4907106E+03  0.7818609E-02  0.1016232E+00
       -1   -1    0    0    0  501  0.00000000000E+00  0.00000000000E+00  0.47325389073E+02  0.47325389342E+02  0.50400001928E-02 0. -1.
        1   -1    0    0  501    0  0.00000000000E+00  0.00000000000E+00 -0.12720279711E+04  0.12720279711E+04  0.50400001928E-02 0.  1.
    10030    2    1    2    0    0  0.00000000000E+00  0.00000000000E+00 -0.12247025820E+04  0.13193533604E+04  0.49071058202E+03 0.  0.
        5    1    3    3  502    0 -0.10891878046E+03  0.21346393369E+03 -0.47143434449E+03  0.52886915479E+03  0.46999998093E+01 0. -1.
       -5    1    3    3    0  502  0.10891878046E+03 -0.21346393369E+03 -0.75326823752E+03  0.79048420565E+03  0.46999998093E+01 0.  1.
</event>
<event>
 5   0  0.1439814E-01  0.5041343E+03  0.7818609E-02  0.1012705E+00
        1   -1    0    0  501    0  0.00000000000E+00  0.00000000000E+00  0.52624733469E+03  0.52624733472E+03  0.50400001928E-02 0. -1.
       -1   -1    0    0    0  501  0.00000000000E+00  0.00000000000E+00 -0.12073760082E+03  0.12073760092E+03  0.50400001928E-02 0.  1.
    10030    2    1    2    0    0  0.00000000000E+00  0.00000000000E+00  0.40550973388E+03  0.64698493564E+03  0.50413427048E+03 0.  0.
        4    1    3    3  502    0  0.24358095614E+03  0.50524953811E+01  0.28571798409E+03  0.37549113070E+03  0.12699999809E+01 0.  1.
       -4    1    3    3    0  502 -0.24358095614E+03 -0.50524953811E+01  0.11979174979E+03  0.27149380494E+03  0.12699999809E+01 0. -1.
</event>
<event>
 5   0  0.1453602E-01  0.5002982E+03  0.7818609E-02  0.1013701E+00
       -1   -1    0    0    0  501  0.00000000000E+00  0.00000000000E+00  0.49312787671E+03  0.49312787674E+03  0.50400001928E-02 0.  1.
        1   -1    0    0  501    0  0.00000000000E+00  0.00000000000E+00 -0.12689320301E+03  0.12689320311E+03  0.50400001928E-02 0. -1.
    10030    2    1    2    0    0  0.00000000000E+00  0.00000000000E+00  0.36623467370E+03  0.62002107985E+03  0.50029821431E+03 0.  0.
        2    1    3    3  502    0 -0.95709392639E+02 -0.22489881708E+03  0.24910146509E+03  0.34898611102E+03  0.25500000920E-02 0.  1.
       -2    1    3    3    0  502  0.95709392639E+02  0.22489881708E+03  0.11713320861E+03  0.27103496883E+03  0.25500000920E-02 0. -1.
</event>
<event>
 5   0  0.2413301E-01  0.5007026E+03  0.7818609E-02  0.1013596E+00
        2   -1    0    0  501    0  0.00000000000E+00  0.00000000000E+00  0.53159555796E+03  0.53159555796E+03  0.25500000920E-02 0.  1.
       -2   -1    0    0    0  501  0.00000000000E+00  0.00000000000E+00 -0.11790123039E+03  0.11790123042E+03  0.25500000920E-02 0. -1.
    10030    2    1    2    0    0  0.00000000000E+00  0.00000000000E+00  0.41369432757E+03  0.64949678838E+03  0.50070258782E+03 0.  0.
        4    1    3    3  502    0  0.12169367423E+03 -0.14918109026E+03 -0.73992830230E+00  0.19252664343E+03  0.12699999809E+01 0. -1.
       -4    1    3    3    0  502 -0.12169367423E+03  0.14918109026E+03  0.41443425587E+03  0.45697014495E+03  0.12699999809E+01 0.  1.
</event>
<event>
 5   0  0.2511944E-01  0.5199679E+03  0.7818609E-02  0.1008695E+00
        2   -1    0    0  501    0  0.00000000000E+00  0.00000000000E+00  0.88150839019E+03  0.88150839019E+03  0.25500000920E-02 0. -1.
       -2   -1    0    0    0  501  0.00000000000E+00  0.00000000000E+00 -0.76677273380E+02  0.76677273422E+02  0.25500000920E-02 0.  1.
    10030    2    1    2    0    0  0.00000000000E+00  0.00000000000E+00  0.80483111681E+03  0.95818566362E+03  0.51996792148E+03 0.  0.
        1    1    3    3  502    0 -0.76679560270E+02  0.55478463626E+02  0.84863454440E+03  0.85389589814E+03  0.50400001928E-02 0. -1.
       -1    1    3    3    0  502  0.76679560270E+02 -0.55478463626E+02 -0.43803427586E+02  0.10428976548E+03  0.50400001928E-02 0.  1.
</event>
<event>
 5   0  0.1439814E-01  0.5490973E+03  0.7818609E-02  0.1001703E+00
        1   -1    0    0  501    0  0.00000000000E+00  0.00000000000E+00  0.11016292787E+03  0.11016292798E+03  0.50400001928E-02 0.  1.
       -1   -1    0    0    0  501  0.00000000000E+00  0.00000000000E+00 -0.68423155358E+03  0.68423155360E+03  0.50400001928E-02 0. -1.
    10030    2    1    2    0    0  0.00000000000E+00  0.00000000000E+00 -0.57406862571E+03  0.79439448158E+03  0.54909726400E+03 0.  0.
        4    1    3    3  502    0  0.11587001985E+03 -0.22642910650E+03 -0.13752815605E+03  0.28915671941E+03  0.12699999809E+01 0.  1.
       -4    1    3    3    0  502 -0.11587001985E+03  0.22642910650E+03 -0.43654046966E+03  0.50523776217E+03  0.12699999809E+01 0. -1.
</event>
<event>
 5   0  0.2504064E-01  0.5055560E+03  0.7818609E-02  0.1012339E+00
       -2   -1    0    0    0  501  0.00000000000E+00  0.00000000000E+00  0.52643207090E+02  0.52643207151E+02  0.25500000920E-02 0. -1.
        2   -1    0    0  501    0  0.00000000000E+00  0.00000000000E+00 -0.12137696851E+04  0.12137696851E+04  0.25500000920E-02 0.  1.
    10030    2    1    2    0    0  0.00000000000E+00  0.00000000000E+00 -0.11611264780E+04  0.12664128923E+04  0.50555604608E+03 0.  0.
        5    1    3    3  502    0 -0.10813829990E+03  0.20732999397E+03 -0.34035805917E+03  0.41297132679E+03  0.46999998093E+01 0. -1.
       -5    1    3    3    0  502  0.10813829990E+03 -0.20732999397E+03 -0.82076841884E+03  0.85344156547E+03  0.46999998093E+01 0.  1.
</event>
<event>
 5   0  0.1439814E-01  0.4903663E+03  0.7818609E-02  0.1016324E+00
        1   -1    0    0  501    0  0.00000000000E+00  0.00000000000E+00  0.23974764419E+03  0.23974764425E+03  0.50400001928E-02 0.  1.
       -1   -1    0    0    0  501  0.00000000000E+00  0.00000000000E+00 -0.25074191036E+03  0.25074191041E+03  0.50400001928E-02 0. -1.
    10030    2    1    2    0    0  0.00000000000E+00  0.00000000000E+00 -0.10994266166E+02  0.49048955466E+03  0.49036632158E+03 0.  0.
        4    1    3    3  502    0  0.66555586749E+02  0.91271730353E+02 -0.22315925181E+03  0.25012364834E+03  0.12699999809E+01 0. -1.
       -4    1    3    3    0  502 -0.66555586749E+02 -0.91271730353E+02  0.21216498564E+03  0.24036590632E+03  0.12699999809E+01 0.  1.
</event>
<event>
 5   0  0.1413361E-01  0.5003700E+03  0.7818609E-02  0.1013682E+00
       -1   -1    0    0    0  501  0.00000000000E+00  0.00000000000E+00  0.35847820233E+02  0.35847820587E+02  0.50400001928E-02 0. -1.
        1   -1    0    0  501    0  0.00000000000E+00  0.00000000000E+00 -0.17460627266E+04  0.17460627266E+04  0.50400001928E-02 0.  1.
    10030    2    1    2    0    0  0.00000000000E+00  0.00000000000E+00 -0.17102149064E+04  0.17819105472E+04  0.50037003532E+03 0.  0.
        3    1    3    3  502    0 -0.17622197110E+03 -0.11150079820E+02 -0.14862920620E+04  0.14967440032E+04  0.10100000352E+00 0.  1.
       -3    1    3    3    0  502  0.17622197110E+03  0.11150079820E+02 -0.22392284438E+03  0.28516654400E+03  0.10100000352E+00 0. -1.
</event>
<event>
 5   0  0.1448458E-01  0.3921428E+03  0.7818609E-02  0.1046535E+00
        1   -1    0    0  501    0  0.00000000000E+00  0.00000000000E+00  0.88870715917E+03  0.88870715918E+03  0.50400001928E-02 0. -1.
       -1   -1    0    0    0  501  0.00000000000E+00  0.00000000000E+00 -0.43258339072E+02  0.43258339365E+02  0.50400001928E-02 0.  1.
    10030    2    1    2    0    0  0.00000000000E+00  0.00000000000E+00  0.84544882010E+03  0.93196549855E+03  0.39214280955E+03 0.  0.
        5    1    3    3  502    0 -0.88599470901E+02  0.11442307101E+03  0.10851524854E+03  0.18094240682E+03  0.46999998093E+01 0.  1.
       -5    1    3    3    0  502  0.88599470901E+02 -0.11442307101E+03  0.73693357155E+03  0.75102309172E+03  0.46999998093E+01 0. -1.
</event>
<event>
 5   0  0.1453602E-01  0.4857721E+03  0.7818609E-02  0.1017561E+00
        1   -1    0    0  501    0  0.00000000000E+00  0.00000000000E+00  0.44275438912E+03  0.44275438915E+03  0.50400001928E-02 0. -1.
       -1   -1    0    0    0  501  0.00000000000E+00  0.00000000000E+00 -0.13324233792E+03  0.13324233802E+03  0.50400001928E-02 0.  1.
    10030    2    1    2    0    0  0.00000000000E+00  0.00000000000E+00  0.30951205120E+03  0.57599672717E+03  0.48577208635E+03 0.  0.
        2    1    3    3  502    0  0.13008335981E+03  0.48635190111E+02 -0.81519443578E+02  0.16103565414E+03  0.25500000920E-02 0.  1.
       -2    1    3    3    0  502 -0.13008335981E+03 -0.48635190111E+02  0.39103149477E+03  0.41496107303E+03  0.25500000920E-02 0. -1.
</event>
<event>
 5   0  0.9868500E-02  0.4688968E+03  0.7818609E-02  0.1022232E+00
        3   -1    0    0  501    0  0.00000000000E+00  0.00000000000E+00  0.22114336222E+03  0.22114338528E+03  0.10100000352E+00 0. -1.
       -3   -1    0    0    0  501  0.00000000000E+00  0.00000000000E+00 -0.24855385619E+03  0.24855387671E+03  0.10100000352E+00 0.  1.
    10030    2    1    2    0    0  0.00000000000E+00  0.00000000000E+00 -0.27410493971E+02  0.46969726199E+03  0.46889677194E+03 0.  0.
        2    1    3    3  502    0 -0.12635961729E+03 -0.19428710919E+03  0.21736109897E+02  0.23278035175E+03  0.25500000920E-02 0.  1.
       -2    1    3    3    0  502  0.12635961729E+03  0.19428710919E+03 -0.49146603868E+02  0.23691691024E+03  0.25500000920E-02 0. -1.
</event>
<event>
 5   0  0.2413301E-01  0.4995643E+03  0.7818609E-02  0.1013893E+00
        2   -1    0    0  501    0  0.00000000000E+00  0.00000000000E+00  0.65942021731E+03  0.65942021731E+03  0.25500000920E-02 0. -1.
       -2   -1    0    0    0  501  0.00000000000E+00  0.00000000000E+00 -0.94615137590E+02  0.94615137624E+02  0.25500000920E-02 0.  1.
    10030    2    1    2    0    0  0.00000000000E+00  0.00000000000E+00  0.56480507972E+03  0.75403535494E+03  0.49956434863E+03 0.  0.
        4    1    3    3  502    0 -0.91294372741E+02 -0.18618759396E+03  0.72228818090E+02  0.21958847352E+03  0.12699999809E+01 0.  1.
       -4    1    3    3    0  502  0.91294372741E+02  0.18618759396E+03  0.49257626163E+03  0.53444688142E+03  0.12699999809E+01 0. -1.
</event>
<event>
 5   0  0.1529146E-01  0.5244313E+03  0.7818609E-02  0.1007592E+00
       -1   -1    0    0    0  501  0.00000000000E+00  0.00000000000E+00  0.58161683638E+02  0.58161683856E+02  0.50400001928E-02 0. -1.
        1   -1    0    0  501    0  0.00000000000E+00  0.00000000000E+00 -0.11821710537E+04  0.11821710537E+04  0.50400001928E-02 0.  1.
    10030    2    1    2    0    0  0.00000000000E+00  0.00000000000E+00 -0.11240093701E+04  0.12403327376E+04  0.52443134527E+03 0.  0.
        1    1    3    3  502    0 -0.25188480065E+03 -0.35213026480E+02 -0.71291122426E+03  0.75692028889E+03  0.50400001928E-02 0.  1.
       -1    1    3    3    0  502  0.25188480065E+03  0.35213026480E+02 -0.41109814581E+03  0.48341244869E+03  0.50400001928E-02 0. -1.
</event>
<event>
 5   0  0.1413361E-01  0.5010214E+03  0.7818609E-02  0.1013513E+00
        1   -1    0    0  501    0  0.00000000000E+00  0.00000000000E+00  0.99141878978E+03  0.99141878979E+03  0.50400001928E-02 0.  1.
       -1   -1    0    0    0  501  0.00000000000E+00  0.00000000000E+00 -0.63298793609E+02  0.63298793810E+02  0.50400001928E-02 0. -1.
    10030    2    1    2    0    0  0.00000000000E+00  0.00000000000E+00  0.92811999617E+03  0.10547175836E+04  0.50102141059E+03 0.  0.
        3    1    3    3  502    0 -0.80154055017E+02 -0.17312889463E+03  0.12229270597E+03  0.22661377458E+03  0.10100000352E+00 0. -1.
       -3    1    3    3    0  502  0.80154055017E+02  0.17312889463E+03  0.80582729020E+03  0.82810380902E+03  0.10100000352E+00 0.  1.
</event>
<event>
 5   0  0.2488968E-01  0.5044100E+03  0.7818609E-02  0.1012634E+00
        2   -1    0    0  501    0  0.00000000000E+00  0.00000000000E+00  0.64692428940E+03  0.64692428940E+03  0.25500000920E-02 0.  1.
       -2   -1    0    0    0  501  0.00000000000E+00  0.00000000000E+00 -0.98322711100E+02  0.98322711134E+02  0.25500000920E-02 0. -1.
    10030    2    1    2    0    0  0.00000000000E+00  0.00000000000E+00  0.54860157830E+03  0.74524700054E+03  0.50440995242E+03 0.  0.
        2    1    3    3  502    0  0.80034120732E+02  0.99626631394E+02  0.59554765449E+03  0.60910420697E+03  0.25500000920E-02 0.  1.
       -2    1    3    3    0  502 -0.80034120732E+02 -0.99626631394E+02 -0.46946076196E+02  0.13614279357E+03  0.25500000920E-02 0. -1.
</event>
<event>
 5   0  0.2413301E-01  0.4458707E+03  0.7818609E-02  0.1028961E+00
       -2   -1    0    0    0  501  0.00000000000E+00  0.00000000000E+00  0.45904178298E+02  0.45904178369E+02  0.25500000920E-02 0.  1.
        2   -1    0    0  501    0  0.00000000000E+00  0.00000000000E+00 -0.10826938878E+04  0.10826938878E+04  0.25500000920E-02 0. -1.
    10030    2    1    2    0    0  0.00000000000E+00  0.00000000000E+00 -0.10367897095E+04  0.11285980661E+04  0.44587071358E+03 0.  0.
        4    1    3    3  502    0  0.60112733574E+02 -0.21369567093E+03 -0.46657089700E+03  0.51669081213E+03  0.12699999809E+01 0.  1.
       -4    1    3    3    0  502 -0.60112733574E+02  0.21369567093E+03 -0.57021881248E+03  0.61190725402E+03  0.12699999809E+01 0. -1.
</event>
<event>
 5   0  0.1448458E-01  0.5268683E+03  0.7818609E-02  0.1006994E+00
        1   -1    0    0  501    0  0.00000000000E+00  0.00000000000E+00  0.10144002344E+03  0.10144002357E+03  0.50400001928E-02 0.  1.
       -1   -1    0    0    0  501  0.00000000000E+00  0.00000000000E+00 -0.68412409057E+03  0.68412409059E+03  0.50400001928E-02 0. -1.
    10030    2    1    2    0    0  0.00000000000E+00  0.00000000000E+00 -0.58268406713E+03  0.78556411416E+03  0.52686834728E+03 0.  0.
        5    1    3    3  502    0 -0.16892410736E+03  0.19159478004E+03 -0.38717977332E+03  0.46386871058E+03  0.46999998093E+01 0. -1.
       -5    1    3    3    0  502  0.16892410736E+03 -0.19159478004E+03 -0.19550429381E+03  0.32169540358E+03  0.46999998093E+01 0.  1.
</event>
<event>
 5   0  0.2413301E-01  0.5008258E+03  0.7818609E-02  0.1013564E+00
       -2   -1    0    0    0  501  0.00000000000E+00  0.00000000000E+00  0.28982745172E+03  0.28982745173E+03  0.25500000920E-02 0.  1.
        2   -1    0    0  501    0  0.00000000000E+00  0.00000000000E+00 -0.21635846199E+03  0.21635846201E+03  0.25500000920E-02 0. -1.
    10030    2    1    2    0    0  0.00000000000E+00  0.00000000000E+00  0.73468989731E+02  0.50618591374E+03  0.50082580486E+03 0.  0.
        4    1    3    3  502    0 -0.14111807894E+03  0.20025279910E+03 -0.15681059802E+02  0.24548524250E+03  0.12699999809E+01 0. -1.
       -4    1    3    3    0  502  0.14111807894E+03 -0.20025279910E+03  0.89150049533E+02  0.26070067124E+03  0.12699999809E+01 0.  1.
</event>
<event>
 5   0  0.1453602E-01  0.5144300E+03  0.7818609E-02  0.1010080E+00
       -1   -1    0    0    0  501  0.00000000000E+00  0.00000000000E+00  0.21837602545E+03  0.21837602551E+03  0.50400001928E-02 0.  1.
        1   -1    0    0  501    0  0.00000000000E+00  0.00000000000E+00 -0.30296158942E+03  0.30296158947E+03  0.50400001928E-02 0. -1.
    10030    2    1    2    0    0  0.00000000000E+00  0.00000000000E+00 -0.84585563971E+02  0.52133761498E+03  0.51442996720E+03 0.  0.
        2    1    3    3  502    0  0.16345076571E+03  0.99011449841E+01 -0.24331292400E+03  0.29328376101E+03  0.25500000920E-02 0. -1.
       -2    1    3    3    0  502 -0.16345076571E+03 -0.99011449841E+01  0.15872736003E+03  0.22805385397E+03  0.25500000920E-02 0.  1.
</event>
<event>
 5   0  0.2504064E-01  0.4978559E+03  0.7818609E-02  0.1014340E+00
        2   -1    0    0  501    0  0.00000000000E+00  0.00000000000E+00  0.26362510368E+03  0.26362510370E+03  0.25500000920E-02 0. -1.
       -2   -1    0    0    0  501  0.00000000000E+00  0.00000000000E+00 -0.23505017621E+03  0.23505017622E+03  0.25500000920E-02 0.  1.
    10030    2    1    2    0    0  0.00000000000E+00  0.00000000000E+00  0.28574927473E+02  0.49867527992E+03  0.49785591121E+03 0.  0.
        5    1    3    3  502    0  0.60579972033E+02  0.22067420096E+03 -0.83730633097E+02  0.24372103910E+03  0.46999998093E+01 0.  1.
       -5    1    3    3    0  502 -0.60579972033E+02 -0.22067420096E+03  0.11230556057E+03  0.25495424082E+03  0.46999998093E+01 0. -1.
</event>
<event>
 5   0  0.1453602E-01  0.4737468E+03  0.7818609E-02  0.1020868E+00
       -1   -1    0    0    0  501  0.00000000000E+00  0.00000000000E+00  0.33154209373E+03  0.33154209377E+03  0.50400001928E-02 0.  1.
        1   -1    0    0  501    0  0.00000000000E+00  0.00000000000E+00 -0.16923642143E+03  0.16923642151E+03  0.50400001928E-02 0. -1.
    10030    2    1    2    0    0  0.00000000000E+00  0.00000000000E+00  0.16230567230E+03  0.50077851528E+03  0.47374675735E+03 0.  0.
        2    1    3    3  502    0 -0.68825918772E+02  0.19011167659E+03 -0.49296791222E+02  0.20810965932E+03  0.25500000920E-02 0. -1.
       -2    1    3    3    0  502  0.68825918772E+02 -0.19011167659E+03  0.21160246352E+03  0.29266885596E+03  0.25500000920E-02 0.  1.
</event>
<event>
 5   0  0.2466034E-01  0.5152880E+03  0.7818609E-02  0.1009864E+00
       -2   -1    0    0    0  501  0.00000000000E+00  0.00000000000E+00  0.13099490513E+03  0.13099490516E+03  0.25500000920E-02 0.  1.
        2   -1    0    0  501    0  0.00000000000E+00  0.00000000000E+00 -0.50674055812E+03  0.50674055813E+03  0.25500000920E-02 0. -1.
    10030    2    1    2    0    0  0.00000000000E+00  0.00000000000E+00 -0.37574565299E+03  0.63773546329E+03  0.51528800237E+03 0.  0.
        3    1    3    3  502    0 -0.23215593991E+03  0.67403963777E+01 -0.32590375959E+03  0.40019380817E+03  0.10100000352E+00 0. -1.
       -3    1    3    3    0  502  0.23215593991E+03 -0.67403963777E+01 -0.49841893403E+02  0.23754165512E+03  0.10100000352E+00 0.  1.
</event>
<event>
 5   0  0.9868500E-02  0.5141548E+03  0.7818609E-02  0.1010149E+00
        4   -1    0    0  501    0  0.00000000000E+00  0.00000000000E+00  0.28245379051E+03  0.28245664565E+03  0.12699999809E+01 0. -1.
       -4   -1    0    0    0  501  0.00000000000E+00  0.00000000000E+00 -0.23397509244E+03  0.23397853915E+03  0.12699999809E+01 0.  1.
    10030    2    1    2    0    0  0.00000000000E+00  0.00000000000E+00  0.48478698073E+02  0.51643518480E+03  0.51415475874E+03 0.  0.
        4    1    3    3  502    0 -0.13852618077E+03  0.12516829703E+03  0.20174486548E+03  0.27488035394E+03  0.12699999809E+01 0. -1.
       -4    1    3    3    0  502  0.13852618077E+03 -0.12516829703E+03 -0.15326616740E+03  0.24155483085E+03  0.12699999809E+01 0.  1.
</event>
<event>
 5   0  0.9868500E-02  0.4923553E+03  0.7818609E-02  0.1015794E+00
        3   -1    0    0  501    0  0.00000000000E+00  0.00000000000E+00  0.58776254135E+02  0.58776340913E+02  0.10100000352E+00 0. -1.
       -3   -1    0    0    0  501  0.00000000000E+00  0.00000000000E+00 -0.10310863960E+04  0.10310864009E+04  0.10100000352E+00 0.  1.
    10030    2    1    2    0    0  0.00000000000E+00  0.00000000000E+00 -0.97231014187E+03  0.10898627419E+04  0.49235534335E+03 0.  0.
        5    1    3    3  502    0  0.15335248757E+03  0.18731193348E+03 -0.38769202452E+03  0.45708854913E+03  0.46999998093E+01 0. -1.
       -5    1    3    3    0  502 -0.15335248757E+03 -0.18731193348E+03 -0.58461811734E+03  0.63277419273E+03  0.46999998093E+01 0.  1.
</event>
<event>
 5   0  0.2488968E-01  0.4542390E+03  0.7818609E-02  0.1026465E+00
        2   -1    0    0  501    0  0.00000000000E+00  0.00000000000E+00  0.47352903823E+03  0.47352903823E+03  0.25500000920E-02 0.  1.
       -2   -1    0    0    0  501  0.00000000000E+00  0.00000000000E+00 -0.10893368417E+03  0.10893368420E+03  0.25500000920E-02 0. -1.
    10030    2    1    2    0    0  0.00000000000E+00  0.00000000000E+00  0.36459535405E+03  0.58246272243E+03  0.45423897986E+03 0.  0.
        2    1    3    3  502    0  0.22395429684E+03 -0.30951709808E+02  0.15450651978E+03  0.27383535212E+03  0.25500000920E-02 0. -1.
       -2    1    3    3    0  502 -0.22395429684E+03  0.30951709808E+02  0.21008883427E+03  0.30862737031E+03  0.25500000920E-02 0.  1.
</event>
<event>
 5   0  0.1448458E-01  0.4972204E+03  0.7818609E-02  0.1014507E+00
        1   -1    0    0  501    0  0.00000000000E+00  0.00000000000E+00  0.92232536747E+03  0.92232536749E+03  0.50400001928E-02 0. -1.
       -1   -1    0    0    0  501  0.00000000000E+00  0.00000000000E+00 -0.67012177215E+02  0.67012177404E+02  0.50400001928E-02 0.  1.
    10030    2    1    2    0    0  0.00000000000E+00  0.00000000000E+00  0.85531319026E+03  0.98933754489E+03  0.49722039811E+03 0.  0.
        5    1    3    3  502    0 -0.11248102283E+03  0.15247858625E+03  0.74777075449E+03  0.77141745575E+03  0.46999998093E+01 0. -1.
       -5    1    3    3    0  502  0.11248102283E+03 -0.15247858625E+03  0.10754243576E+03  0.21792008914E+03  0.46999998093E+01 0.  1.
</event>
<event>
 5   0  0.2413301E-01  0.4986596E+03  0.7818609E-02  0.1014129E+00
        2   -1    0    0  501    0  0.00000000000E+00  0.00000000000E+00  0.17561440882E+03  0.17561440884E+03  0.25500000920E-02 0.  1.
       -2   -1    0    0    0  501  0.00000000000E+00  0.00000000000E+00 -0.35398774352E+03  0.35398774353E+03  0.25500000920E-02 0. -1.
    10030    2    1    2    0    0  0.00000000000E+00  0.00000000000E+00 -0.17837333470E+03  0.52960215237E+03  0.49865959658E+03 0.  0.
        4    1    3    3  502    0  0.13325159383E+03  0.60810023307E+02 -0.30347351717E+03  0.33697423450E+03  0.12699999809E+01 0. -1.
       -4    1    3    3    0  502 -0.13325159383E+03 -0.60810023307E+02  0.12510018247E+03  0.19262791787E+03  0.12699999809E+01 0.  1.
</event>
<event>
 5   0  0.2504064E-01  0.4563378E+03  0.7818609E-02  0.1025849E+00
       -2   -1    0    0    0  501  0.00000000000E+00  0.00000000000E+00  0.72669521768E+02  0.72669521813E+02  0.25500000920E-02 0. -1.
        2   -1    0    0  501    0  0.00000000000E+00  0.00000000000E+00 -0.71640816593E+03  0.71640816593E+03  0.25500000920E-02 0.  1.
    10030    2    1    2    0    0  0.00000000000E+00  0.00000000000E+00 -0.64373864416E+03  0.78907768775E+03  0.45633776450E+03 0.  0.
        5    1    3    3  502    0 -0.88829485027E+02 -0.11441425342E+03 -0.17137612104E+02  0.14593521351E+03  0.46999998093E+01 0. -1.
       -5    1    3    3    0  502  0.88829485027E+02  0.11441425342E+03 -0.62660103206E+03  0.64314247424E+03  0.46999998093E+01 0.  1.
</event>
<event>
 5   0  0.1439814E-01  0.5008746E+03  0.7818609E-02  0.1013551E+00
       -1   -1    0    0    0  501  0.00000000000E+00  0.00000000000E+00  0.59760501606E+03  0.59760501608E+03  0.50400001928E-02 0.  1.
        1   -1    0    0  501    0  0.00000000000E+00  0.00000000000E+00 -0.10495030742E+03  0.10495030754E+03  0.50400001928E-02 0. -1.
    10030    2    1    2    0    0  0.00000000000E+00  0.00000000000E+00  0.49265470864E+03  0.70255532362E+03  0.50087455595E+03 0.  0.
        4    1    3    3  502    0 -0.23675209954E+03  0.58992079322E+02  0.16715986803E+03  0.29576283816E+03  0.12699999809E+01 0. -1.
       -4    1    3    3    0  502  0.23675209954E+03 -0.58992079322E+02  0.32549484061E+03  0.40679248546E+03  0.12699999809E+01 0.  1.
</event>
<event>
 5   0  0.9868500E-02  0.4754783E+03  0.7818609E-02  0.1020385E+00
       -4   -1    0    0    0  501  0.00000000000E+00  0.00000000000E+00  0.71541209473E+03  0.71541322199E+03  0.12699999809E+01 0.  1.
        4   -1    0    0  501    0  0.00000000000E+00  0.00000000000E+00 -0.78996996767E+02  0.79007204723E+02  0.12699999809E+01 0. -1.
    10030    2    1    2    0    0  0.00000000000E+00  0.00000000000E+00  0.63641509797E+03  0.79442042671E+03  0.47547832490E+03 0.  0.
        1    1    3    3  502    0  0.87536617054E+02  0.16204153468E+03  0.67035163415E+02  0.19599446789E+03  0.50400001928E-02 0. -1.
       -1    1    3    3    0  502 -0.87536617054E+02 -0.16204153468E+03  0.56937993455E+03  0.59842595881E+03  0.50400001928E-02 0.  1.
</event>
<event>
 5   0  0.2504064E-01  0.5070675E+03  0.7818609E-02  0.1011950E+00
        2   -1    0    0  501    0  0.00000000000E+00  0.00000000000E+00  0.26289678792E+03  0.26289678793E+03  0.25500000920E-02 0.  1.
       -2   -1    0    0    0  501  0.00000000000E+00  0.00000000000E+00 -0.24450417703E+03  0.24450417705E+03  0.25500000920E-02 0. -1.
    10030    2    1    2    0    0  0.00000000000E+00  0.00000000000E+00  0.18392610886E+02  0.50740096498E+03  0.50706750155E+03 0.  0.
        5    1    3    3  502    0 -0.17705274749E+03  0.57692475853E+01 -0.17224119997E+03  0.24712361396E+03  0.46999998093E+01 0. -1.
       -5    1    3    3    0  502  0.17705274749E+03 -0.57692475853E+01  0.19063381086E+03  0.26027735102E+03  0.46999998093E+01 0.  1.
</event>
<event>
 5   0  0.1413361E-01  0.4997935E+03  0.7818609E-02  0.1013833E+00
        1   -1    0    0  501    0  0.00000000000E+00  0.00000000000E+00  0.39592635726E+03  0.39592635729E+03  0.50400001928E-02 0.  1.
       -1   -1    0    0    0  501  0.00000000000E+00  0.00000000000E+00 -0.15772726424E+03  0.15772726432E+03  0.50400001928E-02 0. -1.
    10030    2    1    2    0    0  0.00000000000E+00  0.00000000000E+00  0.23819909302E+03  0.55365362161E+03  0.49979348216E+03 0.  0.
        3    1    3    3  502    0  0.99095928232E+02  0.16765188391E+03 -0.54368121118E+02  0.20219559829E+03  0.10100000352E+00 0. -1.
       -3    1    3    3    0  502 -0.99095928232E+02 -0.16765188391E+03  0.29256721414E+03  0.35145802332E+03  0.10100000352E+00 0.  1.
</event>
<event>
 5   0  0.2511944E-01  0.5071309E+03  0.7818609E-02  0.1011934E+00
       -2   -1    0    0    0  501  0.00000000000E+00  0.00000000000E+00  0.31419026160E+02  0.31419026263E+02  0.25500000920E-02 0.  1.
        2   -1    0    0  501    0  0.00000000000E+00  0.00000000000E+00 -0.20463857340E+04  0.20463857340E+04  0.25500000920E-02 0. -1.
    10030    2    1    2    0    0  0.00000000000E+00  0.00000000000E+00 -0.20149667078E+04  0.20778047602E+04  0.50713093779E+03 0.  0.
        1    1    3    3  502    0 -0.13110526142E+02 -0.22449477056E+03 -0.52747230387E+03  0.57340807396E+03  0.50400001928E-02 0.  1.
       -1    1    3    3    0  502  0.13110526142E+02  0.22449477056E+03 -0.14874944039E+04  0.15043966863E+04  0.50400001928E-02 0. -1.
</event>
<event>
 5   0  0.1529146E-01  0.5004481E+03  0.7818609E-02  0.1013662E+00
        1   -1    0    0  501    0  0.00000000000E+00  0.00000000000E+00  0.29385201551E+03  0.29385201555E+03  0.50400001928E-02 0.  1.
       -1   -1    0    0    0  501  0.00000000000E+00  0.00000000000E+00 -0.21307345637E+03  0.21307345643E+03  0.50400001928E-02 0. -1.
    10030    2    1    2    0    0  0.00000000000E+00  0.00000000000E+00  0.80778559140E+02  0.50692547198E+03  0.50044805777E+03 0.  0.
        1    1    3    3  502    0 -0.12575747096E+03  0.18023379267E+03  0.16157430864E+03  0.27277356683E+03  0.50400001928E-02 0.  1.
       -1    1    3    3    0  502  0.12575747096E+03 -0.18023379267E+03 -0.80795749504E+02  0.23415190515E+03  0.50400001928E-02 0. -1.
</event>
<event>
 5   0  0.2511944E-01  0.6135119E+03  0.7818609E-02  0.9877763E-01
       -2   -1    0    0    0  501  0.00000000000E+00  0.00000000000E+00  0.42931405858E+02  0.42931405934E+02  0.25500000920E-02 0.  1.
        2   -1    0    0  501    0  0.00000000000E+00  0.00000000000E+00 -0.21918505853E+04  0.21918505853E+04  0.25500000920E-02 0. -1.
    10030    2    1    2    0    0  0.00000000000E+00  0.00000000000E+00 -0.21489191794E+04  0.22347819912E+04  0.61351194656E+03 0.  0.
        1    1    3    3  502    0 -0.64742393183E+02 -0.17618568726E+03 -0.19067721472E+03  0.26756452326E+03  0.50400001928E-02 0.  1.
       -1    1    3    3    0  502  0.64742393183E+02  0.17618568726E+03 -0.19582419647E+04  0.19672174679E+04  0.50400001928E-02 0. -1.
</event>
<event>
 5   0  0.2511944E-01  0.4949296E+03  0.7818609E-02  0.1015111E+00
        2   -1    0    0  501    0  0.00000000000E+00  0.00000000000E+00  0.54642347583E+03  0.54642347583E+03  0.25500000920E-02 0.  1.
       -2   -1    0    0    0  501  0.00000000000E+00  0.00000000000E+00 -0.11207211715E+03  0.11207211718E+03  0.25500000920E-02 0. -1.
    10030    2    1    2    0    0  0.00000000000E+00  0.00000000000E+00  0.43435135867E+03  0.65849559301E+03  0.49492963463E+03 0.  0.
        1    1    3    3  502    0 -0.95286322865E+02 -0.12310944571E+03  0.47311106059E+03  0.49806575331E+03  0.50400001928E-02 0.  1.
       -1    1    3    3    0  502  0.95286322865E+02  0.12310944571E+03 -0.38759701913E+02  0.16042983970E+03  0.50400001928E-02 0. -1.
</event>
<event>
 5   0  0.2504064E-01  0.4949649E+03  0.7818609E-02  0.1015102E+00
       -2   -1    0    0    0  501  0.00000000000E+00  0.00000000000E+00  0.11485537166E+03  0.11485537169E+03  0.25500000920E-02 0.  1.
        2   -1    0    0  501    0  0.00000000000E+00  0.00000000000E+00 -0.53325814418E+03  0.53325814418E+03  0.25500000920E-02 0. -1.
    10030    2    1    2    0    0  0.00000000000E+00  0.00000000000E+00 -0.41840277252E+03  0.64811351587E+03  0.49496489714E+03 0.  0.
        5    1    3    3  502    0  0.21372226016E+03  0.12458973086E+03 -0.21583519231E+03  0.32833934544E+03  0.46999998093E+01 0.  1.
       -5    1    3    3    0  502 -0.21372226016E+03 -0.12458973086E+03 -0.20256758021E+03  0.31977417044E+03  0.46999998093E+01 0. -1.
</event>
<event>
 5   0  0.2466034E-01  0.4902576E+03  0.7818609E-02  0.1016354E+00
       -2   -1    0    0    0  501  0.00000000000E+00  0.00000000000E+00  0.97846512762E+02  0.97846512796E+02  0.25500000920E-02 0.  1.
        2   -1    0    0  501    0  0.00000000000E+00  0.00000000000E+00 -0.61410609133E+03  0.61410609134E+03  0.25500000920E-02 0. -1.
    10030    2    1    2    0    0  0.00000000000E+00  0.00000000000E+00 -0.51625957857E+03  0.71195260413E+03  0.49025764458E+03 0.  0.
        3    1    3    3  502    0 -0.18745118620E+03  0.51563458734E+02 -0.47494777304E+03  0.51319794894E+03  0.10100000352E+00 0. -1.
       -3    1    3    3    0  502  0.18745118620E+03 -0.51563458734E+02 -0.41311805534E+02  0.19875465519E+03  0.10100000352E+00 0.  1.
</event>
<event>
 5   0  0.1453602E-01  0.4988690E+03  0.7818609E-02  0.1014075E+00
       -1   -1    0    0    0  501  0.00000000000E+00  0.00000000000E+00  0.19681103081E+04  0.19681103081E+04  0.50400001928E-02 0.  1.
        1   -1    0    0  501    0  0.00000000000E+00  0.00000000000E+00 -0.31612852408E+02  0.31612852810E+02  0.50400001928E-02 0. -1.
    10030    2    1    2    0    0  0.00000000000E+00  0.00000000000E+00  0.19364974557E+04  0.19997231609E+04  0.49886904534E+03 0.  0.
        2    1    3    3  502    0 -0.12882463186E+03  0.96005047048E+02  0.17330750059E+04  0.17405061709E+04  0.25500000920E-02 0.  1.
       -2    1    3    3    0  502  0.12882463186E+03 -0.96005047048E+02  0.20342244981E+03  0.25921699005E+03  0.25500000920E-02 0. -1.
</event>
<event>
 5   0  0.1413361E-01  0.5147156E+03  0.7818609E-02  0.1010008E+00
        1   -1    0    0  501    0  0.00000000000E+00  0.00000000000E+00  0.49882039109E+03  0.49882039112E+03  0.50400001928E-02 0. -1.
       -1   -1    0    0    0  501  0.00000000000E+00  0.00000000000E+00 -0.13277930533E+03  0.13277930542E+03  0.50400001928E-02 0.  1.
    10030    2    1    2    0    0  0.00000000000E+00  0.00000000000E+00  0.36604108577E+03  0.63159969654E+03  0.51471555271E+03 0.  0.
        3    1    3    3  502    0  0.28537835996E+02 -0.14671078510E+03  0.44010743456E+03  0.46479353127E+03  0.10100000352E+00 0. -1.
       -3    1    3    3    0  502 -0.28537835996E+02  0.14671078510E+03 -0.74066348793E+02  0.16680616527E+03  0.10100000352E+00 0.  1.
</event>
<event>
 5   0  0.1448458E-01  0.5471502E+03  0.7818609E-02  0.1002156E+00
       -1   -1    0    0    0  501  0.00000000000E+00  0.00000000000E+00  0.12422900999E+03  0.12422901009E+03  0.50400001928E-02 0.  1.
        1   -1    0    0  501    0  0.00000000000E+00  0.00000000000E+00 -0.60246252089E+03  0.60246252092E+03  0.50400001928E-02 0. -1.
    10030    2    1    2    0    0  0.00000000000E+00  0.00000000000E+00 -0.47823351091E+03  0.72669153101E+03  0.54715015333E+03 0.  0.
        5    1    3    3  502    0 -0.61725969993E+02  0.19766168848E+03 -0.17511507886E+01  0.20713617499E+03  0.46999998093E+01 0.  1.
       -5    1    3    3    0  502  0.61725969993E+02 -0.19766168848E+03 -0.47648236012E+03  0.51955535601E+03  0.46999998093E+01 0. -1.
</event>
<event>
 5   0  0.9868500E-02  0.5081914E+03  0.7818609E-02  0.1011663E+00
       -3   -1    0    0    0  501  0.00000000000E+00  0.00000000000E+00  0.13763822826E+03  0.13763826532E+03  0.10100000352E+00 0. -1.
        3   -1    0    0  501    0  0.00000000000E+00  0.00000000000E+00 -0.46908929057E+03  0.46908930144E+03  0.10100000352E+00 0.  1.
    10030    2    1    2    0    0  0.00000000000E+00  0.00000000000E+00 -0.33145106230E+03  0.60672756676E+03  0.50819143397E+03 0.  0.
        4    1    3    3  502    0  0.21571220345E+02 -0.18549581516E+03 -0.37143970333E+03  0.41574400909E+03  0.12699999809E+01 0. -1.
       -4    1    3    3    0  502 -0.21571220345E+02  0.18549581516E+03  0.39988641023E+02  0.19098355767E+03  0.12699999809E+01 0.  1.
</event>
<event>
 5   0  0.1453602E-01  0.3785482E+03  0.7818609E-02  0.1051472E+00
        1   -1    0    0  501    0  0.00000000000E+00  0.00000000000E+00  0.37794115981E+03  0.37794115985E+03  0.50400001928E-02 0.  1.
       -1   -1    0    0    0  501  0.00000000000E+00  0.00000000000E+00 -0.94789054024E+02  0.94789054158E+02  0.50400001928E-02 0. -1.
    10030    2    1    2    0    0  0.00000000000E+00  0.00000000000E+00  0.28315210579E+03  0.47273021400E+03  0.37854820066E+03 0.  0.
        2    1    3    3  502    0  0.25221222626E+02  0.12346824717E+03  0.31793606686E+03  0.34199979641E+03  0.25500000920E-02 0.  1.
       -2    1    3    3    0  502 -0.25221222626E+02 -0.12346824717E+03 -0.34783961068E+02  0.13073041759E+03  0.25500000920E-02 0. -1.
</event>
<event>
 5   0  0.9868500E-02  0.5029299E+03  0.7818609E-02  0.1013017E+00
        3   -1    0    0  501    0  0.00000000000E+00  0.00000000000E+00  0.16731851855E+03  0.16731854903E+03  0.10100000352E+00 0. -1.
       -3   -1    0    0    0  501  0.00000000000E+00  0.00000000000E+00 -0.37792947028E+03  0.37792948378E+03  0.10100000352E+00 0.  1.
    10030    2    1    2    0    0  0.00000000000E+00  0.00000000000E+00 -0.21061095173E+03  0.54524803281E+03  0.50292986022E+03 0.  0.
        5    1    3    3  502    0 -0.95210125421E+02  0.13459125645E+03 -0.31110073732E+03  0.35211579495E+03  0.46999998093E+01 0.  1.
       -5    1    3    3    0  502  0.95210125421E+02 -0.13459125645E+03  0.10048978559E+03  0.19313223786E+03  0.46999998093E+01 0. -1.
</event>
<event>
 5   0  0.1529146E-01  0.4969860E+03  0.7818609E-02  0.1014569E+00
       -1   -1    0    0    0  501  0.00000000000E+00  0.00000000000E+00  0.39140343486E+02  0.39140343811E+02  0.50400001928E-02 0. -1.
        1   -1    0    0  501    0  0.00000000000E+00  0.00000000000E+00 -0.15776245393E+04  0.15776245393E+04  0.50400001928E-02 0.  1.
    10030    2    1    2    0    0  0.00000000000E+00  0.00000000000E+00 -0.15384841958E+04  0.16167648831E+04  0.49698598221E+03 0.  0.
        1    1    3    3  502    0 -0.20408426147E+03  0.12122816767E+03 -0.10083448239E+04  0.10359082673E+04  0.50400001928E-02 0. -1.
       -1    1    3    3    0  502  0.20408426147E+03 -0.12122816767E+03 -0.53013937188E+03  0.58085661576E+03  0.50400001928E-02 0.  1.
</event>
<event>
 5   0  0.2511944E-01  0.4914264E+03  0.7818609E-02  0.1016041E+00
        2   -1    0    0  501    0  0.00000000000E+00  0.00000000000E+00  0.26526861618E+03  0.26526861619E+03  0.25500000920E-02 0.  1.
       -2   -1    0    0    0  501  0.00000000000E+00  0.00000000000E+00 -0.22759940887E+03  0.22759940888E+03  0.25500000920E-02 0. -1.
    10030    2    1    2    0    0  0.00000000000E+00  0.00000000000E+00  0.37669207310E+02  0.49286802507E+03  0.49142641459E+03 0.  0.
        1    1    3    3  502    0 -0.19517522633E+03 -0.12027704591E+03  0.10749666957E+03  0.25321032906E+03  0.50400001928E-02 0.  1.
       -1    1    3    3    0  502  0.19517522633E+03  0.12027704591E+03 -0.69827462257E+02  0.23965769601E+03  0.50400001928E-02 0. -1.
</event>
<event>
 5   0  0.1413361E-01  0.5067011E+03  0.7818609E-02  0.1012044E+00
       -1   -1    0    0    0  501  0.00000000000E+00  0.00000000000E+00  0.43234591521E+03  0.43234591524E+03  0.50400001928E-02 0. -1.
        1   -1    0    0  501    0  0.00000000000E+00  0.00000000000E+00 -0.14846101176E+03  0.14846101185E+03  0.50400001928E-02 0.  1.
    10030    2    1    2    0    0  0.00000000000E+00  0.00000000000E+00  0.28388490344E+03  0.58080692709E+03  0.50670114283E+03 0.  0.
        3    1    3    3  502    0  0.44088260377E+02  0.14583782250E+02  0.42742590122E+03  0.42994112695E+03  0.10100000352E+00 0. -1.
       -3    1    3    3    0  502 -0.44088260377E+02 -0.14583782250E+02 -0.14354099778E+03  0.15086580014E+03  0.10100000352E+00 0.  1.
</event>
<event>
 5   0  0.2488968E-01  0.5056580E+03  0.7818609E-02  0.1012313E+00
       -2   -1    0    0    0  501  0.00000000000E+00  0.00000000000E+00  0.25167929163E+02  0.25167929292E+02  0.25500000920E-02 0. -1.
        2   -1    0    0  501    0  0.00000000000E+00  0.00000000000E+00 -0.25398393582E+04  0.25398393582E+04  0.25500000920E-02 0.  1.
    10030    2    1    2    0    0  0.00000000000E+00  0.00000000000E+00 -0.25146714290E+04  0.25650072875E+04  0.50565797618E+03 0.  0.
        2    1    3    3  502    0  0.14927486537E+03 -0.12984872328E+03 -0.45884097558E+03  0.49967861396E+03  0.25500000920E-02 0. -1.
       -2    1    3    3    0  502 -0.14927486537E+03  0.12984872328E+03 -0.20558304534E+04  0.20653286735E+04  0.25500000920E-02 0.  1.
</event>
<event>
 5   0  0.1448458E-01  0.5561080E+03  0.7818609E-02  0.1000090E+00
       -1   -1    0    0    0  501  0.00000000000E+00  0.00000000000E+00  0.16145272893E+03  0.16145272901E+03  0.50400001928E-02 0. -1.
        1   -1    0    0  501    0  0.00000000000E+00  0.00000000000E+00 -0.47886483022E+03  0.47886483024E+03  0.50400001928E-02 0.  1.
    10030    2    1    2    0    0  0.00000000000E+00  0.00000000000E+00 -0.31741210128E+03  0.64031755926E+03  0.55610802426E+03 0.  0.
        5    1    3    3  502    0 -0.34792220138E+01  0.23766560088E+03 -0.32474679693E+03  0.40246691161E+03  0.46999998093E+01 0.  1.
       -5    1    3    3    0  502  0.34792220138E+01 -0.23766560088E+03  0.73346956460E+01  0.23785064765E+03  0.46999998093E+01 0. -1.
</event>
<event>
 5   0  0.2413301E-01  0.4979399E+03  0.7818609E-02  0.1014318E+00
        2   -1    0    0  501    0  0.00000000000E+00  0.00000000000E+00  0.26046443307E+03  0.26046443308E+03  0.25500000920E-02 0. -1.
       -2   -1    0    0    0  501  0.00000000000E+00  0.00000000000E+00 -0.23798273267E+03  0.23798273269E+03  0.25500000920E-02 0.  1.
    10030    2    1    2    0    0  0.00000000000E+00  0.00000000000E+00  0.22481700394E+02  0.49844716577E+03  0.49793990622E+03 0.  0.
        4    1    3    3  502    0 -0.26701523772E+02  0.98152933314E+02 -0.21622940367E+03  0.23896388347E+03  0.12699999809E+01 0.  1.
       -4    1    3    3    0  502  0.26701523772E+02 -0.98152933314E+02  0.23871110407E+03  0.25948328230E+03  0.12699999809E+01 0. -1.
</event>
<event>
 5   0  0.2511944E-01  0.4952343E+03  0.7818609E-02  0.1015030E+00
        2   -1    0    0  501    0  0.00000000000E+00  0.00000000000E+00  0.15031436317E+04  0.15031436317E+04  0.25500000920E-02 0.  1.
       -2   -1    0    0    0  501  0.00000000000E+00  0.00000000000E+00 -0.40790675558E+02  0.40790675638E+02  0.25500000920E-02 0. -1.
    10030    2    1    2    0    0  0.00000000000E+00  0.00000000000E+00  0.14623529562E+04  0.15439343074E+04  0.49523426482E+03 0.  0.
        1    1    3    3  502    0 -0.15684148238E+03  0.19080664506E+03  0.78587366950E+03  0.82377415038E+03  0.50400001928E-02 0.  1.
       -1    1    3    3    0  502  0.15684148238E+03 -0.19080664506E+03  0.67647928667E+03  0.72016015698E+03  0.50400001928E-02 0. -1.
</event>
<event>
 5   0  0.2511944E-01  0.4925902E+03  0.7818609E-02  0.1015731E+00
       -2   -1    0    0    0  501  0.00000000000E+00  0.00000000000E+00  0.70650168069E+02  0.70650168116E+02  0.25500000920E-02 0. -1.
        2   -1    0    0  501    0  0.00000000000E+00  0.00000000000E+00 -0.85861488671E+03  0.85861488671E+03  0.25500000920E-02 0.  1.
    10030    2    1    2    0    0  0.00000000000E+00  0.00000000000E+00 -0.78796471864E+03  0.92926505483E+03  0.49259023976E+03 0.  0.
        1    1    3    3  502    0  0.21262339812E+03  0.31094234918E+02 -0.62103362338E+03  0.65715928227E+03  0.50400001928E-02 0.  1.
       -1    1    3    3    0  502 -0.21262339812E+03 -0.31094234918E+02 -0.16693109525E+03  0.27210577256E+03  0.50400001928E-02 0. -1.
</event>
<event>
 5   0  0.1453602E-01  0.5189966E+03  0.7818609E-02  0.1008936E+00
        1   -1    0    0  501    0  0.00000000000E+00  0.00000000000E+00  0.15937072139E+03  0.15937072147E+03  0.50400001928E-02 0.  1.
       -1   -1    0    0    0  501  0.00000000000E+00  0.00000000000E+00 -0.42253280791E+03  0.42253280794E+03  0.50400001928E-02 0. -1.
    10030    2    1    2    0    0  0.00000000000E+00  0.00000000000E+00 -0.26316208652E+03  0.58190352940E+03  0.51899656430E+03 0.  0.
        2    1    3    3  502    0 -0.79277568687E+02 -0.96116431553E+02  0.12364129890E+03  0.17552912041E+03  0.25500000920E-02 0.  1.
       -2    1    3    3    0  502  0.79277568687E+02  0.96116431553E+02 -0.38680338542E+03  0.40637440900E+03  0.25500000920E-02 0. -1.
</event>
<event>
 5   0  0.2413301E-01  0.3941553E+03  0.7818609E-02  0.1045822E+00
        2   -1    0    0  501    0  0.00000000000E+00  0.00000000000E+00  0.85415903264E+03  0.85415903264E+03  0.25500000920E-02 0. -1.
       -2   -1    0    0    0  501  0.00000000000E+00  0.00000000000E+00 -0.45471148302E+02  0.45471148374E+02  0.25500000920E-02 0.  1.
    10030    2    1    2    0    0  0.00000000000E+00  0.00000000000E+00  0.80868788434E+03  0.89963018102E+03  0.39415525916E+03 0.  0.
        4    1    3    3  502    0  0.15429770116E+03 -0.94599210699E+02  0.58233201619E+03  0.60981061095E+03  0.12699999809E+01 0. -1.
       -4    1    3    3    0  502 -0.15429770116E+03  0.94599210699E+02  0.22635586814E+03  0.28981957006E+03  0.12699999809E+01 0.  1.
</event>
<event>
 5   0  0.2413301E-01  0.4940805E+03  0.7818609E-02  0.1015336E+00
        2   -1    0    0  501    0  0.00000000000E+00  0.00000000000E+00  0.61410958527E+03  0.61410958527E+03  0.25500000920E-02 0. -1.
       -2   -1    0    0    0  501  0.00000000000E+00  0.00000000000E+00 -0.99377823460E+02  0.99377823492E+02  0.25500000920E-02 0.  1.
    10030    2    1    2    0    0  0.00000000000E+00  0.00000000000E+00  0.51473176181E+03  0.71348740877E+03  0.49408045484E+03 0.  0.
        4    1    3    3  502    0  0.10576006526E+03  0.17645017407E+03  0.45487876103E+03  0.49923557112E+03  0.12699999809E+01 0. -1.
       -4    1    3    3    0  502 -0.10576006526E+03 -0.17645017407E+03  0.59853000774E+02  0.21425183764E+03  0.12699999809E+01 0.  1.
</event>
<event>
 5   0  0.9868500E-02  0.4812016E+03  0.7818609E-02  0.1018805E+00
        4   -1    0    0  501    0  0.00000000000E+00  0.00000000000E+00  0.30685569614E+03  0.30685832424E+03  0.12699999809E+01 0. -1.
       -4   -1    0    0    0  501  0.00000000000E+00  0.00000000000E+00 -0.18864576218E+03  0.18865003708E+03  0.12699999809E+01 0.  1.
    10030    2    1    2    0    0  0.00000000000E+00  0.00000000000E+00  0.11820993396E+03  0.49550836131E+03  0.48120156654E+03 0.  0.
        1    1    3    3  502    0  0.65828131734E+02 -0.78964150454E+01 -0.17905710331E+03  0.19093753577E+03  0.50400001928E-02 0.  1.
       -1    1    3    3    0  502 -0.65828131734E+02  0.78964150454E+01  0.29726703727E+03  0.30457082554E+03  0.50400001928E-02 0. -1.
</event>
<event>
 5   0  0.2511944E-01  0.4894533E+03  0.7818609E-02  0.1016569E+00
        2   -1    0    0  501    0  0.00000000000E+00  0.00000000000E+00  0.26423950024E+03  0.26423950026E+03  0.25500000920E-02 0.  1.
       -2   -1    0    0    0  501  0.00000000000E+00  0.00000000000E+00 -0.22665470670E+03  0.22665470672E+03  0.25500000920E-02 0. -1.
    10030    2    1    2    0    0  0.00000000000E+00  0.00000000000E+00  0.37584793542E+02  0.49089420697E+03  0.48945327227E+03 0.  0.
        1    1    3    3  502    0 -0.22161656215E+03 -0.18322750791E+01 -0.85310426336E+02  0.23747658141E+03  0.50400001928E-02 0. -1.
       -1    1    3    3    0  502  0.22161656215E+03  0.18322750791E+01  0.12289521988E+03  0.25341762556E+03  0.50400001928E-02 0.  1.
</event>
<event>
 5   0  0.1413361E-01  0.4891164E+03  0.7818609E-02  0.1016659E+00
        1   -1    0    0  501    0  0.00000000000E+00  0.00000000000E+00  0.33272016874E+03  0.33272016877E+03  0.50400001928E-02 0.  1.
       -1   -1    0    0    0  501  0.00000000000E+00  0.00000000000E+00 -0.17975682893E+03  0.17975682900E+03  0.50400001928E-02 0. -1.
    10030    2    1    2    0    0  0.00000000000E+00  0.00000000000E+00  0.15296333981E+03  0.51247699777E+03  0.48911643800E+03 0.  0.
        3    1    3    3  502    0  0.16734767342E+03  0.28604874194E+01 -0.11034698498E+03  0.20047417161E+03  0.10100000352E+00 0. -1.
       -3    1    3    3    0  502 -0.16734767342E+03 -0.28604874194E+01  0.26331032479E+03  0.31200282616E+03  0.10100000352E+00 0.  1.
</event>
<event>
 5   0  0.1413361E-01  0.4988398E+03  0.7818609E-02  0.1014082E+00
        1   -1    0    0  501    0  0.00000000000E+00  0.00000000000E+00  0.27742179714E+03  0.27742179718E+03  0.50400001928E-02 0. -1.
       -1   -1    0    0    0  501  0.00000000000E+00  0.00000000000E+00 -0.22424436245E+03  0.22424436251E+03  0.50400001928E-02 0.  1.
    10030    2    1    2    0    0  0.00000000000E+00  0.00000000000E+00  0.53177434683E+02  0.50166615969E+03  0.49883975004E+03 0.  0.
        3    1    3    3  502    0 -0.23417342483E+03  0.77950856041E+02 -0.96255221692E+01  0.24699431114E+03  0.10100000352E+00 0. -1.
       -3    1    3    3    0  502  0.23417342483E+03 -0.77950856041E+02  0.62802956852E+02  0.25467184855E+03  0.10100000352E+00 0.  1.
</event>
<event>
 5   0  0.1413361E-01  0.5028801E+03  0.7818609E-02  0.1013030E+00
       -1   -1    0    0    0  501  0.00000000000E+00  0.00000000000E+00  0.10915836683E+03  0.10915836694E+03  0.50400001928E-02 0.  1.
        1   -1    0    0  501    0  0.00000000000E+00  0.00000000000E+00 -0.57917766982E+03  0.57917766984E+03  0.50400001928E-02 0. -1.
    10030    2    1    2    0    0  0.00000000000E+00  0.00000000000E+00 -0.47001930299E+03  0.68833603679E+03  0.50288005961E+03 0.  0.
        3    1    3    3  502    0 -0.52490107765E+02  0.24152652065E+03 -0.17181067964E+03  0.30101360672E+03  0.10100000352E+00 0.  1.
       -3    1    3    3    0  502  0.52490107765E+02 -0.24152652065E+03 -0.29820862336E+03  0.38732243007E+03  0.10100000352E+00 0. -1.
</event>
<event>
 5   0  0.9868500E-02  0.5129397E+03  0.7818609E-02  0.1010456E+00
        4   -1    0    0  501    0  0.00000000000E+00  0.00000000000E+00  0.20645602955E+03  0.20645993567E+03  0.12699999809E+01 0.  1.
       -4   -1    0    0    0  501  0.00000000000E+00  0.00000000000E+00 -0.31859125524E+03  0.31859378653E+03  0.12699999809E+01 0. -1.
    10030    2    1    2    0    0  0.00000000000E+00  0.00000000000E+00 -0.11213522569E+03  0.52505372220E+03  0.51293966737E+03 0.  0.
        5    1    3    3  502    0 -0.10336913211E+03  0.11297822137E+03  0.15447281960E+03  0.21756194054E+03  0.46999998093E+01 0.  1.
       -5    1    3    3    0  502  0.10336913211E+03 -0.11297822137E+03 -0.26660804529E+03  0.30749178166E+03  0.46999998093E+01 0. -1.
</event>
<event>
 5   0  0.2466034E-01  0.3709064E+03  0.7818609E-02  0.1054347E+00
        2   -1    0    0  501    0  0.00000000000E+00  0.00000000000E+00  0.22326484699E+03  0.22326484701E+03  0.25500000920E-02 0.  1.
       -2   -1    0    0    0  501  0.00000000000E+00  0.00000000000E+00 -0.15404521601E+03  0.15404521604E+03  0.25500000920E-02 0. -1.
    10030    2    1    2    0    0  0.00000000000E+00  0.00000000000E+00  0.69219630980E+02  0.37731006304E+03  0.37090635794E+03 0.  0.
        3    1    3    3  502    0  0.21595270405E+02 -0.10154633783E+03  0.19093421530E+03  0.21733361269E+03  0.10100000352E+00 0.  1.
       -3    1    3    3    0  502 -0.21595270405E+02  0.10154633783E+03 -0.12171458432E+03  0.15997645036E+03  0.10100000352E+00 0. -1.
</event>
<event>
 5   0  0.2504064E-01  0.4780552E+03  0.7818609E-02  0.1019671E+00
        2   -1    0    0  501    0  0.00000000000E+00  0.00000000000E+00  0.63638270533E+02  0.63638270584E+02  0.25500000920E-02 0. -1.
       -2   -1    0    0    0  501  0.00000000000E+00  0.00000000000E+00 -0.89779601769E+03  0.89779601770E+03  0.25500000920E-02 0.  1.
    10030    2    1    2    0    0  0.00000000000E+00  0.00000000000E+00 -0.83415774716E+03  0.96143428828E+03  0.47805516788E+03 0.  0.
        5    1    3    3  502    0  0.88016563234E+02  0.14165598755E+03 -0.76132274858E+03  0.77938934540E+03  0.46999998093E+01 0.  1.
       -5    1    3    3    0  502 -0.88016563234E+02 -0.14165598755E+03 -0.72834998579E+02  0.18204494288E+03  0.46999998093E+01 0. -1.
</event>
<event>
 5   0  0.2488968E-01  0.4926499E+03  0.7818609E-02  0.1015715E+00
        2   -1    0    0  501    0  0.00000000000E+00  0.00000000000E+00  0.53669695999E+03  0.53669696000E+03  0.25500000920E-02 0. -1.
       -2   -1    0    0    0  501  0.00000000000E+00  0.00000000000E+00 -0.11305446121E+03  0.11305446123E+03  0.25500000920E-02 0.  1.
    10030    2    1    2    0    0  0.00000000000E+00  0.00000000000E+00  0.42364249878E+03  0.64975142123E+03  0.49264991892E+03 0.  0.
        2    1    3    3  502    0  0.22484230147E+03  0.76074745609E+02  0.12498896200E+03  0.26826044822E+03  0.25500000920E-02 0. -1.
       -2    1    3    3    0  502 -0.22484230147E+03 -0.76074745609E+02  0.29865353678E+03  0.38149097301E+03  0.25500000920E-02 0.  1.
</event>
<event>
 5   0  0.1453602E-01  0.4871957E+03  0.7818609E-02  0.1017176E+00
        1   -1    0    0  501    0  0.00000000000E+00  0.00000000000E+00  0.14895083525E+04  0.14895083525E+04  0.50400001928E-02 0.  1.
       -1   -1    0    0    0  501  0.00000000000E+00  0.00000000000E+00 -0.39838582314E+02  0.39838582633E+02  0.50400001928E-02 0. -1.
    10030    2    1    2    0    0  0.00000000000E+00  0.00000000000E+00  0.14496697702E+04  0.15293469351E+04  0.48719565416E+03 0.  0.
        2    1    3    3  502    0  0.18224349823E+03  0.11491130412E+03  0.36799156031E+03  0.42642125759E+03  0.25500000920E-02 0. -1.
       -2    1    3    3    0  502 -0.18224349823E+03 -0.11491130412E+03  0.10816782099E+04  0.11029256775E+04  0.25500000920E-02 0.  1.
</event>
<event>
 5   0  0.2511944E-01  0.5037381E+03  0.7818609E-02  0.1012808E+00
        2   -1    0    0  501    0  0.00000000000E+00  0.00000000000E+00  0.23560754922E+04  0.23560754922E+04  0.25500000920E-02 0.  1.
       -2   -1    0    0    0  501  0.00000000000E+00  0.00000000000E+00 -0.26925285943E+02  0.26925286064E+02  0.25500000920E-02 0. -1.
    10030    2    1    2    0    0  0.00000000000E+00  0.00000000000E+00  0.23291502062E+04  0.23830007782E+04  0.50373805286E+03 0.  0.
        1    1    3    3  502    0  0.76489141710E+02  0.11365882128E+03  0.16475243806E+03  0.21427151543E+03  0.50400001928E-02 0. -1.
       -1    1    3    3    0  502 -0.76489141710E+02 -0.11365882128E+03  0.21643977682E+04  0.21687292628E+04  0.50400001928E-02 0.  1.
</event>
<event>
 5   0  0.1448458E-01  0.4815442E+03  0.7818609E-02  0.1018712E+00
        1   -1    0    0  501    0  0.00000000000E+00  0.00000000000E+00  0.81234435313E+03  0.81234435315E+03  0.50400001928E-02 0.  1.
       -1   -1    0    0    0  501  0.00000000000E+00  0.00000000000E+00 -0.71362830618E+02  0.71362830796E+02  0.50400001928E-02 0. -1.
    10030    2    1    2    0    0  0.00000000000E+00  0.00000000000E+00  0.74098152251E+03  0.88370718394E+03  0.48154415192E+03 0.  0.
        5    1    3    3  502    0 -0.20503127559E+03  0.10032718026E+03  0.23017971828E+03  0.32420388612E+03  0.46999998093E+01 0. -1.
       -5    1    3    3    0  502  0.20503127559E+03 -0.10032718026E+03  0.51080180423E+03  0.55950329782E+03  0.46999998093E+01 0.  1.
</event>
<event>
 5   0  0.9868500E-02  0.5079941E+03  0.7818609E-02  0.1011713E+00
       -4   -1    0    0    0  501  0.00000000000E+00  0.00000000000E+00  0.80673405735E+02  0.80683401594E+02  0.12699999809E+01 0.  1.
        4   -1    0    0  501    0  0.00000000000E+00  0.00000000000E+00 -0.79963970339E+03  0.79964071191E+03  0.12699999809E+01 0. -1.
    10030    2    1    2    0    0  0.00000000000E+00  0.00000000000E+00 -0.71896629765E+03  0.88032411350E+03  0.50799410198E+03 0.  0.
        1    1    3    3  502    0  0.24209020591E+03 -0.47562516751E+02 -0.25486396885E+03  0.35471890764E+03  0.50400001928E-02 0.  1.
       -1    1    3    3    0  502 -0.24209020591E+03  0.47562516751E+02 -0.46410232881E+03  0.52560520586E+03  0.50400001928E-02 0. -1.
</event>
<event>
 5   0  0.1529146E-01  0.4989139E+03  0.7818609E-02  0.1014063E+00
        1   -1    0    0  501    0  0.00000000000E+00  0.00000000000E+00  0.10741141140E+04  0.10741141140E+04  0.50400001928E-02 0.  1.
       -1   -1    0    0    0  501  0.00000000000E+00  0.00000000000E+00 -0.57934965885E+02  0.57934966105E+02  0.50400001928E-02 0. -1.
    10030    2    1    2    0    0  0.00000000000E+00  0.00000000000E+00  0.10161791481E+04  0.11320490801E+04  0.49891387906E+03 0.  0.
        1    1    3    3  502    0 -0.10550196604E+03  0.11680894460E+03  0.94721384500E+03  0.96020261537E+03  0.50400001928E-02 0.  1.
       -1    1    3    3    0  502  0.10550196604E+03 -0.11680894460E+03  0.68965303076E+02  0.17184646471E+03  0.50400001928E-02 0. -1.
</event>
<event>
 5   0  0.9868500E-02  0.4633785E+03  0.7818609E-02  0.1023806E+00
        3   -1    0    0  501    0  0.00000000000E+00  0.00000000000E+00  0.51616591395E+02  0.51616690210E+02  0.10100000352E+00 0.  1.
       -3   -1    0    0    0  501  0.00000000000E+00  0.00000000000E+00 -0.10399728846E+04  0.10399728895E+04  0.10100000352E+00 0. -1.
    10030    2    1    2    0    0  0.00000000000E+00  0.00000000000E+00 -0.98835629317E+03  0.10915895797E+04  0.46337851505E+03 0.  0.
        4    1    3    3  502    0  0.34372972887E+01  0.17322922476E+03 -0.13184038142E+03  0.21772385812E+03  0.12699999809E+01 0.  1.
       -4    1    3    3    0  502 -0.34372972887E+01 -0.17322922476E+03 -0.85651591175E+03  0.87386572155E+03  0.12699999809E+01 0. -1.
</event>
<event>
 5   0  0.1413361E-01  0.4866034E+03  0.7818609E-02  0.1017336E+00
        1   -1    0    0  501    0  0.00000000000E+00  0.00000000000E+00  0.44551056145E+03  0.44551056148E+03  0.50400001928E-02 0. -1.
       -1   -1    0    0    0  501  0.00000000000E+00  0.00000000000E+00 -0.13287163334E+03  0.13287163344E+03  0.50400001928E-02 0.  1.
    10030    2    1    2    0    0  0.00000000000E+00  0.00000000000E+00  0.31263892811E+03  0.57838219492E+03  0.48660339500E+03 0.  0.
        3    1    3    3  502    0  0.16249401170E+03 -0.14587880170E+03  0.28795411976E+02  0.22025919862E+03  0.10100000352E+00 0.  1.
       -3    1    3    3    0  502 -0.16249401170E+03  0.14587880170E+03  0.28384351614E+03  0.35812299630E+03  0.10100000352E+00 0. -1.
</event>
<event>
 5   0  0.1453602E-01  0.4707676E+03  0.7818609E-02  0.1021704E+00
       -1   -1    0    0    0  501  0.00000000000E+00  0.00000000000E+00  0.15280538267E+03  0.15280538275E+03  0.50400001928E-02 0.  1.
        1   -1    0    0  501    0  0.00000000000E+00  0.00000000000E+00 -0.36258889000E+03  0.36258889004E+03  0.50400001928E-02 0. -1.
    10030    2    1    2    0    0  0.00000000000E+00  0.00000000000E+00 -0.20978350733E+03  0.51539427279E+03  0.47076760347E+03 0.  0.
        2    1    3    3  502    0 -0.21294977008E+03 -0.77189488086E+02 -0.34793093239E+02  0.22916452822E+03  0.25500000920E-02 0.  1.
       -2    1    3    3    0  502  0.21294977008E+03  0.77189488086E+02 -0.17499041409E+03  0.28622974458E+03  0.25500000920E-02 0. -1.
</event>
<event>
 5   0  0.1413361E-01  0.6080305E+03  0.7818609E-02  0.9888884E-01
       -1   -1    0    0    0  501  0.00000000000E+00  0.00000000000E+00  0.16441509832E+03  0.16441509840E+03  0.50400001928E-02 0. -1.
        1   -1    0    0  501    0  0.00000000000E+00  0.00000000000E+00 -0.56214588175E+03  0.56214588178E+03  0.50400001928E-02 0.  1.
    10030    2    1    2    0    0  0.00000000000E+00  0.00000000000E+00 -0.39773078343E+03  0.72656098018E+03  0.60803049416E+03 0.  0.
        3    1    3    3  502    0  0.97123193350E+02  0.92459453783E+02 -0.52489750464E+03  0.54175554069E+03  0.10100000352E+00 0.  1.
       -3    1    3    3    0  502 -0.97123193350E+02 -0.92459453783E+02  0.12716672121E+03  0.18480543949E+03  0.10100000352E+00 0. -1.
</event>
<event>
 5   0  0.1439814E-01  0.5038067E+03  0.7818609E-02  0.1012790E+00
        1   -1    0    0  501    0  0.00000000000E+00  0.00000000000E+00  0.38984763055E+03  0.38984763058E+03  0.50400001928E-02 0. -1.
       -1   -1    0    0    0  501  0.00000000000E+00  0.00000000000E+00 -0.16276949940E+03  0.16276949948E+03  0.50400001928E-02 0.  1.
    10030    2    1    2    0    0  0.00000000000E+00  0.00000000000E+00  0.22707813115E+03  0.55261713006E+03  0.50380672364E+03 0.  0.
        4    1    3    3  502    0  0.80901411017E+02  0.41138588325E+02  0.37128623998E+03  0.38222049481E+03  0.12699999809E+01 0. -1.
       -4    1    3    3    0  502 -0.80901411017E+02 -0.41138588325E+02 -0.14420810883E+03  0.17039663525E+03  0.12699999809E+01 0.  1.
</event>
<event>
 5   0  0.9868500E-02  0.4987945E+03  0.7818609E-02  0.1014094E+00
        4   -1    0    0  501    0  0.00000000000E+00  0.00000000000E+00  0.64263545168E+03  0.64263670659E+03  0.12699999809E+01 0.  1.
       -4   -1    0    0    0  501  0.00000000000E+00  0.00000000000E+00 -0.96781860303E+02  0.96790192601E+02  0.12699999809E+01 0. -1.
    10030    2    1    2    0    0  0.00000000000E+00  0.00000000000E+00  0.54585359137E+03  0.73942689919E+03  0.49879454290E+03 0.  0.
        5    1    3    3  502    0  0.32967402509E+02 -0.20653149955E+03  0.47420314943E+03  0.51829800971E+03  0.46999998093E+01 0.  1.
       -5    1    3    3    0  502 -0.32967402509E+02  0.20653149955E+03  0.71650441941E+02  0.22112888948E+03  0.46999998093E+01 0. -1.
</event>
<event>
 5   0  0.2488968E-01  0.4832595E+03  0.7818609E-02  0.1018243E+00
        2   -1    0    0  501    0  0.00000000000E+00  0.00000000000E+00  0.13511481929E+03  0.13511481931E+03  0.25500000920E-02 0.  1.
       -2   -1    0    0    0  501  0.00000000000E+00  0.00000000000E+00 -0.43211356411E+03  0.43211356412E+03  0.25500000920E-02 0. -1.
    10030    2    1    2    0    0  0.00000000000E+00  0.00000000000E+00 -0.29699874482E+03  0.56722838344E+03  0.48325954160E+03 0.  0.
        2    1    3    3  502    0  0.13288302628E+03 -0.18487427229E+03 -0.53515445515E+02  0.23388094865E+03  0.25500000920E-02 0.  1.
       -2    1    3    3    0  502 -0.13288302628E+03  0.18487427229E+03 -0.24348329931E+03  0.33334743478E+03  0.25500000920E-02 0. -1.
</event>
<event>
 5   0  0.1453602E-01  0.5017452E+03  0.7818609E-02  0.1013324E+00
        1   -1    0    0  501    0  0.00000000000E+00  0.00000000000E+00  0.14923118800E+03  0.14923118808E+03  0.50400001928E-02 0. -1.
       -1   -1    0    0    0  501  0.00000000000E+00  0.00000000000E+00 -0.42174201942E+03  0.42174201945E+03  0.50400001928E-02 0.  1.
    10030    2    1    2    0    0  0.00000000000E+00  0.00000000000E+00 -0.27251083142E+03  0.57097320753E+03  0.50174520474E+03 0.  0.
        2    1    3    3  502    0 -0.42792113250E+02 -0.20720366930E+03 -0.28966068634E+03  0.35870299517E+03  0.25500000920E-02 0.  1.
       -2    1    3    3    0  502  0.42792113250E+02  0.20720366930E+03  0.17149854915E+02  0.21227021236E+03  0.25500000920E-02 0. -1.
</event>
<event>
 5   0  0.1448458E-01  0.4693600E+03  0.7818609E-02  0.1022101E+00
        1   -1    0    0  501    0  0.00000000000E+00  0.00000000000E+00  0.11331350958E+04  0.11331350958E+04  0.50400001928E-02 0.  1.
       -1   -1    0    0    0  501  0.00000000000E+00  0.00000000000E+00 -0.48603831167E+02  0.48603831428E+02  0.50400001928E-02 0. -1.
    10030    2    1    2    0    0  0.00000000000E+00  0.00000000000E+00  0.10845312647E+04  0.11817389273E+04  0.46936001981E+03 0.  0.
        5    1    3    3  502    0 -0.28270950134E+02  0.18686070059E+02  0.11268224844E+04  0.11273417481E+04  0.46999998093E+01 0.  1.
       -5    1    3    3    0  502  0.28270950134E+02 -0.18686070059E+02 -0.42291219698E+02  0.54397179131E+02  0.46999998093E+01 0. -1.
</event>
<event>
 5   0  0.1448458E-01  0.5037541E+03  0.7818609E-02  0.1012804E+00
        1   -1    0    0  501    0  0.00000000000E+00  0.00000000000E+00  0.57688890624E+03  0.57688890626E+03  0.50400001928E-02 0. -1.
       -1   -1    0    0    0  501  0.00000000000E+00  0.00000000000E+00 -0.10997272787E+03  0.10997272799E+03  0.50400001928E-02 0.  1.
    10030    2    1    2    0    0  0.00000000000E+00  0.00000000000E+00  0.46691617837E+03  0.68686163425E+03  0.50375409377E+03 0.  0.
        5    1    3    3  502    0  0.16249408011E+03 -0.17216308549E+03  0.11636089666E+03  0.26383025291E+03  0.46999998093E+01 0.  1.
       -5    1    3    3    0  502 -0.16249408011E+03  0.17216308549E+03  0.35055528170E+03  0.42303138135E+03  0.46999998093E+01 0. -1.
</event>
<event>
 5   0  0.2466034E-01  0.4964862E+03  0.7818609E-02  0.1014700E+00
        2   -1    0    0  501    0  0.00000000000E+00  0.00000000000E+00  0.92763531036E+03  0.92763531036E+03  0.25500000920E-02 0.  1.
       -2   -1    0    0    0  501  0.00000000000E+00  0.00000000000E+00 -0.66431977618E+02  0.66431977667E+02  0.25500000920E-02 0. -1.
    10030    2    1    2    0    0  0.00000000000E+00  0.00000000000E+00  0.86120333274E+03  0.99406728803E+03  0.49648624634E+03 0.  0.
        3    1    3    3  502    0  0.90517662618E+02  0.43789147622E+02  0.88503474667E+03  0.89072860609E+03  0.10100000352E+00 0.  1.
       -3    1    3    3    0  502 -0.90517662618E+02 -0.43789147622E+02 -0.23831413923E+02  0.10333868194E+03  0.10100000352E+00 0. -1.
</event>
<event>
 5   0  0.2466034E-01  0.4717577E+03  0.7818609E-02  0.1021425E+00
       -2   -1    0    0    0  501  0.00000000000E+00  0.00000000000E+00  0.50798538394E+02  0.50798538458E+02  0.25500000920E-02 0. -1.
        2   -1    0    0  501    0  0.00000000000E+00  0.00000000000E+00 -0.10952839321E+04  0.10952839321E+04  0.25500000920E-02 0.  1.
    10030    2    1    2    0    0  0.00000000000E+00  0.00000000000E+00 -0.10444853937E+04  0.11460824706E+04  0.47175766201E+03 0.  0.
        3    1    3    3  502    0 -0.20951399754E+03  0.14144750855E+02 -0.26123748841E+03  0.33517342480E+03  0.10100000352E+00 0. -1.
       -3    1    3    3    0  502  0.20951399754E+03 -0.14144750855E+02 -0.78324790532E+03  0.81090904578E+03  0.10100000352E+00 0.  1.
</event>
<event>
 5   0  0.2413301E-01  0.5039927E+03  0.7818609E-02  0.1012742E+00
       -2   -1    0    0    0  501  0.00000000000E+00  0.00000000000E+00  0.10636198296E+03  0.10636198299E+03  0.25500000920E-02 0. -1.
        2   -1    0    0  501    0  0.00000000000E+00  0.00000000000E+00 -0.59703818167E+03  0.59703818167E+03  0.25500000920E-02 0.  1.
    10030    2    1    2    0    0  0.00000000000E+00  0.00000000000E+00 -0.49067619871E+03  0.70340016466E+03  0.50399271787E+03 0.  0.
        4    1    3    3  502    0 -0.55303733929E+02  0.16063577978E+02 -0.58772628174E+03  0.59054240887E+03  0.12699999809E+01 0.  1.
       -4    1    3    3    0  502  0.55303733929E+02 -0.16063577978E+02  0.97050083037E+02  0.11285775579E+03  0.12699999809E+01 0. -1.
</event>
<event>
 5   0  0.2466034E-01  0.5058857E+03  0.7818609E-02  0.1012254E+00
       -2   -1    0    0    0  501  0.00000000000E+00  0.00000000000E+00  0.51796386790E+02  0.51796386853E+02  0.25500000920E-02 0. -1.
        2   -1    0    0  501    0  0.00000000000E+00  0.00000000000E+00 -0.12352231802E+04  0.12352231802E+04  0.25500000920E-02 0.  1.
    10030    2    1    2    0    0  0.00000000000E+00  0.00000000000E+00 -0.11834267934E+04  0.12870195670E+04  0.50588574858E+03 0.  0.
        3    1    3    3  502    0  0.15409205206E+03  0.18703384745E+03 -0.40730508069E+03  0.47394457435E+03  0.10100000352E+00 0. -1.
       -3    1    3    3    0  502 -0.15409205206E+03 -0.18703384745E+03 -0.77612171269E+03  0.81307499267E+03  0.10100000352E+00 0.  1.
</event>
<event>
 5   0  0.2511944E-01  0.4988250E+03  0.7818609E-02  0.1014086E+00
       -2   -1    0    0    0  501  0.00000000000E+00  0.00000000000E+00  0.20305629425E+03  0.20305629427E+03  0.25500000920E-02 0.  1.
        2   -1    0    0  501    0  0.00000000000E+00  0.00000000000E+00 -0.30635152223E+03  0.30635152224E+03  0.25500000920E-02 0. -1.
    10030    2    1    2    0    0  0.00000000000E+00  0.00000000000E+00 -0.10329522798E+03  0.50940781651E+03  0.49882503887E+03 0.  0.
        1    1    3    3  502    0  0.12898185261E+03 -0.20281716187E+01 -0.26963865087E+03  0.29890706557E+03  0.50400001928E-02 0. -1.
       -1    1    3    3    0  502 -0.12898185261E+03  0.20281716187E+01  0.16634342289E+03  0.21050075094E+03  0.50400001928E-02 0.  1.
</event>
<event>
 5   0  0.2504064E-01  0.5072814E+03  0.7818609E-02  0.1011896E+00
        2   -1    0    0  501    0  0.00000000000E+00  0.00000000000E+00  0.19353477240E+04  0.19353477240E+04  0.25500000920E-02 0. -1.
       -2   -1    0    0    0  501  0.00000000000E+00  0.00000000000E+00 -0.33241363014E+02  0.33241363112E+02  0.25500000920E-02 0.  1.
    10030    2    1    2    0    0  0.00000000000E+00  0.00000000000E+00  0.19021063610E+04  0.19685890871E+04  0.50728136710E+03 0.  0.
        5    1    3    3  502    0 -0.89027861032E+02 -0.96758811271E+02  0.10953671799E+03  0.17119757646E+03  0.46999998093E+01 0.  1.
       -5    1    3    3    0  502  0.89027861032E+02  0.96758811271E+02  0.17925696430E+04  0.17973915107E+04  0.46999998093E+01 0. -1.
</event>
<event>
 5   0  0.2504064E-01  0.4940417E+03  0.7818609E-02  0.1015346E+00
        2   -1    0    0  501    0  0.00000000000E+00  0.00000000000E+00  0.10785600988E+03  0.10785600991E+03  0.25500000920E-02 0. -1.
       -2   -1    0    0    0  501  0.00000000000E+00  0.00000000000E+00 -0.56574773849E+03  0.56574773850E+03  0.25500000920E-02 0.  1.
    10030    2    1    2    0    0  0.00000000000E+00  0.00000000000E+00 -0.45789172861E+03  0.67360374841E+03  0.49404167308E+03 0.  0.
        5    1    3    3  502    0 -0.11572011442E+03  0.20115532098E+03 -0.11371496701E+03  0.25847203284E+03  0.46999998093E+01 0. -1.
       -5    1    3    3    0  502  0.11572011442E+03 -0.20115532098E+03 -0.34417676160E+03  0.41513171556E+03  0.46999998093E+01 0.  1.
</event>
<event>
 5   0  0.1413361E-01  0.4191354E+03  0.7818609E-02  0.1037348E+00
       -1   -1    0    0    0  501  0.00000000000E+00  0.00000000000E+00  0.59590246969E+02  0.59590247182E+02  0.50400001928E-02 0.  1.
        1   -1    0    0  501    0  0.00000000000E+00  0.00000000000E+00 -0.73701008508E+03  0.73701008510E+03  0.50400001928E-02 0. -1.
    10030    2    1    2    0    0  0.00000000000E+00  0.00000000000E+00 -0.67741983812E+03  0.79660033228E+03  0.41913536277E+03 0.  0.
        3    1    3    3  502    0 -0.15724727929E+03 -0.19442086457E+02 -0.59940066208E+03  0.61998860108E+03  0.10100000352E+00 0. -1.
       -3    1    3    3    0  502  0.15724727929E+03  0.19442086457E+02 -0.78019176039E+02  0.17661173121E+03  0.10100000352E+00 0.  1.
</event>
<event>
 5   0  0.9868500E-02  0.5021502E+03  0.7818609E-02  0.1013219E+00
       -3   -1    0    0    0  501  0.00000000000E+00  0.00000000000E+00  0.20365860181E+03  0.20365862686E+03  0.10100000352E+00 0. -1.
        3   -1    0    0  501    0  0.00000000000E+00  0.00000000000E+00 -0.30953120945E+03  0.30953122593E+03  0.10100000352E+00 0.  1.
    10030    2    1    2    0    0  0.00000000000E+00  0.00000000000E+00 -0.10587260764E+03  0.51318985279E+03  0.50215019263E+03 0.  0.
        4    1    3    3  502    0  0.72476070840E+02 -0.17998015608E+03  0.10991386362E+03  0.22299844785E+03  0.12699999809E+01 0. -1.
       -4    1    3    3    0  502 -0.72476070840E+02  0.17998015608E+03 -0.21578647126E+03  0.29019140495E+03  0.12699999809E+01 0.  1.
</event>
<event>
 5   0  0.1529146E-01  0.5167291E+03  0.7818609E-02  0.1009502E+00
       -1   -1    0    0    0  501  0.00000000000E+00  0.00000000000E+00  0.65333195099E+02  0.65333195294E+02  0.50400001928E-02 0. -1.
        1   -1    0    0  501    0  0.00000000000E+00  0.00000000000E+00 -0.10217202284E+04  0.10217202284E+04  0.50400001928E-02 0.  1.
    10030    2    1    2    0    0  0.00000000000E+00  0.00000000000E+00 -0.95638703329E+03  0.10870534237E+04  0.51672912490E+03 0.  0.
        1    1    3    3  502    0 -0.32256045961E+02 -0.15205450808E+03 -0.91235170222E+03  0.92549805753E+03  0.50400001928E-02 0.  1.
       -1    1    3    3    0  502  0.32256045961E+02  0.15205450808E+03 -0.44035331065E+02  0.16155536616E+03  0.50400001928E-02 0. -1.
</event>
<event>
 5   0  0.1413361E-01  0.4934210E+03  0.7818609E-02  0.1015511E+00
       -1   -1    0    0    0  501  0.00000000000E+00  0.00000000000E+00  0.57643446893E+02  0.57643447114E+02  0.50400001928E-02 0. -1.
        1   -1    0    0  501    0  0.00000000000E+00  0.00000000000E+00 -0.10559061555E+04  0.10559061555E+04  0.50400001928E-02 0.  1.
    10030    2    1    2    0    0  0.00000000000E+00  0.00000000000E+00 -0.99826270858E+03  0.11135496026E+04  0.49342099885E+03 0.  0.
        3    1    3    3  502    0  0.13532978510E+03 -0.98490714709E+01 -0.34128222558E+02  0.13991390467E+03  0.10100000352E+00 0. -1.
       -3    1    3    3    0  502 -0.13532978510E+03  0.98490714709E+01 -0.96413448603E+03  0.97363569793E+03  0.10100000352E+00 0.  1.
</event>
<event>
 5   0  0.1439814E-01  0.5012759E+03  0.7818609E-02  0.1013446E+00
       -1   -1    0    0    0  501  0.00000000000E+00  0.00000000000E+00  0.76709324763E+02  0.76709324928E+02  0.50400001928E-02 0. -1.
        1   -1    0    0  501    0  0.00000000000E+00  0.00000000000E+00 -0.81892750654E+03  0.81892750656E+03  0.50400001928E-02 0.  1.
    10030    2    1    2    0    0  0.00000000000E+00  0.00000000000E+00 -0.74221818178E+03  0.89563683149E+03  0.50127587669E+03 0.  0.
        4    1    3    3  502    0 -0.96076090236E+02 -0.18764926940E+03 -0.12891272094E+03  0.24710921865E+03  0.12699999809E+01 0. -1.
       -4    1    3    3    0  502  0.96076090236E+02  0.18764926940E+03 -0.61330546084E+03  0.64852761284E+03  0.12699999809E+01 0.  1.
</event>
<event>
 5   0  0.1439814E-01  0.4643986E+03  0.7818609E-02  0.1023513E+00
        1   -1    0    0  501    0  0.00000000000E+00  0.00000000000E+00  0.10688076412E+04  0.10688076412E+04  0.50400001928E-02 0.  1.
       -1   -1    0    0    0  501  0.00000000000E+00  0.00000000000E+00 -0.50445486717E+02  0.50445486969E+02  0.50400001928E-02 0. -1.
    10030    2    1    2    0    0  0.00000000000E+00  0.00000000000E+00  0.10183621545E+04  0.11192531282E+04  0.46439862970E+03 0.  0.
        4    1    3    3  502    0  0.25555766160E+02  0.19146726837E+03  0.19864014021E+03  0.27707820240E+03  0.12699999809E+01 0. -1.
       -4    1    3    3    0  502 -0.25555766160E+02 -0.19146726837E+03  0.81972201431E+03  0.84217492582E+03  0.12699999809E+01 0.  1.
</event>
<event>
 5   0  0.2413301E-01  0.4465958E+03  0.7818609E-02  0.1028742E+00
       -2   -1    0    0    0  501  0.00000000000E+00  0.00000000000E+00  0.11103906764E+03  0.11103906767E+03  0.25500000920E-02 0. -1.
        2   -1    0    0  501    0  0.00000000000E+00  0.00000000000E+00 -0.44904870840E+03  0.44904870840E+03  0.25500000920E-02 0.  1.
    10030    2    1    2    0    0  0.00000000000E+00  0.00000000000E+00 -0.33800964076E+03  0.56008777607E+03  0.44659579002E+03 0.  0.
        4    1    3    3  502    0  0.41703435079E+02 -0.18526602470E+03 -0.21690760478E+02  0.19114072930E+03  0.12699999809E+01 0. -1.
       -4    1    3    3    0  502 -0.41703435079E+02  0.18526602470E+03 -0.31631888028E+03  0.36894704678E+03  0.12699999809E+01 0.  1.
</event>
<event>
 5   0  0.2504064E-01  0.5014668E+03  0.7818609E-02  0.1013397E+00
       -2   -1    0    0    0  501  0.00000000000E+00  0.00000000000E+00  0.12499827696E+03  0.12499827699E+03  0.25500000920E-02 0.  1.
        2   -1    0    0  501    0  0.00000000000E+00  0.00000000000E+00 -0.50294484096E+03  0.50294484096E+03  0.25500000920E-02 0. -1.
    10030    2    1    2    0    0  0.00000000000E+00  0.00000000000E+00 -0.37794656400E+03  0.62794311795E+03  0.50146680264E+03 0.  0.
        5    1    3    3  502    0 -0.19839399427E+03  0.89510850278E+02 -0.34473555717E+03  0.40772179688E+03  0.46999998093E+01 0. -1.
       -5    1    3    3    0  502  0.19839399427E+03 -0.89510850278E+02 -0.33211006831E+02  0.22022132107E+03  0.46999998093E+01 0.  1.
</event>
<event>
 5   0  0.1439814E-01  0.5047400E+03  0.7818609E-02  0.1012549E+00
       -1   -1    0    0    0  501  0.00000000000E+00  0.00000000000E+00  0.99750645455E+02  0.99750645582E+02  0.50400001928E-02 0.  1.
        1   -1    0    0  501    0  0.00000000000E+00  0.00000000000E+00 -0.63849840571E+03  0.63849840573E+03  0.50400001928E-02 0. -1.
    10030    2    1    2    0    0  0.00000000000E+00  0.00000000000E+00 -0.53874776025E+03  0.73824905131E+03  0.50474004456E+03 0.  0.
        4    1    3    3  502    0 -0.22676484556E+03  0.95146577038E+02 -0.35229169829E+03  0.42963498448E+03  0.12699999809E+01 0.  1.
       -4    1    3    3    0  502  0.22676484556E+03 -0.95146577038E+02 -0.18645606196E+03  0.30861406683E+03  0.12699999809E+01 0. -1.
</event>
<event>
 5   0  0.2466034E-01  0.4988907E+03  0.7818609E-02  0.1014069E+00
       -2   -1    0    0    0  501  0.00000000000E+00  0.00000000000E+00  0.44734318529E+02  0.44734318602E+02  0.25500000920E-02 0.  1.
        2   -1    0    0  501    0  0.00000000000E+00  0.00000000000E+00 -0.13909451312E+04  0.13909451312E+04  0.25500000920E-02 0. -1.
    10030    2    1    2    0    0  0.00000000000E+00  0.00000000000E+00 -0.13462108126E+04  0.14356794498E+04  0.49889069989E+03 0.  0.
        3    1    3    3  502    0  0.53283501912E+02  0.21500979238E+03 -0.10031642659E+04  0.10273299844E+04  0.10100000352E+00 0.  1.
       -3    1    3    3    0  502 -0.53283501912E+02 -0.21500979238E+03 -0.34304654679E+03  0.40834946536E+03  0.10100000352E+00 0. -1.
</event>
<event>
 5   0  0.2511944E-01  0.5005511E+03  0.7818609E-02  0.1013635E+00
        2   -1    0    0  501    0  0.00000000000E+00  0.00000000000E+00  0.42982308196E+03  0.42982308196E+03  0.25500000920E-02 0.  1.
       -2   -1    0    0    0  501  0.00000000000E+00  0.00000000000E+00 -0.14572938396E+03  0.14572938399E+03  0.25500000920E-02 0. -1.
    10030    2    1    2    0    0  0.00000000000E+00  0.00000000000E+00  0.28409369799E+03  0.57555246595E+03  0.50055110810E+03 0.  0.
        1    1    3    3  502    0 -0.18306055392E+03 -0.15218402622E+03  0.23086544615E+03  0.33161724697E+03  0.50400001928E-02 0.  1.
       -1    1    3    3    0  502  0.18306055392E+03  0.15218402622E+03  0.53228251846E+02  0.24393521898E+03  0.50400001928E-02 0. -1.
</event>
<event>
 5   0  0.9868500E-02  0.5140141E+03  0.7818609E-02  0.1010184E+00
        3   -1    0    0  501    0  0.00000000000E+00  0.00000000000E+00  0.60656193815E+03  0.60656194656E+03  0.10100000352E+00 0. -1.
       -3   -1    0    0    0  501  0.00000000000E+00  0.00000000000E+00 -0.10889669970E+03  0.10889674653E+03  0.10100000352E+00 0.  1.
    10030    2    1    2    0    0  0.00000000000E+00  0.00000000000E+00  0.49766523845E+03  0.71545869309E+03  0.51401405813E+03 0.  0.
        1    1    3    3  502    0  0.13252985264E+03 -0.79811711647E+02  0.53449051412E+03  0.55642985260E+03  0.50400001928E-02 0. -1.
       -1    1    3    3    0  502 -0.13252985264E+03  0.79811711647E+02 -0.36825275663E+02  0.15902884050E+03  0.50400001928E-02 0.  1.
</event>
<event>
 5   0  0.2488968E-01  0.5011038E+03  0.7818609E-02  0.1013491E+00
       -2   -1    0    0    0  501  0.00000000000E+00  0.00000000000E+00  0.55668605668E+02  0.55668605727E+02  0.25500000920E-02 0.  1.
        2   -1    0    0  501    0  0.00000000000E+00  0.00000000000E+00 -0.11276777395E+04  0.11276777395E+04  0.25500000920E-02 0. -1.
    10030    2    1    2    0    0  0.00000000000E+00  0.00000000000E+00 -0.10720091339E+04  0.11833463452E+04  0.50110377144E+03 0.  0.
        2    1    3    3  502    0  0.14583525267E+03  0.20232944342E+03 -0.47956951032E+03  0.54054790707E+03  0.25500000920E-02 0.  1.
       -2    1    3    3    0  502 -0.14583525267E+03 -0.20232944342E+03 -0.59243962353E+03  0.64279843818E+03  0.25500000920E-02 0. -1.
</event>
<event>
 5   0  0.9868500E-02  0.3530133E+03  0.7818609E-02  0.1061385E+00
        4   -1    0    0  501    0  0.00000000000E+00  0.00000000000E+00  0.15256470374E+03  0.15256998960E+03  0.12699999809E+01 0. -1.
       -4   -1    0    0    0  501  0.00000000000E+00  0.00000000000E+00 -0.20419496334E+03  0.20419891272E+03  0.12699999809E+01 0.  1.
    10030    2    1    2    0    0  0.00000000000E+00  0.00000000000E+00 -0.51630259606E+02  0.35676890232E+03  0.35301326598E+03 0.  0.
        1    1    3    3  502    0 -0.13749256213E+03  0.11019386339E+03 -0.36303364510E+02  0.17990226921E+03  0.50400001928E-02 0.  1.
       -1    1    3    3    0  502  0.13749256213E+03 -0.11019386339E+03 -0.15326895095E+02  0.17686663311E+03  0.50400001928E-02 0. -1.
</event>
<event>
 5   0  0.1439814E-01  0.4908024E+03  0.7818609E-02  0.1016208E+00
        1   -1    0    0  501    0  0.00000000000E+00  0.00000000000E+00  0.21661723865E+04  0.21661723865E+04  0.50400001928E-02 0.  1.
       -1   -1    0    0    0  501  0.00000000000E+00  0.00000000000E+00 -0.27800993186E+02  0.27800993642E+02  0.50400001928E-02 0. -1.
    10030    2    1    2    0    0  0.00000000000E+00  0.00000000000E+00  0.21383713933E+04  0.21939733801E+04  0.49080238085E+03 0.  0.
        4    1    3    3  502    0 -0.15329068778E+03  0.83032437450E+02  0.18412165459E+04  0.18494519194E+04  0.12699999809E+01 0.  1.
       -4    1    3    3    0  502  0.15329068778E+03 -0.83032437450E+02  0.29715484743E+03  0.34452146070E+03  0.12699999809E+01 0. -1.
</event>
<event>
 5   0  0.2504064E-01  0.5178125E+03  0.7818609E-02  0.1009231E+00
        2   -1    0    0  501    0  0.00000000000E+00  0.00000000000E+00  0.29540978647E+03  0.29540978648E+03  0.25500000920E-02 0. -1.
       -2   -1    0    0    0  501  0.00000000000E+00  0.00000000000E+00 -0.22691338791E+03  0.22691338793E+03  0.25500000920E-02 0.  1.
    10030    2    1    2    0    0  0.00000000000E+00  0.00000000000E+00  0.68496398560E+02  0.52232317441E+03  0.51781245824E+03 0.  0.
        5    1    3    3  502    0  0.22061092126E+03 -0.13502294734E+03  0.44826236246E+02  0.26254876945E+03  0.46999998093E+01 0.  1.
       -5    1    3    3    0  502 -0.22061092126E+03  0.13502294734E+03  0.23670162314E+02  0.25977440495E+03  0.46999998093E+01 0. -1.
</event>
<event>
 5   0  0.9868500E-02  0.4862533E+03  0.7818609E-02  0.1017431E+00
       -4   -1    0    0    0  501  0.00000000000E+00  0.00000000000E+00  0.20445487029E+03  0.20445881464E+03  0.12699999809E+01 0.  1.
        4   -1    0    0  501    0  0.00000000000E+00  0.00000000000E+00 -0.28910491974E+03  0.28910770920E+03  0.12699999809E+01 0. -1.
    10030    2    1    2    0    0  0.00000000000E+00  0.00000000000E+00 -0.84650049455E+02  0.49356652384E+03  0.48625331113E+03 0.  0.
        4    1    3    3  502    0 -0.74533787104E+02  0.19710996750E+03  0.80747605564E+02  0.22567546036E+03  0.12699999809E+01 0.  1.
       -4    1    3    3    0  502  0.74533787104E+02 -0.19710996750E+03 -0.16539765502E+03  0.26789106348E+03  0.12699999809E+01 0. -1.
</event>
<event>
 5   0  0.1448458E-01  0.4964631E+03  0.7818609E-02  0.1014706E+00
        1   -1    0    0  501    0  0.00000000000E+00  0.00000000000E+00  0.35715452569E+03  0.35715452573E+03  0.50400001928E-02 0. -1.
       -1   -1    0    0    0  501  0.00000000000E+00  0.00000000000E+00 -0.17252728289E+03  0.17252728296E+03  0.50400001928E-02 0.  1.
    10030    2    1    2    0    0  0.00000000000E+00  0.00000000000E+00  0.18462724280E+03  0.52968180869E+03  0.49646308994E+03 0.  0.
        5    1    3    3  502    0 -0.61443771592E+02  0.68321884182E+02 -0.15366332465E+03  0.17910255238E+03  0.46999998093E+01 0.  1.
       -5    1    3    3    0  502  0.61443771592E+02 -0.68321884182E+02  0.33829056746E+03  0.35057925631E+03  0.46999998093E+01 0. -1.
</event>
<event>
 5   0  0.1439814E-01  0.5096949E+03  0.7818609E-02  0.1011279E+00
       -1   -1    0    0    0  501  0.00000000000E+00  0.00000000000E+00  0.69951986112E+03  0.69951986114E+03  0.50400001928E-02 0.  1.
        1   -1    0    0  501    0  0.00000000000E+00  0.00000000000E+00 -0.92845425218E+02  0.92845425354E+02  0.50400001928E-02 0. -1.
    10030    2    1    2    0    0  0.00000000000E+00  0.00000000000E+00  0.60667443591E+03  0.79236528650E+03  0.50969488526E+03 0.  0.
        4    1    3    3  502    0  0.89522457106E+02 -0.81890116585E+02 -0.45061563931E+02  0.12943113599E+03  0.12699999809E+01 0. -1.
       -4    1    3    3    0  502 -0.89522457106E+02  0.81890116585E+02  0.65173599984E+03  0.66293415050E+03  0.12699999809E+01 0.  1.
</event>
<event>
 5   0  0.1413361E-01  0.5020629E+03  0.7818609E-02  0.1013242E+00
       -1   -1    0    0    0  501  0.00000000000E+00  0.00000000000E+00  0.75593147914E+03  0.75593147916E+03  0.50400001928E-02 0.  1.
        1   -1    0    0  501    0  0.00000000000E+00  0.00000000000E+00 -0.83363082280E+02  0.83363082433E+02  0.50400001928E-02 0. -1.
    10030    2    1    2    0    0  0.00000000000E+00  0.00000000000E+00  0.67256839686E+03  0.83929456159E+03  0.50206285728E+03 0.  0.
        3    1    3    3  502    0 -0.11854976382E+03  0.18238918221E+03  0.54572600129E+03  0.58748339464E+03  0.10100000352E+00 0.  1.
       -3    1    3    3    0  502  0.11854976382E+03 -0.18238918221E+03  0.12684239557E+03  0.25181116696E+03  0.10100000352E+00 0. -1.
</event>
<event>
 5   0  0.9868500E-02  0.5245350E+03  0.7818609E-02  0.1007566E+00
        3   -1    0    0  501    0  0.00000000000E+00  0.00000000000E+00  0.13203685286E+04  0.13203685325E+04  0.10100000352E+00 0. -1.
       -3   -1    0    0    0  501  0.00000000000E+00  0.00000000000E+00 -0.52094678336E+02  0.52094776244E+02  0.10100000352E+00 0.  1.
    10030    2    1    2    0    0  0.00000000000E+00  0.00000000000E+00  0.12682738503E+04  0.13724633087E+04  0.52453500788E+03 0.  0.
        1    1    3    3  502    0 -0.17847718769E+02 -0.24537559337E+03  0.39638458435E+03  0.46652809307E+03  0.50400001928E-02 0. -1.
       -1    1    3    3    0  502  0.17847718769E+02  0.24537559337E+03  0.87188926594E+03  0.90593521566E+03  0.50400001928E-02 0.  1.
</event>
<event>
 5   0  0.9868500E-02  0.4657935E+03  0.7818609E-02  0.1023114E+00
       -3   -1    0    0    0  501  0.00000000000E+00  0.00000000000E+00  0.83750053091E+03  0.83750053700E+03  0.10100000352E+00 0. -1.
        3   -1    0    0  501    0  0.00000000000E+00  0.00000000000E+00 -0.64765171011E+02  0.64765249765E+02  0.10100000352E+00 0.  1.
    10030    2    1    2    0    0  0.00000000000E+00  0.00000000000E+00  0.77273535990E+03  0.90226578677E+03  0.46579353101E+03 0.  0.
        2    1    3    3  502    0 -0.69191273352E+02 -0.60594826405E+01  0.81697176257E+03  0.81991890482E+03  0.25500000920E-02 0. -1.
       -2    1    3    3    0  502  0.69191273352E+02  0.60594826405E+01 -0.44236402673E+02  0.82346881943E+02  0.25500000920E-02 0.  1.
</event>
<event>
 5   0  0.1413361E-01  0.5067681E+03  0.7818609E-02  0.1012027E+00
       -1   -1    0    0    0  501  0.00000000000E+00  0.00000000000E+00  0.19970448269E+03  0.19970448276E+03  0.50400001928E-02 0. -1.
        1   -1    0    0  501    0  0.00000000000E+00  0.00000000000E+00 -0.32149236521E+03  0.32149236525E+03  0.50400001928E-02 0.  1.
    10030    2    1    2    0    0  0.00000000000E+00  0.00000000000E+00 -0.12178788252E+03  0.52119684801E+03  0.50676805942E+03 0.  0.
        3    1    3    3  502    0 -0.11690659456E+03 -0.22015237693E+03 -0.14109925707E+02  0.24966641969E+03  0.10100000352E+00 0. -1.
       -3    1    3    3    0  502  0.11690659456E+03  0.22015237693E+03 -0.10767795681E+03  0.27153042832E+03  0.10100000352E+00 0.  1.
</event>
<event>
 5   0  0.1439814E-01  0.5647320E+03  0.7818609E-02  0.9981404E-01
       -1   -1    0    0    0  501  0.00000000000E+00  0.00000000000E+00  0.13041152658E+03  0.13041152667E+03  0.50400001928E-02 0.  1.
        1   -1    0    0  501    0  0.00000000000E+00  0.00000000000E+00 -0.61137666538E+03  0.61137666540E+03  0.50400001928E-02 0. -1.
    10030    2    1    2    0    0  0.00000000000E+00  0.00000000000E+00 -0.48096513881E+03  0.74178819207E+03  0.56473202243E+03 0.  0.
        4    1    3    3  502    0  0.58139776264E+01 -0.27925640078E+03 -0.18614953153E+03  0.33566531054E+03  0.12699999809E+01 0. -1.
       -4    1    3    3    0  502 -0.58139776264E+01  0.27925640078E+03 -0.29481560728E+03  0.40612288153E+03  0.12699999809E+01 0.  1.
</event>
<event>
 5   0  0.1448458E-01  0.4911058E+03  0.7818609E-02  0.1016127E+00
       -1   -1    0    0    0  501  0.00000000000E+00  0.00000000000E+00  0.63144851512E+02  0.63144851713E+02  0.50400001928E-02 0.  1.
        1   -1    0    0  501    0  0.00000000000E+00  0.00000000000E+00 -0.95488741429E+03  0.95488741430E+03  0.50400001928E-02 0. -1.
    10030    2    1    2    0    0  0.00000000000E+00  0.00000000000E+00 -0.89174256278E+03  0.10180322660E+04  0.49110578940E+03 0.  0.
        5    1    3    3  502    0 -0.76959299165E+02 -0.20464405571E+03 -0.67737512765E+03  0.71180129026E+03  0.46999998093E+01 0. -1.
       -5    1    3    3    0  502  0.76959299165E+02  0.20464405571E+03 -0.21436743513E+03  0.30623097575E+03  0.46999998093E+01 0.  1.
</event>
<event>
 5   0  0.2511944E-01  0.5057235E+03  0.7818609E-02  0.1012296E+00
        2   -1    0    0  501    0  0.00000000000E+00  0.00000000000E+00  0.22690440841E+03  0.22690440843E+03  0.25500000920E-02 0. -1.
       -2   -1    0    0    0  501  0.00000000000E+00  0.00000000000E+00 -0.28178857770E+03  0.28178857772E+03  0.25500000920E-02 0.  1.
    10030    2    1    2    0    0  0.00000000000E+00  0.00000000000E+00 -0.54884169290E+02  0.50869298614E+03  0.50572352339E+03 0.  0.
        1    1    3    3  502    0  0.22985890467E+03 -0.11567197171E+02  0.77911414496E+02  0.24297963833E+03  0.50400001928E-02 0. -1.
       -1    1    3    3    0  502 -0.22985890467E+03  0.11567197171E+02 -0.13279558379E+03  0.26571334781E+03  0.50400001928E-02 0.  1.
</event>
<event>
 5   0  0.1529146E-01  0.3662161E+03  0.7818609E-02  0.1056149E+00
        1   -1    0    0  501    0  0.00000000000E+00  0.00000000000E+00  0.13549079032E+04  0.13549079032E+04  0.50400001928E-02 0.  1.
       -1   -1    0    0    0  501  0.00000000000E+00  0.00000000000E+00 -0.24746009410E+02  0.24746009923E+02  0.50400001928E-02 0. -1.
    10030    2    1    2    0    0  0.00000000000E+00  0.00000000000E+00  0.13301618938E+04  0.13796539132E+04  0.36621613336E+03 0.  0.
        1    1    3    3  502    0  0.34134262248E+02  0.13785547433E+01 -0.12634074668E+02  0.36423455911E+02  0.50400001928E-02 0. -1.
       -1    1    3    3    0  502 -0.34134262248E+02 -0.13785547433E+01  0.13427959685E+04  0.13432304572E+04  0.50400001928E-02 0.  1.
</event>
<event>
 5   0  0.2413301E-01  0.4852354E+03  0.7818609E-02  0.1017706E+00
       -2   -1    0    0    0  501  0.00000000000E+00  0.00000000000E+00  0.80498001811E+02  0.80498001851E+02  0.25500000920E-02 0. -1.
        2   -1    0    0  501    0  0.00000000000E+00  0.00000000000E+00 -0.73123974603E+03  0.73123974603E+03  0.25500000920E-02 0.  1.
    10030    2    1    2    0    0  0.00000000000E+00  0.00000000000E+00 -0.65074174422E+03  0.81173774789E+03  0.48523535905E+03 0.  0.
        4    1    3    3  502    0 -0.13164663818E+02  0.18757397095E+03 -0.58184177167E+03  0.61147261844E+03  0.12699999809E+01 0.  1.
       -4    1    3    3    0  502  0.13164663818E+02 -0.18757397095E+03 -0.68899972552E+02  0.20026512944E+03  0.12699999809E+01 0. -1.
</event>
<event>
 5   0  0.2504064E-01  0.4873616E+03  0.7818609E-02  0.1017131E+00
        2   -1    0    0  501    0  0.00000000000E+00  0.00000000000E+00  0.48731035218E+03  0.48731035219E+03  0.25500000920E-02 0.  1.
       -2   -1    0    0    0  501  0.00000000000E+00  0.00000000000E+00 -0.12185318896E+03  0.12185318898E+03  0.25500000920E-02 0. -1.
    10030    2    1    2    0    0  0.00000000000E+00  0.00000000000E+00  0.36545716322E+03  0.60916354117E+03  0.48736155135E+03 0.  0.
        5    1    3    3  502    0 -0.23752055632E+03  0.10542430150E+02  0.24923417411E+03  0.34448065411E+03  0.46999998093E+01 0.  1.
       -5    1    3    3    0  502  0.23752055632E+03 -0.10542430150E+02  0.11622298911E+03  0.26468288706E+03  0.46999998093E+01 0. -1.
</event>
<event>
 5   0  0.9868500E-02  0.5031722E+03  0.7818609E-02  0.1012954E+00
       -4   -1    0    0    0  501  0.00000000000E+00  0.00000000000E+00  0.20680651537E+03  0.20681041487E+03  0.12699999809E+01 0. -1.
        4   -1    0    0  501    0  0.00000000000E+00  0.00000000000E+00 -0.30605367915E+03  0.30605631413E+03  0.12699999809E+01 0.  1.
    10030    2    1    2    0    0  0.00000000000E+00  0.00000000000E+00 -0.99247163782E+02  0.51286672900E+03  0.50317221923E+03 0.  0.
        5    1    3    3  502    0  0.95025016275E+02  0.19912920680E+03 -0.17274529612E+03  0.28025920511E+03  0.46999998093E+01 0.  1.
       -5    1    3    3    0  502 -0.95025016275E+02 -0.19912920680E+03  0.73498132334E+02  0.23260752390E+03  0.46999998093E+01 0. -1.
</event>
<event>
 5   0  0.1529146E-01  0.5004845E+03  0.7818609E-02  0.1013653E+00
        1   -1    0    0  501    0  0.00000000000E+00  0.00000000000E+00  0.21185293617E+03  0.21185293623E+03  0.50400001928E-02 0. -1.
       -1   -1    0    0    0  501  0.00000000000E+00  0.00000000000E+00 -0.29558803333E+03  0.29558803337E+03  0.50400001928E-02 0.  1.
    10030    2    1    2    0    0  0.00000000000E+00  0.00000000000E+00 -0.83735097156E+02  0.50744096961E+03  0.50048453636E+03 0.  0.
        1    1    3    3  502    0 -0.22272143914E+03  0.51591793548E+02  0.61304575085E+02  0.23669559262E+03  0.50400001928E-02 0. -1.
       -1    1    3    3    0  502  0.22272143914E+03 -0.51591793548E+02 -0.14503967224E+03  0.27074537699E+03  0.50400001928E-02 0.  1.
</event>
<event>
 5   0  0.2488968E-01  0.5328286E+03  0.7818609E-02  0.1005548E+00
        2   -1    0    0  501    0  0.00000000000E+00  0.00000000000E+00  0.32785798991E+03  0.32785798992E+03  0.25500000920E-02 0. -1.
       -2   -1    0    0    0  501  0.00000000000E+00  0.00000000000E+00 -0.21648570749E+03  0.21648570750E+03  0.25500000920E-02 0.  1.
    10030    2    1    2    0    0  0.00000000000E+00  0.00000000000E+00  0.11137228242E+03  0.54434369742E+03  0.53282856120E+03 0.  0.
        2    1    3    3  502    0  0.25416758510E+03 -0.41279150084E+02 -0.14138877408E+02  0.25788570610E+03  0.25500000920E-02 0.  1.
       -2    1    3    3    0  502 -0.25416758510E+03  0.41279150084E+02  0.12551115982E+03  0.28645799133E+03  0.25500000920E-02 0. -1.
</event>
<event>
 5   0  0.1413361E-01  0.4760299E+03  0.7818609E-02  0.1020232E+00
       -1   -1    0    0    0  501  0.00000000000E+00  0.00000000000E+00  0.40698903327E+03  0.40698903330E+03  0.50400001928E-02 0. -1.
        1   -1    0    0  501    0  0.00000000000E+00  0.00000000000E+00 -0.13919567473E+03  0.13919567482E+03  0.50400001928E-02 0.  1.
    10030    2    1    2    0    0  0.00000000000E+00  0.00000000000E+00  0.26779335854E+03  0.54618470812E+03  0.47602988615E+03 0.  0.
        3    1    3    3  502    0  0.65195572710E+02  0.93261049304E+02 -0.10596508646E+03  0.15548857118E+03  0.10100000352E+00 0.  1.
       -3    1    3    3    0  502 -0.65195572710E+02 -0.93261049304E+02  0.37375844499E+03  0.39069613694E+03  0.10100000352E+00 0. -1.
</event>
<event>
 5   0  0.1413361E-01  0.5159310E+03  0.7818609E-02  0.1009702E+00
       -1   -1    0    0    0  501  0.00000000000E+00  0.00000000000E+00  0.16221194956E+03  0.16221194964E+03  0.50400001928E-02 0. -1.
        1   -1    0    0  501    0  0.00000000000E+00  0.00000000000E+00 -0.41024223203E+03  0.41024223206E+03  0.50400001928E-02 0.  1.
    10030    2    1    2    0    0  0.00000000000E+00  0.00000000000E+00 -0.24803028247E+03  0.57245418170E+03  0.51593097321E+03 0.  0.
        3    1    3    3  502    0 -0.80443128466E+02 -0.22091529180E+03 -0.24181380258E+03  0.33726634636E+03  0.10100000352E+00 0.  1.
       -3    1    3    3    0  502  0.80443128466E+02  0.22091529180E+03 -0.62164798972E+01  0.23518783534E+03  0.10100000352E+00 0. -1.
</event>
<event>
 5   0  0.2488968E-01  0.4953652E+03  0.7818609E-02  0.1014996E+00
       -2   -1    0    0    0  501  0.00000000000E+00  0.00000000000E+00  0.40423660794E+02  0.40423660875E+02  0.25500000920E-02 0.  1.
        2   -1    0    0  501    0  0.00000000000E+00  0.00000000000E+00 -0.15175929540E+04  0.15175929540E+04  0.25500000920E-02 0. -1.
    10030    2    1    2    0    0  0.00000000000E+00  0.00000000000E+00 -0.14771692932E+04  0.15580166149E+04  0.49536516979E+03 0.  0.
        2    1    3    3  502    0 -0.10270793563E+03  0.18404746781E+03 -0.11477526087E+04  0.11669440609E+04  0.25500000920E-02 0. -1.
       -2    1    3    3    0  502  0.10270793563E+03 -0.18404746781E+03 -0.32941668450E+03  0.39107255398E+03  0.25500000920E-02 0.  1.
</event>
<event>
 5   0  0.1413361E-01  0.5061595E+03  0.7818609E-02  0.1012184E+00
       -1   -1    0    0    0  501  0.00000000000E+00  0.00000000000E+00  0.17207448578E+03  0.17207448585E+03  0.50400001928E-02 0.  1.
        1   -1    0    0  501    0  0.00000000000E+00  0.00000000000E+00 -0.37221883699E+03  0.37221883703E+03  0.50400001928E-02 0. -1.
    10030    2    1    2    0    0  0.00000000000E+00  0.00000000000E+00 -0.20014435122E+03  0.54429332288E+03  0.50615952031E+03 0.  0.
        3    1    3    3  502    0  0.75888076575E+02  0.56586146748E+02  0.15231979172E+03  0.17933856619E+03  0.10100000352E+00 0.  1.
       -3    1    3    3    0  502 -0.75888076575E+02 -0.56586146748E+02 -0.35246414294E+03  0.36495475669E+03  0.10100000352E+00 0. -1.
</event>
<event>
 5   0  0.2466034E-01  0.5086458E+03  0.7818609E-02  0.1011547E+00
       -2   -1    0    0    0  501  0.00000000000E+00  0.00000000000E+00  0.36329904134E+02  0.36329904223E+02  0.25500000920E-02 0.  1.
        2   -1    0    0  501    0  0.00000000000E+00  0.00000000000E+00 -0.17803551191E+04  0.17803551191E+04  0.25500000920E-02 0. -1.
    10030    2    1    2    0    0  0.00000000000E+00  0.00000000000E+00 -0.17440252149E+04  0.18166850233E+04  0.50864577412E+03 0.  0.
        3    1    3    3  502    0  0.95189248635E+02 -0.14832829941E+03 -0.21715161954E+03  0.27967322634E+03  0.10100000352E+00 0.  1.
       -3    1    3    3    0  502 -0.95189248635E+02  0.14832829941E+03 -0.15268735954E+04  0.15370117970E+04  0.10100000352E+00 0. -1.
</event>
<event>
 5   0  0.2466034E-01  0.5019569E+03  0.7818609E-02  0.1013269E+00
       -2   -1    0    0    0  501  0.00000000000E+00  0.00000000000E+00  0.33745248144E+02  0.33745248240E+02  0.25500000920E-02 0. -1.
        2   -1    0    0  501    0  0.00000000000E+00  0.00000000000E+00 -0.18666385589E+04  0.18666385589E+04  0.25500000920E-02 0.  1.
    10030    2    1    2    0    0  0.00000000000E+00  0.00000000000E+00 -0.18328933108E+04  0.19003838072E+04  0.50195689639E+03 0.  0.
        3    1    3    3  502    0 -0.22649620436E+03 -0.57418592163E+02 -0.12632848637E+04  0.12847124513E+04  0.10100000352E+00 0.  1.
       -3    1    3    3    0  502  0.22649620436E+03  0.57418592163E+02 -0.56960844703E+03  0.61567135588E+03  0.10100000352E+00 0. -1.
</event>
<event>
 5   0  0.2488968E-01  0.5058383E+03  0.7818609E-02  0.1012266E+00
        2   -1    0    0  501    0  0.00000000000E+00  0.00000000000E+00  0.69513933431E+03  0.69513933431E+03  0.25500000920E-02 0.  1.
       -2   -1    0    0    0  501  0.00000000000E+00  0.00000000000E+00 -0.92021988363E+02  0.92021988398E+02  0.25500000920E-02 0. -1.
    10030    2    1    2    0    0  0.00000000000E+00  0.00000000000E+00  0.60311734594E+03  0.78716132271E+03  0.50583832891E+03 0.  0.
        2    1    3    3  502    0  0.10387198132E+03 -0.12566260794E+03  0.60245434922E+03  0.62412476512E+03  0.25500000920E-02 0.  1.
       -2    1    3    3    0  502 -0.10387198132E+03  0.12566260794E+03  0.66299672103E+00  0.16303655759E+03  0.25500000920E-02 0. -1.
</event>
<event>
 5   0  0.1439814E-01  0.4967482E+03  0.7818609E-02  0.1014631E+00
       -1   -1    0    0    0  501  0.00000000000E+00  0.00000000000E+00  0.16916668947E+03  0.16916668955E+03  0.50400001928E-02 0. -1.
        1   -1    0    0  501    0  0.00000000000E+00  0.00000000000E+00 -0.36466807714E+03  0.36466807718E+03  0.50400001928E-02 0.  1.
    10030    2    1    2    0    0  0.00000000000E+00  0.00000000000E+00 -0.19550138767E+03  0.53383476672E+03  0.49674819132E+03 0.  0.
        4    1    3    3  502    0  0.75262250576E+02 -0.16105917459E+03  0.88644867709E+02  0.19865545437E+03  0.12699999809E+01 0. -1.
       -4    1    3    3    0  502 -0.75262250576E+02  0.16105917459E+03 -0.28414625538E+03  0.33517931235E+03  0.12699999809E+01 0.  1.
</event>
<event>
 5   0  0.2511944E-01  0.6791273E+03  0.7818609E-02  0.9753609E-01
        2   -1    0    0  501    0  0.00000000000E+00  0.00000000000E+00  0.65152248718E+03  0.65152248719E+03  0.25500000920E-02 0.  1.
       -2   -1    0    0    0  501  0.00000000000E+00  0.00000000000E+00 -0.17697541437E+03  0.17697541439E+03  0.25500000920E-02 0. -1.
    10030    2    1    2    0    0  0.00000000000E+00  0.00000000000E+00  0.47454707282E+03  0.82849790158E+03  0.67912726981E+03 0.  0.
        1    1    3    3  502    0  0.88202081053E+02  0.12923304225E+03  0.60492592313E+03  0.62483290472E+03  0.50400001928E-02 0.  1.
       -1    1    3    3    0  502 -0.88202081053E+02 -0.12923304225E+03 -0.13037885032E+03  0.20366499686E+03  0.50400001928E-02 0. -1.
</event>
<event>
 5   0  0.2488968E-01  0.5661196E+03  0.7818609E-02  0.9978302E-01
       -2   -1    0    0    0  501  0.00000000000E+00  0.00000000000E+00  0.89172511352E+02  0.89172511388E+02  0.25500000920E-02 0. -1.
        2   -1    0    0  501    0  0.00000000000E+00  0.00000000000E+00 -0.89851504330E+03  0.89851504330E+03  0.25500000920E-02 0.  1.
    10030    2    1    2    0    0  0.00000000000E+00  0.00000000000E+00 -0.80934253194E+03  0.98768755469E+03  0.56611957365E+03 0.  0.
        2    1    3    3  502    0 -0.45862043799E+02 -0.22571563659E+03 -0.11761216621E+03  0.25861843961E+03  0.25500000920E-02 0. -1.
       -2    1    3    3    0  502  0.45862043799E+02  0.22571563659E+03 -0.69173036574E+03  0.72906911507E+03  0.25500000920E-02 0.  1.
</event>
<event>
 5   0  0.2511944E-01  0.4966019E+03  0.7818609E-02  0.1014670E+00
       -2   -1    0    0    0  501  0.00000000000E+00  0.00000000000E+00  0.17480905492E+03  0.17480905494E+03  0.25500000920E-02 0.  1.
        2   -1    0    0  501    0  0.00000000000E+00  0.00000000000E+00 -0.35268967915E+03  0.35268967916E+03  0.25500000920E-02 0. -1.
    10030    2    1    2    0    0  0.00000000000E+00  0.00000000000E+00 -0.17788062423E+03  0.52749873410E+03  0.49660185058E+03 0.  0.
        1    1    3    3  502    0 -0.24060658764E+03 -0.37357109684E+02 -0.14061107253E+03  0.28117353610E+03  0.50400001928E-02 0. -1.
       -1    1    3    3    0  502  0.24060658764E+03  0.37357109684E+02 -0.37269551707E+02  0.24632519800E+03  0.50400001928E-02 0.  1.
</event>
<event>
 5   0  0.2466034E-01  0.4661013E+03  0.7818609E-02  0.1023026E+00
       -2   -1    0    0    0  501  0.00000000000E+00  0.00000000000E+00  0.51285860447E+02  0.51285860511E+02  0.25500000920E-02 0. -1.
        2   -1    0    0  501    0  0.00000000000E+00  0.00000000000E+00 -0.10590170825E+04  0.10590170825E+04  0.25500000920E-02 0.  1.
    10030    2    1    2    0    0  0.00000000000E+00  0.00000000000E+00 -0.10077312221E+04  0.11103029430E+04  0.46610128660E+03 0.  0.
        3    1    3    3  502    0  0.19288873829E+03 -0.66595095530E+02 -0.77201527691E+03  0.79852900392E+03  0.10100000352E+00 0.  1.
       -3    1    3    3    0  502 -0.19288873829E+03  0.66595095530E+02 -0.23571594517E+03  0.31177393912E+03  0.10100000352E+00 0. -1.
</event>
<event>
 5   0  0.9868500E-02  0.4970844E+03  0.7818609E-02  0.1014543E+00
       -4   -1    0    0    0  501  0.00000000000E+00  0.00000000000E+00  0.92040945011E+03  0.92041032630E+03  0.12699999809E+01 0.  1.
        4   -1    0    0  501    0  0.00000000000E+00  0.00000000000E+00 -0.67108010707E+02  0.67120026825E+02  0.12699999809E+01 0. -1.
    10030    2    1    2    0    0  0.00000000000E+00  0.00000000000E+00  0.85330143940E+03  0.98753035312E+03  0.49708435084E+03 0.  0.
        3    1    3    3  502    0 -0.50360188441E+02 -0.12066794085E+03  0.67380559256E+01  0.13092865281E+03  0.10100000352E+00 0. -1.
       -3    1    3    3    0  502  0.50360188441E+02  0.12066794085E+03  0.84656338348E+03  0.85660170031E+03  0.10100000352E+00 0.  1.
</event>
<event>
 5   0  0.2466034E-01  0.5054689E+03  0.7818609E-02  0.1012361E+00
        2   -1    0    0  501    0  0.00000000000E+00  0.00000000000E+00  0.85956613833E+03  0.85956613834E+03  0.25500000920E-02 0.  1.
       -2   -1    0    0    0  501  0.00000000000E+00  0.00000000000E+00 -0.74310386412E+02  0.74310386456E+02  0.25500000920E-02 0. -1.
    10030    2    1    2    0    0  0.00000000000E+00  0.00000000000E+00  0.78525575192E+03  0.93387652479E+03  0.50546885921E+03 0.  0.
        3    1    3    3  502    0  0.63015381252E+02 -0.50299022738E+02  0.83516700686E+03  0.83904998034E+03  0.10100000352E+00 0.  1.
       -3    1    3    3    0  502 -0.63015381252E+02  0.50299022738E+02 -0.49911254937E+02  0.94826544454E+02  0.10100000352E+00 0. -1.
</event>
<event>
 5   0  0.2413301E-01  0.4911674E+03  0.7818609E-02  0.1016110E+00
        2   -1    0    0  501    0  0.00000000000E+00  0.00000000000E+00  0.36890155215E+03  0.36890155216E+03  0.25500000920E-02 0.  1.
       -2   -1    0    0    0  501  0.00000000000E+00  0.00000000000E+00 -0.16348899172E+03  0.16348899174E+03  0.25500000920E-02 0. -1.
    10030    2    1    2    0    0  0.00000000000E+00  0.00000000000E+00  0.20541256043E+03  0.53239054390E+03  0.49116735564E+03 0.  0.
        4    1    3    3  502    0  0.18610485646E+03 -0.64740846655E+01 -0.70833423071E+02  0.19923834494E+03  0.12699999809E+01 0.  1.
       -4    1    3    3    0  502 -0.18610485646E+03  0.64740846655E+01  0.27624598350E+03  0.33315219896E+03  0.12699999809E+01 0. -1.
</event>
<event>
 5   0  0.1529146E-01  0.4807167E+03  0.7818609E-02  0.1018938E+00
       -1   -1    0    0    0  501  0.00000000000E+00  0.00000000000E+00  0.28358339202E+03  0.28358339207E+03  0.50400001928E-02 0.  1.
        1   -1    0    0  501    0  0.00000000000E+00  0.00000000000E+00 -0.20372188497E+03  0.20372188503E+03  0.50400001928E-02 0. -1.
    10030    2    1    2    0    0  0.00000000000E+00  0.00000000000E+00  0.79861507055E+02  0.48730527710E+03  0.48071672821E+03 0.  0.
        1    1    3    3  502    0  0.77385502637E+02  0.84258863405E+02  0.25421401422E+03  0.27877022282E+03  0.50400001928E-02 0.  1.
       -1    1    3    3    0  502 -0.77385502637E+02 -0.84258863405E+02 -0.17435250717E+03  0.20853505428E+03  0.50400001928E-02 0. -1.
</event>
<event>
 5   0  0.1453602E-01  0.5023788E+03  0.7818609E-02  0.1013160E+00
        1   -1    0    0  501    0  0.00000000000E+00  0.00000000000E+00  0.73674629492E+03  0.73674629494E+03  0.50400001928E-02 0. -1.
       -1   -1    0    0    0  501  0.00000000000E+00  0.00000000000E+00 -0.85641567348E+02  0.85641567496E+02  0.50400001928E-02 0.  1.
    10030    2    1    2    0    0  0.00000000000E+00  0.00000000000E+00  0.65110472757E+03  0.82238786243E+03  0.50237877146E+03 0.  0.
        2    1    3    3  502    0 -0.14185278594E+03  0.35791025305E+02  0.65980623782E+03  0.67583095656E+03  0.25500000920E-02 0. -1.
       -2    1    3    3    0  502  0.14185278594E+03 -0.35791025305E+02 -0.87015102517E+01  0.14655690587E+03  0.25500000920E-02 0.  1.
</event>
<event>
 5   0  0.1413361E-01  0.5056826E+03  0.7818609E-02  0.1012306E+00
        1   -1    0    0  501    0  0.00000000000E+00  0.00000000000E+00  0.67508006022E+03  0.67508006024E+03  0.50400001928E-02 0.  1.
       -1   -1    0    0    0  501  0.00000000000E+00  0.00000000000E+00 -0.94697973454E+02  0.94697973588E+02  0.50400001928E-02 0. -1.
    10030    2    1    2    0    0  0.00000000000E+00  0.00000000000E+00  0.58038208677E+03  0.76977803383E+03  0.50568256320E+03 0.  0.
        3    1    3    3  502    0 -0.10467138872E+03 -0.85362464464E+02  0.61556171732E+03  0.63020559184E+03  0.10100000352E+00 0.  1.
       -3    1    3    3    0  502  0.10467138872E+03  0.85362464464E+02 -0.35179630553E+02  0.13957244199E+03  0.10100000352E+00 0. -1.
</event>
<event>
 5   0  0.1448458E-01  0.5080004E+03  0.7818609E-02  0.1011712E+00
       -1   -1    0    0    0  501  0.00000000000E+00  0.00000000000E+00  0.66396023894E+03  0.66396023896E+03  0.50400001928E-02 0.  1.
        1   -1    0    0  501    0  0.00000000000E+00  0.00000000000E+00 -0.97168628061E+02  0.97168628192E+02  0.50400001928E-02 0. -1.
    10030    2    1    2    0    0  0.00000000000E+00  0.00000000000E+00  0.56679161088E+03  0.76112886715E+03  0.50800041560E+03 0.  0.
        5    1    3    3  502    0 -0.53265844904E+02  0.24360926690E+03  0.35542712728E+03  0.43420416622E+03  0.46999998093E+01 0. -1.
       -5    1    3    3    0  502  0.53265844904E+02 -0.24360926690E+03  0.21136448359E+03  0.32692470093E+03  0.46999998093E+01 0.  1.
</event>
<event>
 5   0  0.1529146E-01  0.5046080E+03  0.7818609E-02  0.1012583E+00
       -1   -1    0    0    0  501  0.00000000000E+00  0.00000000000E+00  0.74741543066E+02  0.74741543236E+02  0.50400001928E-02 0.  1.
        1   -1    0    0  501    0  0.00000000000E+00  0.00000000000E+00 -0.85169919876E+03  0.85169919878E+03  0.50400001928E-02 0. -1.
    10030    2    1    2    0    0  0.00000000000E+00  0.00000000000E+00 -0.77695765570E+03  0.92644074201E+03  0.50460801591E+03 0.  0.
        1    1    3    3  502    0  0.13699864735E+03  0.13587745622E+03 -0.90023583057E+02  0.21292148322E+03  0.50400001928E-02 0.  1.
       -1    1    3    3    0  502 -0.13699864735E+03 -0.13587745622E+03 -0.68693407264E+03  0.71351925879E+03  0.50400001928E-02 0. -1.
</event>
<event>
 5   0  0.2413301E-01  0.5046664E+03  0.7818609E-02  0.1012568E+00
       -2   -1    0    0    0  501  0.00000000000E+00  0.00000000000E+00  0.51274498577E+02  0.51274498641E+02  0.25500000920E-02 0.  1.
        2   -1    0    0  501    0  0.00000000000E+00  0.00000000000E+00 -0.12417879871E+04  0.12417879871E+04  0.25500000920E-02 0. -1.
    10030    2    1    2    0    0  0.00000000000E+00  0.00000000000E+00 -0.11905134885E+04  0.12930624857E+04  0.50466644993E+03 0.  0.
        4    1    3    3  502    0  0.19530972965E+03 -0.27128766038E+02 -0.19185206658E+03  0.27511940825E+03  0.12699999809E+01 0.  1.
       -4    1    3    3    0  502 -0.19530972965E+03  0.27128766038E+02 -0.99866142193E+03  0.10179430775E+04  0.12699999809E+01 0. -1.
</event>
<event>
 5   0  0.1529146E-01  0.4989759E+03  0.7818609E-02  0.1014047E+00
       -1   -1    0    0    0  501  0.00000000000E+00  0.00000000000E+00  0.10107260329E+03  0.10107260342E+03  0.50400001928E-02 0.  1.
        1   -1    0    0  501    0  0.00000000000E+00  0.00000000000E+00 -0.61583680786E+03  0.61583680788E+03  0.50400001928E-02 0. -1.
    10030    2    1    2    0    0  0.00000000000E+00  0.00000000000E+00 -0.51476420457E+03  0.71690941130E+03  0.49897586885E+03 0.  0.
        1    1    3    3  502    0 -0.58411534283E+02 -0.24241827994E+03 -0.26902781694E+03  0.36681670640E+03  0.50400001928E-02 0. -1.
       -1    1    3    3    0  502  0.58411534283E+02  0.24241827994E+03 -0.24573638763E+03  0.35009270489E+03  0.50400001928E-02 0.  1.
</event>
<event>
 5   0  0.2504064E-01  0.5140027E+03  0.7818609E-02  0.1010187E+00
        2   -1    0    0  501    0  0.00000000000E+00  0.00000000000E+00  0.26996787423E+03  0.26996787424E+03  0.25500000920E-02 0.  1.
       -2   -1    0    0    0  501  0.00000000000E+00  0.00000000000E+00 -0.24465758062E+03  0.24465758063E+03  0.25500000920E-02 0. -1.
    10030    2    1    2    0    0  0.00000000000E+00  0.00000000000E+00  0.25310293609E+02  0.51462545487E+03  0.51400267299E+03 0.  0.
        5    1    3    3  502    0  0.67600977394E+02  0.21661021057E+03  0.13337371024E+03  0.26324990418E+03  0.46999998093E+01 0. -1.
       -5    1    3    3    0  502 -0.67600977394E+02 -0.21661021057E+03 -0.10806341663E+03  0.25137555069E+03  0.46999998093E+01 0.  1.
</event>
<event>
 5   0  0.2504064E-01  0.5046334E+03  0.7818609E-02  0.1012577E+00
       -2   -1    0    0    0  501  0.00000000000E+00  0.00000000000E+00  0.23085217843E+03  0.23085217844E+03  0.25500000920E-02 0.  1.
        2   -1    0    0  501    0  0.00000000000E+00  0.00000000000E+00 -0.27577699731E+03  0.27577699732E+03  0.25500000920E-02 0. -1.
    10030    2    1    2    0    0  0.00000000000E+00  0.00000000000E+00 -0.44924818880E+02  0.50662917576E+03  0.50463341385E+03 0.  0.
        5    1    3    3  502    0  0.11141879620E+03  0.22327530117E+03  0.14773657482E+02  0.25001271810E+03  0.46999998093E+01 0.  1.
       -5    1    3    3    0  502 -0.11141879620E+03 -0.22327530117E+03 -0.59698476362E+02  0.25661645765E+03  0.46999998093E+01 0. -1.
</event>
<event>
 5   0  0.2504064E-01  0.4923546E+03  0.7818609E-02  0.1015794E+00
        2   -1    0    0  501    0  0.00000000000E+00  0.00000000000E+00  0.42896568901E+03  0.42896568902E+03  0.25500000920E-02 0. -1.
       -2   -1    0    0    0  501  0.00000000000E+00  0.00000000000E+00 -0.14127767161E+03  0.14127767163E+03  0.25500000920E-02 0.  1.
    10030    2    1    2    0    0  0.00000000000E+00  0.00000000000E+00  0.28768801740E+03  0.57024336065E+03  0.49235464353E+03 0.  0.
        5    1    3    3  502    0  0.90039903425E+02 -0.16298164643E+03  0.33027758883E+03  0.37917750061E+03  0.46999998093E+01 0. -1.
       -5    1    3    3    0  502 -0.90039903425E+02  0.16298164643E+03 -0.42589571434E+02  0.19106586004E+03  0.46999998093E+01 0.  1.
</event>
<event>
 5   0  0.9868500E-02  0.4968450E+03  0.7818609E-02  0.1014606E+00
        3   -1    0    0  501    0  0.00000000000E+00  0.00000000000E+00  0.38906051301E+03  0.38906052612E+03  0.10100000352E+00 0. -1.
       -3   -1    0    0    0  501  0.00000000000E+00  0.00000000000E+00 -0.15862242490E+03  0.15862245706E+03  0.10100000352E+00 0.  1.
    10030    2    1    2    0    0  0.00000000000E+00  0.00000000000E+00  0.23043808810E+03  0.54768298318E+03  0.49684498348E+03 0.  0.
        3    1    3    3  502    0 -0.94065982128E+02 -0.21931730167E+03  0.19131307019E+03  0.30585811880E+03  0.10100000352E+00 0.  1.
       -3    1    3    3    0  502  0.94065982128E+02  0.21931730167E+03  0.39125017909E+02  0.24182486438E+03  0.10100000352E+00 0. -1.
</event>
<event>
 5   0  0.2488968E-01  0.4983755E+03  0.7818609E-02  0.1014204E+00
        2   -1    0    0  501    0  0.00000000000E+00  0.00000000000E+00  0.56901038493E+03  0.56901038493E+03  0.25500000920E-02 0. -1.
       -2   -1    0    0    0  501  0.00000000000E+00  0.00000000000E+00 -0.10912726100E+03  0.10912726103E+03  0.25500000920E-02 0.  1.
    10030    2    1    2    0    0  0.00000000000E+00  0.00000000000E+00  0.45988312393E+03  0.67813764596E+03  0.49837554032E+03 0.  0.
        2    1    3    3  502    0  0.41095804938E+02  0.31548118062E+02 -0.10171787406E+03  0.11415198135E+03  0.25500000920E-02 0.  1.
       -2    1    3    3    0  502 -0.41095804938E+02 -0.31548118062E+02  0.56160099799E+03  0.56398566461E+03  0.25500000920E-02 0. -1.
</event>
<event>
 5   0  0.1439814E-01  0.4989409E+03  0.7818609E-02  0.1014056E+00
        1   -1    0    0  501    0  0.00000000000E+00  0.00000000000E+00  0.29576347806E+03  0.29576347811E+03  0.50400001928E-02 0. -1.
       -1   -1    0    0    0  501  0.00000000000E+00  0.00000000000E+00 -0.21042318720E+03  0.21042318726E+03  0.50400001928E-02 0.  1.
    10030    2    1    2    0    0  0.00000000000E+00  0.00000000000E+00  0.85340290862E+02  0.50618666537E+03  0.49894085316E+03 0.  0.
        4    1    3    3  502    0  0.19493848345E+03  0.29691401590E+01 -0.11523091126E+03  0.22647208201E+03  0.12699999809E+01 0.  1.
       -4    1    3    3    0  502 -0.19493848345E+03 -0.29691401590E+01  0.20057120212E+03  0.27971458336E+03  0.12699999809E+01 0. -1.
</event>
<event>
 5   0  0.2511944E-01  0.4960242E+03  0.7818609E-02  0.1014822E+00
       -2   -1    0    0    0  501  0.00000000000E+00  0.00000000000E+00  0.80701938339E+02  0.80701938380E+02  0.25500000920E-02 0. -1.
        2   -1    0    0  501    0  0.00000000000E+00  0.00000000000E+00 -0.76218754588E+03  0.76218754589E+03  0.25500000920E-02 0.  1.
    10030    2    1    2    0    0  0.00000000000E+00  0.00000000000E+00 -0.68148560754E+03  0.84288948426E+03  0.49602424275E+03 0.  0.
        1    1    3    3  502    0  0.76494209665E+02 -0.23210263345E+03 -0.26890849388E+03  0.36336589641E+03  0.50400001928E-02 0.  1.
       -1    1    3    3    0  502 -0.76494209665E+02  0.23210263345E+03 -0.41257711366E+03  0.47952358786E+03  0.50400001928E-02 0. -1.
</event>
<event>
 5   0  0.2504064E-01  0.4858297E+03  0.7818609E-02  0.1017545E+00
       -2   -1    0    0    0  501  0.00000000000E+00  0.00000000000E+00  0.13841213986E+03  0.13841213989E+03  0.25500000920E-02 0.  1.
        2   -1    0    0  501    0  0.00000000000E+00  0.00000000000E+00 -0.42631819009E+03  0.42631819010E+03  0.25500000920E-02 0. -1.
    10030    2    1    2    0    0  0.00000000000E+00  0.00000000000E+00 -0.28790605023E+03  0.56473032998E+03  0.48582965312E+03 0.  0.
        5    1    3    3  502    0  0.22113878399E+03  0.99373007285E+02 -0.12718188363E+03  0.27381504320E+03  0.46999998093E+01 0. -1.
       -5    1    3    3    0  502 -0.22113878399E+03 -0.99373007285E+02 -0.16072416660E+03  0.29091528679E+03  0.46999998093E+01 0.  1.
</event>
<event>
 5   0  0.2413301E-01  0.4976437E+03  0.7818609E-02  0.1014396E+00
       -2   -1    0    0    0  501  0.00000000000E+00  0.00000000000E+00  0.10379785358E+03  0.10379785361E+03  0.25500000920E-02 0. -1.
        2   -1    0    0  501    0  0.00000000000E+00  0.00000000000E+00 -0.59646999101E+03  0.59646999102E+03  0.25500000920E-02 0.  1.
    10030    2    1    2    0    0  0.00000000000E+00  0.00000000000E+00 -0.49267213744E+03  0.70026784463E+03  0.49764366691E+03 0.  0.
        4    1    3    3  502    0 -0.16907778400E+03 -0.78020212438E+02 -0.47856658609E+03  0.51351927015E+03  0.12699999809E+01 0.  1.
       -4    1    3    3    0  502  0.16907778400E+03  0.78020212438E+02 -0.14105551344E+02  0.18674857448E+03  0.12699999809E+01 0. -1.
</event>
<event>
 5   0  0.2504064E-01  0.4968379E+03  0.7818609E-02  0.1014608E+00
       -2   -1    0    0    0  501  0.00000000000E+00  0.00000000000E+00  0.28167678431E+03  0.28167678432E+03  0.25500000920E-02 0.  1.
        2   -1    0    0  501    0  0.00000000000E+00  0.00000000000E+00 -0.21908793214E+03  0.21908793215E+03  0.25500000920E-02 0. -1.
    10030    2    1    2    0    0  0.00000000000E+00  0.00000000000E+00  0.62588852171E+02  0.50076471647E+03  0.49683793821E+03 0.  0.
        5    1    3    3  502    0 -0.18539096412E+03 -0.15788998050E+03 -0.17988230246E+02  0.24422268925E+03  0.46999998093E+01 0. -1.
       -5    1    3    3    0  502  0.18539096412E+03  0.15788998050E+03  0.80577082417E+02  0.25654202722E+03  0.46999998093E+01 0.  1.
</event>
<event>
 5   0  0.2504064E-01  0.5142745E+03  0.7818609E-02  0.1010119E+00
       -2   -1    0    0    0  501  0.00000000000E+00  0.00000000000E+00  0.43276959622E+03  0.43276959623E+03  0.25500000920E-02 0. -1.
        2   -1    0    0  501    0  0.00000000000E+00  0.00000000000E+00 -0.15278236724E+03  0.15278236726E+03  0.25500000920E-02 0.  1.
    10030    2    1    2    0    0  0.00000000000E+00  0.00000000000E+00  0.27998722898E+03  0.58555196350E+03  0.51427449243E+03 0.  0.
        5    1    3    3  502    0  0.13295334869E+03  0.31652227165E+02 -0.10794646190E+03  0.17422108095E+03  0.46999998093E+01 0.  1.
       -5    1    3    3    0  502 -0.13295334869E+03 -0.31652227165E+02  0.38793369088E+03  0.41133088254E+03  0.46999998093E+01 0. -1.
</event>
<event>
 5   0  0.1439814E-01  0.4773673E+03  0.7818609E-02  0.1019861E+00
        1   -1    0    0  501    0  0.00000000000E+00  0.00000000000E+00  0.46054250002E+03  0.46054250005E+03  0.50400001928E-02 0.  1.
       -1   -1    0    0    0  501  0.00000000000E+00  0.00000000000E+00 -0.12370168366E+03  0.12370168377E+03  0.50400001928E-02 0. -1.
    10030    2    1    2    0    0  0.00000000000E+00  0.00000000000E+00  0.33684081636E+03  0.58424418381E+03  0.47736729125E+03 0.  0.
        4    1    3    3  502    0  0.97910546112E+02  0.51072496827E+02  0.42739177670E+03  0.44142974375E+03  0.12699999809E+01 0.  1.
       -4    1    3    3    0  502 -0.97910546112E+02 -0.51072496827E+02 -0.90550960345E+02  0.14281444007E+03  0.12699999809E+01 0. -1.
</event>
<event>
 5   0  0.1413361E-01  0.5132698E+03  0.7818609E-02  0.1010372E+00
        1   -1    0    0  501    0  0.00000000000E+00  0.00000000000E+00  0.16249770734E+03  0.16249770742E+03  0.50400001928E-02 0.  1.
       -1   -1    0    0    0  501  0.00000000000E+00  0.00000000000E+00 -0.40530700931E+03  0.40530700934E+03  0.50400001928E-02 0. -1.
    10030    2    1    2    0    0  0.00000000000E+00  0.00000000000E+00 -0.24280930197E+03  0.56780471677E+03  0.51326975292E+03 0.  0.
        3    1    3    3  502    0  0.23882328590E+03 -0.51765770407E+02 -0.34684289745E+02  0.24681828747E+03  0.10100000352E+00 0.  1.
       -3    1    3    3    0  502 -0.23882328590E+03  0.51765770407E+02 -0.20812501222E+03  0.32098642929E+03  0.10100000352E+00 0. -1.
</event>
<event>
 5   0  0.1448458E-01  0.5109452E+03  0.7818609E-02  0.1010961E+00
        1   -1    0    0  501    0  0.00000000000E+00  0.00000000000E+00  0.33255919293E+03  0.33255919297E+03  0.50400001928E-02 0. -1.
       -1   -1    0    0    0  501  0.00000000000E+00  0.00000000000E+00 -0.19625456084E+03  0.19625456090E+03  0.50400001928E-02 0.  1.
    10030    2    1    2    0    0  0.00000000000E+00  0.00000000000E+00  0.13630463209E+03  0.52881375387E+03  0.51094523538E+03 0.  0.
        5    1    3    3  502    0 -0.45890500399E+02 -0.78698933174E+02 -0.17882386717E+03  0.20074741736E+03  0.46999998093E+01 0.  1.
       -5    1    3    3    0  502  0.45890500399E+02  0.78698933174E+02  0.31512849926E+03  0.32806633651E+03  0.46999998093E+01 0. -1.
</event>
<event>
 5   0  0.2511944E-01  0.5012047E+03  0.7818609E-02  0.1013465E+00
        2   -1    0    0  501    0  0.00000000000E+00  0.00000000000E+00  0.11114756697E+04  0.11114756697E+04  0.25500000920E-02 0. -1.
       -2   -1    0    0    0  501  0.00000000000E+00  0.00000000000E+00 -0.56502840221E+02  0.56502840278E+02  0.25500000920E-02 0.  1.
    10030    2    1    2    0    0  0.00000000000E+00  0.00000000000E+00  0.10549728294E+04  0.11679785099E+04  0.50120467758E+03 0.  0.
        1    1    3    3  502    0  0.12987850499E+03  0.18575586858E+02  0.10250461891E+04  0.10334085196E+04  0.50400001928E-02 0. -1.
       -1    1    3    3    0  502 -0.12987850499E+03 -0.18575586858E+02  0.29926640354E+02  0.13456999040E+03  0.50400001928E-02 0.  1.
</event>
<event>
 5   0  0.2504064E-01  0.5750528E+03  0.7818609E-02  0.9958559E-01
       -2   -1    0    0    0  501  0.00000000000E+00  0.00000000000E+00  0.41912979119E+02  0.41912979197E+02  0.25500000920E-02 0. -1.
        2   -1    0    0  501    0  0.00000000000E+00  0.00000000000E+00 -0.19724539432E+04  0.19724539432E+04  0.25500000920E-02 0.  1.
    10030    2    1    2    0    0  0.00000000000E+00  0.00000000000E+00 -0.19305409641E+04  0.20143669224E+04  0.57505276632E+03 0.  0.
        5    1    3    3  502    0  0.31674142155E+02  0.14842065991E+03 -0.18205682813E+04  0.18268888583E+04  0.46999998093E+01 0.  1.
       -5    1    3    3    0  502 -0.31674142155E+02 -0.14842065991E+03 -0.10997268275E+03  0.18747806410E+03  0.46999998093E+01 0. -1.
</event>
<event>
 5   0  0.1448458E-01  0.5037336E+03  0.7818609E-02  0.1012809E+00
       -1   -1    0    0    0  501  0.00000000000E+00  0.00000000000E+00  0.85029281172E+02  0.85029281322E+02  0.50400001928E-02 0.  1.
        1   -1    0    0  501    0  0.00000000000E+00  0.00000000000E+00 -0.74605935532E+03  0.74605935533E+03  0.50400001928E-02 0. -1.
    10030    2    1    2    0    0  0.00000000000E+00  0.00000000000E+00 -0.66103007414E+03  0.83108863666E+03  0.50373362311E+03 0.  0.
        5    1    3    3  502    0 -0.82735491433E+02  0.20503651694E+03 -0.52938730159E+03  0.57372305157E+03  0.46999998093E+01 0. -1.
       -5    1    3    3    0  502  0.82735491433E+02 -0.20503651694E+03 -0.13164277255E+03  0.25736558508E+03  0.46999998093E+01 0.  1.
</event>
<event>
 5   0  0.1529146E-01  0.5070784E+03  0.7818609E-02  0.1011948E+00
       -1   -1    0    0    0  501  0.00000000000E+00  0.00000000000E+00  0.60662892424E+02  0.60662892634E+02  0.50400001928E-02 0. -1.
        1   -1    0    0  501    0  0.00000000000E+00  0.00000000000E+00 -0.10596612325E+04  0.10596612325E+04  0.50400001928E-02 0.  1.
    10030    2    1    2    0    0  0.00000000000E+00  0.00000000000E+00 -0.99899834008E+03  0.11203241251E+04  0.50707835875E+03 0.  0.
        1    1    3    3  502    0 -0.11529021779E+03 -0.12768569425E+03 -0.91098014255E+03  0.92708159888E+03  0.50400001928E-02 0.  1.
       -1    1    3    3    0  502  0.11529021779E+03  0.12768569425E+03 -0.88018197525E+02  0.19324252626E+03  0.50400001928E-02 0. -1.
</event>
<event>
 5   0  0.9868500E-02  0.4926249E+03  0.7818609E-02  0.1015722E+00
       -3   -1    0    0    0  501  0.00000000000E+00  0.00000000000E+00  0.17716538707E+04  0.17716538736E+04  0.10100000352E+00 0. -1.
        3   -1    0    0  501    0  0.00000000000E+00  0.00000000000E+00 -0.34244664908E+02  0.34244813850E+02  0.10100000352E+00 0.  1.
    10030    2    1    2    0    0  0.00000000000E+00  0.00000000000E+00  0.17374092058E+04  0.18058986874E+04  0.49262492921E+03 0.  0.
        3    1    3    3  502    0 -0.54916083116E+02  0.23629536100E+03  0.71237574081E+03  0.75254932071E+03  0.10100000352E+00 0. -1.
       -3    1    3    3    0  502  0.54916083116E+02 -0.23629536100E+03  0.10250334650E+04  0.10533493667E+04  0.10100000352E+00 0.  1.
</event>
<event>
 5   0  0.2413301E-01  0.4984969E+03  0.7818609E-02  0.1014172E+00
       -2   -1    0    0    0  501  0.00000000000E+00  0.00000000000E+00  0.20202908927E+03  0.20202908929E+03  0.25500000920E-02 0.  1.
        2   -1    0    0  501    0  0.00000000000E+00  0.00000000000E+00 -0.30750419935E+03  0.30750419936E+03  0.25500000920E-02 0. -1.
    10030    2    1    2    0    0  0.00000000000E+00  0.00000000000E+00 -0.10547511008E+03  0.50953328864E+03  0.49849691412E+03 0.  0.
        4    1    3    3  502    0  0.12580046779E+03  0.19034750636E+03  0.49809303898E+02  0.23353909850E+03  0.12699999809E+01 0.  1.
       -4    1    3    3    0  502 -0.12580046779E+03 -0.19034750636E+03 -0.15528441397E+03  0.27599419015E+03  0.12699999809E+01 0. -1.
</event>
<event>
 5   0  0.1439814E-01  0.4767193E+03  0.7818609E-02  0.1020041E+00
        1   -1    0    0  501    0  0.00000000000E+00  0.00000000000E+00  0.39458371232E+03  0.39458371235E+03  0.50400001928E-02 0.  1.
       -1   -1    0    0    0  501  0.00000000000E+00  0.00000000000E+00 -0.14398800465E+03  0.14398800474E+03  0.50400001928E-02 0. -1.
    10030    2    1    2    0    0  0.00000000000E+00  0.00000000000E+00  0.25059570767E+03  0.53857171709E+03  0.47671929450E+03 0.  0.
        4    1    3    3  502    0  0.23333326216E+03  0.24246348031E+02  0.17298078991E+03  0.29147257710E+03  0.12699999809E+01 0.  1.
       -4    1    3    3    0  502 -0.23333326216E+03 -0.24246348031E+02  0.77614917759E+02  0.24709913999E+03  0.12699999809E+01 0. -1.
</event>
<event>
 5   0  0.2413301E-01  0.4966364E+03  0.7818609E-02  0.1014661E+00
        2   -1    0    0  501    0  0.00000000000E+00  0.00000000000E+00  0.35922596667E+02  0.35922596757E+02  0.25500000920E-02 0. -1.
       -2   -1    0    0    0  501  0.00000000000E+00  0.00000000000E+00 -0.17165218092E+04  0.17165218092E+04  0.25500000920E-02 0.  1.
    10030    2    1    2    0    0  0.00000000000E+00  0.00000000000E+00 -0.16805992126E+04  0.17524444060E+04  0.49663636880E+03 0.  0.
        4    1    3    3  502    0 -0.22403501939E+03  0.57379564361E+02 -0.52123283672E+03  0.57023625568E+03  0.12699999809E+01 0.  1.
       -4    1    3    3    0  502  0.22403501939E+03 -0.57379564361E+02 -0.11593663759E+04  0.11822081503E+04  0.12699999809E+01 0. -1.
</event>
<event>
 5   0  0.2511944E-01  0.5005192E+03  0.7818609E-02  0.1013643E+00
        2   -1    0    0  501    0  0.00000000000E+00  0.00000000000E+00  0.87961684639E+03  0.87961684640E+03  0.25500000920E-02 0. -1.
       -2   -1    0    0    0  501  0.00000000000E+00  0.00000000000E+00 -0.71201312269E+02  0.71201312314E+02  0.25500000920E-02 0.  1.
    10030    2    1    2    0    0  0.00000000000E+00  0.00000000000E+00  0.80841553412E+03  0.95081815871E+03  0.50051922553E+03 0.  0.
        1    1    3    3  502    0  0.18018992044E+02 -0.21327580113E+03  0.65056874118E+03  0.68487293599E+03  0.50400001928E-02 0. -1.
       -1    1    3    3    0  502 -0.18018992044E+02  0.21327580113E+03  0.15784679294E+03  0.26594522272E+03  0.50400001928E-02 0.  1.
</event>
<event>
 5   0  0.9868500E-02  0.5052026E+03  0.7818609E-02  0.1012430E+00
       -4   -1    0    0    0  501  0.00000000000E+00  0.00000000000E+00  0.17767953630E+03  0.17768407504E+03  0.12699999809E+01 0.  1.
        4   -1    0    0  501    0  0.00000000000E+00  0.00000000000E+00 -0.35910488187E+03  0.35910712758E+03  0.12699999809E+01 0. -1.
    10030    2    1    2    0    0  0.00000000000E+00  0.00000000000E+00 -0.18142534556E+03  0.53679120262E+03  0.50520257243E+03 0.  0.
        4    1    3    3  502    0  0.14882648021E+03  0.19703286342E+03 -0.34143465743E+02  0.24927627170E+03  0.12699999809E+01 0.  1.
       -4    1    3    3    0  502 -0.14882648021E+03 -0.19703286342E+03 -0.14728187982E+03  0.28751493092E+03  0.12699999809E+01 0. -1.
</event>
<event>
 5   0  0.1529146E-01  0.4860793E+03  0.7818609E-02  0.1017478E+00
       -1   -1    0    0    0  501  0.00000000000E+00  0.00000000000E+00  0.13991394029E+03  0.13991394038E+03  0.50400001928E-02 0.  1.
        1   -1    0    0  501    0  0.00000000000E+00  0.00000000000E+00 -0.42217573071E+03  0.42217573074E+03  0.50400001928E-02 0. -1.
    10030    2    1    2    0    0  0.00000000000E+00  0.00000000000E+00 -0.28226179043E+03  0.56208967112E+03  0.48607929399E+03 0.  0.
        1    1    3    3  502    0  0.32366138479E+02 -0.50697981097E+02 -0.41343293508E+03  0.41778540430E+03  0.50400001928E-02 0. -1.
       -1    1    3    3    0  502 -0.32366138479E+02  0.50697981097E+02  0.13117114465E+03  0.14430426682E+03  0.50400001928E-02 0.  1.
</event>
<event>
 5   0  0.1448458E-01  0.5033058E+03  0.7818609E-02  0.1012920E+00
       -1   -1    0    0    0  501  0.00000000000E+00  0.00000000000E+00  0.25329207398E+03  0.25329207403E+03  0.50400001928E-02 0. -1.
        1   -1    0    0  501    0  0.00000000000E+00  0.00000000000E+00 -0.25002430705E+03  0.25002430710E+03  0.50400001928E-02 0.  1.
    10030    2    1    2    0    0  0.00000000000E+00  0.00000000000E+00  0.32677669311E+01  0.50331638113E+03  0.50330577308E+03 0.  0.
        5    1    3    3  502    0 -0.19630951854E+03 -0.91059609888E+02  0.13000249446E+03  0.25249162003E+03  0.46999998093E+01 0. -1.
       -5    1    3    3    0  502  0.19630951854E+03  0.91059609888E+02 -0.12673472753E+03  0.25082476110E+03  0.46999998093E+01 0.  1.
</event>
<event>
 5   0  0.2413301E-01  0.5272760E+03  0.7818609E-02  0.1006895E+00
        2   -1    0    0  501    0  0.00000000000E+00  0.00000000000E+00  0.13524189871E+04  0.13524189871E+04  0.25500000920E-02 0.  1.
       -2   -1    0    0    0  501  0.00000000000E+00  0.00000000000E+00 -0.51393093497E+02  0.51393093560E+02  0.25500000920E-02 0. -1.
    10030    2    1    2    0    0  0.00000000000E+00  0.00000000000E+00  0.13010258936E+04  0.14038120806E+04  0.52727600171E+03 0.  0.
        4    1    3    3  502    0 -0.85461148950E+02  0.88676284480E+02  0.29906952770E+02  0.12674040450E+03  0.12699999809E+01 0. -1.
       -4    1    3    3    0  502  0.85461148950E+02 -0.88676284480E+02  0.12711189408E+04  0.12770716761E+04  0.12699999809E+01 0.  1.
</event>
<event>
 5   0  0.9868500E-02  0.4937214E+03  0.7818609E-02  0.1015431E+00
        3   -1    0    0  501    0  0.00000000000E+00  0.00000000000E+00  0.43227841181E+03  0.43227842360E+03  0.10100000352E+00 0.  1.
       -3   -1    0    0    0  501  0.00000000000E+00  0.00000000000E+00 -0.14097442300E+03  0.14097445918E+03  0.10100000352E+00 0. -1.
    10030    2    1    2    0    0  0.00000000000E+00  0.00000000000E+00  0.29130398881E+03  0.57325288278E+03  0.49372143333E+03 0.  0.
        4    1    3    3  502    0  0.16962651597E+03  0.14898065538E+03  0.26158748864E+03  0.34554018248E+03  0.12699999809E+01 0.  1.
       -4    1    3    3    0  502 -0.16962651597E+03 -0.14898065538E+03  0.29716500168E+02  0.22771270030E+03  0.12699999809E+01 0. -1.
</event>
<event>
 5   0  0.1439814E-01  0.5014663E+03  0.7818609E-02  0.1013397E+00
        1   -1    0    0  501    0  0.00000000000E+00  0.00000000000E+00  0.17114574706E+03  0.17114574713E+03  0.50400001928E-02 0. -1.
       -1   -1    0    0    0  501  0.00000000000E+00  0.00000000000E+00 -0.36733089189E+03  0.36733089193E+03  0.50400001928E-02 0.  1.
    10030    2    1    2    0    0  0.00000000000E+00  0.00000000000E+00 -0.19618514484E+03  0.53847663906E+03  0.50146632964E+03 0.  0.
        4    1    3    3  502    0  0.22074246884E+03  0.22607746752E+02 -0.22344355852E+03  0.31490789845E+03  0.12699999809E+01 0.  1.
       -4    1    3    3    0  502 -0.22074246884E+03 -0.22607746752E+02  0.27258413686E+02  0.22356874061E+03  0.12699999809E+01 0. -1.
</event>
<event>
 5   0  0.2413301E-01  0.5038371E+03  0.7818609E-02  0.1012782E+00
       -2   -1    0    0    0  501  0.00000000000E+00  0.00000000000E+00  0.62469142686E+02  0.62469142738E+02  0.25500000920E-02 0. -1.
        2   -1    0    0  501    0  0.00000000000E+00  0.00000000000E+00 -0.10159089428E+04  0.10159089428E+04  0.25500000920E-02 0.  1.
    10030    2    1    2    0    0  0.00000000000E+00  0.00000000000E+00 -0.95343980011E+03  0.10783780855E+04  0.50383711945E+03 0.  0.
        4    1    3    3  502    0  0.59159326607E+02 -0.44344019717E+02  0.38718364169E+02  0.83468213310E+02  0.12699999809E+01 0. -1.
       -4    1    3    3    0  502 -0.59159326607E+02  0.44344019717E+02 -0.99215816428E+03  0.99490987222E+03  0.12699999809E+01 0.  1.
</event>
<event>
 5   0  0.9868500E-02  0.5120121E+03  0.7818609E-02  0.1010690E+00
       -4   -1    0    0    0  501  0.00000000000E+00  0.00000000000E+00  0.41030640273E+03  0.41030836821E+03  0.12699999809E+01 0.  1.
        4   -1    0    0  501    0  0.00000000000E+00  0.00000000000E+00 -0.15972721446E+03  0.15973226330E+03  0.12699999809E+01 0. -1.
    10030    2    1    2    0    0  0.00000000000E+00  0.00000000000E+00  0.25057918827E+03  0.57004063150E+03  0.51201210139E+03 0.  0.
        5    1    3    3  502    0  0.14430295220E+03  0.11930671096E+03 -0.69016984358E+02  0.19960678201E+03  0.46999998093E+01 0. -1.
       -5    1    3    3    0  502 -0.14430295220E+03 -0.11930671096E+03  0.31959617263E+03  0.37043384950E+03  0.46999998093E+01 0.  1.
</event>
<event>
 5   0  0.2511944E-01  0.4905392E+03  0.7818609E-02  0.1016278E+00
        2   -1    0    0  501    0  0.00000000000E+00  0.00000000000E+00  0.51377873866E+03  0.51377873867E+03  0.25500000920E-02 0.  1.
       -2   -1    0    0    0  501  0.00000000000E+00  0.00000000000E+00 -0.11708768880E+03  0.11708768883E+03  0.25500000920E-02 0. -1.
    10030    2    1    2    0    0  0.00000000000E+00  0.00000000000E+00  0.39669104986E+03  0.63086642750E+03  0.49053915268E+03 0.  0.
        1    1    3    3  502    0  0.17702145752E+03 -0.16586100798E+03  0.24490568929E+03  0.34471041044E+03  0.50400001928E-02 0. -1.
       -1    1    3    3    0  502 -0.17702145752E+03  0.16586100798E+03  0.15178536056E+03  0.28615601706E+03  0.50400001928E-02 0.  1.
</event>
<event>
 5   0  0.1529146E-01  0.4982437E+03  0.7818609E-02  0.1014238E+00
        1   -1    0    0  501    0  0.00000000000E+00  0.00000000000E+00  0.46192330853E+03  0.46192330856E+03  0.50400001928E-02 0. -1.
       -1   -1    0    0    0  501  0.00000000000E+00  0.00000000000E+00 -0.13435497544E+03  0.13435497554E+03  0.50400001928E-02 0.  1.
    10030    2    1    2    0    0  0.00000000000E+00  0.00000000000E+00  0.32756833309E+03  0.59627828410E+03  0.49824369464E+03 0.  0.
        1    1    3    3  502    0 -0.48682140042E+02 -0.21297731995E+03  0.30705794713E+03  0.37684728007E+03  0.50400001928E-02 0. -1.
       -1    1    3    3    0  502  0.48682140042E+02  0.21297731995E+03  0.20510385954E+02  0.21943100403E+03  0.50400001928E-02 0.  1.
</event>
<event>
 5   0  0.1439814E-01  0.4958213E+03  0.7818609E-02  0.1014875E+00
        1   -1    0    0  501    0  0.00000000000E+00  0.00000000000E+00  0.89595899106E+03  0.89595899107E+03  0.50400001928E-02 0. -1.
       -1   -1    0    0    0  501  0.00000000000E+00  0.00000000000E+00 -0.68596545617E+02  0.68596545802E+02  0.50400001928E-02 0.  1.
    10030    2    1    2    0    0  0.00000000000E+00  0.00000000000E+00  0.82736244544E+03  0.96455553688E+03  0.49582130611E+03 0.  0.
        4    1    3    3  502    0 -0.37041429731E+01  0.17863982245E+03  0.79370929051E+02  0.19551793810E+03  0.12699999809E+01 0.  1.
       -4    1    3    3    0  502  0.37041429731E+01 -0.17863982245E+03  0.74799151639E+03  0.76903759878E+03  0.12699999809E+01 0. -1.
</event>
<event>
 5   0  0.1413361E-01  0.5034134E+03  0.7818609E-02  0.1012892E+00
        1   -1    0    0  501    0  0.00000000000E+00  0.00000000000E+00  0.17889851612E+03  0.17889851620E+03  0.50400001928E-02 0. -1.
       -1   -1    0    0    0  501  0.00000000000E+00  0.00000000000E+00 -0.35414642916E+03  0.35414642919E+03  0.50400001928E-02 0.  1.
    10030    2    1    2    0    0  0.00000000000E+00  0.00000000000E+00 -0.17524791303E+03  0.53304494539E+03  0.50341343127E+03 0.  0.
        3    1    3    3  502    0 -0.81820559583E+02  0.19207189565E+03 -0.23650617879E+03  0.31547012517E+03  0.10100000352E+00 0.  1.
       -3    1    3    3    0  502  0.81820559583E+02 -0.19207189565E+03  0.61258265752E+02  0.21757482022E+03  0.10100000352E+00 0. -1.
</event>
<event>
 5   0  0.2466034E-01  0.4964255E+03  0.7818609E-02  0.1014716E+00
       -2   -1    0    0    0  501  0.00000000000E+00  0.00000000000E+00  0.41962824176E+03  0.41962824177E+03  0.25500000920E-02 0. -1.
        2   -1    0    0  501    0  0.00000000000E+00  0.00000000000E+00 -0.14681940208E+03  0.14681940210E+03  0.25500000920E-02 0.  1.
    10030    2    1    2    0    0  0.00000000000E+00  0.00000000000E+00  0.27280883968E+03  0.56644764387E+03  0.49642549314E+03 0.  0.
        3    1    3    3  502    0  0.19485552153E+03 -0.20474441968E+02  0.31028557622E+03  0.36696733650E+03  0.10100000352E+00 0. -1.
       -3    1    3    3    0  502 -0.19485552153E+03  0.20474441968E+02 -0.37476736539E+02  0.19948030737E+03  0.10100000352E+00 0.  1.
</event>
<event>
 5   0  0.2488968E-01  0.5013858E+03  0.7818609E-02  0.1013418E+00
        2   -1    0    0  501    0  0.00000000000E+00  0.00000000000E+00  0.20048754719E+03  0.20048754720E+03  0.25500000920E-02 0. -1.
       -2   -1    0    0    0  501  0.00000000000E+00  0.00000000000E+00 -0.31347046299E+03  0.31347046300E+03  0.25500000920E-02 0.  1.
    10030    2    1    2    0    0  0.00000000000E+00  0.00000000000E+00 -0.11298291580E+03  0.51395801020E+03  0.50138577661E+03 0.  0.
        2    1    3    3  502    0  0.81323415542E+02 -0.21638992712E+03 -0.15592280940E+03  0.27883690748E+03  0.25500000920E-02 0.  1.
       -2    1    3    3    0  502 -0.81323415542E+02  0.21638992712E+03  0.42939893601E+02  0.23512110272E+03  0.25500000920E-02 0. -1.
</event>
<event>
 5   0  0.1453602E-01  0.5036783E+03  0.7818609E-02  0.1012823E+00
        1   -1    0    0  501    0  0.00000000000E+00  0.00000000000E+00  0.23021537715E+03  0.23021537720E+03  0.50400001928E-02 0.  1.
       -1   -1    0    0    0  501  0.00000000000E+00  0.00000000000E+00 -0.27549398861E+03  0.27549398866E+03  0.50400001928E-02 0. -1.
    10030    2    1    2    0    0  0.00000000000E+00  0.00000000000E+00 -0.45278611465E+02  0.50570936586E+03  0.50367828031E+03 0.  0.
        2    1    3    3  502    0  0.72850560770E+02  0.18637130348E+02 -0.26395910995E+03  0.27446121504E+03  0.25500000920E-02 0. -1.
       -2    1    3    3    0  502 -0.72850560770E+02 -0.18637130348E+02  0.21868049848E+03  0.23124815081E+03  0.25500000920E-02 0.  1.
</event>
<event>
 5   0  0.2511944E-01  0.5061253E+03  0.7818609E-02  0.1012192E+00
       -2   -1    0    0    0  501  0.00000000000E+00  0.00000000000E+00  0.31355610685E+02  0.31355610788E+02  0.25500000920E-02 0.  1.
        2   -1    0    0  501    0  0.00000000000E+00  0.00000000000E+00 -0.20424005663E+04  0.20424005663E+04  0.25500000920E-02 0. -1.
    10030    2    1    2    0    0  0.00000000000E+00  0.00000000000E+00 -0.20110449556E+04  0.20737561771E+04  0.50612534861E+03 0.  0.
        1    1    3    3  502    0 -0.17513159232E+03  0.55000040265E+02 -0.29178157723E+03  0.34472100008E+03  0.50400001928E-02 0.  1.
       -1    1    3    3    0  502  0.17513159232E+03 -0.55000040265E+02 -0.17192633784E+04  0.17290351770E+04  0.50400001928E-02 0. -1.
</event>
<event>
 5   0  0.9868500E-02  0.4996330E+03  0.7818609E-02  0.1013875E+00
       -4   -1    0    0    0  501  0.00000000000E+00  0.00000000000E+00  0.61352809319E+03  0.61352940763E+03  0.12699999809E+01 0. -1.
        4   -1    0    0  501    0  0.00000000000E+00  0.00000000000E+00 -0.10171493442E+03  0.10172286264E+03  0.12699999809E+01 0.  1.
    10030    2    1    2    0    0  0.00000000000E+00  0.00000000000E+00  0.51181315877E+03  0.71525227028E+03  0.49963296594E+03 0.  0.
        2    1    3    3  502    0  0.16479978017E+03  0.15694382381E+03  0.10839423331E+03  0.25207070674E+03  0.25500000920E-02 0. -1.
       -2    1    3    3    0  502 -0.16479978017E+03 -0.15694382381E+03  0.40341892546E+03  0.46318156354E+03  0.25500000920E-02 0.  1.
</event>
<event>
 5   0  0.1439814E-01  0.5027970E+03  0.7818609E-02  0.1013051E+00
       -1   -1    0    0    0  501  0.00000000000E+00  0.00000000000E+00  0.14171912832E+03  0.14171912841E+03  0.50400001928E-02 0. -1.
        1   -1    0    0  501    0  0.00000000000E+00  0.00000000000E+00 -0.44596106167E+03  0.44596106170E+03  0.50400001928E-02 0.  1.
    10030    2    1    2    0    0  0.00000000000E+00  0.00000000000E+00 -0.30424193336E+03  0.58768019011E+03  0.50279702846E+03 0.  0.
        4    1    3    3  502    0 -0.13913645250E+03  0.17578722711E+03 -0.19165233199E+02  0.22500893470E+03  0.12699999809E+01 0. -1.
       -4    1    3    3    0  502  0.13913645250E+03 -0.17578722711E+03 -0.28507670016E+03  0.36267125541E+03  0.12699999809E+01 0.  1.
</event>
<event>
 5   0  0.2511944E-01  0.4988088E+03  0.7818609E-02  0.1014090E+00
        2   -1    0    0  501    0  0.00000000000E+00  0.00000000000E+00  0.13084646540E+04  0.13084646540E+04  0.25500000920E-02 0. -1.
       -2   -1    0    0    0  501  0.00000000000E+00  0.00000000000E+00 -0.47538579641E+02  0.47538579709E+02  0.25500000920E-02 0.  1.
    10030    2    1    2    0    0  0.00000000000E+00  0.00000000000E+00  0.12609260744E+04  0.13560032337E+04  0.49880878585E+03 0.  0.
        1    1    3    3  502    0 -0.16319715021E+03 -0.11402927205E+03  0.22208782456E+03  0.29825993121E+03  0.50400001928E-02 0.  1.
       -1    1    3    3    0  502  0.16319715021E+03  0.11402927205E+03  0.10388382498E+04  0.10577433025E+04  0.50400001928E-02 0. -1.
</event>
<event>
 5   0  0.1529146E-01  0.5102659E+03  0.7818609E-02  0.1011134E+00
       -1   -1    0    0    0  501  0.00000000000E+00  0.00000000000E+00  0.15324046429E+03  0.15324046438E+03  0.50400001928E-02 0. -1.
        1   -1    0    0  501    0  0.00000000000E+00  0.00000000000E+00 -0.42477573624E+03  0.42477573627E+03  0.50400001928E-02 0.  1.
    10030    2    1    2    0    0  0.00000000000E+00  0.00000000000E+00 -0.27153527195E+03  0.57801620065E+03  0.51026593488E+03 0.  0.
        1    1    3    3  502    0  0.16025156541E+03  0.10466989437E+03 -0.32685590407E+03  0.37877583484E+03  0.50400001928E-02 0.  1.
       -1    1    3    3    0  502 -0.16025156541E+03 -0.10466989437E+03  0.55320632124E+02  0.19924036581E+03  0.50400001928E-02 0. -1.
</event>
<event>
 5   0  0.2511944E-01  0.4848077E+03  0.7818609E-02  0.1017822E+00
       -2   -1    0    0    0  501  0.00000000000E+00  0.00000000000E+00  0.30827709280E+03  0.30827709281E+03  0.25500000920E-02 0. -1.
        2   -1    0    0  501    0  0.00000000000E+00  0.00000000000E+00 -0.19060656676E+03  0.19060656678E+03  0.25500000920E-02 0.  1.
    10030    2    1    2    0    0  0.00000000000E+00  0.00000000000E+00  0.11767052603E+03  0.49888365959E+03  0.48480774860E+03 0.  0.
        1    1    3    3  502    0  0.14886546104E+03  0.18225503954E+02 -0.13713167702E+03  0.20321956439E+03  0.50400001928E-02 0.  1.
       -1    1    3    3    0  502 -0.14886546104E+03 -0.18225503954E+02  0.25480220305E+03  0.29566409520E+03  0.50400001928E-02 0. -1.
</event>
<event>
 5   0  0.9868500E-02  0.5019867E+03  0.7818609E-02  0.1013262E+00
        3   -1    0    0  501    0  0.00000000000E+00  0.00000000000E+00  0.80162021414E+02  0.80162085041E+02  0.10100000352E+00 0. -1.
       -3   -1    0    0    0  501  0.00000000000E+00  0.00000000000E+00 -0.78587867594E+03  0.78587868243E+03  0.10100000352E+00 0.  1.
    10030    2    1    2    0    0  0.00000000000E+00  0.00000000000E+00 -0.70571665453E+03  0.86604076747E+03  0.50198666760E+03 0.  0.
        5    1    3    3  502    0  0.23697655179E+02 -0.97133309695E+02  0.44240369443E+02  0.10943381105E+03  0.46999998093E+01 0. -1.
       -5    1    3    3    0  502 -0.23697655179E+02  0.97133309695E+02 -0.74995702397E+03  0.75660695643E+03  0.46999998093E+01 0.  1.
</event>
<event>
 5   0  0.1453602E-01  0.5004181E+03  0.7818609E-02  0.1013670E+00
       -1   -1    0    0    0  501  0.00000000000E+00  0.00000000000E+00  0.75825883178E+02  0.75825883345E+02  0.50400001928E-02 0.  1.
        1   -1    0    0  501    0  0.00000000000E+00  0.00000000000E+00 -0.82563585226E+03  0.82563585227E+03  0.50400001928E-02 0. -1.
    10030    2    1    2    0    0  0.00000000000E+00  0.00000000000E+00 -0.74980996908E+03  0.90146173562E+03  0.50041809625E+03 0.  0.
        2    1    3    3  502    0 -0.16765044999E+03 -0.12623765010E+03 -0.62033410479E+03  0.65487175787E+03  0.25500000920E-02 0. -1.
       -2    1    3    3    0  502  0.16765044999E+03  0.12623765010E+03 -0.12947586429E+03  0.24658997774E+03  0.25500000920E-02 0.  1.
</event>
<event>
 5   0  0.2488968E-01  0.4900307E+03  0.7818609E-02  0.1016414E+00
        2   -1    0    0  501    0  0.00000000000E+00  0.00000000000E+00  0.15674256176E+04  0.15674256176E+04  0.25500000920E-02 0. -1.
       -2   -1    0    0    0  501  0.00000000000E+00  0.00000000000E+00 -0.38300078462E+02  0.38300078547E+02  0.25500000920E-02 0.  1.
    10030    2    1    2    0    0  0.00000000000E+00  0.00000000000E+00  0.15291255391E+04  0.16057256961E+04  0.49003071008E+03 0.  0.
        2    1    3    3  502    0 -0.72415398462E+02  0.91876269437E+02  0.14700029789E+04  0.14746504660E+04  0.25500000920E-02 0. -1.
       -2    1    3    3    0  502  0.72415398462E+02 -0.91876269437E+02  0.59122560172E+02  0.13107523011E+03  0.25500000920E-02 0.  1.
</event>
<event>
 5   0  0.2488968E-01  0.4654342E+03  0.7818609E-02  0.1023217E+00
        2   -1    0    0  501    0  0.00000000000E+00  0.00000000000E+00  0.17154957658E+04  0.17154957658E+04  0.25500000920E-02 0.  1.
       -2   -1    0    0    0  501  0.00000000000E+00  0.00000000000E+00 -0.31569438485E+02  0.31569438588E+02  0.25500000920E-02 0. -1.
    10030    2    1    2    0    0  0.00000000000E+00  0.00000000000E+00  0.16839263273E+04  0.17470652044E+04  0.46543415491E+03 0.  0.
        2    1    3    3  502    0  0.15872976823E+02 -0.57242258052E+02 -0.26325420779E+01  0.59460556543E+02  0.25500000920E-02 0. -1.
       -2    1    3    3    0  502 -0.15872976823E+02  0.57242258052E+02  0.16865588694E+04  0.16876046478E+04  0.25500000920E-02 0.  1.
</event>
<event>
 5   0  0.1439814E-01  0.4953435E+03  0.7818609E-02  0.1015002E+00
        1   -1    0    0  501    0  0.00000000000E+00  0.00000000000E+00  0.26364372635E+03  0.26364372640E+03  0.50400001928E-02 0. -1.
       -1   -1    0    0    0  501  0.00000000000E+00  0.00000000000E+00 -0.23266733916E+03  0.23266733921E+03  0.50400001928E-02 0.  1.
    10030    2    1    2    0    0  0.00000000000E+00  0.00000000000E+00  0.30976387191E+02  0.49631106561E+03  0.49534345386E+03 0.  0.
        4    1    3    3  502    0 -0.96257625878E+02 -0.85671278359E+02 -0.19643045610E+03  0.23492900089E+03  0.12699999809E+01 0.  1.
       -4    1    3    3    0  502  0.96257625878E+02  0.85671278359E+02  0.22740684330E+03  0.26138206471E+03  0.12699999809E+01 0. -1.
</event>
<event>
 5   0  0.1448458E-01  0.4809525E+03  0.7818609E-02  0.1018874E+00
        1   -1    0    0  501    0  0.00000000000E+00  0.00000000000E+00  0.75950957541E+03  0.75950957542E+03  0.50400001928E-02 0. -1.
       -1   -1    0    0    0  501  0.00000000000E+00  0.00000000000E+00 -0.76139681420E+02  0.76139681586E+02  0.50400001928E-02 0.  1.
    10030    2    1    2    0    0  0.00000000000E+00  0.00000000000E+00  0.68336989399E+03  0.83564925701E+03  0.48095245995E+03 0.  0.
        5    1    3    3  502    0 -0.22042186996E+03  0.89308454646E+02  0.28038025543E+03  0.36769141745E+03  0.46999998093E+01 0.  1.
       -5    1    3    3    0  502  0.22042186996E+03 -0.89308454646E+02  0.40298963855E+03  0.46795783956E+03  0.46999998093E+01 0. -1.
</event>
<event>
 5   0  0.9868500E-02  0.5005812E+03  0.7818609E-02  0.1013627E+00
       -4   -1    0    0    0  501  0.00000000000E+00  0.00000000000E+00  0.46412444989E+03  0.46412618746E+03  0.12699999809E+01 0. -1.
        4   -1    0    0  501    0  0.00000000000E+00  0.00000000000E+00 -0.13497042313E+03  0.13497639801E+03  0.12699999809E+01 0.  1.
    10030    2    1    2    0    0  0.00000000000E+00  0.00000000000E+00  0.32915402677E+03  0.59910258547E+03  0.50058119679E+03 0.  0.
        3    1    3    3  502    0 -0.66874273243E+01  0.10521579365E+03 -0.10710316181E+03  0.15028700006E+03  0.10100000352E+00 0.  1.
       -3    1    3    3    0  502  0.66874273243E+01 -0.10521579365E+03  0.43625718858E+03  0.44881558541E+03  0.10100000352E+00 0. -1.
</event>
<event>
 5   0  0.2466034E-01  0.4991760E+03  0.7818609E-02  0.1013994E+00
       -2   -1    0    0    0  501  0.00000000000E+00  0.00000000000E+00  0.19282335504E+03  0.19282335506E+03  0.25500000920E-02 0.  1.
        2   -1    0    0  501    0  0.00000000000E+00  0.00000000000E+00 -0.32306346956E+03  0.32306346957E+03  0.25500000920E-02 0. -1.
    10030    2    1    2    0    0  0.00000000000E+00  0.00000000000E+00 -0.13024011452E+03  0.51588682463E+03  0.49917604950E+03 0.  0.
        3    1    3    3  502    0 -0.10914825824E+03 -0.12891838941E+02  0.16646782466E+03  0.19947703786E+03  0.10100000352E+00 0.  1.
       -3    1    3    3    0  502  0.10914825824E+03  0.12891838941E+02 -0.29670793918E+03  0.31640978676E+03  0.10100000352E+00 0. -1.
</event>
<event>
 5   0  0.9868500E-02  0.4975812E+03  0.7818609E-02  0.1014412E+00
        4   -1    0    0  501    0  0.00000000000E+00  0.00000000000E+00  0.20162730643E+03  0.20163130610E+03  0.12699999809E+01 0. -1.
       -4   -1    0    0    0  501  0.00000000000E+00  0.00000000000E+00 -0.30697765856E+03  0.30698028561E+03  0.12699999809E+01 0.  1.
    10030    2    1    2    0    0  0.00000000000E+00  0.00000000000E+00 -0.10535035213E+03  0.50861159171E+03  0.49758120395E+03 0.  0.
        5    1    3    3  502    0 -0.21217535152E+03  0.12513540437E+03 -0.17304257278E+02  0.24697930387E+03  0.46999998093E+01 0. -1.
       -5    1    3    3    0  502  0.21217535152E+03 -0.12513540437E+03 -0.88046094853E+02  0.26163228784E+03  0.46999998093E+01 0.  1.
</event>
<event>
 5   0  0.1529146E-01  0.4907079E+03  0.7818609E-02  0.1016233E+00
        1   -1    0    0  501    0  0.00000000000E+00  0.00000000000E+00  0.31101594028E+03  0.31101594033E+03  0.50400001928E-02 0.  1.
       -1   -1    0    0    0  501  0.00000000000E+00  0.00000000000E+00 -0.19355457853E+03  0.19355457860E+03  0.50400001928E-02 0. -1.
    10030    2    1    2    0    0  0.00000000000E+00  0.00000000000E+00  0.11746136175E+03  0.50457051892E+03  0.49070789382E+03 0.  0.
        1    1    3    3  502    0  0.24612534593E+02 -0.90457529755E+02  0.29187430816E+03  0.30655986909E+03  0.50400001928E-02 0.  1.
       -1    1    3    3    0  502 -0.24612534593E+02  0.90457529755E+02 -0.17441294640E+03  0.19801064983E+03  0.50400001928E-02 0. -1.
</event>
<event>
 5   0  0.2511944E-01  0.4969097E+03  0.7818609E-02  0.1014589E+00
       -2   -1    0    0    0  501  0.00000000000E+00  0.00000000000E+00  0.94306783685E+02  0.94306783720E+02  0.25500000920E-02 0.  1.
        2   -1    0    0  501    0  0.00000000000E+00  0.00000000000E+00 -0.65456392640E+03  0.65456392641E+03  0.25500000920E-02 0. -1.
    10030    2    1    2    0    0  0.00000000000E+00  0.00000000000E+00 -0.56025714272E+03  0.74887071013E+03  0.49690972472E+03 0.  0.
        1    1    3    3  502    0 -0.17155072003E+03 -0.16696855206E+03 -0.38034123246E+03  0.44940805517E+03  0.50400001928E-02 0.  1.
       -1    1    3    3    0  502  0.17155072003E+03  0.16696855206E+03 -0.17991591026E+03  0.29946265495E+03  0.50400001928E-02 0. -1.
</event>
<event>
 5   0  0.1448458E-01  0.4997304E+03  0.7818609E-02  0.1013849E+00
        1   -1    0    0  501    0  0.00000000000E+00  0.00000000000E+00  0.35081850917E+03  0.35081850920E+03  0.50400001928E-02 0.  1.
       -1   -1    0    0    0  501  0.00000000000E+00  0.00000000000E+00 -0.17796273561E+03  0.17796273568E+03  0.50400001928E-02 0. -1.
    10030    2    1    2    0    0  0.00000000000E+00  0.00000000000E+00  0.17285577356E+03  0.52878124488E+03  0.49973041381E+03 0.  0.
        5    1    3    3  502    0 -0.50830528156E+02  0.14824725879E+03 -0.11943144568E+03  0.19709630272E+03  0.46999998093E+01 0. -1.
       -5    1    3    3    0  502  0.50830528156E+02 -0.14824725879E+03  0.29228721923E+03  0.33168494216E+03  0.46999998093E+01 0.  1.
</event>
<event>
 5   0  0.1448458E-01  0.4951778E+03  0.7818609E-02  0.1015045E+00
       -1   -1    0    0    0  501  0.00000000000E+00  0.00000000000E+00  0.17151931562E+03  0.17151931569E+03  0.50400001928E-02 0. -1.
        1   -1    0    0  501    0  0.00000000000E+00  0.00000000000E+00 -0.35739571102E+03  0.35739571105E+03  0.50400001928E-02 0.  1.
    10030    2    1    2    0    0  0.00000000000E+00  0.00000000000E+00 -0.18587639540E+03  0.52891502674E+03  0.49517781770E+03 0.  0.
        5    1    3    3  502    0  0.54201031954E+02  0.10799098671E+03  0.13783351747E+03  0.18335750220E+03  0.46999998093E+01 0. -1.
       -5    1    3    3    0  502 -0.54201031954E+02 -0.10799098671E+03 -0.32370991288E+03  0.34555752454E+03  0.46999998093E+01 0.  1.
</event>
<event>
 5   0  0.2488968E-01  0.5123470E+03  0.7818609E-02  0.1010605E+00
        2   -1    0    0  501    0  0.00000000000E+00  0.00000000000E+00  0.17305394397E+03  0.17305394399E+03  0.25500000920E-02 0. -1.
       -2   -1    0    0    0  501  0.00000000000E+00  0.00000000000E+00 -0.37921627547E+03  0.37921627548E+03  0.25500000920E-02 0.  1.
    10030    2    1    2    0    0  0.00000000000E+00  0.00000000000E+00 -0.20616233150E+03  0.55227021947E+03  0.51234703901E+03 0.  0.
        2    1    3    3  502    0 -0.63596138385E+02  0.18306972044E+03  0.77501779529E+02  0.20872354251E+03  0.25500000920E-02 0. -1.
       -2    1    3    3    0  502  0.63596138385E+02 -0.18306972044E+03 -0.28366411103E+03  0.34354667696E+03  0.25500000920E-02 0.  1.
</event>
<event>
 5   0  0.2488968E-01  0.5005828E+03  0.7818609E-02  0.1013627E+00
        2   -1    0    0  501    0  0.00000000000E+00  0.00000000000E+00  0.12175832725E+04  0.12175832725E+04  0.25500000920E-02 0. -1.
       -2   -1    0    0    0  501  0.00000000000E+00  0.00000000000E+00 -0.51450929085E+02  0.51450929148E+02  0.25500000920E-02 0.  1.
    10030    2    1    2    0    0  0.00000000000E+00  0.00000000000E+00  0.11661323434E+04  0.12690342016E+04  0.50058282291E+03 0.  0.
        2    1    3    3  502    0 -0.70196156795E+02  0.96069492073E+01 -0.25498320389E+02  0.75299125168E+02  0.25500000920E-02 0.  1.
       -2    1    3    3    0  502  0.70196156795E+02 -0.96069492073E+01  0.11916306638E+04  0.11937350764E+04  0.25500000920E-02 0. -1.
</event>
<event>
 5   0  0.1529146E-01  0.5018309E+03  0.7818609E-02  0.1013302E+00
        1   -1    0    0  501    0  0.00000000000E+00  0.00000000000E+00  0.12022737093E+04  0.12022737093E+04  0.50400001928E-02 0.  1.
       -1   -1    0    0    0  501  0.00000000000E+00  0.00000000000E+00 -0.52366255571E+02  0.52366255813E+02  0.50400001928E-02 0. -1.
    10030    2    1    2    0    0  0.00000000000E+00  0.00000000000E+00  0.11499074537E+04  0.12546399651E+04  0.50183093760E+03 0.  0.
        1    1    3    3  502    0 -0.22526802707E+03 -0.77972609900E+02  0.37915771017E+03  0.44786826313E+03  0.50400001928E-02 0. -1.
       -1    1    3    3    0  502  0.22526802707E+03  0.77972609900E+02  0.77074974352E+03  0.80677170195E+03  0.50400001928E-02 0.  1.
</event>
<event>
 5   0  0.2504064E-01  0.4193112E+03  0.7818609E-02  0.1037291E+00
       -2   -1    0    0    0  501  0.00000000000E+00  0.00000000000E+00  0.27519790015E+02  0.27519790133E+02  0.25500000920E-02 0.  1.
        2   -1    0    0  501    0  0.00000000000E+00  0.00000000000E+00 -0.15972313631E+04  0.15972313631E+04  0.25500000920E-02 0. -1.
    10030    2    1    2    0    0  0.00000000000E+00  0.00000000000E+00 -0.15697115731E+04  0.16247511533E+04  0.41931120575E+03 0.  0.
        5    1    3    3  502    0  0.16438391751E+03 -0.22356897132E+01 -0.12886751030E+04  0.12991276618E+04  0.46999998093E+01 0.  1.
       -5    1    3    3    0  502 -0.16438391751E+03  0.22356897132E+01 -0.28103647016E+03  0.32562349147E+03  0.46999998093E+01 0. -1.
</event>
<event>
 5   0  0.1439814E-01  0.4932364E+03  0.7818609E-02  0.1015560E+00
        1   -1    0    0  501    0  0.00000000000E+00  0.00000000000E+00  0.13000099149E+04  0.13000099149E+04  0.50400001928E-02 0.  1.
       -1   -1    0    0    0  501  0.00000000000E+00  0.00000000000E+00 -0.46784664032E+02  0.46784664304E+02  0.50400001928E-02 0. -1.
    10030    2    1    2    0    0  0.00000000000E+00  0.00000000000E+00  0.12532252508E+04  0.13467945792E+04  0.49323636238E+03 0.  0.
        4    1    3    3  502    0  0.20827113658E+02 -0.13576426541E+03  0.67333163427E+02  0.15297409004E+03  0.12699999809E+01 0. -1.
       -4    1    3    3    0  502 -0.20827113658E+02  0.13576426541E+03  0.11858920874E+04  0.11938204891E+04  0.12699999809E+01 0.  1.
</event>
<event>
 5   0  0.2488968E-01  0.4929089E+03  0.7818609E-02  0.1015647E+00
       -2   -1    0    0    0  501  0.00000000000E+00  0.00000000000E+00  0.65193003750E+02  0.65193003799E+02  0.25500000920E-02 0. -1.
        2   -1    0    0  501    0  0.00000000000E+00  0.00000000000E+00 -0.93169211017E+03  0.93169211017E+03  0.25500000920E-02 0.  1.
    10030    2    1    2    0    0  0.00000000000E+00  0.00000000000E+00 -0.86649910642E+03  0.99688511397E+03  0.49290894599E+03 0.  0.
        2    1    3    3  502    0  0.65707048903E+02 -0.17900790150E+03 -0.11747112811E+03  0.22396587021E+03  0.25500000920E-02 0. -1.
       -2    1    3    3    0  502 -0.65707048903E+02  0.17900790150E+03 -0.74902797831E+03  0.77291924376E+03  0.25500000920E-02 0.  1.
</event>
<event>
 5   0  0.1413361E-01  0.4924974E+03  0.7818609E-02  0.1015756E+00
       -1   -1    0    0    0  501  0.00000000000E+00  0.00000000000E+00  0.32258418890E+03  0.32258418894E+03  0.50400001928E-02 0. -1.
        1   -1    0    0  501    0  0.00000000000E+00  0.00000000000E+00 -0.18797704778E+03  0.18797704784E+03  0.50400001928E-02 0.  1.
    10030    2    1    2    0    0  0.00000000000E+00  0.00000000000E+00  0.13460714112E+03  0.51056123678E+03  0.49249740513E+03 0.  0.
        3    1    3    3  502    0 -0.20990045044E+03  0.11141465199E+03  0.13422344194E+03  0.27292373722E+03  0.10100000352E+00 0. -1.
       -3    1    3    3    0  502  0.20990045044E+03 -0.11141465199E+03  0.38369918644E+00  0.23763749956E+03  0.10100000352E+00 0.  1.
</event>
<event>
 5   0  0.1448458E-01  0.6101929E+03  0.7818609E-02  0.9884482E-01
        1   -1    0    0  501    0  0.00000000000E+00  0.00000000000E+00  0.12046066391E+04  0.12046066391E+04  0.50400001928E-02 0.  1.
       -1   -1    0    0    0  501  0.00000000000E+00  0.00000000000E+00 -0.77273225928E+02  0.77273226093E+02  0.50400001928E-02 0. -1.
    10030    2    1    2    0    0  0.00000000000E+00  0.00000000000E+00  0.11273334132E+04  0.12818798652E+04  0.61019289111E+03 0.  0.
        5    1    3    3  502    0  0.27891985451E+03 -0.13792763335E+02  0.82160278421E+03  0.86777862995E+03  0.46999998093E+01 0.  1.
       -5    1    3    3    0  502 -0.27891985451E+03  0.13792763335E+02  0.30573062897E+03  0.41410123527E+03  0.46999998093E+01 0. -1.
</event>
<event>
 5   0  0.9868500E-02  0.4939185E+03  0.7818609E-02  0.1015379E+00
       -4   -1    0    0    0  501  0.00000000000E+00  0.00000000000E+00  0.31506330386E+03  0.31506586350E+03  0.12699999809E+01 0.  1.
        4   -1    0    0  501    0  0.00000000000E+00  0.00000000000E+00 -0.19357114176E+03  0.19357530788E+03  0.12699999809E+01 0. -1.
    10030    2    1    2    0    0  0.00000000000E+00  0.00000000000E+00  0.12149216211E+03  0.50864117137E+03  0.49391851126E+03 0.  0.
        5    1    3    3  502    0  0.95794287502E+02  0.93518454106E+02  0.27440214768E+03  0.30535368907E+03  0.46999998093E+01 0.  1.
       -5    1    3    3    0  502 -0.95794287502E+02 -0.93518454106E+02 -0.15290998558E+03  0.20328748231E+03  0.46999998093E+01 0. -1.
</event>
<event>
 5   0  0.1448458E-01  0.4898418E+03  0.7818609E-02  0.1016465E+00
       -1   -1    0    0    0  501  0.00000000000E+00  0.00000000000E+00  0.10132123533E+03  0.10132123545E+03  0.50400001928E-02 0. -1.
        1   -1    0    0  501    0  0.00000000000E+00  0.00000000000E+00 -0.59204032431E+03  0.59204032434E+03  0.50400001928E-02 0.  1.
    10030    2    1    2    0    0  0.00000000000E+00  0.00000000000E+00 -0.49071908899E+03  0.69336155979E+03  0.48984184008E+03 0.  0.
        5    1    3    3  502    0  0.99323835091E+02  0.17780907506E+03 -0.52922510778E+02  0.21048556610E+03  0.46999998093E+01 0. -1.
       -5    1    3    3    0  502 -0.99323835091E+02 -0.17780907506E+03 -0.43779657821E+03  0.48287599369E+03  0.46999998093E+01 0.  1.
</event>
<event>
 5   0  0.2488968E-01  0.4905394E+03  0.7818609E-02  0.1016278E+00
       -2   -1    0    0    0  501  0.00000000000E+00  0.00000000000E+00  0.30300891218E+03  0.30300891219E+03  0.25500000920E-02 0. -1.
        2   -1    0    0  501    0  0.00000000000E+00  0.00000000000E+00 -0.19853284877E+03  0.19853284879E+03  0.25500000920E-02 0.  1.
    10030    2    1    2    0    0  0.00000000000E+00  0.00000000000E+00  0.10447606341E+03  0.50154176098E+03  0.49053938698E+03 0.  0.
        2    1    3    3  502    0 -0.16655163107E+03  0.53631697163E+02  0.22796923540E+03  0.28737741221E+03  0.25500000920E-02 0. -1.
       -2    1    3    3    0  502  0.16655163107E+03 -0.53631697163E+02 -0.12349317199E+03  0.21416434877E+03  0.25500000920E-02 0.  1.
</event>
<event>
 5   0  0.2488968E-01  0.5022688E+03  0.7818609E-02  0.1013188E+00
       -2   -1    0    0    0  501  0.00000000000E+00  0.00000000000E+00  0.11767968960E+03  0.11767968963E+03  0.25500000920E-02 0.  1.
        2   -1    0    0  501    0  0.00000000000E+00  0.00000000000E+00 -0.53593356650E+03  0.53593356651E+03  0.25500000920E-02 0. -1.
    10030    2    1    2    0    0  0.00000000000E+00  0.00000000000E+00 -0.41825387690E+03  0.65361325614E+03  0.50226883544E+03 0.  0.
        2    1    3    3  502    0 -0.11104268063E+03  0.15561256627E+02  0.83296737725E+02  0.13968169584E+03  0.25500000920E-02 0.  1.
       -2    1    3    3    0  502  0.11104268063E+03 -0.15561256627E+02 -0.50155061463E+03  0.51393156030E+03  0.25500000920E-02 0. -1.
</event>
<event>
 5   0  0.1453602E-01  0.5033602E+03  0.7818609E-02  0.1012906E+00
       -1   -1    0    0    0  501  0.00000000000E+00  0.00000000000E+00  0.55238297227E+03  0.55238297230E+03  0.50400001928E-02 0. -1.
        1   -1    0    0  501    0  0.00000000000E+00  0.00000000000E+00 -0.11467203616E+03  0.11467203627E+03  0.50400001928E-02 0.  1.
    10030    2    1    2    0    0  0.00000000000E+00  0.00000000000E+00  0.43771093612E+03  0.66705500856E+03  0.50336022971E+03 0.  0.
        2    1    3    3  502    0 -0.19624508469E+02  0.13980949503E+03  0.49496599537E+03  0.51470686105E+03  0.25500000920E-02 0. -1.
       -2    1    3    3    0  502  0.19624508469E+02 -0.13980949503E+03 -0.57255059251E+02  0.15234814751E+03  0.25500000920E-02 0.  1.
</event>
<event>
 5   0  0.2413301E-01  0.5276989E+03  0.7818609E-02  0.1006792E+00
       -2   -1    0    0    0  501  0.00000000000E+00  0.00000000000E+00  0.37244624111E+02  0.37244624198E+02  0.25500000920E-02 0. -1.
        2   -1    0    0  501    0  0.00000000000E+00  0.00000000000E+00 -0.18691701204E+04  0.18691701204E+04  0.25500000920E-02 0.  1.
    10030    2    1    2    0    0  0.00000000000E+00  0.00000000000E+00 -0.18319254962E+04  0.19064147446E+04  0.52769892407E+03 0.  0.
        4    1    3    3  502    0  0.32672730016E+02  0.25270697691E+03 -0.11632833120E+04  0.11908643921E+04  0.12699999809E+01 0.  1.
       -4    1    3    3    0  502 -0.32672730016E+02 -0.25270697691E+03 -0.66864218421E+03  0.71555035244E+03  0.12699999809E+01 0. -1.
</event>
<event>
 5   0  0.1448458E-01  0.5042076E+03  0.7818609E-02  0.1012686E+00
       -1   -1    0    0    0  501  0.00000000000E+00  0.00000000000E+00  0.13251661217E+03  0.13251661227E+03  0.50400001928E-02 0.  1.
        1   -1    0    0  501    0  0.00000000000E+00  0.00000000000E+00 -0.47961028224E+03  0.47961028227E+03  0.50400001928E-02 0. -1.
    10030    2    1    2    0    0  0.00000000000E+00  0.00000000000E+00 -0.34709367007E+03  0.61212689454E+03  0.50420761519E+03 0.  0.
        5    1    3    3  502    0 -0.19320852581E+02 -0.64024304602E+01  0.13146408979E+03  0.13311342293E+03  0.46999998093E+01 0.  1.
       -5    1    3    3    0  502  0.19320852581E+02  0.64024304602E+01 -0.47855775986E+03  0.47901347161E+03  0.46999998093E+01 0. -1.
</event>
<event>
 5   0  0.1448458E-01  0.5007181E+03  0.7818609E-02  0.1013592E+00
       -1   -1    0    0    0  501  0.00000000000E+00  0.00000000000E+00  0.23311611659E+03  0.23311611665E+03  0.50400001928E-02 0. -1.
        1   -1    0    0  501    0  0.00000000000E+00  0.00000000000E+00 -0.26887740159E+03  0.26887740164E+03  0.50400001928E-02 0.  1.
    10030    2    1    2    0    0  0.00000000000E+00  0.00000000000E+00 -0.35761284998E+02  0.50199351828E+03  0.50071810722E+03 0.  0.
        5    1    3    3  502    0  0.30130662109E+01  0.21345168964E+02  0.23213956728E+03  0.23318568459E+03  0.46999998093E+01 0. -1.
       -5    1    3    3    0  502 -0.30130662109E+01 -0.21345168964E+02 -0.26790085227E+03  0.26880783369E+03  0.46999998093E+01 0.  1.
</event>
<event>
 5   0  0.1413361E-01  0.5079367E+03  0.7818609E-02  0.1011728E+00
        1   -1    0    0  501    0  0.00000000000E+00  0.00000000000E+00  0.95158801528E+02  0.95158801662E+02  0.50400001928E-02 0.  1.
       -1   -1    0    0    0  501  0.00000000000E+00  0.00000000000E+00 -0.67781353074E+03  0.67781353076E+03  0.50400001928E-02 0. -1.
    10030    2    1    2    0    0  0.00000000000E+00  0.00000000000E+00 -0.58265472921E+03  0.77297233242E+03  0.50793670198E+03 0.  0.
        3    1    3    3  502    0  0.14535332527E+03  0.11497893284E+02 -0.60777205396E+03  0.62501733615E+03  0.10100000352E+00 0. -1.
       -3    1    3    3    0  502 -0.14535332527E+03 -0.11497893284E+02  0.25117324748E+02  0.14795499627E+03  0.10100000352E+00 0.  1.
</event>
<event>
 5   0  0.2488968E-01  0.4953272E+03  0.7818609E-02  0.1015006E+00
       -2   -1    0    0    0  501  0.00000000000E+00  0.00000000000E+00  0.11155603901E+03  0.11155603904E+03  0.25500000920E-02 0.  1.
        2   -1    0    0  501    0  0.00000000000E+00  0.00000000000E+00 -0.54983351887E+03  0.54983351888E+03  0.25500000920E-02 0. -1.
    10030    2    1    2    0    0  0.00000000000E+00  0.00000000000E+00 -0.43827747986E+03  0.66138955792E+03  0.49532716257E+03 0.  0.
        2    1    3    3  502    0 -0.22281051701E+03 -0.10801372460E+03 -0.22591552587E+03  0.33518549495E+03  0.25500000920E-02 0. -1.
       -2    1    3    3    0  502  0.22281051701E+03  0.10801372460E+03 -0.21236195399E+03  0.32620406297E+03  0.25500000920E-02 0.  1.
</event>
<event>
 5   0  0.1439814E-01  0.5027942E+03  0.7818609E-02  0.1013052E+00
       -1   -1    0    0    0  501  0.00000000000E+00  0.00000000000E+00  0.75228110219E+02  0.75228110388E+02  0.50400001928E-02 0.  1.
        1   -1    0    0  501    0  0.00000000000E+00  0.00000000000E+00 -0.84011831125E+03  0.84011831126E+03  0.50400001928E-02 0. -1.
    10030    2    1    2    0    0  0.00000000000E+00  0.00000000000E+00 -0.76489020103E+03  0.91534642165E+03  0.50279424420E+03 0.  0.
        4    1    3    3  502    0 -0.72959025324E+02 -0.22988568142E+03 -0.51154099771E+03  0.56554951254E+03  0.12699999809E+01 0. -1.
       -4    1    3    3    0  502  0.72959025324E+02  0.22988568142E+03 -0.25334920332E+03  0.34979690911E+03  0.12699999809E+01 0.  1.
</event>
<event>
 5   0  0.2488968E-01  0.5042197E+03  0.7818609E-02  0.1012683E+00
       -2   -1    0    0    0  501  0.00000000000E+00  0.00000000000E+00  0.55069672257E+02  0.55069672316E+02  0.25500000920E-02 0.  1.
        2   -1    0    0  501    0  0.00000000000E+00  0.00000000000E+00 -0.11541631136E+04  0.11541631136E+04  0.25500000920E-02 0. -1.
    10030    2    1    2    0    0  0.00000000000E+00  0.00000000000E+00 -0.10990934414E+04  0.12092327859E+04  0.50421973161E+03 0.  0.
        2    1    3    3  502    0  0.94118069488E+02 -0.14493844961E+03 -0.10933004831E+03  0.20449553700E+03  0.25500000920E-02 0.  1.
       -2    1    3    3    0  502 -0.94118069488E+02  0.14493844961E+03 -0.98976339306E+03  0.10047372490E+04  0.25500000920E-02 0. -1.
</event>
<event>
 5   0  0.2488968E-01  0.4932234E+03  0.7818609E-02  0.1015563E+00
       -2   -1    0    0    0  501  0.00000000000E+00  0.00000000000E+00  0.85066431391E+02  0.85066431430E+02  0.25500000920E-02 0.  1.
        2   -1    0    0  501    0  0.00000000000E+00  0.00000000000E+00 -0.71493938864E+03  0.71493938865E+03  0.25500000920E-02 0. -1.
    10030    2    1    2    0    0  0.00000000000E+00  0.00000000000E+00 -0.62987295725E+03  0.80000582008E+03  0.49322344823E+03 0.  0.
        2    1    3    3  502    0  0.97511548979E+02  0.15964050886E+03 -0.57558728370E+03  0.60522253380E+03  0.25500000920E-02 0. -1.
       -2    1    3    3    0  502 -0.97511548979E+02 -0.15964050886E+03 -0.54285673554E+02  0.19478328628E+03  0.25500000920E-02 0.  1.
</event>
<event>
 5   0  0.1413361E-01  0.4955599E+03  0.7818609E-02  0.1014944E+00
        1   -1    0    0  501    0  0.00000000000E+00  0.00000000000E+00  0.12083117317E+04  0.12083117318E+04  0.50400001928E-02 0.  1.
       -1   -1    0    0    0  501  0.00000000000E+00  0.00000000000E+00 -0.50810479343E+02  0.50810479593E+02  0.50400001928E-02 0. -1.
    10030    2    1    2    0    0  0.00000000000E+00  0.00000000000E+00  0.11575012524E+04  0.12591222114E+04  0.49555987913E+03 0.  0.
        3    1    3    3  502    0 -0.15549352322E+03 -0.61048440633E+02  0.10437235214E+04  0.10570070706E+04  0.10100000352E+00 0.  1.
       -3    1    3    3    0  502  0.15549352322E+03  0.61048440633E+02  0.11377773099E+03  0.20211514079E+03  0.10100000352E+00 0. -1.
</event>
<event>
 5   0  0.1529146E-01  0.4868520E+03  0.7818609E-02  0.1017269E+00
        1   -1    0    0  501    0  0.00000000000E+00  0.00000000000E+00  0.55210804486E+03  0.55210804488E+03  0.50400001928E-02 0.  1.
       -1   -1    0    0    0  501  0.00000000000E+00  0.00000000000E+00 -0.10732720024E+03  0.10732720036E+03  0.50400001928E-02 0. -1.
    10030    2    1    2    0    0  0.00000000000E+00  0.00000000000E+00  0.44478084461E+03  0.65943524524E+03  0.48685197230E+03 0.  0.
        1    1    3    3  502    0  0.19925637490E+03  0.31320806442E+02  0.40697945845E+03  0.45422062423E+03  0.50400001928E-02 0.  1.
       -1    1    3    3    0  502 -0.19925637490E+03 -0.31320806442E+02  0.37801386167E+02  0.20521462101E+03  0.50400001928E-02 0. -1.
</event>
<event>
 5   0  0.1413361E-01  0.5036367E+03  0.7818609E-02  0.1012834E+00
        1   -1    0    0  501    0  0.00000000000E+00  0.00000000000E+00  0.47133299173E+03  0.47133299176E+03  0.50400001928E-02 0. -1.
       -1   -1    0    0    0  501  0.00000000000E+00  0.00000000000E+00 -0.13453860005E+03  0.13453860015E+03  0.50400001928E-02 0.  1.
    10030    2    1    2    0    0  0.00000000000E+00  0.00000000000E+00  0.33679439168E+03  0.60587159191E+03  0.50363669804E+03 0.  0.
        3    1    3    3  502    0 -0.13041319340E+03 -0.18910514608E+03  0.29251039454E+03  0.37192835116E+03  0.10100000352E+00 0. -1.
       -3    1    3    3    0  502  0.13041319340E+03  0.18910514608E+03  0.44283997143E+02  0.23394324074E+03  0.10100000352E+00 0.  1.
</event>
<event>
 5   0  0.1448458E-01  0.4881557E+03  0.7818609E-02  0.1016918E+00
       -1   -1    0    0    0  501  0.00000000000E+00  0.00000000000E+00  0.64329266634E+03  0.64329266636E+03  0.50400001928E-02 0. -1.
        1   -1    0    0  501    0  0.00000000000E+00  0.00000000000E+00 -0.92607933227E+02  0.92607933364E+02  0.50400001928E-02 0.  1.
    10030    2    1    2    0    0  0.00000000000E+00  0.00000000000E+00  0.55068473312E+03  0.73590059973E+03  0.48815573068E+03 0.  0.
        5    1    3    3  502    0  0.54994625320E+02 -0.16486420222E+03  0.53359505025E+03  0.56120440272E+03  0.46999998093E+01 0. -1.
       -5    1    3    3    0  502 -0.54994625320E+02  0.16486420222E+03  0.17089682870E+02  0.17469619701E+03  0.46999998093E+01 0.  1.
</event>
<event>
 5   0  0.1439814E-01  0.4950392E+03  0.7818609E-02  0.1015082E+00
        1   -1    0    0  501    0  0.00000000000E+00  0.00000000000E+00  0.96989832340E+02  0.96989832471E+02  0.50400001928E-02 0.  1.
       -1   -1    0    0    0  501  0.00000000000E+00  0.00000000000E+00 -0.63167386270E+03  0.63167386272E+03  0.50400001928E-02 0. -1.
    10030    2    1    2    0    0  0.00000000000E+00  0.00000000000E+00 -0.53468403036E+03  0.72866369519E+03  0.49503915842E+03 0.  0.
        4    1    3    3  502    0  0.17814866373E+03  0.95878946914E+02 -0.57445366003E+02  0.21031239104E+03  0.12699999809E+01 0.  1.
       -4    1    3    3    0  502 -0.17814866373E+03 -0.95878946914E+02 -0.47723866435E+03  0.51835130414E+03  0.12699999809E+01 0. -1.
</event>
<event>
 5   0  0.1439814E-01  0.5029510E+03  0.7818609E-02  0.1013012E+00
        1   -1    0    0  501    0  0.00000000000E+00  0.00000000000E+00  0.69819274704E+03  0.69819274705E+03  0.50400001928E-02 0.  1.
       -1   -1    0    0    0  501  0.00000000000E+00  0.00000000000E+00 -0.90576586248E+02  0.90576586389E+02  0.50400001928E-02 0. -1.
    10030    2    1    2    0    0  0.00000000000E+00  0.00000000000E+00  0.60761616079E+03  0.78876933344E+03  0.50295095440E+03 0.  0.
        4    1    3    3  502    0 -0.17781497630E+03 -0.51976090823E+02  0.57050204338E+03  0.59982820392E+03  0.12699999809E+01 0.  1.
       -4    1    3    3    0  502  0.17781497630E+03  0.51976090823E+02  0.37114117407E+02  0.18894112952E+03  0.12699999809E+01 0. -1.
</event>
<event>
 5   0  0.2511944E-01  0.4989434E+03  0.7818609E-02  0.1014055E+00
       -2   -1    0    0    0  501  0.00000000000E+00  0.00000000000E+00  0.52018087364E+02  0.52018087426E+02  0.25500000920E-02 0. -1.
        2   -1    0    0  501    0  0.00000000000E+00  0.00000000000E+00 -0.11964322692E+04  0.11964322692E+04  0.25500000920E-02 0.  1.
    10030    2    1    2    0    0  0.00000000000E+00  0.00000000000E+00 -0.11444141818E+04  0.12484503566E+04  0.49894335688E+03 0.  0.
        1    1    3    3  502    0  0.22674758545E+03 -0.50619615546E+02 -0.79960778918E+03  0.83267606518E+03  0.50400001928E-02 0. -1.
       -1    1    3    3    0  502 -0.22674758545E+03  0.50619615546E+02 -0.34480639266E+03  0.41577429144E+03  0.50400001928E-02 0.  1.
</event>
<event>
 5   0  0.2466034E-01  0.5678806E+03  0.7818609E-02  0.9974379E-01
        2   -1    0    0  501    0  0.00000000000E+00  0.00000000000E+00  0.33615160887E+03  0.33615160888E+03  0.25500000920E-02 0.  1.
       -2   -1    0    0    0  501  0.00000000000E+00  0.00000000000E+00 -0.23983852016E+03  0.23983852018E+03  0.25500000920E-02 0. -1.
    10030    2    1    2    0    0  0.00000000000E+00  0.00000000000E+00  0.96313088704E+02  0.57599012905E+03  0.56788063685E+03 0.  0.
        3    1    3    3  502    0 -0.18050133819E+03 -0.45836777725E+02  0.26555433912E+03  0.32434682133E+03  0.10100000352E+00 0.  1.
       -3    1    3    3    0  502  0.18050133819E+03  0.45836777725E+02 -0.16924125041E+03  0.25164330773E+03  0.10100000352E+00 0. -1.
</event>
<event>
 5   0  0.1448458E-01  0.4551414E+03  0.7818609E-02  0.1026200E+00
       -1   -1    0    0    0  501  0.00000000000E+00  0.00000000000E+00  0.22618145043E+03  0.22618145049E+03  0.50400001928E-02 0.  1.
        1   -1    0    0  501    0  0.00000000000E+00  0.00000000000E+00 -0.22896851556E+03  0.22896851561E+03  0.50400001928E-02 0. -1.
    10030    2    1    2    0    0  0.00000000000E+00  0.00000000000E+00 -0.27870651272E+01  0.45514996610E+03  0.45514143286E+03 0.  0.
        5    1    3    3  502    0 -0.21200084996E+03 -0.64501757127E+01  0.80951048780E+02  0.22707075427E+03  0.46999998093E+01 0. -1.
       -5    1    3    3    0  502  0.21200084996E+03  0.64501757127E+01 -0.83738113907E+02  0.22807921183E+03  0.46999998093E+01 0.  1.
</event>
<event>
 5   0  0.2488968E-01  0.5012361E+03  0.7818609E-02  0.1013457E+00
        2   -1    0    0  501    0  0.00000000000E+00  0.00000000000E+00  0.69630808952E+03  0.69630808952E+03  0.25500000920E-02 0. -1.
       -2   -1    0    0    0  501  0.00000000000E+00  0.00000000000E+00 -0.90203477794E+02  0.90203477830E+02  0.25500000920E-02 0.  1.
    10030    2    1    2    0    0  0.00000000000E+00  0.00000000000E+00  0.60610461172E+03  0.78651156735E+03  0.50123611724E+03 0.  0.
        2    1    3    3  502    0 -0.20491468221E+03 -0.10283769071E+03  0.14423670261E+03  0.27086868406E+03  0.25500000920E-02 0.  1.
       -2    1    3    3    0  502  0.20491468221E+03  0.10283769071E+03  0.46186790911E+03  0.51564288329E+03  0.25500000920E-02 0. -1.
</event>
<event>
 5   0  0.2413301E-01  0.4943540E+03  0.7818609E-02  0.1015263E+00
        2   -1    0    0  501    0  0.00000000000E+00  0.00000000000E+00  0.58963489338E+03  0.58963489339E+03  0.25500000920E-02 0. -1.
       -2   -1    0    0    0  501  0.00000000000E+00  0.00000000000E+00 -0.10361744452E+03  0.10361744455E+03  0.25500000920E-02 0.  1.
    10030    2    1    2    0    0  0.00000000000E+00  0.00000000000E+00  0.48601744886E+03  0.69325233794E+03  0.49435396576E+03 0.  0.
        4    1    3    3  502    0 -0.17691486018E+03 -0.17248747205E+03  0.25231631152E+03  0.35315142606E+03  0.12699999809E+01 0. -1.
       -4    1    3    3    0  502  0.17691486018E+03  0.17248747205E+03  0.23370113734E+03  0.34010091188E+03  0.12699999809E+01 0.  1.
</event>
<event>
 5   0  0.1439814E-01  0.4992922E+03  0.7818609E-02  0.1013964E+00
       -1   -1    0    0    0  501  0.00000000000E+00  0.00000000000E+00  0.31044536732E+03  0.31044536736E+03  0.50400001928E-02 0.  1.
        1   -1    0    0  501    0  0.00000000000E+00  0.00000000000E+00 -0.20075411486E+03  0.20075411492E+03  0.50400001928E-02 0. -1.
    10030    2    1    2    0    0  0.00000000000E+00  0.00000000000E+00  0.10969125246E+03  0.51119948228E+03  0.49929223889E+03 0.  0.
        4    1    3    3  502    0  0.38871329269E+02 -0.23151351972E+03  0.14179489179E+03  0.27425698586E+03  0.12699999809E+01 0.  1.
       -4    1    3    3    0  502 -0.38871329269E+02  0.23151351972E+03 -0.32103639327E+02  0.23694249642E+03  0.12699999809E+01 0. -1.
</event>
<event>
 5   0  0.2504064E-01  0.5384964E+03  0.7818609E-02  0.1004192E+00
        2   -1    0    0  501    0  0.00000000000E+00  0.00000000000E+00  0.87246011560E+03  0.87246011560E+03  0.25500000920E-02 0.  1.
       -2   -1    0    0    0  501  0.00000000000E+00  0.00000000000E+00 -0.83092172544E+02  0.83092172583E+02  0.25500000920E-02 0. -1.
    10030    2    1    2    0    0  0.00000000000E+00  0.00000000000E+00  0.78936794305E+03  0.95555228818E+03  0.53849644932E+03 0.  0.
        5    1    3    3  502    0  0.17684795921E+02 -0.25595395380E+03  0.25000830419E+03  0.35826166503E+03  0.46999998093E+01 0.  1.
       -5    1    3    3    0  502 -0.17684795921E+02  0.25595395380E+03  0.53935963886E+03  0.59729062315E+03  0.46999998093E+01 0. -1.
</event>
<event>
 5   0  0.2466034E-01  0.4803090E+03  0.7818609E-02  0.1019050E+00
       -2   -1    0    0    0  501  0.00000000000E+00  0.00000000000E+00  0.12845384874E+03  0.12845384876E+03  0.25500000920E-02 0. -1.
        2   -1    0    0  501    0  0.00000000000E+00  0.00000000000E+00 -0.44898758090E+03  0.44898758091E+03  0.25500000920E-02 0.  1.
    10030    2    1    2    0    0  0.00000000000E+00  0.00000000000E+00 -0.32053373217E+03  0.57744142967E+03  0.48030899559E+03 0.  0.
        3    1    3    3  502    0 -0.16224243949E+03 -0.16298052866E+03 -0.77070263922E+02  0.24253885807E+03  0.10100000352E+00 0. -1.
       -3    1    3    3    0  502  0.16224243949E+03  0.16298052866E+03 -0.24346346824E+03  0.33490257160E+03  0.10100000352E+00 0.  1.
</event>
<event>
 5   0  0.1439814E-01  0.4965007E+03  0.7818609E-02  0.1014696E+00
        1   -1    0    0  501    0  0.00000000000E+00  0.00000000000E+00  0.14148987764E+04  0.14148987764E+04  0.50400001928E-02 0.  1.
       -1   -1    0    0    0  501  0.00000000000E+00  0.00000000000E+00 -0.43556640790E+02  0.43556641082E+02  0.50400001928E-02 0. -1.
    10030    2    1    2    0    0  0.00000000000E+00  0.00000000000E+00  0.13713421356E+04  0.14584554175E+04  0.49650070685E+03 0.  0.
        4    1    3    3  502    0 -0.45177819830E+02  0.20409075959E+03  0.10790348133E+04  0.10990959079E+04  0.12699999809E+01 0.  1.
       -4    1    3    3    0  502  0.45177819830E+02 -0.20409075959E+03  0.29230732229E+03  0.35935950957E+03  0.12699999809E+01 0. -1.
</event>
<event>
 5   0  0.9868500E-02  0.5040208E+03  0.7818609E-02  0.1012735E+00
       -3   -1    0    0    0  501  0.00000000000E+00  0.00000000000E+00  0.13655535443E+03  0.13655539178E+03  0.10100000352E+00 0.  1.
        3   -1    0    0  501    0  0.00000000000E+00  0.00000000000E+00 -0.46508048433E+03  0.46508049530E+03  0.10100000352E+00 0. -1.
    10030    2    1    2    0    0  0.00000000000E+00  0.00000000000E+00 -0.32852512990E+03  0.60163588708E+03  0.50402081271E+03 0.  0.
        2    1    3    3  502    0 -0.11436393667E+02  0.17019424566E+03  0.57170550976E+02  0.17990370831E+03  0.25500000920E-02 0.  1.
       -2    1    3    3    0  502  0.11436393667E+02 -0.17019424566E+03 -0.38569568088E+03  0.42173217877E+03  0.25500000920E-02 0. -1.
</event>
<event>
 5   0  0.1529146E-01  0.5598987E+03  0.7818609E-02  0.9992284E-01
        1   -1    0    0  501    0  0.00000000000E+00  0.00000000000E+00  0.96341727437E+03  0.96341727438E+03  0.50400001928E-02 0. -1.
       -1   -1    0    0    0  501  0.00000000000E+00  0.00000000000E+00 -0.81347563717E+02  0.81347563873E+02  0.50400001928E-02 0.  1.
    10030    2    1    2    0    0  0.00000000000E+00  0.00000000000E+00  0.88206971065E+03  0.10447648383E+04  0.55989873442E+03 0.  0.
        1    1    3    3  502    0 -0.16245368974E+03  0.14084968362E+03  0.77557192652E+03  0.80482398568E+03  0.50400001928E-02 0. -1.
       -1    1    3    3    0  502  0.16245368974E+03 -0.14084968362E+03  0.10649778413E+03  0.23994085258E+03  0.50400001928E-02 0.  1.
</event>
<event>
 5   0  0.2413301E-01  0.4693421E+03  0.7818609E-02  0.1022106E+00
        2   -1    0    0  501    0  0.00000000000E+00  0.00000000000E+00  0.29341503363E+03  0.29341503364E+03  0.25500000920E-02 0.  1.
       -2   -1    0    0    0  501  0.00000000000E+00  0.00000000000E+00 -0.18768808952E+03  0.18768808953E+03  0.25500000920E-02 0. -1.
    10030    2    1    2    0    0  0.00000000000E+00  0.00000000000E+00  0.10572694411E+03  0.48110312317E+03  0.46934212299E+03 0.  0.
        4    1    3    3  502    0  0.13563637868E+03 -0.12715297379E+03  0.19964307098E+03  0.27280776136E+03  0.12699999809E+01 0.  1.
       -4    1    3    3    0  502 -0.13563637868E+03  0.12715297379E+03 -0.93916126876E+02  0.20829536181E+03  0.12699999809E+01 0. -1.
</event>
<event>
 5   0  0.2466034E-01  0.4511294E+03  0.7818609E-02  0.1027386E+00
        2   -1    0    0  501    0  0.00000000000E+00  0.00000000000E+00  0.68618265205E+03  0.68618265205E+03  0.25500000920E-02 0. -1.
       -2   -1    0    0    0  501  0.00000000000E+00  0.00000000000E+00 -0.74148541388E+02  0.74148541432E+02  0.25500000920E-02 0.  1.
    10030    2    1    2    0    0  0.00000000000E+00  0.00000000000E+00  0.61203411066E+03  0.76033119349E+03  0.45112943949E+03 0.  0.
        3    1    3    3  502    0  0.15116971453E+03  0.16049240674E+03  0.38630515388E+03  0.44479408419E+03  0.10100000352E+00 0. -1.
       -3    1    3    3    0  502 -0.15116971453E+03 -0.16049240674E+03  0.22572895678E+03  0.31553710930E+03  0.10100000352E+00 0.  1.
</event>
<event>
 5   0  0.2488968E-01  0.5043362E+03  0.7818609E-02  0.1012653E+00
        2   -1    0    0  501    0  0.00000000000E+00  0.00000000000E+00  0.37891901120E+03  0.37891901121E+03  0.25500000920E-02 0. -1.
       -2   -1    0    0    0  501  0.00000000000E+00  0.00000000000E+00 -0.16781621445E+03  0.16781621447E+03  0.25500000920E-02 0.  1.
    10030    2    1    2    0    0  0.00000000000E+00  0.00000000000E+00  0.21110279675E+03  0.54673522568E+03  0.50433621346E+03 0.  0.
        2    1    3    3  502    0 -0.21595046038E+03  0.86165195083E+02 -0.27567535261E+00  0.23250616806E+03  0.25500000920E-02 0.  1.
       -2    1    3    3    0  502  0.21595046038E+03 -0.86165195083E+02  0.21137847210E+03  0.31422905763E+03  0.25500000920E-02 0. -1.
</event>
<event>
 5   0  0.2488968E-01  0.4567079E+03  0.7818609E-02  0.1025740E+00
       -2   -1    0    0    0  501  0.00000000000E+00  0.00000000000E+00  0.23325888792E+03  0.23325888793E+03  0.25500000920E-02 0.  1.
        2   -1    0    0  501    0  0.00000000000E+00  0.00000000000E+00 -0.22355211115E+03  0.22355211117E+03  0.25500000920E-02 0. -1.
    10030    2    1    2    0    0  0.00000000000E+00  0.00000000000E+00  0.97067767664E+01  0.45681099910E+03  0.45670785781E+03 0.  0.
        2    1    3    3  502    0 -0.15500454647E+02  0.20689868379E+03 -0.90552571928E+02  0.22637821833E+03  0.25500000920E-02 0. -1.
       -2    1    3    3    0  502  0.15500454647E+02 -0.20689868379E+03  0.10025934869E+03  0.23043278077E+03  0.25500000920E-02 0.  1.
</event>
<event>
 5   0  0.2413301E-01  0.4888511E+03  0.7818609E-02  0.1016731E+00
        2   -1    0    0  501    0  0.00000000000E+00  0.00000000000E+00  0.18048473496E+04  0.18048473496E+04  0.25500000920E-02 0. -1.
       -2   -1    0    0    0  501  0.00000000000E+00  0.00000000000E+00 -0.33101884969E+02  0.33101885067E+02  0.25500000920E-02 0.  1.
    10030    2    1    2    0    0  0.00000000000E+00  0.00000000000E+00  0.17717454646E+04  0.18379492347E+04  0.48885109980E+03 0.  0.
        4    1    3    3  502    0  0.21140990803E+03 -0.85135493395E+01  0.42577602035E+03  0.47545079887E+03  0.12699999809E+01 0. -1.
       -4    1    3    3    0  502 -0.21140990803E+03  0.85135493395E+01  0.13459694443E+04  0.13624984358E+04  0.12699999809E+01 0.  1.
</event>
<event>
 5   0  0.2504064E-01  0.5014535E+03  0.7818609E-02  0.1013400E+00
       -2   -1    0    0    0  501  0.00000000000E+00  0.00000000000E+00  0.23219817042E+03  0.23219817044E+03  0.25500000920E-02 0. -1.
        2   -1    0    0  501    0  0.00000000000E+00  0.00000000000E+00 -0.27073384056E+03  0.27073384058E+03  0.25500000920E-02 0.  1.
    10030    2    1    2    0    0  0.00000000000E+00  0.00000000000E+00 -0.38535670141E+02  0.50293201101E+03  0.50145349718E+03 0.  0.
        5    1    3    3  502    0  0.16250805845E+03  0.89366107300E+02  0.14989077966E+03  0.23850472956E+03  0.46999998093E+01 0. -1.
       -5    1    3    3    0  502 -0.16250805845E+03 -0.89366107300E+02 -0.18842644980E+03  0.26442728146E+03  0.46999998093E+01 0.  1.
</event>
<event>
 5   0  0.2504064E-01  0.4868767E+03  0.7818609E-02  0.1017262E+00
       -2   -1    0    0    0  501  0.00000000000E+00  0.00000000000E+00  0.57334981238E+03  0.57334981238E+03  0.25500000920E-02 0. -1.
        2   -1    0    0  501    0  0.00000000000E+00  0.00000000000E+00 -0.10336140205E+03  0.10336140208E+03  0.25500000920E-02 0.  1.
    10030    2    1    2    0    0  0.00000000000E+00  0.00000000000E+00  0.46998841033E+03  0.67671121446E+03  0.48687674204E+03 0.  0.
        5    1    3    3  502    0 -0.87007673735E+02  0.17788850509E+03  0.38307061133E+02  0.20175276073E+03  0.46999998093E+01 0.  1.
       -5    1    3    3    0  502  0.87007673735E+02 -0.17788850509E+03  0.43168134920E+03  0.47495845373E+03  0.46999998093E+01 0. -1.
</event>
<event>
 5   0  0.2466034E-01  0.4189352E+03  0.7818609E-02  0.1037413E+00
        2   -1    0    0  501    0  0.00000000000E+00  0.00000000000E+00  0.69503232654E+03  0.69503232654E+03  0.25500000920E-02 0.  1.
       -2   -1    0    0    0  501  0.00000000000E+00  0.00000000000E+00 -0.63128973490E+02  0.63128973541E+02  0.25500000920E-02 0. -1.
    10030    2    1    2    0    0  0.00000000000E+00  0.00000000000E+00  0.63190335305E+03  0.75816130009E+03  0.41893520901E+03 0.  0.
        3    1    3    3  502    0  0.36538501389E+02 -0.19420795501E+03  0.19024515885E+03  0.27430826188E+03  0.10100000352E+00 0. -1.
       -3    1    3    3    0  502 -0.36538501389E+02  0.19420795501E+03  0.44165819420E+03  0.48385303820E+03  0.10100000352E+00 0.  1.
</event>
<event>
 5   0  0.1439814E-01  0.4733726E+03  0.7818609E-02  0.1020973E+00
        1   -1    0    0  501    0  0.00000000000E+00  0.00000000000E+00  0.19149868633E+03  0.19149868640E+03  0.50400001928E-02 0.  1.
       -1   -1    0    0    0  501  0.00000000000E+00  0.00000000000E+00 -0.29253678270E+03  0.29253678274E+03  0.50400001928E-02 0. -1.
    10030    2    1    2    0    0  0.00000000000E+00  0.00000000000E+00 -0.10103809636E+03  0.48403546914E+03  0.47337262116E+03 0.  0.
        4    1    3    3  502    0 -0.13513725350E+03  0.10052908813E+03 -0.22054941938E+03  0.27751006132E+03  0.12699999809E+01 0. -1.
       -4    1    3    3    0  502  0.13513725350E+03 -0.10052908813E+03  0.11951132302E+03  0.20652540782E+03  0.12699999809E+01 0.  1.
</event>
<event>
 5   0  0.1529146E-01  0.5145450E+03  0.7818609E-02  0.1010051E+00
        1   -1    0    0  501    0  0.00000000000E+00  0.00000000000E+00  0.92148758308E+03  0.92148758309E+03  0.50400001928E-02 0.  1.
       -1   -1    0    0    0  501  0.00000000000E+00  0.00000000000E+00 -0.71828573313E+02  0.71828573490E+02  0.50400001928E-02 0. -1.
    10030    2    1    2    0    0  0.00000000000E+00  0.00000000000E+00  0.84965900976E+03  0.99331615658E+03  0.51454499711E+03 0.  0.
        1    1    3    3  502    0  0.14059884731E+03  0.13975675810E+03  0.74138706217E+03  0.76743388202E+03  0.50400001928E-02 0.  1.
       -1    1    3    3    0  502 -0.14059884731E+03 -0.13975675810E+03  0.10827194759E+03  0.22588227456E+03  0.50400001928E-02 0. -1.
</event>
<event>
 5   0  0.2488968E-01  0.5003646E+03  0.7818609E-02  0.1013684E+00
        2   -1    0    0  501    0  0.00000000000E+00  0.00000000000E+00  0.67919613087E+03  0.67919613088E+03  0.25500000920E-02 0.  1.
       -2   -1    0    0    0  501  0.00000000000E+00  0.00000000000E+00 -0.92154813005E+02  0.92154813041E+02  0.25500000920E-02 0. -1.
    10030    2    1    2    0    0  0.00000000000E+00  0.00000000000E+00  0.58704131787E+03  0.77135094392E+03  0.50036463684E+03 0.  0.
        2    1    3    3  502    0 -0.57900867848E+02  0.11857587693E+03  0.62118640157E+03  0.63504747428E+03  0.25500000920E-02 0.  1.
       -2    1    3    3    0  502  0.57900867848E+02 -0.11857587693E+03 -0.34145083702E+02  0.13630346964E+03  0.25500000920E-02 0. -1.
</event>
<event>
 5   0  0.2413301E-01  0.3172047E+03  0.7818609E-02  0.1076943E+00
        2   -1    0    0  501    0  0.00000000000E+00  0.00000000000E+00  0.42627583552E+02  0.42627583629E+02  0.25500000920E-02 0. -1.
       -2   -1    0    0    0  501  0.00000000000E+00  0.00000000000E+00 -0.59010402965E+03  0.59010402965E+03  0.25500000920E-02 0.  1.
    10030    2    1    2    0    0  0.00000000000E+00  0.00000000000E+00 -0.54747644610E+03  0.63273161328E+03  0.31720472162E+03 0.  0.
        4    1    3    3  502    0 -0.84987152642E+02 -0.40603024372E+01 -0.54071511680E+03  0.54736984992E+03  0.12699999809E+01 0.  1.
       -4    1    3    3    0  502  0.84987152642E+02  0.40603024372E+01 -0.67613292975E+01  0.85361763360E+02  0.12699999809E+01 0. -1.
</event>
<event>
 5   0  0.1448458E-01  0.5019148E+03  0.7818609E-02  0.1013280E+00
       -1   -1    0    0    0  501  0.00000000000E+00  0.00000000000E+00  0.54074957727E+02  0.54074957962E+02  0.50400001928E-02 0. -1.
        1   -1    0    0  501    0  0.00000000000E+00  0.00000000000E+00 -0.11646725541E+04  0.11646725541E+04  0.50400001928E-02 0.  1.
    10030    2    1    2    0    0  0.00000000000E+00  0.00000000000E+00 -0.11105975964E+04  0.12187475121E+04  0.50191481062E+03 0.  0.
        5    1    3    3  502    0  0.16458358046E+03 -0.13304773036E+02 -0.10140463723E+04  0.10274127249E+04  0.46999998093E+01 0.  1.
       -5    1    3    3    0  502 -0.16458358046E+03  0.13304773036E+02 -0.96551224060E+02  0.19133478724E+03  0.46999998093E+01 0. -1.
</event>
<event>
 5   0  0.1448458E-01  0.4680782E+03  0.7818609E-02  0.1022464E+00
       -1   -1    0    0    0  501  0.00000000000E+00  0.00000000000E+00  0.27654970461E+03  0.27654970466E+03  0.50400001928E-02 0. -1.
        1   -1    0    0  501    0  0.00000000000E+00  0.00000000000E+00 -0.19806313581E+03  0.19806313587E+03  0.50400001928E-02 0.  1.
    10030    2    1    2    0    0  0.00000000000E+00  0.00000000000E+00  0.78486568804E+02  0.47461284053E+03  0.46807820598E+03 0.  0.
        5    1    3    3  502    0  0.60693776499E+02 -0.13954608676E+03 -0.14098907359E+03  0.20750145471E+03  0.46999998093E+01 0.  1.
       -5    1    3    3    0  502 -0.60693776499E+02  0.13954608676E+03  0.21947564239E+03  0.26711138583E+03  0.46999998093E+01 0. -1.
</event>
<event>
 5   0  0.2511944E-01  0.5203391E+03  0.7818609E-02  0.1008602E+00
       -2   -1    0    0    0  501  0.00000000000E+00  0.00000000000E+00  0.56645997818E+02  0.56645997875E+02  0.25500000920E-02 0. -1.
        2   -1    0    0  501    0  0.00000000000E+00  0.00000000000E+00 -0.11949334125E+04  0.11949334125E+04  0.25500000920E-02 0.  1.
    10030    2    1    2    0    0  0.00000000000E+00  0.00000000000E+00 -0.11382874147E+04  0.12515794104E+04  0.52033910295E+03 0.  0.
        1    1    3    3  502    0  0.70872314605E+02  0.17763244794E+03 -0.99340760584E+03  0.10116495653E+04  0.50400001928E-02 0.  1.
       -1    1    3    3    0  502 -0.70872314605E+02 -0.17763244794E+03 -0.14487980883E+03  0.23992984510E+03  0.50400001928E-02 0. -1.
</event>
<event>
 5   0  0.9868500E-02  0.5010823E+03  0.7818609E-02  0.1013497E+00
        3   -1    0    0  501    0  0.00000000000E+00  0.00000000000E+00  0.66610605774E+02  0.66610682346E+02  0.10100000352E+00 0.  1.
       -3   -1    0    0    0  501  0.00000000000E+00  0.00000000000E+00 -0.94235486614E+03  0.94235487155E+03  0.10100000352E+00 0. -1.
    10030    2    1    2    0    0  0.00000000000E+00  0.00000000000E+00 -0.87574426037E+03  0.10089655539E+04  0.50108230800E+03 0.  0.
        3    1    3    3  502    0  0.33431498113E+02 -0.11791177588E+03 -0.87787346447E+03  0.88638743322E+03  0.10100000352E+00 0. -1.
       -3    1    3    3    0  502 -0.33431498113E+02  0.11791177588E+03  0.21292040989E+01  0.12257812068E+03  0.10100000352E+00 0.  1.
</event>
<event>
 5   0  0.1448458E-01  0.5596545E+03  0.7818609E-02  0.9992837E-01
       -1   -1    0    0    0  501  0.00000000000E+00  0.00000000000E+00  0.14544622347E+03  0.14544622355E+03  0.50400001928E-02 0.  1.
        1   -1    0    0  501    0  0.00000000000E+00  0.00000000000E+00 -0.53836586570E+03  0.53836586572E+03  0.50400001928E-02 0. -1.
    10030    2    1    2    0    0  0.00000000000E+00  0.00000000000E+00 -0.39291964224E+03  0.68381208928E+03  0.55965447214E+03 0.  0.
        5    1    3    3  502    0 -0.39656266860E+02 -0.27102184380E+03 -0.12674242328E+03  0.30184630389E+03  0.46999998093E+01 0. -1.
       -5    1    3    3    0  502  0.39656266860E+02  0.27102184380E+03 -0.26617721896E+03  0.38196578539E+03  0.46999998093E+01 0.  1.
</event>
<event>
 5   0  0.1439814E-01  0.5027852E+03  0.7818609E-02  0.1013054E+00
       -1   -1    0    0    0  501  0.00000000000E+00  0.00000000000E+00  0.66391253405E+02  0.66391253596E+02  0.50400001928E-02 0. -1.
        1   -1    0    0  501    0  0.00000000000E+00  0.00000000000E+00 -0.95190611497E+03  0.95190611499E+03  0.50400001928E-02 0.  1.
    10030    2    1    2    0    0  0.00000000000E+00  0.00000000000E+00 -0.88551486157E+03  0.10182973686E+04  0.50278520345E+03 0.  0.
        4    1    3    3  502    0 -0.66368537488E+01  0.18277592238E+03 -0.79206104090E+03  0.81290429390E+03  0.12699999809E+01 0.  1.
       -4    1    3    3    0  502  0.66368537488E+01 -0.18277592238E+03 -0.93453820674E+02  0.20539307469E+03  0.12699999809E+01 0. -1.
</event>
<event>
 5   0  0.1439814E-01  0.4973385E+03  0.7818609E-02  0.1014476E+00
        1   -1    0    0  501    0  0.00000000000E+00  0.00000000000E+00  0.12369027752E+04  0.12369027752E+04  0.50400001928E-02 0. -1.
       -1   -1    0    0    0  501  0.00000000000E+00  0.00000000000E+00 -0.49992928711E+02  0.49992928965E+02  0.50400001928E-02 0.  1.
    10030    2    1    2    0    0  0.00000000000E+00  0.00000000000E+00  0.11869098465E+04  0.12868957042E+04  0.49733848608E+03 0.  0.
        4    1    3    3  502    0 -0.92507473935E+02  0.16754455079E+03  0.10042668024E+04  0.10223415440E+04  0.12699999809E+01 0. -1.
       -4    1    3    3    0  502  0.92507473935E+02 -0.16754455079E+03  0.18264304412E+03  0.26455416024E+03  0.12699999809E+01 0.  1.
</event>
<event>
 5   0  0.1529146E-01  0.5055194E+03  0.7818609E-02  0.1012348E+00
        1   -1    0    0  501    0  0.00000000000E+00  0.00000000000E+00  0.75563683245E+03  0.75563683247E+03  0.50400001928E-02 0.  1.
       -1   -1    0    0    0  501  0.00000000000E+00  0.00000000000E+00 -0.84547859938E+02  0.84547860089E+02  0.50400001928E-02 0. -1.
    10030    2    1    2    0    0  0.00000000000E+00  0.00000000000E+00  0.67108897251E+03  0.84018469256E+03  0.50551944431E+03 0.  0.
        1    1    3    3  502    0  0.23888873745E+03  0.29436980734E+02  0.20730878789E+03  0.31766538728E+03  0.50400001928E-02 0. -1.
       -1    1    3    3    0  502 -0.23888873745E+03 -0.29436980734E+02  0.46378018462E+03  0.52251930528E+03  0.50400001928E-02 0.  1.
</event>
<event>
 5   0  0.1529146E-01  0.5094244E+03  0.7818609E-02  0.1011348E+00
       -1   -1    0    0    0  501  0.00000000000E+00  0.00000000000E+00  0.97230590399E+03  0.97230590401E+03  0.50400001928E-02 0. -1.
        1   -1    0    0  501    0  0.00000000000E+00  0.00000000000E+00 -0.66726233040E+02  0.66726233230E+02  0.50400001928E-02 0.  1.
    10030    2    1    2    0    0  0.00000000000E+00  0.00000000000E+00  0.90557967095E+03  0.10390321372E+04  0.50942442204E+03 0.  0.
        1    1    3    3  502    0 -0.23078403985E+03  0.10452895101E+03  0.50639482205E+03  0.56623607309E+03  0.50400001928E-02 0.  1.
       -1    1    3    3    0  502  0.23078403985E+03 -0.10452895101E+03  0.39918484891E+03  0.47279606415E+03  0.50400001928E-02 0. -1.
</event>
<event>
 5   0  0.9868500E-02  0.4742175E+03  0.7818609E-02  0.1020737E+00
       -4   -1    0    0    0  501  0.00000000000E+00  0.00000000000E+00  0.43385665903E+03  0.43385851782E+03  0.12699999809E+01 0. -1.
        4   -1    0    0  501    0  0.00000000000E+00  0.00000000000E+00 -0.12957800733E+03  0.12958423085E+03  0.12699999809E+01 0.  1.
    10030    2    1    2    0    0  0.00000000000E+00  0.00000000000E+00  0.30427865170E+03  0.56344274867E+03  0.47421749562E+03 0.  0.
        1    1    3    3  502    0 -0.49879268560E+02  0.22893239552E+03  0.19534913960E+03  0.30505617437E+03  0.50400001928E-02 0. -1.
       -1    1    3    3    0  502  0.49879268560E+02 -0.22893239552E+03  0.10892951209E+03  0.25838657430E+03  0.50400001928E-02 0.  1.
</event>
<event>
 5   0  0.1448458E-01  0.4969666E+03  0.7818609E-02  0.1014574E+00
       -1   -1    0    0    0  501  0.00000000000E+00  0.00000000000E+00  0.11951378184E+03  0.11951378194E+03  0.50400001928E-02 0.  1.
        1   -1    0    0  501    0  0.00000000000E+00  0.00000000000E+00 -0.51662610067E+03  0.51662610070E+03  0.50400001928E-02 0. -1.
    10030    2    1    2    0    0  0.00000000000E+00  0.00000000000E+00 -0.39711231883E+03  0.63613988264E+03  0.49696655473E+03 0.  0.
        5    1    3    3  502    0 -0.83432330789E+02 -0.44173703673E+02 -0.49271493947E+03  0.50169948325E+03  0.46999998093E+01 0. -1.
       -5    1    3    3    0  502  0.83432330789E+02  0.44173703673E+02  0.95602620638E+02  0.13444039939E+03  0.46999998093E+01 0.  1.
</event>
<event>
 5   0  0.2466034E-01  0.4993003E+03  0.7818609E-02  0.1013962E+00
        2   -1    0    0  501    0  0.00000000000E+00  0.00000000000E+00  0.12949993669E+03  0.12949993671E+03  0.25500000920E-02 0.  1.
       -2   -1    0    0    0  501  0.00000000000E+00  0.00000000000E+00 -0.48127587031E+03  0.48127587032E+03  0.25500000920E-02 0. -1.
    10030    2    1    2    0    0  0.00000000000E+00  0.00000000000E+00 -0.35177593363E+03  0.61077580703E+03  0.49930028938E+03 0.  0.
        3    1    3    3  502    0 -0.11054466345E+03  0.17831709418E+03 -0.10371441746E+02  0.21005876725E+03  0.10100000352E+00 0. -1.
       -3    1    3    3    0  502  0.11054466345E+03 -0.17831709418E+03 -0.34140449188E+03  0.40071703978E+03  0.10100000352E+00 0.  1.
</event>
<event>
 5   0  0.1413361E-01  0.5069121E+03  0.7818609E-02  0.1011990E+00
       -1   -1    0    0    0  501  0.00000000000E+00  0.00000000000E+00  0.58797435320E+03  0.58797435322E+03  0.50400001928E-02 0. -1.
        1   -1    0    0  501    0  0.00000000000E+00  0.00000000000E+00 -0.10925639809E+03  0.10925639820E+03  0.50400001928E-02 0.  1.
    10030    2    1    2    0    0  0.00000000000E+00  0.00000000000E+00  0.47871795511E+03  0.69723075142E+03  0.50691206356E+03 0.  0.
        3    1    3    3  502    0  0.20445959583E+03  0.12979521716E+03  0.34219078706E+03  0.41921959600E+03  0.10100000352E+00 0.  1.
       -3    1    3    3    0  502 -0.20445959583E+03 -0.12979521716E+03  0.13652716805E+03  0.27801115542E+03  0.10100000352E+00 0. -1.
</event>
<event>
 5   0  0.9868500E-02  0.4996797E+03  0.7818609E-02  0.1013863E+00
        3   -1    0    0  501    0  0.00000000000E+00  0.00000000000E+00  0.59201529984E+03  0.59201530845E+03  0.10100000352E+00 0. -1.
       -3   -1    0    0    0  501  0.00000000000E+00  0.00000000000E+00 -0.10543635341E+03  0.10543640179E+03  0.10100000352E+00 0.  1.
    10030    2    1    2    0    0  0.00000000000E+00  0.00000000000E+00  0.48657894643E+03  0.69745171024E+03  0.49967971443E+03 0.  0.
        1    1    3    3  502    0  0.76729903728E+02  0.11671104209E+03 -0.45849601518E+02  0.14700724968E+03  0.50400001928E-02 0.  1.
       -1    1    3    3    0  502 -0.76729903728E+02 -0.11671104209E+03  0.53242854795E+03  0.55044446056E+03  0.50400001928E-02 0. -1.
</event>
<event>
 5   0  0.9868500E-02  0.4312964E+03  0.7818609E-02  0.1033451E+00
       -4   -1    0    0    0  501  0.00000000000E+00  0.00000000000E+00  0.68599626954E+03  0.68599744513E+03  0.12699999809E+01 0. -1.
        4   -1    0    0  501    0  0.00000000000E+00  0.00000000000E+00 -0.67783497470E+02  0.67795393864E+02  0.12699999809E+01 0.  1.
    10030    2    1    2    0    0  0.00000000000E+00  0.00000000000E+00  0.61821277207E+03  0.75379283899E+03  0.43129643236E+03 0.  0.
        5    1    3    3  502    0  0.59611538579E+02 -0.90514804798E+02 -0.16627942074E+02  0.10974991515E+03  0.46999998093E+01 0.  1.
       -5    1    3    3    0  502 -0.59611538579E+02  0.90514804798E+02  0.63484071414E+03  0.64404292384E+03  0.46999998093E+01 0. -1.
</event>
<event>
 5   0  0.2504064E-01  0.5240185E+03  0.7818609E-02  0.1007693E+00
       -2   -1    0    0    0  501  0.00000000000E+00  0.00000000000E+00  0.74401145170E+02  0.74401145214E+02  0.25500000920E-02 0.  1.
        2   -1    0    0  501    0  0.00000000000E+00  0.00000000000E+00 -0.92268547492E+03  0.92268547492E+03  0.25500000920E-02 0. -1.
    10030    2    1    2    0    0  0.00000000000E+00  0.00000000000E+00 -0.84828432975E+03  0.99708662014E+03  0.52401853398E+03 0.  0.
        5    1    3    3  502    0  0.90818294949E+02  0.59230827072E+02  0.29621598840E+02  0.11249792304E+03  0.46999998093E+01 0.  1.
       -5    1    3    3    0  502 -0.90818294949E+02 -0.59230827072E+02 -0.87790592859E+03  0.88458869709E+03  0.46999998093E+01 0. -1.
</event>
<event>
 5   0  0.2466034E-01  0.4968169E+03  0.7818609E-02  0.1014613E+00
       -2   -1    0    0    0  501  0.00000000000E+00  0.00000000000E+00  0.34792556908E+03  0.34792556909E+03  0.25500000920E-02 0. -1.
        2   -1    0    0  501    0  0.00000000000E+00  0.00000000000E+00 -0.17735623690E+03  0.17735623692E+03  0.25500000920E-02 0.  1.
    10030    2    1    2    0    0  0.00000000000E+00  0.00000000000E+00  0.17056933218E+03  0.52528180601E+03  0.49681694682E+03 0.  0.
        3    1    3    3  502    0 -0.63345990590E+01  0.94598495066E+02  0.32804315146E+03  0.34146935710E+03  0.10100000352E+00 0. -1.
       -3    1    3    3    0  502  0.63345990590E+01 -0.94598495066E+02 -0.15747381928E+03  0.18381244891E+03  0.10100000352E+00 0.  1.
</event>
<event>
 5   0  0.1529146E-01  0.5026270E+03  0.7818609E-02  0.1013096E+00
       -1   -1    0    0    0  501  0.00000000000E+00  0.00000000000E+00  0.29587015391E+03  0.29587015395E+03  0.50400001928E-02 0. -1.
        1   -1    0    0  501    0  0.00000000000E+00  0.00000000000E+00 -0.21346682615E+03  0.21346682621E+03  0.50400001928E-02 0.  1.
    10030    2    1    2    0    0  0.00000000000E+00  0.00000000000E+00  0.82403327755E+02  0.50933698016E+03  0.50262695007E+03 0.  0.
        1    1    3    3  502    0 -0.18875133142E+03  0.16022228032E+03 -0.25043718030E+01  0.24759748813E+03  0.50400001928E-02 0.  1.
       -1    1    3    3    0  502  0.18875133142E+03 -0.16022228032E+03  0.84907699558E+02  0.26173949204E+03  0.50400001928E-02 0. -1.
</event>
<event>
 5   0  0.2413301E-01  0.5083725E+03  0.7818609E-02  0.1011616E+00
        2   -1    0    0  501    0  0.00000000000E+00  0.00000000000E+00  0.22087768695E+03  0.22087768696E+03  0.25500000920E-02 0.  1.
       -2   -1    0    0    0  501  0.00000000000E+00  0.00000000000E+00 -0.29251773794E+03  0.29251773795E+03  0.25500000920E-02 0. -1.
    10030    2    1    2    0    0  0.00000000000E+00  0.00000000000E+00 -0.71640050993E+02  0.51339542492E+03  0.50837246721E+03 0.  0.
        4    1    3    3  502    0 -0.89710472054E+02 -0.19250021824E+03  0.10521919379E+03  0.23701686535E+03  0.12699999809E+01 0.  1.
       -4    1    3    3    0  502  0.89710472054E+02  0.19250021824E+03 -0.17685924479E+03  0.27637855956E+03  0.12699999809E+01 0. -1.
</event>
<event>
 5   0  0.2511944E-01  0.4980263E+03  0.7818609E-02  0.1014295E+00
       -2   -1    0    0    0  501  0.00000000000E+00  0.00000000000E+00  0.95257941331E+02  0.95257941365E+02  0.25500000920E-02 0. -1.
        2   -1    0    0  501    0  0.00000000000E+00  0.00000000000E+00 -0.65094357101E+03  0.65094357101E+03  0.25500000920E-02 0.  1.
    10030    2    1    2    0    0  0.00000000000E+00  0.00000000000E+00 -0.55568562968E+03  0.74620151238E+03  0.49802628249E+03 0.  0.
        1    1    3    3  502    0 -0.17543632441E+03  0.12428792629E+03 -0.89613625208E+02  0.23292916175E+03  0.50400001928E-02 0. -1.
       -1    1    3    3    0  502  0.17543632441E+03 -0.12428792629E+03 -0.46607200447E+03  0.51327235063E+03  0.50400001928E-02 0.  1.
</event>
<event>
 5   0  0.2466034E-01  0.4996828E+03  0.7818609E-02  0.1013862E+00
        2   -1    0    0  501    0  0.00000000000E+00  0.00000000000E+00  0.16934284767E+04  0.16934284767E+04  0.25500000920E-02 0. -1.
       -2   -1    0    0    0  501  0.00000000000E+00  0.00000000000E+00 -0.36860565239E+02  0.36860565327E+02  0.25500000920E-02 0.  1.
    10030    2    1    2    0    0  0.00000000000E+00  0.00000000000E+00  0.16565679115E+04  0.17302890420E+04  0.49968282308E+03 0.  0.
        3    1    3    3  502    0  0.14744561723E+03 -0.15787356536E+03  0.12629476808E+04  0.12812888540E+04  0.10100000352E+00 0. -1.
       -3    1    3    3    0  502 -0.14744561723E+03  0.15787356536E+03  0.39362023061E+03  0.44900018800E+03  0.10100000352E+00 0.  1.
</event>
<event>
 5   0  0.1448458E-01  0.5098343E+03  0.7818609E-02  0.1011243E+00
       -1   -1    0    0    0  501  0.00000000000E+00  0.00000000000E+00  0.53164018278E+02  0.53164018516E+02  0.50400001928E-02 0. -1.
        1   -1    0    0  501    0  0.00000000000E+00  0.00000000000E+00 -0.12223070407E+04  0.12223070407E+04  0.50400001928E-02 0.  1.
    10030    2    1    2    0    0  0.00000000000E+00  0.00000000000E+00 -0.11691430225E+04  0.12754710593E+04  0.50983430255E+03 0.  0.
        5    1    3    3  502    0  0.10938796009E+03  0.21679879811E+03 -0.39089736827E+03  0.46020678743E+03  0.46999998093E+01 0. -1.
       -5    1    3    3    0  502 -0.10938796009E+03 -0.21679879811E+03 -0.77824565418E+03  0.81526427183E+03  0.46999998093E+01 0.  1.
</event>
<event>
 5   0  0.1453602E-01  0.4863165E+03  0.7818609E-02  0.1017414E+00
       -1   -1    0    0    0  501  0.00000000000E+00  0.00000000000E+00  0.76956145650E+02  0.76956145815E+02  0.50400001928E-02 0. -1.
        1   -1    0    0  501    0  0.00000000000E+00  0.00000000000E+00 -0.76830683203E+03  0.76830683205E+03  0.50400001928E-02 0.  1.
    10030    2    1    2    0    0  0.00000000000E+00  0.00000000000E+00 -0.69135068638E+03  0.84526297786E+03  0.48631649179E+03 0.  0.
        2    1    3    3  502    0  0.24025585568E+03 -0.14789526632E+02 -0.28586056060E+03  0.37370826376E+03  0.25500000920E-02 0. -1.
       -2    1    3    3    0  502 -0.24025585568E+03  0.14789526632E+02 -0.40549012578E+03  0.47155471410E+03  0.25500000920E-02 0.  1.
</event>
<event>
 5   0  0.1529146E-01  0.5045829E+03  0.7818609E-02  0.1012590E+00
        1   -1    0    0  501    0  0.00000000000E+00  0.00000000000E+00  0.45869700995E+03  0.45869700998E+03  0.50400001928E-02 0. -1.
       -1   -1    0    0    0  501  0.00000000000E+00  0.00000000000E+00 -0.13876472230E+03  0.13876472239E+03  0.50400001928E-02 0.  1.
    10030    2    1    2    0    0  0.00000000000E+00  0.00000000000E+00  0.31993228765E+03  0.59746173237E+03  0.50458285044E+03 0.  0.
        1    1    3    3  502    0  0.20575144595E+02 -0.23663571862E+03  0.26065506623E+03  0.35264835670E+03  0.50400001928E-02 0.  1.
       -1    1    3    3    0  502 -0.20575144595E+02  0.23663571862E+03  0.59277221417E+02  0.24481337567E+03  0.50400001928E-02 0. -1.
</event>
<event>
 5   0  0.2488968E-01  0.5076045E+03  0.7818609E-02  0.1011813E+00
        2   -1    0    0  501    0  0.00000000000E+00  0.00000000000E+00  0.19800113385E+04  0.19800113385E+04  0.25500000920E-02 0.  1.
       -2   -1    0    0    0  501  0.00000000000E+00  0.00000000000E+00 -0.32532942211E+02  0.32532942311E+02  0.25500000920E-02 0. -1.
    10030    2    1    2    0    0  0.00000000000E+00  0.00000000000E+00  0.19474783962E+04  0.20125442808E+04  0.50760454905E+03 0.  0.
        2    1    3    3  502    0  0.11755301193E+03  0.14961223844E+03  0.16396944544E+04  0.16506969547E+04  0.25500000920E-02 0. -1.
       -2    1    3    3    0  502 -0.11755301193E+03 -0.14961223844E+03  0.30778394181E+03  0.36184732602E+03  0.25500000920E-02 0.  1.
</event>
<event>
 5   0  0.2413301E-01  0.4987150E+03  0.7818609E-02  0.1014115E+00
       -2   -1    0    0    0  501  0.00000000000E+00  0.00000000000E+00  0.22849489159E+02  0.22849489301E+02  0.25500000920E-02 0. -1.
        2   -1    0    0  501    0  0.00000000000E+00  0.00000000000E+00 -0.27212497033E+04  0.27212497033E+04  0.25500000920E-02 0.  1.
    10030    2    1    2    0    0  0.00000000000E+00  0.00000000000E+00 -0.26984002141E+04  0.27440991926E+04  0.49871501196E+03 0.  0.
        4    1    3    3  502    0 -0.12114578526E+03  0.21643350215E+03 -0.14903209774E+04  0.15108203039E+04  0.12699999809E+01 0. -1.
       -4    1    3    3    0  502  0.12114578526E+03 -0.21643350215E+03 -0.12080792367E+04  0.12332788886E+04  0.12699999809E+01 0.  1.
</event>
<event>
 5   0  0.1453602E-01  0.4999189E+03  0.7818609E-02  0.1013800E+00
        1   -1    0    0  501    0  0.00000000000E+00  0.00000000000E+00  0.18278602422E+04  0.18278602422E+04  0.50400001928E-02 0. -1.
       -1   -1    0    0    0  501  0.00000000000E+00  0.00000000000E+00 -0.34181891697E+02  0.34181892068E+02  0.50400001928E-02 0.  1.
    10030    2    1    2    0    0  0.00000000000E+00  0.00000000000E+00  0.17936783505E+04  0.18620421342E+04  0.49991887817E+03 0.  0.
        2    1    3    3  502    0 -0.94771361213E+02  0.17631855243E+03  0.33925592860E+03  0.39390916203E+03  0.25500000920E-02 0.  1.
       -2    1    3    3    0  502  0.94771361213E+02 -0.17631855243E+03  0.14544224219E+04  0.14681329722E+04  0.25500000920E-02 0. -1.
</event>
<event>
 5   0  0.9868500E-02  0.5176978E+03  0.7818609E-02  0.1009260E+00
       -3   -1    0    0    0  501  0.00000000000E+00  0.00000000000E+00  0.10402762312E+03  0.10402767215E+03  0.10100000352E+00 0.  1.
        3   -1    0    0  501    0  0.00000000000E+00  0.00000000000E+00 -0.64408599560E+03  0.64408600352E+03  0.10100000352E+00 0. -1.
    10030    2    1    2    0    0  0.00000000000E+00  0.00000000000E+00 -0.54005837248E+03  0.74811367567E+03  0.51769781344E+03 0.  0.
        4    1    3    3  502    0 -0.36732993950E+02 -0.19238828705E+03 -0.25479569566E+02  0.19751806804E+03  0.12699999809E+01 0.  1.
       -4    1    3    3    0  502  0.36732993950E+02  0.19238828705E+03 -0.51457880291E+03  0.55059560763E+03  0.12699999809E+01 0. -1.
</event>
<event>
 5   0  0.1413361E-01  0.5052759E+03  0.7818609E-02  0.1012411E+00
        1   -1    0    0  501    0  0.00000000000E+00  0.00000000000E+00  0.80037061636E+03  0.80037061638E+03  0.50400001928E-02 0. -1.
       -1   -1    0    0    0  501  0.00000000000E+00  0.00000000000E+00 -0.79745472553E+02  0.79745472712E+02  0.50400001928E-02 0.  1.
    10030    2    1    2    0    0  0.00000000000E+00  0.00000000000E+00  0.72062514381E+03  0.88011608909E+03  0.50527589729E+03 0.  0.
        3    1    3    3  502    0 -0.23794453254E+02 -0.18350350207E+03  0.65992240171E+03  0.68537383796E+03  0.10100000352E+00 0. -1.
       -3    1    3    3    0  502  0.23794453254E+02  0.18350350207E+03  0.60702742095E+02  0.19474225113E+03  0.10100000352E+00 0.  1.
</event>
<event>
 5   0  0.1453602E-01  0.4911753E+03  0.7818609E-02  0.1016108E+00
       -1   -1    0    0    0  501  0.00000000000E+00  0.00000000000E+00  0.50792579134E+02  0.50792579384E+02  0.50400001928E-02 0.  1.
        1   -1    0    0  501    0  0.00000000000E+00  0.00000000000E+00 -0.11874430093E+04  0.11874430094E+04  0.50400001928E-02 0. -1.
    10030    2    1    2    0    0  0.00000000000E+00  0.00000000000E+00 -0.11366504302E+04  0.12382355887E+04  0.49117529735E+03 0.  0.
        2    1    3    3  502    0 -0.20064476725E+02 -0.12146152672E+03 -0.32610976851E+02  0.12735368670E+03  0.25500000920E-02 0.  1.
       -2    1    3    3    0  502  0.20064476725E+02  0.12146152672E+03 -0.11040394534E+04  0.11108819020E+04  0.25500000920E-02 0. -1.
</event>
<event>
 5   0  0.1448458E-01  0.4892401E+03  0.7818609E-02  0.1016626E+00
        1   -1    0    0  501    0  0.00000000000E+00  0.00000000000E+00  0.99389319931E+03  0.99389319932E+03  0.50400001928E-02 0.  1.
       -1   -1    0    0    0  501  0.00000000000E+00  0.00000000000E+00 -0.60206642574E+02  0.60206642785E+02  0.50400001928E-02 0. -1.
    10030    2    1    2    0    0  0.00000000000E+00  0.00000000000E+00  0.93368655674E+03  0.10540998421E+04  0.48924011580E+03 0.  0.
        5    1    3    3  502    0  0.10726121196E+03  0.13813194015E+03  0.83521400171E+03  0.85334044738E+03  0.46999998093E+01 0.  1.
       -5    1    3    3    0  502 -0.10726121196E+03 -0.13813194015E+03  0.98472555027E+02  0.20075939473E+03  0.46999998093E+01 0. -1.
</event>
<event>
 5   0  0.2488968E-01  0.4950210E+03  0.7818609E-02  0.1015087E+00
       -2   -1    0    0    0  501  0.00000000000E+00  0.00000000000E+00  0.10728249115E+03  0.10728249118E+03  0.25500000920E-02 0. -1.
        2   -1    0    0  501    0  0.00000000000E+00  0.00000000000E+00 -0.57102927460E+03  0.57102927460E+03  0.25500000920E-02 0.  1.
    10030    2    1    2    0    0  0.00000000000E+00  0.00000000000E+00 -0.46374678345E+03  0.67831176578E+03  0.49502098182E+03 0.  0.
        2    1    3    3  502    0 -0.70445461451E+02 -0.22119265547E+03 -0.34953064543E+03  0.41959555047E+03  0.25500000920E-02 0.  1.
       -2    1    3    3    0  502  0.70445461451E+02  0.22119265547E+03 -0.11421613801E+03  0.25871621531E+03  0.25500000920E-02 0. -1.
</event>
<event>
 5   0  0.2466034E-01  0.5017242E+03  0.7818609E-02  0.1013330E+00
        2   -1    0    0  501    0  0.00000000000E+00  0.00000000000E+00  0.93286004394E+03  0.93286004394E+03  0.25500000920E-02 0. -1.
       -2   -1    0    0    0  501  0.00000000000E+00  0.00000000000E+00 -0.67461137161E+02  0.67461137209E+02  0.25500000920E-02 0.  1.
    10030    2    1    2    0    0  0.00000000000E+00  0.00000000000E+00  0.86539890678E+03  0.10003211812E+04  0.50172422466E+03 0.  0.
        3    1    3    3  502    0 -0.20238982335E+03 -0.65049723477E+02  0.69824258299E+03  0.72988754067E+03  0.10100000352E+00 0. -1.
       -3    1    3    3    0  502  0.20238982335E+03  0.65049723477E+02  0.16715632379E+03  0.27043364048E+03  0.10100000352E+00 0.  1.
</event>
<event>
 5   0  0.2488968E-01  0.5038013E+03  0.7818609E-02  0.1012791E+00
       -2   -1    0    0    0  501  0.00000000000E+00  0.00000000000E+00  0.16708274163E+03  0.16708274165E+03  0.25500000920E-02 0.  1.
        2   -1    0    0  501    0  0.00000000000E+00  0.00000000000E+00 -0.37977550243E+03  0.37977550244E+03  0.25500000920E-02 0. -1.
    10030    2    1    2    0    0  0.00000000000E+00  0.00000000000E+00 -0.21269276080E+03  0.54685824409E+03  0.50380127891E+03 0.  0.
        2    1    3    3  502    0  0.25709723258E+01 -0.23704883359E+03 -0.13889469998E+02  0.23746931758E+03  0.25500000920E-02 0.  1.
       -2    1    3    3    0  502 -0.25709723258E+01  0.23704883359E+03 -0.19880329080E+03  0.30938892651E+03  0.25500000920E-02 0. -1.
</event>
<event>
 5   0  0.1413361E-01  0.5118415E+03  0.7818609E-02  0.1010734E+00
       -1   -1    0    0    0  501  0.00000000000E+00  0.00000000000E+00  0.56914566502E+03  0.56914566504E+03  0.50400001928E-02 0. -1.
        1   -1    0    0  501    0  0.00000000000E+00  0.00000000000E+00 -0.11507673287E+03  0.11507673298E+03  0.50400001928E-02 0.  1.
    10030    2    1    2    0    0  0.00000000000E+00  0.00000000000E+00  0.45406893216E+03  0.68422239802E+03  0.51184147429E+03 0.  0.
        3    1    3    3  502    0  0.22397236200E+03  0.50002008625E+02  0.37846104570E+03  0.44260207085E+03  0.10100000352E+00 0. -1.
       -3    1    3    3    0  502 -0.22397236200E+03 -0.50002008625E+02  0.75607886456E+02  0.24162032717E+03  0.10100000352E+00 0.  1.
</event>
<event>
 5   0  0.1413361E-01  0.5015585E+03  0.7818609E-02  0.1013373E+00
       -1   -1    0    0    0  501  0.00000000000E+00  0.00000000000E+00  0.14412897074E+03  0.14412897083E+03  0.50400001928E-02 0.  1.
        1   -1    0    0  501    0  0.00000000000E+00  0.00000000000E+00 -0.43634689964E+03  0.43634689967E+03  0.50400001928E-02 0. -1.
    10030    2    1    2    0    0  0.00000000000E+00  0.00000000000E+00 -0.29221792890E+03  0.58047587050E+03  0.50155848938E+03 0.  0.
        3    1    3    3  502    0  0.21983172131E+03  0.44960952575E+02 -0.27572505158E+03  0.35548809716E+03  0.10100000352E+00 0. -1.
       -3    1    3    3    0  502 -0.21983172131E+03 -0.44960952575E+02 -0.16492877317E+02  0.22498777334E+03  0.10100000352E+00 0.  1.
</event>
<event>
 5   0  0.2504064E-01  0.4995911E+03  0.7818609E-02  0.1013886E+00
       -2   -1    0    0    0  501  0.00000000000E+00  0.00000000000E+00  0.35854036068E+02  0.35854036159E+02  0.25500000920E-02 0. -1.
        2   -1    0    0  501    0  0.00000000000E+00  0.00000000000E+00 -0.17403291420E+04  0.17403291421E+04  0.25500000920E-02 0.  1.
    10030    2    1    2    0    0  0.00000000000E+00  0.00000000000E+00 -0.17044751060E+04  0.17761831782E+04  0.49959112847E+03 0.  0.
        5    1    3    3  502    0 -0.12423293715E+03 -0.52515952786E+02 -0.15995556185E+04  0.16052389276E+04  0.46999998093E+01 0.  1.
       -5    1    3    3    0  502  0.12423293715E+03  0.52515952786E+02 -0.10491948749E+03  0.17094425063E+03  0.46999998093E+01 0. -1.
</event>
<event>
 5   0  0.1413361E-01  0.4992190E+03  0.7818609E-02  0.1013983E+00
        1   -1    0    0  501    0  0.00000000000E+00  0.00000000000E+00  0.77765482677E+02  0.77765482841E+02  0.50400001928E-02 0.  1.
       -1   -1    0    0    0  501  0.00000000000E+00  0.00000000000E+00 -0.80118962003E+03  0.80118962005E+03  0.50400001928E-02 0. -1.
    10030    2    1    2    0    0  0.00000000000E+00  0.00000000000E+00 -0.72342413736E+03  0.87895510289E+03  0.49921898039E+03 0.  0.
        3    1    3    3  502    0 -0.18554568769E+03  0.63827572277E+02 -0.63335479208E+03  0.66305313819E+03  0.10100000352E+00 0. -1.
       -3    1    3    3    0  502  0.18554568769E+03 -0.63827572277E+02 -0.90069345274E+02  0.21590196470E+03  0.10100000352E+00 0.  1.
</event>
<event>
 5   0  0.1453602E-01  0.4963217E+03  0.7818609E-02  0.1014743E+00
       -1   -1    0    0    0  501  0.00000000000E+00  0.00000000000E+00  0.17803817133E+03  0.17803817140E+03  0.50400001928E-02 0. -1.
        1   -1    0    0  501    0  0.00000000000E+00  0.00000000000E+00 -0.34590227272E+03  0.34590227275E+03  0.50400001928E-02 0.  1.
    10030    2    1    2    0    0  0.00000000000E+00  0.00000000000E+00 -0.16786410139E+03  0.52394044416E+03  0.49632170262E+03 0.  0.
        2    1    3    3  502    0  0.11050976805E+03 -0.61578895391E+02  0.14144160296E+03  0.18976326369E+03  0.25500000920E-02 0. -1.
       -2    1    3    3    0  502 -0.11050976805E+03  0.61578895391E+02 -0.30930570435E+03  0.33417718046E+03  0.25500000920E-02 0.  1.
</event>
<event>
 5   0  0.2504064E-01  0.4949559E+03  0.7818609E-02  0.1015104E+00
        2   -1    0    0  501    0  0.00000000000E+00  0.00000000000E+00  0.17334854280E+04  0.17334854280E+04  0.25500000920E-02 0. -1.
       -2   -1    0    0    0  501  0.00000000000E+00  0.00000000000E+00 -0.35330747496E+02  0.35330747588E+02  0.25500000920E-02 0.  1.
    10030    2    1    2    0    0  0.00000000000E+00  0.00000000000E+00  0.16981546805E+04  0.17688161756E+04  0.49495590118E+03 0.  0.
        5    1    3    3  502    0  0.91584004652E+02 -0.12210832845E+03  0.15450304433E+04  0.15525589310E+04  0.46999998093E+01 0. -1.
       -5    1    3    3    0  502 -0.91584004652E+02  0.12210832845E+03  0.15312423723E+03  0.21625724453E+03  0.46999998093E+01 0.  1.
</event>
<event>
 5   0  0.1529146E-01  0.5091960E+03  0.7818609E-02  0.1011406E+00
       -1   -1    0    0    0  501  0.00000000000E+00  0.00000000000E+00  0.79379006766E+02  0.79379006926E+02  0.50400001928E-02 0.  1.
        1   -1    0    0  501    0  0.00000000000E+00  0.00000000000E+00 -0.81659047155E+03  0.81659047157E+03  0.50400001928E-02 0. -1.
    10030    2    1    2    0    0  0.00000000000E+00  0.00000000000E+00 -0.73721146479E+03  0.89596947850E+03  0.50919599623E+03 0.  0.
        1    1    3    3  502    0 -0.65273589975E+01  0.23887032452E+03 -0.52319336753E+03  0.57518078741E+03  0.50400001928E-02 0.  1.
       -1    1    3    3    0  502  0.65273589975E+01 -0.23887032452E+03 -0.21401809726E+03  0.32078869109E+03  0.50400001928E-02 0. -1.
</event>
<event>
 5   0  0.2466034E-01  0.5027756E+03  0.7818609E-02  0.1013057E+00
       -2   -1    0    0    0  501  0.00000000000E+00  0.00000000000E+00  0.67511862287E+02  0.67511862335E+02  0.25500000920E-02 0.  1.
        2   -1    0    0  501    0  0.00000000000E+00  0.00000000000E+00 -0.93607002438E+03  0.93607002438E+03  0.25500000920E-02 0. -1.
    10030    2    1    2    0    0  0.00000000000E+00  0.00000000000E+00 -0.86855816209E+03  0.10035818867E+04  0.50277561835E+03 0.  0.
        3    1    3    3  502    0 -0.21118931356E+03  0.35761849408E+02 -0.69694407556E+03  0.72911651380E+03  0.10100000352E+00 0. -1.
       -3    1    3    3    0  502  0.21118931356E+03 -0.35761849408E+02 -0.17161408653E+03  0.27446537292E+03  0.10100000352E+00 0.  1.
</event>
<event>
 5   0  0.2511944E-01  0.4948383E+03  0.7818609E-02  0.1015135E+00
       -2   -1    0    0    0  501  0.00000000000E+00  0.00000000000E+00  0.10557969548E+03  0.10557969551E+03  0.25500000920E-02 0.  1.
        2   -1    0    0  501    0  0.00000000000E+00  0.00000000000E+00 -0.57981073938E+03  0.57981073938E+03  0.25500000920E-02 0. -1.
    10030    2    1    2    0    0  0.00000000000E+00  0.00000000000E+00 -0.47423104390E+03  0.68539043489E+03  0.49483832233E+03 0.  0.
        1    1    3    3  502    0  0.76466822565E+01 -0.10536164628E+03 -0.54700425813E+03  0.55711148498E+03  0.50400001928E-02 0. -1.
       -1    1    3    3    0  502 -0.76466822565E+01  0.10536164628E+03  0.72773214234E+02  0.12827894991E+03  0.50400001928E-02 0.  1.
</event>
<event>
 5   0  0.2466034E-01  0.4915397E+03  0.7818609E-02  0.1016011E+00
        2   -1    0    0  501    0  0.00000000000E+00  0.00000000000E+00  0.15840212421E+03  0.15840212423E+03  0.25500000920E-02 0.  1.
       -2   -1    0    0    0  501  0.00000000000E+00  0.00000000000E+00 -0.38132588668E+03  0.38132588669E+03  0.25500000920E-02 0. -1.
    10030    2    1    2    0    0  0.00000000000E+00  0.00000000000E+00 -0.22292376247E+03  0.53972801092E+03  0.49153974600E+03 0.  0.
        3    1    3    3  502    0 -0.67113641760E+02 -0.16407243460E+02  0.14751943490E+03  0.16289699942E+03  0.10100000352E+00 0.  1.
       -3    1    3    3    0  502  0.67113641760E+02  0.16407243460E+02 -0.37044319737E+03  0.37683101150E+03  0.10100000352E+00 0. -1.
</event>
<event>
 5   0  0.9868500E-02  0.4909579E+03  0.7818609E-02  0.1016166E+00
       -4   -1    0    0    0  501  0.00000000000E+00  0.00000000000E+00  0.22147813964E+03  0.22148178083E+03  0.12699999809E+01 0. -1.
        4   -1    0    0  501    0  0.00000000000E+00  0.00000000000E+00 -0.27207326669E+03  0.27207623076E+03  0.12699999809E+01 0.  1.
    10030    2    1    2    0    0  0.00000000000E+00  0.00000000000E+00 -0.50595127047E+02  0.49355801159E+03  0.49095788406E+03 0.  0.
        3    1    3    3  502    0  0.11432767463E+02 -0.15787444790E+03 -0.21392081396E+03  0.26611496448E+03  0.10100000352E+00 0.  1.
       -3    1    3    3    0  502 -0.11432767463E+02  0.15787444790E+03  0.16332568692E+03  0.22744304711E+03  0.10100000352E+00 0. -1.
</event>
<event>
 5   0  0.2413301E-01  0.4803146E+03  0.7818609E-02  0.1019049E+00
       -2   -1    0    0    0  501  0.00000000000E+00  0.00000000000E+00  0.20882882121E+03  0.20882882122E+03  0.25500000920E-02 0. -1.
        2   -1    0    0  501    0  0.00000000000E+00  0.00000000000E+00 -0.27618568865E+03  0.27618568866E+03  0.25500000920E-02 0.  1.
    10030    2    1    2    0    0  0.00000000000E+00  0.00000000000E+00 -0.67356867445E+02  0.48501450989E+03  0.48031461274E+03 0.  0.
        4    1    3    3  502    0  0.27921293352E+02  0.19111508658E+03 -0.17779617693E+03  0.26252174838E+03  0.12699999809E+01 0.  1.
       -4    1    3    3    0  502 -0.27921293352E+02 -0.19111508658E+03  0.11043930949E+03  0.22249276150E+03  0.12699999809E+01 0. -1.
</event>
<event>
 5   0  0.1413361E-01  0.5127067E+03  0.7818609E-02  0.1010514E+00
        1   -1    0    0  501    0  0.00000000000E+00  0.00000000000E+00  0.85413345057E+02  0.85413345205E+02  0.50400001928E-02 0.  1.
       -1   -1    0    0    0  501  0.00000000000E+00  0.00000000000E+00 -0.76940020859E+03  0.76940020860E+03  0.50400001928E-02 0. -1.
    10030    2    1    2    0    0  0.00000000000E+00  0.00000000000E+00 -0.68398686353E+03  0.85481355381E+03  0.51270672152E+03 0.  0.
        3    1    3    3  502    0 -0.15766172523E+03 -0.19120010255E+03 -0.45135244401E+03  0.51491138823E+03  0.10100000352E+00 0. -1.
       -3    1    3    3    0  502  0.15766172523E+03  0.19120010255E+03 -0.23263441953E+03  0.33990216558E+03  0.10100000352E+00 0.  1.
</event>
<event>
 5   0  0.9868500E-02  0.5304561E+03  0.7818609E-02  0.1006122E+00
        4   -1    0    0  501    0  0.00000000000E+00  0.00000000000E+00  0.15932929125E+03  0.15933435270E+03  0.12699999809E+01 0. -1.
       -4   -1    0    0    0  501  0.00000000000E+00  0.00000000000E+00 -0.44149976282E+03  0.44150158943E+03  0.12699999809E+01 0.  1.
    10030    2    1    2    0    0  0.00000000000E+00  0.00000000000E+00 -0.28217047157E+03  0.60083594214E+03  0.53045608144E+03 0.  0.
        1    1    3    3  502    0  0.10625821642E+03 -0.66983854063E+02  0.12350667189E+03  0.17615772276E+03  0.50400001928E-02 0. -1.
       -1    1    3    3    0  502 -0.10625821642E+03  0.66983854063E+02 -0.40567714346E+03  0.42467821938E+03  0.50400001928E-02 0.  1.
</event>
<event>
 5   0  0.9868500E-02  0.5044382E+03  0.7818609E-02  0.1012627E+00
       -3   -1    0    0    0  501  0.00000000000E+00  0.00000000000E+00  0.44147610841E+03  0.44147611996E+03  0.10100000352E+00 0. -1.
        3   -1    0    0  501    0  0.00000000000E+00  0.00000000000E+00 -0.14409491967E+03  0.14409495507E+03  0.10100000352E+00 0.  1.
    10030    2    1    2    0    0  0.00000000000E+00  0.00000000000E+00  0.29738118874E+03  0.58557107503E+03  0.50443821475E+03 0.  0.
        2    1    3    3  502    0  0.30269037982E+02  0.10450347196E+02 -0.14172559912E+03  0.14529821014E+03  0.25500000920E-02 0.  1.
       -2    1    3    3    0  502 -0.30269037982E+02 -0.10450347196E+02  0.43910678786E+03  0.44027286490E+03  0.25500000920E-02 0. -1.
</event>
<event>
 5   0  0.9868500E-02  0.5049946E+03  0.7818609E-02  0.1012483E+00
       -3   -1    0    0    0  501  0.00000000000E+00  0.00000000000E+00  0.19466403524E+03  0.19466406144E+03  0.10100000352E+00 0. -1.
        3   -1    0    0  501    0  0.00000000000E+00  0.00000000000E+00 -0.32751234724E+03  0.32751236281E+03  0.10100000352E+00 0.  1.
    10030    2    1    2    0    0  0.00000000000E+00  0.00000000000E+00 -0.13284831200E+03  0.52217642425E+03  0.50499459803E+03 0.  0.
        2    1    3    3  502    0 -0.21132000695E+03  0.13214250217E+03 -0.10826188509E+03  0.27173226159E+03  0.25500000920E-02 0.  1.
       -2    1    3    3    0  502  0.21132000695E+03 -0.13214250217E+03 -0.24586426911E+02  0.25044416266E+03  0.25500000920E-02 0. -1.
</event>
<event>
 5   0  0.1448458E-01  0.5549442E+03  0.7818609E-02  0.1000356E+00
       -1   -1    0    0    0  501  0.00000000000E+00  0.00000000000E+00  0.23008819969E+03  0.23008819975E+03  0.50400001928E-02 0. -1.
        1   -1    0    0  501    0  0.00000000000E+00  0.00000000000E+00 -0.33461415985E+03  0.33461415989E+03  0.50400001928E-02 0.  1.
    10030    2    1    2    0    0  0.00000000000E+00  0.00000000000E+00 -0.10452596016E+03  0.56470235964E+03  0.55494421218E+03 0.  0.
        5    1    3    3  502    0 -0.19545025769E+03  0.19688553231E+03 -0.54288866447E+02  0.28272616978E+03  0.46999998093E+01 0. -1.
       -5    1    3    3    0  502  0.19545025769E+03 -0.19688553231E+03 -0.50237093712E+02  0.28197618985E+03  0.46999998093E+01 0.  1.
</event>
<event>
 5   0  0.9868500E-02  0.5090849E+03  0.7818609E-02  0.1011434E+00
       -4   -1    0    0    0  501  0.00000000000E+00  0.00000000000E+00  0.72843175453E+02  0.72854245655E+02  0.12699999809E+01 0. -1.
        4   -1    0    0  501    0  0.00000000000E+00  0.00000000000E+00 -0.88939149645E+03  0.88939240319E+03  0.12699999809E+01 0.  1.
    10030    2    1    2    0    0  0.00000000000E+00  0.00000000000E+00 -0.81654832100E+03  0.96224664885E+03  0.50908491698E+03 0.  0.
        5    1    3    3  502    0 -0.16461570341E+03  0.13543988099E+03 -0.14549929891E+03  0.25813645065E+03  0.46999998093E+01 0.  1.
       -5    1    3    3    0  502  0.16461570341E+03 -0.13543988099E+03 -0.67104902208E+03  0.70411019820E+03  0.46999998093E+01 0. -1.
</event>
<event>
 5   0  0.1413361E-01  0.4940290E+03  0.7818609E-02  0.1015349E+00
        1   -1    0    0  501    0  0.00000000000E+00  0.00000000000E+00  0.42505199183E+03  0.42505199186E+03  0.50400001928E-02 0. -1.
       -1   -1    0    0    0  501  0.00000000000E+00  0.00000000000E+00 -0.14354990973E+03  0.14354990982E+03  0.50400001928E-02 0.  1.
    10030    2    1    2    0    0  0.00000000000E+00  0.00000000000E+00  0.28150208210E+03  0.56860190167E+03  0.49402904810E+03 0.  0.
        3    1    3    3  502    0  0.64824800164E+02 -0.24133025073E+02  0.41367752780E+03  0.41942074916E+03  0.10100000352E+00 0. -1.
       -3    1    3    3    0  502 -0.64824800164E+02  0.24133025073E+02 -0.13217544571E+03  0.14918115251E+03  0.10100000352E+00 0.  1.
</event>
<event>
 5   0  0.1413361E-01  0.5227910E+03  0.7818609E-02  0.1007996E+00
        1   -1    0    0  501    0  0.00000000000E+00  0.00000000000E+00  0.76990295095E+03  0.76990295097E+03  0.50400001928E-02 0. -1.
       -1   -1    0    0    0  501  0.00000000000E+00  0.00000000000E+00 -0.88748336651E+02  0.88748336794E+02  0.50400001928E-02 0.  1.
    10030    2    1    2    0    0  0.00000000000E+00  0.00000000000E+00  0.68115461430E+03  0.85865128776E+03  0.52279099590E+03 0.  0.
        3    1    3    3  502    0 -0.41642581070E+02  0.11181824885E+03  0.72256370904E+03  0.73234947201E+03  0.10100000352E+00 0. -1.
       -3    1    3    3    0  502  0.41642581070E+02 -0.11181824885E+03 -0.41409094735E+02  0.12630181575E+03  0.10100000352E+00 0.  1.
</event>
<event>
 5   0  0.2504064E-01  0.4881865E+03  0.7818609E-02  0.1016909E+00
       -2   -1    0    0    0  501  0.00000000000E+00  0.00000000000E+00  0.70249087530E+02  0.70249087576E+02  0.25500000920E-02 0.  1.
        2   -1    0    0  501    0  0.00000000000E+00  0.00000000000E+00 -0.84814642539E+03  0.84814642540E+03  0.25500000920E-02 0. -1.
    10030    2    1    2    0    0  0.00000000000E+00  0.00000000000E+00 -0.77789733786E+03  0.91839551297E+03  0.48818649100E+03 0.  0.
        5    1    3    3  502    0 -0.22923635123E+03 -0.24595090457E+02 -0.53950891625E+03  0.58672496445E+03  0.46999998093E+01 0. -1.
       -5    1    3    3    0  502  0.22923635123E+03  0.24595090457E+02 -0.23838842162E+03  0.33167054853E+03  0.46999998093E+01 0.  1.
</event>
<event>
 5   0  0.1529146E-01  0.4975012E+03  0.7818609E-02  0.1014433E+00
        1   -1    0    0  501    0  0.00000000000E+00  0.00000000000E+00  0.83675368731E+03  0.83675368733E+03  0.50400001928E-02 0. -1.
       -1   -1    0    0    0  501  0.00000000000E+00  0.00000000000E+00 -0.73948730441E+02  0.73948730613E+02  0.50400001928E-02 0.  1.
    10030    2    1    2    0    0  0.00000000000E+00  0.00000000000E+00  0.76280495687E+03  0.91070241794E+03  0.49750124805E+03 0.  0.
        1    1    3    3  502    0  0.21423936273E+03 -0.69997906126E+01  0.15036542718E+03  0.26183441968E+03  0.50400001928E-02 0.  1.
       -1    1    3    3    0  502 -0.21423936273E+03  0.69997906126E+01  0.61243952969E+03  0.64886799826E+03  0.50400001928E-02 0. -1.
</event>
<event>
 5   0  0.1448458E-01  0.4992907E+03  0.7818609E-02  0.1013964E+00
       -1   -1    0    0    0  501  0.00000000000E+00  0.00000000000E+00  0.31345762179E+02  0.31345762584E+02  0.50400001928E-02 0. -1.
        1   -1    0    0  501    0  0.00000000000E+00  0.00000000000E+00 -0.19882370020E+04  0.19882370020E+04  0.50400001928E-02 0.  1.
    10030    2    1    2    0    0  0.00000000000E+00  0.00000000000E+00 -0.19568912398E+04  0.20195827646E+04  0.49929071545E+03 0.  0.
        5    1    3    3  502    0  0.12829418453E+03 -0.12954054755E+03 -0.28890448347E+03  0.34165485773E+03  0.46999998093E+01 0. -1.
       -5    1    3    3    0  502 -0.12829418453E+03  0.12954054755E+03 -0.16679867563E+04  0.16779279068E+04  0.46999998093E+01 0.  1.
</event>
<event>
 5   0  0.1439814E-01  0.4967742E+03  0.7818609E-02  0.1014624E+00
       -1   -1    0    0    0  501  0.00000000000E+00  0.00000000000E+00  0.11025468250E+04  0.11025468250E+04  0.50400001928E-02 0.  1.
        1   -1    0    0  501    0  0.00000000000E+00  0.00000000000E+00 -0.55957845568E+02  0.55957845795E+02  0.50400001928E-02 0. -1.
    10030    2    1    2    0    0  0.00000000000E+00  0.00000000000E+00  0.10465889795E+04  0.11585046708E+04  0.49677417447E+03 0.  0.
        4    1    3    3  502    0 -0.11049343971E+03 -0.31472843336E+02  0.97381192247E+01  0.11530734561E+03  0.12699999809E+01 0. -1.
       -4    1    3    3    0  502  0.11049343971E+03  0.31472843336E+02  0.10368508602E+04  0.10431973252E+04  0.12699999809E+01 0.  1.
</event>
<event>
 5   0  0.1453602E-01  0.5062111E+03  0.7818609E-02  0.1012170E+00
        1   -1    0    0  501    0  0.00000000000E+00  0.00000000000E+00  0.75525160083E+02  0.75525160251E+02  0.50400001928E-02 0. -1.
       -1   -1    0    0    0  501  0.00000000000E+00  0.00000000000E+00 -0.84822634949E+03  0.84822634951E+03  0.50400001928E-02 0.  1.
    10030    2    1    2    0    0  0.00000000000E+00  0.00000000000E+00 -0.77270118941E+03  0.92375150976E+03  0.50621114534E+03 0.  0.
        2    1    3    3  502    0  0.16421590681E+02 -0.15684678842E+03 -0.74761179881E+03  0.76406412389E+03  0.25500000920E-02 0.  1.
       -2    1    3    3    0  502 -0.16421590681E+02  0.15684678842E+03 -0.25089390596E+02  0.15968738587E+03  0.25500000920E-02 0. -1.
</event>
<event>
 5   0  0.2488968E-01  0.5042607E+03  0.7818609E-02  0.1012673E+00
        2   -1    0    0  501    0  0.00000000000E+00  0.00000000000E+00  0.16872499479E+03  0.16872499481E+03  0.25500000920E-02 0.  1.
       -2   -1    0    0    0  501  0.00000000000E+00  0.00000000000E+00 -0.37676530709E+03  0.37676530710E+03  0.25500000920E-02 0. -1.
    10030    2    1    2    0    0  0.00000000000E+00  0.00000000000E+00 -0.20804031230E+03  0.54549030191E+03  0.50426074399E+03 0.  0.
        2    1    3    3  502    0  0.18324297794E+03 -0.17312827610E+03 -0.10865226311E+03  0.27451175428E+03  0.25500000920E-02 0.  1.
       -2    1    3    3    0  502 -0.18324297794E+03  0.17312827610E+03 -0.99388049188E+02  0.27097854763E+03  0.25500000920E-02 0. -1.
</event>
<event>
 5   0  0.2466034E-01  0.5094868E+03  0.7818609E-02  0.1011332E+00
       -2   -1    0    0    0  501  0.00000000000E+00  0.00000000000E+00  0.56194097563E+02  0.56194097620E+02  0.25500000920E-02 0. -1.
        2   -1    0    0  501    0  0.00000000000E+00  0.00000000000E+00 -0.11548224408E+04  0.11548224409E+04  0.25500000920E-02 0.  1.
    10030    2    1    2    0    0  0.00000000000E+00  0.00000000000E+00 -0.10986283433E+04  0.12110165385E+04  0.50948682003E+03 0.  0.
        3    1    3    3  502    0 -0.24529276941E+03 -0.65859338504E+02 -0.59614637988E+03  0.64799422192E+03  0.10100000352E+00 0.  1.
       -3    1    3    3    0  502  0.24529276941E+03  0.65859338504E+02 -0.50248196340E+03  0.56302231655E+03  0.10100000352E+00 0. -1.
</event>
<event>
 5   0  0.2413301E-01  0.5050132E+03  0.7818609E-02  0.1012479E+00
       -2   -1    0    0    0  501  0.00000000000E+00  0.00000000000E+00  0.67614479414E+02  0.67614479462E+02  0.25500000920E-02 0. -1.
        2   -1    0    0  501    0  0.00000000000E+00  0.00000000000E+00 -0.94298728291E+03  0.94298728292E+03  0.25500000920E-02 0.  1.
    10030    2    1    2    0    0  0.00000000000E+00  0.00000000000E+00 -0.87537280350E+03  0.10106017624E+04  0.50501324440E+03 0.  0.
        4    1    3    3  502    0  0.70981048840E+02  0.20206434370E+03 -0.17002947616E+03  0.27345921808E+03  0.12699999809E+01 0. -1.
       -4    1    3    3    0  502 -0.70981048840E+02 -0.20206434370E+03 -0.70534332734E+03  0.73714254430E+03  0.12699999809E+01 0.  1.
</event>
<event>
 5   0  0.1413361E-01  0.4999156E+03  0.7818609E-02  0.1013801E+00
        1   -1    0    0  501    0  0.00000000000E+00  0.00000000000E+00  0.19154829684E+03  0.19154829691E+03  0.50400001928E-02 0. -1.
       -1   -1    0    0    0  501  0.00000000000E+00  0.00000000000E+00 -0.32617826682E+03  0.32617826686E+03  0.50400001928E-02 0.  1.
    10030    2    1    2    0    0  0.00000000000E+00  0.00000000000E+00 -0.13462996998E+03  0.51772656377E+03  0.49991555889E+03 0.  0.
        3    1    3    3  502    0 -0.11948989507E+03  0.46205865729E+02  0.15496192437E+03  0.20106224225E+03  0.10100000352E+00 0. -1.
       -3    1    3    3    0  502  0.11948989507E+03 -0.46205865729E+02 -0.28959189435E+03  0.31666432152E+03  0.10100000352E+00 0.  1.
</event>
<event>
 5   0  0.2511944E-01  0.4979795E+03  0.7818609E-02  0.1014308E+00
       -2   -1    0    0    0  501  0.00000000000E+00  0.00000000000E+00  0.64513343290E+03  0.64513343291E+03  0.25500000920E-02 0.  1.
        2   -1    0    0  501    0  0.00000000000E+00  0.00000000000E+00 -0.96097776875E+02  0.96097776909E+02  0.25500000920E-02 0. -1.
    10030    2    1    2    0    0  0.00000000000E+00  0.00000000000E+00  0.54903565603E+03  0.74123120982E+03  0.49797947229E+03 0.  0.
        1    1    3    3  502    0 -0.23597057533E+03 -0.71559590497E+02  0.32592961612E+03  0.40869671164E+03  0.50400001928E-02 0. -1.
       -1    1    3    3    0  502  0.23597057533E+03  0.71559590497E+02  0.22310603990E+03  0.33253449818E+03  0.50400001928E-02 0.  1.
</event>
<event>
 5   0  0.2504064E-01  0.4892439E+03  0.7818609E-02  0.1016625E+00
        2   -1    0    0  501    0  0.00000000000E+00  0.00000000000E+00  0.10707523352E+04  0.10707523352E+04  0.25500000920E-02 0. -1.
       -2   -1    0    0    0  501  0.00000000000E+00  0.00000000000E+00 -0.55885833338E+02  0.55885833396E+02  0.25500000920E-02 0.  1.
    10030    2    1    2    0    0  0.00000000000E+00  0.00000000000E+00  0.10148665018E+04  0.11266381686E+04  0.48924385161E+03 0.  0.
        5    1    3    3  502    0  0.16874998155E+03  0.16953637847E+03  0.39004259263E+03  0.45757453378E+03  0.46999998093E+01 0.  1.
       -5    1    3    3    0  502 -0.16874998155E+03 -0.16953637847E+03  0.62482390918E+03  0.66906363478E+03  0.46999998093E+01 0. -1.
</event>
<event>
 5   0  0.1439814E-01  0.4896565E+03  0.7818609E-02  0.1016515E+00
        1   -1    0    0  501    0  0.00000000000E+00  0.00000000000E+00  0.71173130262E+03  0.71173130263E+03  0.50400001928E-02 0. -1.
       -1   -1    0    0    0  501  0.00000000000E+00  0.00000000000E+00 -0.84218392234E+02  0.84218392385E+02  0.50400001928E-02 0.  1.
    10030    2    1    2    0    0  0.00000000000E+00  0.00000000000E+00  0.62751291038E+03  0.79594969502E+03  0.48965647581E+03 0.  0.
        4    1    3    3  502    0 -0.25564735003E+01 -0.60949888281E+02  0.69917370864E+03  0.70183111372E+03  0.12699999809E+01 0. -1.
       -4    1    3    3    0  502  0.25564735003E+01  0.60949888281E+02 -0.71660798257E+02  0.94118581295E+02  0.12699999809E+01 0.  1.
</event>
<event>
 5   0  0.1453602E-01  0.5017514E+03  0.7818609E-02  0.1013323E+00
        1   -1    0    0  501    0  0.00000000000E+00  0.00000000000E+00  0.65336132498E+03  0.65336132500E+03  0.50400001928E-02 0. -1.
       -1   -1    0    0    0  501  0.00000000000E+00  0.00000000000E+00 -0.96330471615E+02  0.96330471747E+02  0.50400001928E-02 0.  1.
    10030    2    1    2    0    0  0.00000000000E+00  0.00000000000E+00  0.55703085337E+03  0.74969179675E+03  0.50175135128E+03 0.  0.
        2    1    3    3  502    0 -0.10848060619E+03 -0.10892133614E+03 -0.17713543615E+02  0.15474388201E+03  0.25500000920E-02 0.  1.
       -2    1    3    3    0  502  0.10848060619E+03  0.10892133614E+03  0.57474439698E+03  0.59494791474E+03  0.25500000920E-02 0. -1.
</event>
<event>
 5   0  0.1453602E-01  0.4934693E+03  0.7818609E-02  0.1015498E+00
        1   -1    0    0  501    0  0.00000000000E+00  0.00000000000E+00  0.80247200775E+03  0.80247200777E+03  0.50400001928E-02 0.  1.
       -1   -1    0    0    0  501  0.00000000000E+00  0.00000000000E+00 -0.75863076030E+02  0.75863076198E+02  0.50400001928E-02 0. -1.
    10030    2    1    2    0    0  0.00000000000E+00  0.00000000000E+00  0.72660893172E+03  0.87833508397E+03  0.49346933042E+03 0.  0.
        2    1    3    3  502    0 -0.13450900987E+02 -0.87874630828E+02  0.77297622698E+03  0.77807141379E+03  0.25500000920E-02 0.  1.
       -2    1    3    3    0  502  0.13450900987E+02  0.87874630828E+02 -0.46367295258E+02  0.10026367017E+03  0.25500000920E-02 0. -1.
</event>
<event>
 5   0  0.1413361E-01  0.5065091E+03  0.7818609E-02  0.1012094E+00
       -1   -1    0    0    0  501  0.00000000000E+00  0.00000000000E+00  0.56925405538E+02  0.56925405761E+02  0.50400001928E-02 0.  1.
        1   -1    0    0  501    0  0.00000000000E+00  0.00000000000E+00 -0.11267003364E+04  0.11267003364E+04  0.50400001928E-02 0. -1.
    10030    2    1    2    0    0  0.00000000000E+00  0.00000000000E+00 -0.10697749308E+04  0.11836257421E+04  0.50650912610E+03 0.  0.
        3    1    3    3  502    0 -0.13438614513E+03  0.12635852070E+03 -0.12938346989E+03  0.22531356869E+03  0.10100000352E+00 0.  1.
       -3    1    3    3    0  502  0.13438614513E+03 -0.12635852070E+03 -0.94039146094E+03  0.95831217344E+03  0.10100000352E+00 0. -1.
</event>
<event>
 5   0  0.1453602E-01  0.5025314E+03  0.7818609E-02  0.1013120E+00
        1   -1    0    0  501    0  0.00000000000E+00  0.00000000000E+00  0.15700899682E+04  0.15700899682E+04  0.50400001928E-02 0. -1.
       -1   -1    0    0    0  501  0.00000000000E+00  0.00000000000E+00 -0.40210718167E+02  0.40210718483E+02  0.50400001928E-02 0.  1.
    10030    2    1    2    0    0  0.00000000000E+00  0.00000000000E+00  0.15298792500E+04  0.16103006867E+04  0.50253137402E+03 0.  0.
        2    1    3    3  502    0  0.13115130150E+03 -0.28209675518E+02  0.84146857757E+02  0.15835764381E+03  0.25500000920E-02 0.  1.
       -2    1    3    3    0  502 -0.13115130150E+03  0.28209675518E+02  0.14457323923E+04  0.14519430429E+04  0.25500000920E-02 0. -1.
</event>
<event>
 5   0  0.2488968E-01  0.5076144E+03  0.7818609E-02  0.1011810E+00
       -2   -1    0    0    0  501  0.00000000000E+00  0.00000000000E+00  0.82897106317E+02  0.82897106356E+02  0.25500000920E-02 0. -1.
        2   -1    0    0  501    0  0.00000000000E+00  0.00000000000E+00 -0.77708502351E+03  0.77708502351E+03  0.25500000920E-02 0.  1.
    10030    2    1    2    0    0  0.00000000000E+00  0.00000000000E+00 -0.69418791719E+03  0.85998212987E+03  0.50761441993E+03 0.  0.
        2    1    3    3  502    0 -0.14622758677E+03  0.15974099456E+03 -0.57132864130E+03  0.61099599741E+03  0.25500000920E-02 0.  1.
       -2    1    3    3    0  502  0.14622758677E+03 -0.15974099456E+03 -0.12285927589E+03  0.24898613246E+03  0.25500000920E-02 0. -1.
</event>
<event>
 5   0  0.2488968E-01  0.5057494E+03  0.7818609E-02  0.1012289E+00
        2   -1    0    0  501    0  0.00000000000E+00  0.00000000000E+00  0.41606650614E+03  0.41606650615E+03  0.25500000920E-02 0. -1.
       -2   -1    0    0    0  501  0.00000000000E+00  0.00000000000E+00 -0.15369083147E+03  0.15369083149E+03  0.25500000920E-02 0.  1.
    10030    2    1    2    0    0  0.00000000000E+00  0.00000000000E+00  0.26237567468E+03  0.56975733764E+03  0.50574937383E+03 0.  0.
        2    1    3    3  502    0  0.18884610686E+03 -0.12622866601E+03  0.25637847717E+03  0.34252949035E+03  0.25500000920E-02 0. -1.
       -2    1    3    3    0  502 -0.18884610686E+03  0.12622866601E+03  0.59971975094E+01  0.22722784729E+03  0.25500000920E-02 0.  1.
</event>
<event>
 5   0  0.2466034E-01  0.4914388E+03  0.7818609E-02  0.1016038E+00
        2   -1    0    0  501    0  0.00000000000E+00  0.00000000000E+00  0.12374872917E+04  0.12374872917E+04  0.25500000920E-02 0.  1.
       -2   -1    0    0    0  501  0.00000000000E+00  0.00000000000E+00 -0.48790818255E+02  0.48790818322E+02  0.25500000920E-02 0. -1.
    10030    2    1    2    0    0  0.00000000000E+00  0.00000000000E+00  0.11886964734E+04  0.12862781100E+04  0.49143877579E+03 0.  0.
        3    1    3    3  502    0 -0.69163406066E+02  0.12218083975E+03  0.11221643503E+04  0.11309131592E+04  0.10100000352E+00 0.  1.
       -3    1    3    3    0  502  0.69163406066E+02 -0.12218083975E+03  0.66532123169E+02  0.15536495086E+03  0.10100000352E+00 0. -1.
</event>
<event>
 5   0  0.9868500E-02  0.4682799E+03  0.7818609E-02  0.1022407E+00
       -3   -1    0    0    0  501  0.00000000000E+00  0.00000000000E+00  0.11210259351E+04  0.11210259397E+04  0.10100000352E+00 0.  1.
        3   -1    0    0  501    0  0.00000000000E+00  0.00000000000E+00 -0.48902931263E+02  0.48903035562E+02  0.10100000352E+00 0. -1.
    10030    2    1    2    0    0  0.00000000000E+00  0.00000000000E+00  0.10721230039E+04  0.11699289752E+04  0.46827990741E+03 0.  0.
        2    1    3    3  502    0  0.18394083450E+03  0.33646471063E+01  0.17422284448E+03  0.25337551380E+03  0.25500000920E-02 0. -1.
       -2    1    3    3    0  502 -0.18394083450E+03 -0.33646471063E+01  0.89790015938E+03  0.91655346143E+03  0.25500000920E-02 0.  1.
</event>
<event>
 5   0  0.1439814E-01  0.5042924E+03  0.7818609E-02  0.1012665E+00
       -1   -1    0    0    0  501  0.00000000000E+00  0.00000000000E+00  0.59765452697E+02  0.59765452909E+02  0.50400001928E-02 0. -1.
        1   -1    0    0  501    0  0.00000000000E+00  0.00000000000E+00 -0.10637867540E+04  0.10637867540E+04  0.50400001928E-02 0.  1.
    10030    2    1    2    0    0  0.00000000000E+00  0.00000000000E+00 -0.10040213013E+04  0.11235522069E+04  0.50429236382E+03 0.  0.
        4    1    3    3  502    0 -0.19227615355E+03 -0.50158322452E+02 -0.84781482795E+03  0.87079134810E+03  0.12699999809E+01 0.  1.
       -4    1    3    3    0  502  0.19227615355E+03  0.50158322452E+02 -0.15620647335E+03  0.25276085881E+03  0.12699999809E+01 0. -1.
</event>
<event>
 5   0  0.1453602E-01  0.3738684E+03  0.7818609E-02  0.1053224E+00
       -1   -1    0    0    0  501  0.00000000000E+00  0.00000000000E+00  0.11297391505E+04  0.11297391505E+04  0.50400001928E-02 0. -1.
        1   -1    0    0  501    0  0.00000000000E+00  0.00000000000E+00 -0.30931385063E+02  0.30931385473E+02  0.50400001928E-02 0.  1.
    10030    2    1    2    0    0  0.00000000000E+00  0.00000000000E+00  0.10988077655E+04  0.11606705360E+04  0.37386840963E+03 0.  0.
        2    1    3    3  502    0  0.82939020681E+02 -0.16300839488E+03  0.66939065199E+03  0.69392684263E+03  0.25500000920E-02 0. -1.
       -2    1    3    3    0  502 -0.82939020681E+02  0.16300839488E+03  0.42941711349E+03  0.46674369339E+03  0.25500000920E-02 0.  1.
</event>
<event>
 5   0  0.9868500E-02  0.4338660E+03  0.7818609E-02  0.1032646E+00
       -3   -1    0    0    0  501  0.00000000000E+00  0.00000000000E+00  0.71178880039E+02  0.71178951696E+02  0.10100000352E+00 0. -1.
        3   -1    0    0  501    0  0.00000000000E+00  0.00000000000E+00 -0.66114966425E+03  0.66114967196E+03  0.10100000352E+00 0.  1.
    10030    2    1    2    0    0  0.00000000000E+00  0.00000000000E+00 -0.58997078421E+03  0.73232862366E+03  0.43386597793E+03 0.  0.
        4    1    3    3  502    0  0.40389007488E+01 -0.84487006215E+02 -0.63216267992E+03  0.63779748645E+03  0.12699999809E+01 0.  1.
       -4    1    3    3    0  502 -0.40389007488E+01  0.84487006215E+02  0.42191895710E+02  0.94531137209E+02  0.12699999809E+01 0. -1.
</event>
<event>
 5   0  0.1453602E-01  0.4841411E+03  0.7818609E-02  0.1018003E+00
        1   -1    0    0  501    0  0.00000000000E+00  0.00000000000E+00  0.11062362736E+04  0.11062362736E+04  0.50400001928E-02 0. -1.
       -1   -1    0    0    0  501  0.00000000000E+00  0.00000000000E+00 -0.52970728299E+02  0.52970728539E+02  0.50400001928E-02 0.  1.
    10030    2    1    2    0    0  0.00000000000E+00  0.00000000000E+00  0.10532655453E+04  0.11592070022E+04  0.48414105891E+03 0.  0.
        2    1    3    3  502    0 -0.22857503688E+03 -0.38867790764E+02  0.69322380655E+03  0.73096956067E+03  0.25500000920E-02 0. -1.
       -2    1    3    3    0  502  0.22857503688E+03  0.38867790764E+02  0.36004173878E+03  0.42823744152E+03  0.25500000920E-02 0.  1.
</event>
<event>
 5   0  0.2466034E-01  0.5197538E+03  0.7818609E-02  0.1008748E+00
        2   -1    0    0  501    0  0.00000000000E+00  0.00000000000E+00  0.77132610578E+03  0.77132610578E+03  0.25500000920E-02 0. -1.
       -2   -1    0    0    0  501  0.00000000000E+00  0.00000000000E+00 -0.87558311887E+02  0.87558311924E+02  0.25500000920E-02 0.  1.
    10030    2    1    2    0    0  0.00000000000E+00  0.00000000000E+00  0.68376779389E+03  0.85888441771E+03  0.51975383309E+03 0.  0.
        3    1    3    3  502    0 -0.25779932423E+03  0.30721042140E+02  0.32291791525E+03  0.41434317202E+03  0.10100000352E+00 0.  1.
       -3    1    3    3    0  502  0.25779932423E+03 -0.30721042140E+02  0.36084987864E+03  0.44454124569E+03  0.10100000352E+00 0. -1.
</event>
<event>
 5   0  0.2488968E-01  0.4962998E+03  0.7818609E-02  0.1014749E+00
        2   -1    0    0  501    0  0.00000000000E+00  0.00000000000E+00  0.91643897589E+03  0.91643897589E+03  0.25500000920E-02 0.  1.
       -2   -1    0    0    0  501  0.00000000000E+00  0.00000000000E+00 -0.67193088836E+02  0.67193088885E+02  0.25500000920E-02 0. -1.
    10030    2    1    2    0    0  0.00000000000E+00  0.00000000000E+00  0.84924588705E+03  0.98363206478E+03  0.49629977048E+03 0.  0.
        2    1    3    3  502    0  0.23819370251E+03  0.32884454894E+02  0.30308128539E+03  0.38687968782E+03  0.25500000920E-02 0. -1.
       -2    1    3    3    0  502 -0.23819370251E+03 -0.32884454894E+02  0.54616460166E+03  0.59675237696E+03  0.25500000920E-02 0.  1.
</event>
<event>
 5   0  0.2488968E-01  0.5019715E+03  0.7818609E-02  0.1013266E+00
        2   -1    0    0  501    0  0.00000000000E+00  0.00000000000E+00  0.22296046687E+03  0.22296046689E+03  0.25500000920E-02 0.  1.
       -2   -1    0    0    0  501  0.00000000000E+00  0.00000000000E+00 -0.28253374488E+03  0.28253374489E+03  0.25500000920E-02 0. -1.
    10030    2    1    2    0    0  0.00000000000E+00  0.00000000000E+00 -0.59573278008E+02  0.50549421178E+03  0.50197153574E+03 0.  0.
        2    1    3    3  502    0 -0.20677739772E+03  0.10983349796E+03 -0.12082886917E+03  0.26347657413E+03  0.25500000920E-02 0. -1.
       -2    1    3    3    0  502  0.20677739772E+03 -0.10983349796E+03  0.61255591162E+02  0.24201763766E+03  0.25500000920E-02 0.  1.
</event>
<event>
 5   0  0.1453602E-01  0.4788584E+03  0.7818609E-02  0.1019449E+00
        1   -1    0    0  501    0  0.00000000000E+00  0.00000000000E+00  0.66618339340E+03  0.66618339342E+03  0.50400001928E-02 0. -1.
       -1   -1    0    0    0  501  0.00000000000E+00  0.00000000000E+00 -0.86051889949E+02  0.86051890096E+02  0.50400001928E-02 0.  1.
    10030    2    1    2    0    0  0.00000000000E+00  0.00000000000E+00  0.58013150345E+03  0.75223528351E+03  0.47885839292E+03 0.  0.
        2    1    3    3  502    0  0.22405324822E+03  0.84267798914E+02  0.28214556254E+03  0.37000951128E+03  0.25500000920E-02 0. -1.
       -2    1    3    3    0  502 -0.22405324822E+03 -0.84267798914E+02  0.29798594091E+03  0.38222577223E+03  0.25500000920E-02 0.  1.
</event>
<event>
 5   0  0.1448458E-01  0.4927849E+03  0.7818609E-02  0.1015679E+00
        1   -1    0    0  501    0  0.00000000000E+00  0.00000000000E+00  0.14494360390E+03  0.14494360399E+03  0.50400001928E-02 0.  1.
       -1   -1    0    0    0  501  0.00000000000E+00  0.00000000000E+00 -0.41884738984E+03  0.41884738987E+03  0.50400001928E-02 0. -1.
    10030    2    1    2    0    0  0.00000000000E+00  0.00000000000E+00 -0.27390378594E+03  0.56379099386E+03  0.49278494377E+03 0.  0.
        5    1    3    3  502    0  0.19453904001E+03  0.14214429364E+03 -0.78203922606E+02  0.25335426148E+03  0.46999998093E+01 0.  1.
       -5    1    3    3    0  502 -0.19453904001E+03 -0.14214429364E+03 -0.19569986334E+03  0.31043673238E+03  0.46999998093E+01 0. -1.
</event>
<event>
 5   0  0.9868500E-02  0.5140998E+03  0.7818609E-02  0.1010163E+00
       -3   -1    0    0    0  501  0.00000000000E+00  0.00000000000E+00  0.12260869870E+03  0.12260874030E+03  0.10100000352E+00 0.  1.
        3   -1    0    0  501    0  0.00000000000E+00  0.00000000000E+00 -0.53890668090E+03  0.53890669036E+03  0.10100000352E+00 0. -1.
    10030    2    1    2    0    0  0.00000000000E+00  0.00000000000E+00 -0.41629798219E+03  0.66151543066E+03  0.51409984927E+03 0.  0.
        3    1    3    3  502    0 -0.10548931938E+03 -0.48092019637E+02  0.87056836220E+02  0.14498186711E+03  0.10100000352E+00 0.  1.
       -3    1    3    3    0  502  0.10548931938E+03  0.48092019637E+02 -0.50335481841E+03  0.51653356355E+03  0.10100000352E+00 0. -1.
</event>
<event>
 5   0  0.2511944E-01  0.5025510E+03  0.7818609E-02  0.1013115E+00
        2   -1    0    0  501    0  0.00000000000E+00  0.00000000000E+00  0.97725712913E+03  0.97725712913E+03  0.25500000920E-02 0. -1.
       -2   -1    0    0    0  501  0.00000000000E+00  0.00000000000E+00 -0.64608776692E+02  0.64608776742E+02  0.25500000920E-02 0.  1.
    10030    2    1    2    0    0  0.00000000000E+00  0.00000000000E+00  0.91264835243E+03  0.10418659059E+04  0.50255104280E+03 0.  0.
        1    1    3    3  502    0  0.22908178858E+03  0.92137327835E+02  0.35971352197E+03  0.43630444755E+03  0.50400001928E-02 0. -1.
       -1    1    3    3    0  502 -0.22908178858E+03 -0.92137327835E+02  0.55293483046E+03  0.60556145832E+03  0.50400001928E-02 0.  1.
</event>
<event>
 5   0  0.2466034E-01  0.5010914E+03  0.7818609E-02  0.1013494E+00
       -2   -1    0    0    0  501  0.00000000000E+00  0.00000000000E+00  0.14057282529E+03  0.14057282531E+03  0.25500000920E-02 0.  1.
        2   -1    0    0  501    0  0.00000000000E+00  0.00000000000E+00 -0.44655256342E+03  0.44655256343E+03  0.25500000920E-02 0. -1.
    10030    2    1    2    0    0  0.00000000000E+00  0.00000000000E+00 -0.30597973813E+03  0.58712538874E+03  0.50109143073E+03 0.  0.
        3    1    3    3  502    0  0.69754583117E+02  0.20630788994E+03 -0.78488303061E+01  0.21792260473E+03  0.10100000352E+00 0.  1.
       -3    1    3    3    0  502 -0.69754583117E+02 -0.20630788994E+03 -0.29813090783E+03  0.36920278401E+03  0.10100000352E+00 0. -1.
</event>
<event>
 5   0  0.9868500E-02  0.5032756E+03  0.7818609E-02  0.1012927E+00
        4   -1    0    0  501    0  0.00000000000E+00  0.00000000000E+00  0.44579234483E+03  0.44579415385E+03  0.12699999809E+01 0. -1.
       -4   -1    0    0    0  501  0.00000000000E+00  0.00000000000E+00 -0.14203786774E+03  0.14204354533E+03  0.12699999809E+01 0.  1.
    10030    2    1    2    0    0  0.00000000000E+00  0.00000000000E+00  0.30375447709E+03  0.58783769919E+03  0.50327564836E+03 0.  0.
        1    1    3    3  502    0 -0.14657801324E+02  0.25033876843E+03  0.17630106199E+03  0.30653941770E+03  0.50400001928E-02 0. -1.
       -1    1    3    3    0  502  0.14657801324E+02 -0.25033876843E+03  0.12745341510E+03  0.28129828148E+03  0.50400001928E-02 0.  1.
</event>
<event>
 5   0  0.9868500E-02  0.3540814E+03  0.7818609E-02  0.1060952E+00
       -3   -1    0    0    0  501  0.00000000000E+00  0.00000000000E+00  0.80631261720E+02  0.80631324977E+02  0.10100000352E+00 0.  1.
        3   -1    0    0  501    0  0.00000000000E+00  0.00000000000E+00 -0.38872509712E+03  0.38872511024E+03  0.10100000352E+00 0. -1.
    10030    2    1    2    0    0  0.00000000000E+00  0.00000000000E+00 -0.30809383540E+03  0.46935643522E+03  0.35408141983E+03 0.  0.
        5    1    3    3  502    0  0.72403753518E+02  0.92874064563E+02  0.21074797738E+02  0.11972523748E+03  0.46999998093E+01 0.  1.
       -5    1    3    3    0  502 -0.72403753518E+02 -0.92874064563E+02 -0.32916863314E+03  0.34963119774E+03  0.46999998093E+01 0. -1.
</event>
<event>
 5   0  0.2466034E-01  0.4973916E+03  0.7818609E-02  0.1014462E+00
        2   -1    0    0  501    0  0.00000000000E+00  0.00000000000E+00  0.90815234100E+03  0.90815234100E+03  0.25500000920E-02 0.  1.
       -2   -1    0    0    0  501  0.00000000000E+00  0.00000000000E+00 -0.68104884352E+02  0.68104884400E+02  0.25500000920E-02 0. -1.
    10030    2    1    2    0    0  0.00000000000E+00  0.00000000000E+00  0.84004745665E+03  0.97625722540E+03  0.49739163718E+03 0.  0.
        3    1    3    3  502    0 -0.10473959296E+03 -0.50473780915E+02 -0.11476903708E+02  0.11683199225E+03  0.10100000352E+00 0. -1.
       -3    1    3    3    0  502  0.10473959296E+03  0.50473780915E+02  0.85152436035E+03  0.85942523315E+03  0.10100000352E+00 0.  1.
</event>
<event>
 5   0  0.2488968E-01  0.5018687E+03  0.7818609E-02  0.1013292E+00
       -2   -1    0    0    0  501  0.00000000000E+00  0.00000000000E+00  0.10586904602E+03  0.10586904606E+03  0.25500000920E-02 0. -1.
        2   -1    0    0  501    0  0.00000000000E+00  0.00000000000E+00 -0.59477294707E+03  0.59477294707E+03  0.25500000920E-02 0.  1.
    10030    2    1    2    0    0  0.00000000000E+00  0.00000000000E+00 -0.48890390104E+03  0.70064199313E+03  0.50186868609E+03 0.  0.
        2    1    3    3  502    0  0.16034803381E+03  0.16297721413E+03 -0.10007560068E+03  0.24957602075E+03  0.25500000920E-02 0. -1.
       -2    1    3    3    0  502 -0.16034803381E+03 -0.16297721413E+03 -0.38882830036E+03  0.45106597238E+03  0.25500000920E-02 0.  1.
</event>
<event>
 5   0  0.2504064E-01  0.5254040E+03  0.7818609E-02  0.1007353E+00
       -2   -1    0    0    0  501  0.00000000000E+00  0.00000000000E+00  0.79990086593E+03  0.79990086593E+03  0.25500000920E-02 0.  1.
        2   -1    0    0  501    0  0.00000000000E+00  0.00000000000E+00 -0.86276111415E+02  0.86276111453E+02  0.25500000920E-02 0. -1.
    10030    2    1    2    0    0  0.00000000000E+00  0.00000000000E+00  0.71362475451E+03  0.88617697738E+03  0.52540398266E+03 0.  0.
        5    1    3    3  502    0  0.12267409163E+03  0.87386387273E+02 -0.61325507414E+01  0.15081449405E+03  0.46999998093E+01 0. -1.
       -5    1    3    3    0  502 -0.12267409163E+03 -0.87386387273E+02  0.71975730525E+03  0.73536248334E+03  0.46999998093E+01 0.  1.
</event>
<event>
 5   0  0.1413361E-01  0.5021040E+03  0.7818609E-02  0.1013231E+00
       -1   -1    0    0    0  501  0.00000000000E+00  0.00000000000E+00  0.47357135825E+03  0.47357135828E+03  0.50400001928E-02 0.  1.
        1   -1    0    0  501    0  0.00000000000E+00  0.00000000000E+00 -0.13308891938E+03  0.13308891947E+03  0.50400001928E-02 0. -1.
    10030    2    1    2    0    0  0.00000000000E+00  0.00000000000E+00  0.34048243888E+03  0.60666027775E+03  0.50210397471E+03 0.  0.
        3    1    3    3  502    0 -0.11614341729E+03 -0.22195215144E+03  0.15020345654E+03  0.29208413080E+03  0.10100000352E+00 0.  1.
       -3    1    3    3    0  502  0.11614341729E+03  0.22195215144E+03  0.19027898234E+03  0.31457614695E+03  0.10100000352E+00 0. -1.
</event>
<event>
 5   0  0.1448458E-01  0.5011074E+03  0.7818609E-02  0.1013490E+00
       -1   -1    0    0    0  501  0.00000000000E+00  0.00000000000E+00  0.19384053849E+03  0.19384053855E+03  0.50400001928E-02 0.  1.
        1   -1    0    0  501    0  0.00000000000E+00  0.00000000000E+00 -0.32385983232E+03  0.32385983236E+03  0.50400001928E-02 0. -1.
    10030    2    1    2    0    0  0.00000000000E+00  0.00000000000E+00 -0.13001929383E+03  0.51770037091E+03  0.50110743087E+03 0.  0.
        5    1    3    3  502    0  0.27757725108E+02  0.21113082030E+03 -0.20131928339E+03  0.29308404672E+03  0.46999998093E+01 0. -1.
       -5    1    3    3    0  502 -0.27757725108E+02 -0.21113082030E+03  0.71299989555E+02  0.22461632419E+03  0.46999998093E+01 0.  1.
</event>
<event>
 5   0  0.2511944E-01  0.4978231E+03  0.7818609E-02  0.1014349E+00
       -2   -1    0    0    0  501  0.00000000000E+00  0.00000000000E+00  0.38210123014E+02  0.38210123099E+02  0.25500000920E-02 0. -1.
        2   -1    0    0  501    0  0.00000000000E+00  0.00000000000E+00 -0.16214801172E+04  0.16214801172E+04  0.25500000920E-02 0.  1.
    10030    2    1    2    0    0  0.00000000000E+00  0.00000000000E+00 -0.15832699942E+04  0.16596902403E+04  0.49782308028E+03 0.  0.
        1    1    3    3  502    0  0.11083280628E+03  0.21730213648E+03 -0.62652045553E+03  0.67233325865E+03  0.50400001928E-02 0. -1.
       -1    1    3    3    0  502 -0.11083280628E+03 -0.21730213648E+03 -0.95674953868E+03  0.98735698167E+03  0.50400001928E-02 0.  1.
</event>
<event>
 5   0  0.1453602E-01  0.4983390E+03  0.7818609E-02  0.1014213E+00
       -1   -1    0    0    0  501  0.00000000000E+00  0.00000000000E+00  0.16572561842E+03  0.16572561849E+03  0.50400001928E-02 0.  1.
        1   -1    0    0  501    0  0.00000000000E+00  0.00000000000E+00 -0.37462791598E+03  0.37462791602E+03  0.50400001928E-02 0. -1.
    10030    2    1    2    0    0  0.00000000000E+00  0.00000000000E+00 -0.20890229756E+03  0.54035353451E+03  0.49833901345E+03 0.  0.
        2    1    3    3  502    0  0.15389363749E+03  0.16979788198E+03  0.16277085178E+01  0.22916636277E+03  0.25500000920E-02 0.  1.
       -2    1    3    3    0  502 -0.15389363749E+03 -0.16979788198E+03 -0.21053000608E+03  0.31118717174E+03  0.25500000920E-02 0. -1.
</event>
<event>
 5   0  0.2488968E-01  0.4920079E+03  0.7818609E-02  0.1015886E+00
       -2   -1    0    0    0  501  0.00000000000E+00  0.00000000000E+00  0.44904955124E+02  0.44904955196E+02  0.25500000920E-02 0.  1.
        2   -1    0    0  501    0  0.00000000000E+00  0.00000000000E+00 -0.13476898738E+04  0.13476898738E+04  0.25500000920E-02 0. -1.
    10030    2    1    2    0    0  0.00000000000E+00  0.00000000000E+00 -0.13027849187E+04  0.13925948290E+04  0.49200794040E+03 0.  0.
        2    1    3    3  502    0  0.20204791945E+03  0.90856326865E+02 -0.34865904879E+03  0.41308760111E+03  0.25500000920E-02 0.  1.
       -2    1    3    3    0  502 -0.20204791945E+03 -0.90856326865E+02 -0.95412586986E+03  0.97950722786E+03  0.25500000920E-02 0. -1.
</event>
<event>
 5   0  0.1529146E-01  0.4965849E+03  0.7818609E-02  0.1014674E+00
       -1   -1    0    0    0  501  0.00000000000E+00  0.00000000000E+00  0.40728708380E+03  0.40728708383E+03  0.50400001928E-02 0.  1.
        1   -1    0    0  501    0  0.00000000000E+00  0.00000000000E+00 -0.15136532823E+03  0.15136532831E+03  0.50400001928E-02 0. -1.
    10030    2    1    2    0    0  0.00000000000E+00  0.00000000000E+00  0.25592175557E+03  0.55865241214E+03  0.49658490977E+03 0.  0.
        1    1    3    3  502    0 -0.19024409787E+03  0.15044163169E+03  0.68181283665E+02  0.25194084383E+03  0.50400001928E-02 0. -1.
       -1    1    3    3    0  502  0.19024409787E+03 -0.15044163169E+03  0.18774047191E+03  0.30671156831E+03  0.50400001928E-02 0.  1.
</event>
<event>
 5   0  0.2413301E-01  0.5050555E+03  0.7818609E-02  0.1012468E+00
       -2   -1    0    0    0  501  0.00000000000E+00  0.00000000000E+00  0.27750418725E+02  0.27750418843E+02  0.25500000920E-02 0.  1.
        2   -1    0    0  501    0  0.00000000000E+00  0.00000000000E+00 -0.22979933004E+04  0.22979933004E+04  0.25500000920E-02 0. -1.
    10030    2    1    2    0    0  0.00000000000E+00  0.00000000000E+00 -0.22702428817E+04  0.23257437193E+04  0.50505554725E+03 0.  0.
        4    1    3    3  502    0  0.65626772689E+02 -0.89820748481E+02 -0.21790698102E+04  0.21819077640E+04  0.12699999809E+01 0. -1.
       -4    1    3    3    0  502 -0.65626772689E+02  0.89820748481E+02 -0.91173071510E+02  0.14383595524E+03  0.12699999809E+01 0.  1.
</event>
<event>
 5   0  0.1439814E-01  0.5195922E+03  0.7818609E-02  0.1008788E+00
        1   -1    0    0  501    0  0.00000000000E+00  0.00000000000E+00  0.67245874023E+03  0.67245874025E+03  0.50400001928E-02 0. -1.
       -1   -1    0    0    0  501  0.00000000000E+00  0.00000000000E+00 -0.10036901571E+03  0.10036901583E+03  0.50400001928E-02 0.  1.
    10030    2    1    2    0    0  0.00000000000E+00  0.00000000000E+00  0.57208972453E+03  0.77282775609E+03  0.51959223211E+03 0.  0.
        4    1    3    3  502    0 -0.21206911356E+03  0.96299025753E+02  0.11486375064E+03  0.25969617902E+03  0.12699999809E+01 0.  1.
       -4    1    3    3    0  502  0.21206911356E+03 -0.96299025753E+02  0.45722597388E+03  0.51313157706E+03  0.12699999809E+01 0. -1.
</event>
<event>
 5   0  0.9868500E-02  0.5001633E+03  0.7818609E-02  0.1013736E+00
        4   -1    0    0  501    0  0.00000000000E+00  0.00000000000E+00  0.22361628561E+03  0.22361989198E+03  0.12699999809E+01 0.  1.
       -4   -1    0    0    0  501  0.00000000000E+00  0.00000000000E+00 -0.27967194456E+03  0.27967482810E+03  0.12699999809E+01 0. -1.
    10030    2    1    2    0    0  0.00000000000E+00  0.00000000000E+00 -0.56055658954E+02  0.50329472008E+03  0.50016331169E+03 0.  0.
        2    1    3    3  502    0  0.11497365324E+02  0.23986167757E+03 -0.98286314232E+02  0.25947256762E+03  0.25500000920E-02 0. -1.
       -2    1    3    3    0  502 -0.11497365324E+02 -0.23986167757E+03  0.42230655278E+02  0.24382215246E+03  0.25500000920E-02 0.  1.
</event>
<event>
 5   0  0.1453602E-01  0.4994228E+03  0.7818609E-02  0.1013930E+00
        1   -1    0    0  501    0  0.00000000000E+00  0.00000000000E+00  0.64342452232E+03  0.64342452234E+03  0.50400001928E-02 0. -1.
       -1   -1    0    0    0  501  0.00000000000E+00  0.00000000000E+00 -0.96912355185E+02  0.96912355316E+02  0.50400001928E-02 0.  1.
    10030    2    1    2    0    0  0.00000000000E+00  0.00000000000E+00  0.54651216713E+03  0.74033687765E+03  0.49942281044E+03 0.  0.
        2    1    3    3  502    0 -0.21151379479E+03 -0.90273887055E+02  0.41750003329E+03  0.47664844265E+03  0.25500000920E-02 0.  1.
       -2    1    3    3    0  502  0.21151379479E+03  0.90273887055E+02  0.12901213384E+03  0.26368843501E+03  0.25500000920E-02 0. -1.
</event>
<event>
 5   0  0.1413361E-01  0.4947603E+03  0.7818609E-02  0.1015156E+00
       -1   -1    0    0    0  501  0.00000000000E+00  0.00000000000E+00  0.20365634577E+03  0.20365634583E+03  0.50400001928E-02 0.  1.
        1   -1    0    0  501    0  0.00000000000E+00  0.00000000000E+00 -0.30049120636E+03  0.30049120640E+03  0.50400001928E-02 0. -1.
    10030    2    1    2    0    0  0.00000000000E+00  0.00000000000E+00 -0.96834860584E+02  0.50414755223E+03  0.49476030985E+03 0.  0.
        3    1    3    3  502    0 -0.78447020746E+02  0.17285913708E+03  0.11321985775E+03  0.22102706334E+03  0.10100000352E+00 0.  1.
       -3    1    3    3    0  502  0.78447020746E+02 -0.17285913708E+03 -0.21005471833E+03  0.28312048890E+03  0.10100000352E+00 0. -1.
</event>
<event>
 5   0  0.2511944E-01  0.5088496E+03  0.7818609E-02  0.1011495E+00
        2   -1    0    0  501    0  0.00000000000E+00  0.00000000000E+00  0.18342603404E+04  0.18342603404E+04  0.25500000920E-02 0.  1.
       -2   -1    0    0    0  501  0.00000000000E+00  0.00000000000E+00 -0.35290504532E+02  0.35290504625E+02  0.25500000920E-02 0. -1.
    10030    2    1    2    0    0  0.00000000000E+00  0.00000000000E+00  0.17989698359E+04  0.18695508451E+04  0.50884957677E+03 0.  0.
        1    1    3    3  502    0  0.90887255848E+02  0.48981404734E+02  0.45135965409E+02  0.11268064024E+03  0.50400001928E-02 0. -1.
       -1    1    3    3    0  502 -0.90887255848E+02 -0.48981404734E+02  0.17538338705E+04  0.17568702048E+04  0.50400001928E-02 0.  1.
</event>
<event>
 5   0  0.1413361E-01  0.4959643E+03  0.7818609E-02  0.1014838E+00
        1   -1    0    0  501    0  0.00000000000E+00  0.00000000000E+00  0.60633131865E+03  0.60633131868E+03  0.50400001928E-02 0.  1.
       -1   -1    0    0    0  501  0.00000000000E+00  0.00000000000E+00 -0.10142169708E+03  0.10142169721E+03  0.50400001928E-02 0. -1.
    10030    2    1    2    0    0  0.00000000000E+00  0.00000000000E+00  0.50490962157E+03  0.70775301588E+03  0.49596431881E+03 0.  0.
        3    1    3    3  502    0  0.19889261296E+03 -0.15295031650E+02  0.42226840480E+02  0.20390028382E+03  0.10100000352E+00 0.  1.
       -3    1    3    3    0  502 -0.19889261296E+03  0.15295031650E+02  0.46268278109E+03  0.50385273206E+03  0.10100000352E+00 0. -1.
</event>
<event>
 5   0  0.2511944E-01  0.4876498E+03  0.7818609E-02  0.1017054E+00
       -2   -1    0    0    0  501  0.00000000000E+00  0.00000000000E+00  0.55715332177E+02  0.55715332235E+02  0.25500000920E-02 0. -1.
        2   -1    0    0  501    0  0.00000000000E+00  0.00000000000E+00 -0.10670414741E+04  0.10670414741E+04  0.25500000920E-02 0.  1.
    10030    2    1    2    0    0  0.00000000000E+00  0.00000000000E+00 -0.10113261419E+04  0.11227568063E+04  0.48764975222E+03 0.  0.
        1    1    3    3  502    0  0.66182398128E+02  0.23411605280E+03 -0.54279747016E+03  0.59482731077E+03  0.50400001928E-02 0. -1.
       -1    1    3    3    0  502 -0.66182398128E+02 -0.23411605280E+03 -0.46852867175E+03  0.52792949556E+03  0.50400001928E-02 0.  1.
</event>
<event>
 5   0  0.1413361E-01  0.5116363E+03  0.7818609E-02  0.1010786E+00
        1   -1    0    0  501    0  0.00000000000E+00  0.00000000000E+00  0.14810375876E+04  0.14810375876E+04  0.50400001928E-02 0.  1.
       -1   -1    0    0    0  501  0.00000000000E+00  0.00000000000E+00 -0.44187221918E+02  0.44187222206E+02  0.50400001928E-02 0. -1.
    10030    2    1    2    0    0  0.00000000000E+00  0.00000000000E+00  0.14368503657E+04  0.15252248099E+04  0.51163634265E+03 0.  0.
        3    1    3    3  502    0 -0.20945105432E+03  0.81081259425E+02  0.10835184286E+04  0.11065514494E+04  0.10100000352E+00 0.  1.
       -3    1    3    3    0  502  0.20945105432E+03 -0.81081259425E+02  0.35333193708E+03  0.41867336045E+03  0.10100000352E+00 0. -1.
</event>
<event>
 5   0  0.1413361E-01  0.5093488E+03  0.7818609E-02  0.1011367E+00
       -1   -1    0    0    0  501  0.00000000000E+00  0.00000000000E+00  0.18878064018E+03  0.18878064025E+03  0.50400001928E-02 0. -1.
        1   -1    0    0  501    0  0.00000000000E+00  0.00000000000E+00 -0.34356838187E+03  0.34356838191E+03  0.50400001928E-02 0.  1.
    10030    2    1    2    0    0  0.00000000000E+00  0.00000000000E+00 -0.15478774169E+03  0.53234902216E+03  0.50934883569E+03 0.  0.
        3    1    3    3  502    0  0.65406745261E+02 -0.17023098045E+03  0.10840424791E+03  0.21215117298E+03  0.10100000352E+00 0. -1.
       -3    1    3    3    0  502 -0.65406745261E+02  0.17023098045E+03 -0.26319198960E+03  0.32019784918E+03  0.10100000352E+00 0.  1.
</event>
<event>
 5   0  0.2413301E-01  0.5013768E+03  0.7818609E-02  0.1013420E+00
        2   -1    0    0  501    0  0.00000000000E+00  0.00000000000E+00  0.52995763839E+03  0.52995763840E+03  0.25500000920E-02 0. -1.
       -2   -1    0    0    0  501  0.00000000000E+00  0.00000000000E+00 -0.11858432380E+03  0.11858432383E+03  0.25500000920E-02 0.  1.
    10030    2    1    2    0    0  0.00000000000E+00  0.00000000000E+00  0.41137331459E+03  0.64854196222E+03  0.50137677729E+03 0.  0.
        4    1    3    3  502    0  0.14405357881E+03  0.84814464730E+02 -0.35956740757E+02  0.17099540082E+03  0.12699999809E+01 0.  1.
       -4    1    3    3    0  502 -0.14405357881E+03 -0.84814464730E+02  0.44733005535E+03  0.47754656141E+03  0.12699999809E+01 0. -1.
</event>
<event>
 5   0  0.2488968E-01  0.4968243E+03  0.7818609E-02  0.1014611E+00
       -2   -1    0    0    0  501  0.00000000000E+00  0.00000000000E+00  0.34325693443E+03  0.34325693444E+03  0.25500000920E-02 0.  1.
        2   -1    0    0  501    0  0.00000000000E+00  0.00000000000E+00 -0.17977377738E+03  0.17977377739E+03  0.25500000920E-02 0. -1.
    10030    2    1    2    0    0  0.00000000000E+00  0.00000000000E+00  0.16348315706E+03  0.52303071184E+03  0.49682429780E+03 0.  0.
        2    1    3    3  502    0  0.54859578410E+02  0.36557339252E+02 -0.17039665991E+03  0.18270477309E+03  0.25500000920E-02 0. -1.
       -2    1    3    3    0  502 -0.54859578410E+02 -0.36557339252E+02  0.33387981697E+03  0.34032593874E+03  0.25500000920E-02 0.  1.
</event>
<event>
 5   0  0.1439814E-01  0.4965461E+03  0.7818609E-02  0.1014684E+00
        1   -1    0    0  501    0  0.00000000000E+00  0.00000000000E+00  0.43540176868E+03  0.43540176871E+03  0.50400001928E-02 0. -1.
       -1   -1    0    0    0  501  0.00000000000E+00  0.00000000000E+00 -0.14156927170E+03  0.14156927179E+03  0.50400001928E-02 0.  1.
    10030    2    1    2    0    0  0.00000000000E+00  0.00000000000E+00  0.29383249698E+03  0.57697104050E+03  0.49654611597E+03 0.  0.
        4    1    3    3  502    0  0.31010344365E+02  0.20194215381E+03 -0.16981581305E+02  0.20501771130E+03  0.12699999809E+01 0.  1.
       -4    1    3    3    0  502 -0.31010344365E+02 -0.20194215381E+03  0.31081407829E+03  0.37195332920E+03  0.12699999809E+01 0. -1.
</event>
<event>
 5   0  0.9868500E-02  0.4987413E+03  0.7818609E-02  0.1014108E+00
       -3   -1    0    0    0  501  0.00000000000E+00  0.00000000000E+00  0.66112032860E+03  0.66112033632E+03  0.10100000352E+00 0.  1.
        3   -1    0    0  501    0  0.00000000000E+00  0.00000000000E+00 -0.94061073818E+02  0.94061128043E+02  0.10100000352E+00 0. -1.
    10030    2    1    2    0    0  0.00000000000E+00  0.00000000000E+00  0.56705925478E+03  0.75518146436E+03  0.49874126125E+03 0.  0.
        2    1    3    3  502    0  0.10100788511E+02 -0.32823058750E+02 -0.90463378617E+02  0.96762606370E+02  0.25500000920E-02 0. -1.
       -2    1    3    3    0  502 -0.10100788511E+02  0.32823058750E+02  0.65752263340E+03  0.65841885799E+03  0.25500000920E-02 0.  1.
</event>
<event>
 5   0  0.2504064E-01  0.5029430E+03  0.7818609E-02  0.1013014E+00
       -2   -1    0    0    0  501  0.00000000000E+00  0.00000000000E+00  0.96932507138E+02  0.96932507172E+02  0.25500000920E-02 0.  1.
        2   -1    0    0  501    0  0.00000000000E+00  0.00000000000E+00 -0.65239111898E+03  0.65239111898E+03  0.25500000920E-02 0. -1.
    10030    2    1    2    0    0  0.00000000000E+00  0.00000000000E+00 -0.55545861184E+03  0.74932362615E+03  0.50294296620E+03 0.  0.
        5    1    3    3  502    0  0.17117024607E+03 -0.93284461652E+01 -0.55175971417E+03  0.57779507200E+03  0.46999998093E+01 0. -1.
       -5    1    3    3    0  502 -0.17117024607E+03  0.93284461652E+01 -0.36988976677E+01  0.17152855415E+03  0.46999998093E+01 0.  1.
</event>
<event>
 5   0  0.1439814E-01  0.4956900E+03  0.7818609E-02  0.1014910E+00
       -1   -1    0    0    0  501  0.00000000000E+00  0.00000000000E+00  0.23207889558E+03  0.23207889563E+03  0.50400001928E-02 0. -1.
        1   -1    0    0  501    0  0.00000000000E+00  0.00000000000E+00 -0.26468216249E+03  0.26468216254E+03  0.50400001928E-02 0.  1.
    10030    2    1    2    0    0  0.00000000000E+00  0.00000000000E+00 -0.32603266912E+02  0.49676105817E+03  0.49568999980E+03 0.  0.
        4    1    3    3  502    0 -0.22557442988E+03 -0.12609086520E+02  0.85814162735E+02  0.24167849698E+03  0.12699999809E+01 0. -1.
       -4    1    3    3    0  502  0.22557442988E+03  0.12609086520E+02 -0.11841742965E+03  0.25508256119E+03  0.12699999809E+01 0.  1.
</event>
<event>
 5   0  0.2413301E-01  0.4863842E+03  0.7818609E-02  0.1017395E+00
       -2   -1    0    0    0  501  0.00000000000E+00  0.00000000000E+00  0.36620292723E+03  0.36620292724E+03  0.25500000920E-02 0. -1.
        2   -1    0    0  501    0  0.00000000000E+00  0.00000000000E+00 -0.16150173776E+03  0.16150173779E+03  0.25500000920E-02 0.  1.
    10030    2    1    2    0    0  0.00000000000E+00  0.00000000000E+00  0.20470118946E+03  0.52770466502E+03  0.48638424781E+03 0.  0.
        4    1    3    3  502    0  0.20718682104E+03  0.45069058494E+02 -0.26860113095E+02  0.21373038488E+03  0.12699999809E+01 0.  1.
       -4    1    3    3    0  502 -0.20718682104E+03 -0.45069058494E+02  0.23156130256E+03  0.31397428014E+03  0.12699999809E+01 0. -1.
</event>
<event>
 5   0  0.1453602E-01  0.5431927E+03  0.7818609E-02  0.1003082E+00
        1   -1    0    0  501    0  0.00000000000E+00  0.00000000000E+00  0.14260264946E+03  0.14260264955E+03  0.50400001928E-02 0.  1.
       -1   -1    0    0    0  501  0.00000000000E+00  0.00000000000E+00 -0.51727361363E+03  0.51727361365E+03  0.50400001928E-02 0. -1.
    10030    2    1    2    0    0  0.00000000000E+00  0.00000000000E+00 -0.37467096417E+03  0.65987626320E+03  0.54319273868E+03 0.  0.
        2    1    3    3  502    0 -0.12542782585E+03  0.15220648875E+03 -0.41416905242E+03  0.45873190286E+03  0.25500000920E-02 0. -1.
       -2    1    3    3    0  502  0.12542782585E+03 -0.15220648875E+03  0.39498088250E+02  0.20114436034E+03  0.25500000920E-02 0.  1.
</event>
<event>
 5   0  0.1453602E-01  0.5020360E+03  0.7818609E-02  0.1013249E+00
       -1   -1    0    0    0  501  0.00000000000E+00  0.00000000000E+00  0.12593572889E+03  0.12593572899E+03  0.50400001928E-02 0.  1.
        1   -1    0    0  501    0  0.00000000000E+00  0.00000000000E+00 -0.50033495422E+03  0.50033495424E+03  0.50400001928E-02 0. -1.
    10030    2    1    2    0    0  0.00000000000E+00  0.00000000000E+00 -0.37439922533E+03  0.62627068324E+03  0.50203604329E+03 0.  0.
        2    1    3    3  502    0 -0.20502536449E+03  0.12892118393E+03 -0.26951294260E+03  0.36234417063E+03  0.25500000920E-02 0. -1.
       -2    1    3    3    0  502  0.20502536449E+03 -0.12892118393E+03 -0.10488628272E+03  0.26392651261E+03  0.25500000920E-02 0.  1.
</event>
<event>
 5   0  0.2488968E-01  0.4146547E+03  0.7818609E-02  0.1038820E+00
       -2   -1    0    0    0  501  0.00000000000E+00  0.00000000000E+00  0.81636198207E+02  0.81636198247E+02  0.25500000920E-02 0. -1.
        2   -1    0    0  501    0  0.00000000000E+00  0.00000000000E+00 -0.52653872554E+03  0.52653872555E+03  0.25500000920E-02 0.  1.
    10030    2    1    2    0    0  0.00000000000E+00  0.00000000000E+00 -0.44490252734E+03  0.60817492380E+03  0.41465465041E+03 0.  0.
        2    1    3    3  502    0  0.13538508639E+02 -0.48280853854E+02  0.72608584695E+02  0.88240232564E+02  0.25500000920E-02 0. -1.
       -2    1    3    3    0  502 -0.13538508639E+02  0.48280853854E+02 -0.51751111203E+03  0.51993469123E+03  0.25500000920E-02 0.  1.
</event>
<event>
 5   0  0.1448458E-01  0.5084169E+03  0.7818609E-02  0.1011605E+00
       -1   -1    0    0    0  501  0.00000000000E+00  0.00000000000E+00  0.99322245687E+02  0.99322245815E+02  0.50400001928E-02 0. -1.
        1   -1    0    0  501    0  0.00000000000E+00  0.00000000000E+00 -0.65062890839E+03  0.65062890841E+03  0.50400001928E-02 0.  1.
    10030    2    1    2    0    0  0.00000000000E+00  0.00000000000E+00 -0.55130666270E+03  0.74995115423E+03  0.50841685395E+03 0.  0.
        5    1    3    3  502    0  0.88543489063E+02 -0.22857365070E+03 -0.17654904786E+03  0.30212169659E+03  0.46999998093E+01 0. -1.
       -5    1    3    3    0  502 -0.88543489063E+02  0.22857365070E+03 -0.37475761484E+03  0.44782945764E+03  0.46999998093E+01 0.  1.
</event>
<event>
 5   0  0.1439814E-01  0.5056454E+03  0.7818609E-02  0.1012316E+00
       -1   -1    0    0    0  501  0.00000000000E+00  0.00000000000E+00  0.71818334724E+03  0.71818334726E+03  0.50400001928E-02 0. -1.
        1   -1    0    0  501    0  0.00000000000E+00  0.00000000000E+00 -0.89001404085E+02  0.89001404227E+02  0.50400001928E-02 0.  1.
    10030    2    1    2    0    0  0.00000000000E+00  0.00000000000E+00  0.62918194315E+03  0.80718475148E+03  0.50564543451E+03 0.  0.
        4    1    3    3  502    0  0.23015021956E+03  0.14384762732E+02  0.14914251070E+03  0.27462910691E+03  0.12699999809E+01 0.  1.
       -4    1    3    3    0  502 -0.23015021956E+03 -0.14384762732E+02  0.48003943245E+03  0.53255564457E+03  0.12699999809E+01 0. -1.
</event>
<event>
 5   0  0.1448458E-01  0.5015153E+03  0.7818609E-02  0.1013384E+00
        1   -1    0    0  501    0  0.00000000000E+00  0.00000000000E+00  0.12173060577E+04  0.12173060577E+04  0.50400001928E-02 0. -1.
       -1   -1    0    0    0  501  0.00000000000E+00  0.00000000000E+00 -0.51654547717E+02  0.51654547963E+02  0.50400001928E-02 0.  1.
    10030    2    1    2    0    0  0.00000000000E+00  0.00000000000E+00  0.11656515100E+04  0.12689606057E+04  0.50151527996E+03 0.  0.
        5    1    3    3  502    0 -0.78307646309E+01  0.16903136158E+02 -0.49789481625E+02  0.53367774597E+02  0.46999998093E+01 0.  1.
       -5    1    3    3    0  502  0.78307646309E+01 -0.16903136158E+02  0.12154409916E+04  0.12155928311E+04  0.46999998093E+01 0. -1.
</event>
<event>
 5   0  0.2488968E-01  0.5026494E+03  0.7818609E-02  0.1013090E+00
       -2   -1    0    0    0  501  0.00000000000E+00  0.00000000000E+00  0.12336583771E+03  0.12336583774E+03  0.25500000920E-02 0.  1.
        2   -1    0    0  501    0  0.00000000000E+00  0.00000000000E+00 -0.51200636048E+03  0.51200636048E+03  0.25500000920E-02 0. -1.
    10030    2    1    2    0    0  0.00000000000E+00  0.00000000000E+00 -0.38864052277E+03  0.63537219822E+03  0.50264935525E+03 0.  0.
        2    1    3    3  502    0 -0.85759727909E+02 -0.56790035736E+02  0.95541507621E+02  0.14038525127E+03  0.25500000920E-02 0.  1.
       -2    1    3    3    0  502  0.85759727909E+02  0.56790035736E+02 -0.48418203039E+03  0.49498694695E+03  0.25500000920E-02 0. -1.
</event>
<event>
 5   0  0.2488968E-01  0.4984511E+03  0.7818609E-02  0.1014184E+00
        2   -1    0    0  501    0  0.00000000000E+00  0.00000000000E+00  0.61520477063E+03  0.61520477064E+03  0.25500000920E-02 0.  1.
       -2   -1    0    0    0  501  0.00000000000E+00  0.00000000000E+00 -0.10096372832E+03  0.10096372835E+03  0.25500000920E-02 0. -1.
    10030    2    1    2    0    0  0.00000000000E+00  0.00000000000E+00  0.51424104231E+03  0.71616849899E+03  0.49845107016E+03 0.  0.
        2    1    3    3  502    0  0.21395476243E+03 -0.76448299455E+02  0.40429407592E+03  0.46376145019E+03  0.25500000920E-02 0.  1.
       -2    1    3    3    0  502 -0.21395476243E+03  0.76448299455E+02  0.10994696640E+03  0.25240704880E+03  0.25500000920E-02 0. -1.
</event>
<event>
 5   0  0.1439814E-01  0.4878856E+03  0.7818609E-02  0.1016990E+00
        1   -1    0    0  501    0  0.00000000000E+00  0.00000000000E+00  0.18155388594E+03  0.18155388601E+03  0.50400001928E-02 0. -1.
       -1   -1    0    0    0  501  0.00000000000E+00  0.00000000000E+00 -0.32777090962E+03  0.32777090966E+03  0.50400001928E-02 0.  1.
    10030    2    1    2    0    0  0.00000000000E+00  0.00000000000E+00 -0.14621702367E+03  0.50932479567E+03  0.48788557006E+03 0.  0.
        4    1    3    3  502    0 -0.92163522269E+02 -0.10369419454E+03  0.13635723911E+03  0.19452894483E+03  0.12699999809E+01 0. -1.
       -4    1    3    3    0  502  0.92163522269E+02  0.10369419454E+03 -0.28257426278E+03  0.31479585084E+03  0.12699999809E+01 0.  1.
</event>
<event>
 5   0  0.2466034E-01  0.5050173E+03  0.7818609E-02  0.1012478E+00
       -2   -1    0    0    0  501  0.00000000000E+00  0.00000000000E+00  0.69553611906E+02  0.69553611953E+02  0.25500000920E-02 0. -1.
        2   -1    0    0  501    0  0.00000000000E+00  0.00000000000E+00 -0.91671189348E+03  0.91671189348E+03  0.25500000920E-02 0.  1.
    10030    2    1    2    0    0  0.00000000000E+00  0.00000000000E+00 -0.84715828157E+03  0.98626550543E+03  0.50501731968E+03 0.  0.
        3    1    3    3  502    0  0.68578643316E+02  0.16437674653E+03 -0.77313724476E+03  0.79338764457E+03  0.10100000352E+00 0.  1.
       -3    1    3    3    0  502 -0.68578643316E+02 -0.16437674653E+03 -0.74021036808E+02  0.19287786086E+03  0.10100000352E+00 0. -1.
</event>
<event>
 5   0  0.2466034E-01  0.5045072E+03  0.7818609E-02  0.1012609E+00
       -2   -1    0    0    0  501  0.00000000000E+00  0.00000000000E+00  0.28635495622E+03  0.28635495623E+03  0.25500000920E-02 0. -1.
        2   -1    0    0  501    0  0.00000000000E+00  0.00000000000E+00 -0.22221333078E+03  0.22221333080E+03  0.25500000920E-02 0.  1.
    10030    2    1    2    0    0  0.00000000000E+00  0.00000000000E+00  0.64141625438E+02  0.50856828703E+03  0.50450723925E+03 0.  0.
        3    1    3    3  502    0  0.14364015040E+03  0.25502613138E+02  0.23951604822E+03  0.28044754169E+03  0.10100000352E+00 0. -1.
       -3    1    3    3    0  502 -0.14364015040E+03 -0.25502613138E+02 -0.17537442278E+03  0.22812074534E+03  0.10100000352E+00 0.  1.
</event>
<event>
 5   0  0.2413301E-01  0.5310810E+03  0.7818609E-02  0.1005970E+00
       -2   -1    0    0    0  501  0.00000000000E+00  0.00000000000E+00  0.10886310039E+03  0.10886310042E+03  0.25500000920E-02 0.  1.
        2   -1    0    0  501    0  0.00000000000E+00  0.00000000000E+00 -0.64771037440E+03  0.64771037440E+03  0.25500000920E-02 0. -1.
    10030    2    1    2    0    0  0.00000000000E+00  0.00000000000E+00 -0.53884727401E+03  0.75657347482E+03  0.53108100897E+03 0.  0.
        4    1    3    3  502    0 -0.18162762475E+02  0.25380762653E+03 -0.37756082186E+03  0.45530427664E+03  0.12699999809E+01 0. -1.
       -4    1    3    3    0  502  0.18162762475E+02 -0.25380762653E+03 -0.16128645216E+03  0.30126919818E+03  0.12699999809E+01 0.  1.
</event>
<event>
 5   0  0.1439814E-01  0.5057267E+03  0.7818609E-02  0.1012295E+00
        1   -1    0    0  501    0  0.00000000000E+00  0.00000000000E+00  0.34194810711E+03  0.34194810714E+03  0.50400001928E-02 0.  1.
       -1   -1    0    0    0  501  0.00000000000E+00  0.00000000000E+00 -0.18698706637E+03  0.18698706644E+03  0.50400001928E-02 0. -1.
    10030    2    1    2    0    0  0.00000000000E+00  0.00000000000E+00  0.15496104074E+03  0.52893517358E+03  0.50572669863E+03 0.  0.
        4    1    3    3  502    0  0.68634332469E+02 -0.10465302605E+03 -0.15231904646E+03  0.19714368433E+03  0.12699999809E+01 0. -1.
       -4    1    3    3    0  502 -0.68634332469E+02  0.10465302605E+03  0.30728008720E+03  0.33179148926E+03  0.12699999809E+01 0.  1.
</event>
<event>
 5   0  0.1439814E-01  0.5233570E+03  0.7818609E-02  0.1007856E+00
        1   -1    0    0  501    0  0.00000000000E+00  0.00000000000E+00  0.10448107392E+04  0.10448107392E+04  0.50400001928E-02 0. -1.
       -1   -1    0    0    0  501  0.00000000000E+00  0.00000000000E+00 -0.65538791727E+02  0.65538791921E+02  0.50400001928E-02 0.  1.
    10030    2    1    2    0    0  0.00000000000E+00  0.00000000000E+00  0.97927194744E+03  0.11103495311E+04  0.52335698541E+03 0.  0.
        4    1    3    3  502    0 -0.40465932909E+02  0.35944324464E+02 -0.53526715508E+02  0.76132833655E+02  0.12699999809E+01 0.  1.
       -4    1    3    3    0  502  0.40465932909E+02 -0.35944324464E+02  0.10327986629E+04  0.10342166974E+04  0.12699999809E+01 0. -1.
</event>
<event>
 5   0  0.2504064E-01  0.4918742E+03  0.7818609E-02  0.1015922E+00
       -2   -1    0    0    0  501  0.00000000000E+00  0.00000000000E+00  0.23395949306E+03  0.23395949308E+03  0.25500000920E-02 0.  1.
        2   -1    0    0  501    0  0.00000000000E+00  0.00000000000E+00 -0.25852789915E+03  0.25852789916E+03  0.25500000920E-02 0. -1.
    10030    2    1    2    0    0  0.00000000000E+00  0.00000000000E+00 -0.24568406082E+02  0.49248739224E+03  0.49187419625E+03 0.  0.
        5    1    3    3  502    0 -0.10550448733E+03 -0.16653138202E+02 -0.23404268937E+03  0.25730642103E+03  0.46999998093E+01 0. -1.
       -5    1    3    3    0  502  0.10550448733E+03  0.16653138202E+02  0.20947428329E+03  0.23518097120E+03  0.46999998093E+01 0.  1.
</event>
<event>
 5   0  0.1439814E-01  0.5009386E+03  0.7818609E-02  0.1013534E+00
        1   -1    0    0  501    0  0.00000000000E+00  0.00000000000E+00  0.83294285300E+02  0.83294285452E+02  0.50400001928E-02 0. -1.
       -1   -1    0    0    0  501  0.00000000000E+00  0.00000000000E+00 -0.75317127559E+03  0.75317127561E+03  0.50400001928E-02 0.  1.
    10030    2    1    2    0    0  0.00000000000E+00  0.00000000000E+00 -0.66987699029E+03  0.83646556106E+03  0.50093857180E+03 0.  0.
        4    1    3    3  502    0 -0.10923609311E+03 -0.18610522537E+03 -0.54724295664E+03  0.58825517035E+03  0.12699999809E+01 0.  1.
       -4    1    3    3    0  502  0.10923609311E+03  0.18610522537E+03 -0.12263403365E+03  0.24821039071E+03  0.12699999809E+01 0. -1.
</event>
<event>
 5   0  0.2466034E-01  0.4896794E+03  0.7818609E-02  0.1016508E+00
       -2   -1    0    0    0  501  0.00000000000E+00  0.00000000000E+00  0.99331469745E+03  0.99331469746E+03  0.25500000920E-02 0. -1.
        2   -1    0    0  501    0  0.00000000000E+00  0.00000000000E+00 -0.60349924633E+02  0.60349924687E+02  0.25500000920E-02 0.  1.
    10030    2    1    2    0    0  0.00000000000E+00  0.00000000000E+00  0.93296477282E+03  0.10536646221E+04  0.48967935288E+03 0.  0.
        3    1    3    3  502    0  0.17297551482E+03 -0.15090578096E+03  0.64973940915E+03  0.68909679542E+03  0.10100000352E+00 0. -1.
       -3    1    3    3    0  502 -0.17297551482E+03  0.15090578096E+03  0.28322536367E+03  0.36456782673E+03  0.10100000352E+00 0.  1.
</event>
<event>
 5   0  0.2504064E-01  0.5049887E+03  0.7818609E-02  0.1012485E+00
       -2   -1    0    0    0  501  0.00000000000E+00  0.00000000000E+00  0.99701781981E+02  0.99701782013E+02  0.25500000920E-02 0. -1.
        2   -1    0    0  501    0  0.00000000000E+00  0.00000000000E+00 -0.63944084373E+03  0.63944084373E+03  0.25500000920E-02 0.  1.
    10030    2    1    2    0    0  0.00000000000E+00  0.00000000000E+00 -0.53973906175E+03  0.73914262575E+03  0.50498867950E+03 0.  0.
        5    1    3    3  502    0  0.74603926405E+02 -0.11680302927E+03  0.38972859076E+02  0.14404744783E+03  0.46999998093E+01 0. -1.
       -5    1    3    3    0  502 -0.74603926405E+02  0.11680302927E+03 -0.57871192082E+03  0.59509517792E+03  0.46999998093E+01 0.  1.
</event>
<event>
 5   0  0.1439814E-01  0.6407256E+03  0.7818609E-02  0.9824339E-01
        1   -1    0    0  501    0  0.00000000000E+00  0.00000000000E+00  0.52683737521E+03  0.52683737523E+03  0.50400001928E-02 0.  1.
       -1   -1    0    0    0  501  0.00000000000E+00  0.00000000000E+00 -0.19480837661E+03  0.19480837667E+03  0.50400001928E-02 0. -1.
    10030    2    1    2    0    0  0.00000000000E+00  0.00000000000E+00  0.33202899860E+03  0.72164575191E+03  0.64072563187E+03 0.  0.
        4    1    3    3  502    0  0.22595984005E+03  0.85707505740E+02 -0.70847924386E+02  0.25184254435E+03  0.12699999809E+01 0. -1.
       -4    1    3    3    0  502 -0.22595984005E+03 -0.85707505740E+02  0.40287692299E+03  0.46980320756E+03  0.12699999809E+01 0.  1.
</event>
<event>
 5   0  0.1413361E-01  0.4870220E+03  0.7818609E-02  0.1017223E+00
        1   -1    0    0  501    0  0.00000000000E+00  0.00000000000E+00  0.15199628372E+03  0.15199628381E+03  0.50400001928E-02 0.  1.
       -1   -1    0    0    0  501  0.00000000000E+00  0.00000000000E+00 -0.39012536439E+03  0.39012536442E+03  0.50400001928E-02 0. -1.
    10030    2    1    2    0    0  0.00000000000E+00  0.00000000000E+00 -0.23812908067E+03  0.54212164823E+03  0.48702199377E+03 0.  0.
        3    1    3    3  502    0 -0.24268720161E+02 -0.11770268414E+03  0.11668571261E+03  0.16750659199E+03  0.10100000352E+00 0.  1.
       -3    1    3    3    0  502  0.24268720161E+02  0.11770268414E+03 -0.35481479328E+03  0.37461505624E+03  0.10100000352E+00 0. -1.
</event>
<event>
 5   0  0.1439814E-01  0.5003752E+03  0.7818609E-02  0.1013681E+00
       -1   -1    0    0    0  501  0.00000000000E+00  0.00000000000E+00  0.15138165112E+03  0.15138165120E+03  0.50400001928E-02 0.  1.
        1   -1    0    0  501    0  0.00000000000E+00  0.00000000000E+00 -0.41348360375E+03  0.41348360378E+03  0.50400001928E-02 0. -1.
    10030    2    1    2    0    0  0.00000000000E+00  0.00000000000E+00 -0.26210195263E+03  0.56486525499E+03  0.50037518196E+03 0.  0.
        4    1    3    3  502    0 -0.18708982088E+03  0.12734862099E+03 -0.10667609702E+02  0.22657379182E+03  0.12699999809E+01 0.  1.
       -4    1    3    3    0  502  0.18708982088E+03 -0.12734862099E+03 -0.25143434293E+03  0.33829146316E+03  0.12699999809E+01 0. -1.
</event>
<event>
 5   0  0.2504064E-01  0.5038040E+03  0.7818609E-02  0.1012791E+00
       -2   -1    0    0    0  501  0.00000000000E+00  0.00000000000E+00  0.80926683726E+02  0.80926683767E+02  0.25500000920E-02 0.  1.
        2   -1    0    0  501    0  0.00000000000E+00  0.00000000000E+00 -0.78410003861E+03  0.78410003862E+03  0.25500000920E-02 0. -1.
    10030    2    1    2    0    0  0.00000000000E+00  0.00000000000E+00 -0.70317335489E+03  0.86502672239E+03  0.50380399305E+03 0.  0.
        5    1    3    3  502    0 -0.23215165266E+03 -0.91464938290E+02 -0.29279883760E+03  0.38472519292E+03  0.46999998093E+01 0.  1.
       -5    1    3    3    0  502  0.23215165266E+03  0.91464938290E+02 -0.41037451729E+03  0.48030152947E+03  0.46999998093E+01 0. -1.
</event>
<event>
 5   0  0.1439814E-01  0.5067078E+03  0.7818609E-02  0.1012043E+00
       -1   -1    0    0    0  501  0.00000000000E+00  0.00000000000E+00  0.60954245712E+02  0.60954245921E+02  0.50400001928E-02 0. -1.
        1   -1    0    0  501    0  0.00000000000E+00  0.00000000000E+00 -0.10530553327E+04  0.10530553327E+04  0.50400001928E-02 0.  1.
    10030    2    1    2    0    0  0.00000000000E+00  0.00000000000E+00 -0.99210108699E+03  0.11140095786E+04  0.50670778017E+03 0.  0.
        4    1    3    3  502    0 -0.14596455805E+03  0.16394876431E+03 -0.77415941173E+03  0.80467959909E+03  0.12699999809E+01 0. -1.
       -4    1    3    3    0  502  0.14596455805E+03 -0.16394876431E+03 -0.21794167526E+03  0.30932997954E+03  0.12699999809E+01 0.  1.
</event>
<event>
 5   0  0.1448458E-01  0.4920889E+03  0.7818609E-02  0.1015865E+00
        1   -1    0    0  501    0  0.00000000000E+00  0.00000000000E+00  0.38590545967E+03  0.38590545970E+03  0.50400001928E-02 0.  1.
       -1   -1    0    0    0  501  0.00000000000E+00  0.00000000000E+00 -0.15687225806E+03  0.15687225814E+03  0.50400001928E-02 0. -1.
    10030    2    1    2    0    0  0.00000000000E+00  0.00000000000E+00  0.22903320161E+03  0.54277771785E+03  0.49208885737E+03 0.  0.
        5    1    3    3  502    0 -0.12012698206E+03 -0.19529896148E+03  0.16209017820E+02  0.22990649932E+03  0.46999998093E+01 0. -1.
       -5    1    3    3    0  502  0.12012698206E+03  0.19529896148E+03  0.21282418379E+03  0.31287121852E+03  0.46999998093E+01 0.  1.
</event>
<event>
 5   0  0.1453602E-01  0.4922148E+03  0.7818609E-02  0.1015831E+00
       -1   -1    0    0    0  501  0.00000000000E+00  0.00000000000E+00  0.50644470039E+02  0.50644470290E+02  0.50400001928E-02 0.  1.
        1   -1    0    0  501    0  0.00000000000E+00  0.00000000000E+00 -0.11959620331E+04  0.11959620331E+04  0.50400001928E-02 0. -1.
    10030    2    1    2    0    0  0.00000000000E+00  0.00000000000E+00 -0.11453175631E+04  0.12466065034E+04  0.49221484544E+03 0.  0.
        2    1    3    3  502    0 -0.25483589634E+02 -0.16968487053E+02 -0.11911202143E+04  0.11915136205E+04  0.25500000920E-02 0. -1.
       -2    1    3    3    0  502  0.25483589634E+02  0.16968487053E+02  0.45802651174E+02  0.55092882976E+02  0.25500000920E-02 0.  1.
</event>
<event>
 5   0  0.1448458E-01  0.5117173E+03  0.7818609E-02  0.1010765E+00
       -1   -1    0    0    0  501  0.00000000000E+00  0.00000000000E+00  0.39303265478E+03  0.39303265481E+03  0.50400001928E-02 0.  1.
        1   -1    0    0  501    0  0.00000000000E+00  0.00000000000E+00 -0.16656030146E+03  0.16656030154E+03  0.50400001928E-02 0. -1.
    10030    2    1    2    0    0  0.00000000000E+00  0.00000000000E+00  0.22647235332E+03  0.55959295635E+03  0.51171725589E+03 0.  0.
        5    1    3    3  502    0 -0.63073172699E+02 -0.11480896328E+03  0.35352623996E+03  0.37704404982E+03  0.46999998093E+01 0.  1.
       -5    1    3    3    0  502  0.63073172699E+02  0.11480896328E+03 -0.12705388664E+03  0.18254890653E+03  0.46999998093E+01 0. -1.
</event>
<event>
 5   0  0.2488968E-01  0.4932680E+03  0.7818609E-02  0.1015551E+00
       -2   -1    0    0    0  501  0.00000000000E+00  0.00000000000E+00  0.19908866657E+03  0.19908866658E+03  0.25500000920E-02 0.  1.
        2   -1    0    0  501    0  0.00000000000E+00  0.00000000000E+00 -0.30553383934E+03  0.30553383935E+03  0.25500000920E-02 0. -1.
    10030    2    1    2    0    0  0.00000000000E+00  0.00000000000E+00 -0.10644517278E+03  0.50462250594E+03  0.49326797858E+03 0.  0.
        2    1    3    3  502    0  0.11370907703E+03 -0.68900322172E+02  0.15928807137E+03  0.20748421213E+03  0.25500000920E-02 0.  1.
       -2    1    3    3    0  502 -0.11370907703E+03  0.68900322172E+02 -0.26573324415E+03  0.29713829381E+03  0.25500000920E-02 0. -1.
</event>
<event>
 5   0  0.2413301E-01  0.4854852E+03  0.7818609E-02  0.1017638E+00
       -2   -1    0    0    0  501  0.00000000000E+00  0.00000000000E+00  0.92822052689E+02  0.92822052724E+02  0.25500000920E-02 0.  1.
        2   -1    0    0  501    0  0.00000000000E+00  0.00000000000E+00 -0.63480566507E+03  0.63480566507E+03  0.25500000920E-02 0. -1.
    10030    2    1    2    0    0  0.00000000000E+00  0.00000000000E+00 -0.54198361238E+03  0.72762771780E+03  0.48548517961E+03 0.  0.
        4    1    3    3  502    0  0.14832977174E+03  0.11550270546E+02 -0.55845467453E+03  0.57793456925E+03  0.12699999809E+01 0. -1.
       -4    1    3    3    0  502 -0.14832977174E+03 -0.11550270546E+02  0.16471062147E+02  0.14969314855E+03  0.12699999809E+01 0.  1.
</event>
<event>
 5   0  0.2466034E-01  0.5448960E+03  0.7818609E-02  0.1002682E+00
       -2   -1    0    0    0  501  0.00000000000E+00  0.00000000000E+00  0.31182714529E+02  0.31182714633E+02  0.25500000920E-02 0. -1.
        2   -1    0    0  501    0  0.00000000000E+00  0.00000000000E+00 -0.23804188939E+04  0.23804188939E+04  0.25500000920E-02 0.  1.
    10030    2    1    2    0    0  0.00000000000E+00  0.00000000000E+00 -0.23492361794E+04  0.24116016085E+04  0.54489603763E+03 0.  0.
        3    1    3    3  502    0 -0.86449280725E+02  0.13735897095E+03 -0.21431200257E+04  0.21492567133E+04  0.10100000352E+00 0.  1.
       -3    1    3    3    0  502  0.86449280725E+02 -0.13735897095E+03 -0.20611615370E+03  0.26234489524E+03  0.10100000352E+00 0. -1.
</event>
<event>
 5   0  0.1439814E-01  0.5019142E+03  0.7818609E-02  0.1013280E+00
        1   -1    0    0  501    0  0.00000000000E+00  0.00000000000E+00  0.16257633973E+04  0.16257633973E+04  0.50400001928E-02 0.  1.
       -1   -1    0    0    0  501  0.00000000000E+00  0.00000000000E+00 -0.38738390032E+02  0.38738390360E+02  0.50400001928E-02 0. -1.
    10030    2    1    2    0    0  0.00000000000E+00  0.00000000000E+00  0.15870250072E+04  0.16645017876E+04  0.50191416343E+03 0.  0.
        4    1    3    3  502    0  0.91371523782E+02 -0.26746573470E+02  0.23488219712E+02  0.98068567420E+02  0.12699999809E+01 0. -1.
       -4    1    3    3    0  502 -0.91371523782E+02  0.26746573470E+02  0.15635367875E+04  0.15664332202E+04  0.12699999809E+01 0.  1.
</event>
<event>
 5   0  0.1413361E-01  0.4425901E+03  0.7818609E-02  0.1029955E+00
        1   -1    0    0  501    0  0.00000000000E+00  0.00000000000E+00  0.43215637777E+03  0.43215637779E+03  0.50400001928E-02 0. -1.
       -1   -1    0    0    0  501  0.00000000000E+00  0.00000000000E+00 -0.11331891598E+03  0.11331891609E+03  0.50400001928E-02 0.  1.
    10030    2    1    2    0    0  0.00000000000E+00  0.00000000000E+00  0.31883746178E+03  0.54547529389E+03  0.44259006903E+03 0.  0.
        3    1    3    3  502    0  0.42542602544E+02  0.19065375265E+03  0.31261942675E+02  0.19782832378E+03  0.10100000352E+00 0.  1.
       -3    1    3    3    0  502 -0.42542602544E+02 -0.19065375265E+03  0.28757551911E+03  0.34764697010E+03  0.10100000352E+00 0. -1.
</event>
<event>
 5   0  0.1448458E-01  0.5161684E+03  0.7818609E-02  0.1009643E+00
        1   -1    0    0  501    0  0.00000000000E+00  0.00000000000E+00  0.26492470944E+03  0.26492470948E+03  0.50400001928E-02 0. -1.
       -1   -1    0    0    0  501  0.00000000000E+00  0.00000000000E+00 -0.25142032395E+03  0.25142032400E+03  0.50400001928E-02 0.  1.
    10030    2    1    2    0    0  0.00000000000E+00  0.00000000000E+00  0.13504385483E+02  0.51634503349E+03  0.51616840777E+03 0.  0.
        5    1    3    3  502    0  0.12623992088E+03  0.21232429361E+03 -0.67887299066E+02  0.25622041029E+03  0.46999998093E+01 0.  1.
       -5    1    3    3    0  502 -0.12623992088E+03 -0.21232429361E+03  0.81391684549E+02  0.26012462319E+03  0.46999998093E+01 0. -1.
</event>
<event>
 5   0  0.1448458E-01  0.5026246E+03  0.7818609E-02  0.1013096E+00
        1   -1    0    0  501    0  0.00000000000E+00  0.00000000000E+00  0.27114437838E+03  0.27114437843E+03  0.50400001928E-02 0. -1.
       -1   -1    0    0    0  501  0.00000000000E+00  0.00000000000E+00 -0.23293081940E+03  0.23293081945E+03  0.50400001928E-02 0.  1.
    10030    2    1    2    0    0  0.00000000000E+00  0.00000000000E+00  0.38213558985E+02  0.50407519788E+03  0.50262464030E+03 0.  0.
        5    1    3    3  502    0 -0.49181938289E+01 -0.22011017245E+03  0.14054759736E+03  0.26124393537E+03  0.46999998093E+01 0.  1.
       -5    1    3    3    0  502  0.49181938289E+01  0.22011017245E+03 -0.10233403838E+03  0.24283126251E+03  0.46999998093E+01 0. -1.
</event>
<event>
 5   0  0.9868500E-02  0.4982793E+03  0.7818609E-02  0.1014229E+00
        3   -1    0    0  501    0  0.00000000000E+00  0.00000000000E+00  0.15919990323E+03  0.15919993527E+03  0.10100000352E+00 0. -1.
       -3   -1    0    0    0  501  0.00000000000E+00  0.00000000000E+00 -0.38989057928E+03  0.38989059237E+03  0.10100000352E+00 0.  1.
    10030    2    1    2    0    0  0.00000000000E+00  0.00000000000E+00 -0.23069067605E+03  0.54909052764E+03  0.49827925857E+03 0.  0.
        5    1    3    3  502    0 -0.18589609284E+03 -0.52028093676E+02  0.58138277054E+02  0.20165919052E+03  0.46999998093E+01 0. -1.
       -5    1    3    3    0  502  0.18589609284E+03  0.52028093676E+02 -0.28882895310E+03  0.34743133712E+03  0.46999998093E+01 0.  1.
</event>
<event>
 5   0  0.2488968E-01  0.5068692E+03  0.7818609E-02  0.1012001E+00
        2   -1    0    0  501    0  0.00000000000E+00  0.00000000000E+00  0.19529905810E+04  0.19529905810E+04  0.25500000920E-02 0.  1.
       -2   -1    0    0    0  501  0.00000000000E+00  0.00000000000E+00 -0.32887566228E+02  0.32887566327E+02  0.25500000920E-02 0. -1.
    10030    2    1    2    0    0  0.00000000000E+00  0.00000000000E+00  0.19201030148E+04  0.19858781474E+04  0.50686924222E+03 0.  0.
        2    1    3    3  502    0  0.16379281949E+03 -0.14147734853E+03  0.14766418057E+04  0.14924191604E+04  0.25500000920E-02 0.  1.
       -2    1    3    3    0  502 -0.16379281949E+03  0.14147734853E+03  0.44346120909E+03  0.49345898699E+03  0.25500000920E-02 0. -1.
</event>
<event>
 5   0  0.2488968E-01  0.4882499E+03  0.7818609E-02  0.1016892E+00
        2   -1    0    0  501    0  0.00000000000E+00  0.00000000000E+00  0.35003597433E+03  0.35003597434E+03  0.25500000920E-02 0. -1.
       -2   -1    0    0    0  501  0.00000000000E+00  0.00000000000E+00 -0.17025963578E+03  0.17025963580E+03  0.25500000920E-02 0.  1.
    10030    2    1    2    0    0  0.00000000000E+00  0.00000000000E+00  0.17977633856E+03  0.52029561014E+03  0.48824992578E+03 0.  0.
        2    1    3    3  502    0 -0.11921472065E+03 -0.15643809174E+03 -0.64212832921E+02  0.20690170150E+03  0.25500000920E-02 0.  1.
       -2    1    3    3    0  502  0.11921472065E+03  0.15643809174E+03  0.24398917148E+03  0.31339390864E+03  0.25500000920E-02 0. -1.
</event>
<event>
 5   0  0.1529146E-01  0.4583277E+03  0.7818609E-02  0.1025267E+00
        1   -1    0    0  501    0  0.00000000000E+00  0.00000000000E+00  0.25066997379E+03  0.25066997384E+03  0.50400001928E-02 0.  1.
       -1   -1    0    0    0  501  0.00000000000E+00  0.00000000000E+00 -0.20950279486E+03  0.20950279493E+03  0.50400001928E-02 0. -1.
    10030    2    1    2    0    0  0.00000000000E+00  0.00000000000E+00  0.41167178921E+02  0.46017276876E+03  0.45832765626E+03 0.  0.
        1    1    3    3  502    0  0.41486048227E+02 -0.17613858777E+03  0.16175605735E+03  0.24271571110E+03  0.50400001928E-02 0.  1.
       -1    1    3    3    0  502 -0.41486048227E+02  0.17613858777E+03 -0.12058887843E+03  0.21745705766E+03  0.50400001928E-02 0. -1.
</event>
<event>
 5   0  0.1439814E-01  0.3917725E+03  0.7818609E-02  0.1046666E+00
        1   -1    0    0  501    0  0.00000000000E+00  0.00000000000E+00  0.34236938816E+03  0.34236938820E+03  0.50400001928E-02 0.  1.
       -1   -1    0    0    0  501  0.00000000000E+00  0.00000000000E+00 -0.11207606397E+03  0.11207606408E+03  0.50400001928E-02 0. -1.
    10030    2    1    2    0    0  0.00000000000E+00  0.00000000000E+00  0.23029332419E+03  0.45444545228E+03  0.39177245173E+03 0.  0.
        4    1    3    3  502    0 -0.12370814375E+03  0.39510619210E+02 -0.54958564810E+02  0.14102074531E+03  0.12699999809E+01 0. -1.
       -4    1    3    3    0  502  0.12370814375E+03 -0.39510619210E+02  0.28525188900E+03  0.31342470697E+03  0.12699999809E+01 0.  1.
</event>
<event>
 5   0  0.2466034E-01  0.4691295E+03  0.7818609E-02  0.1022166E+00
       -2   -1    0    0    0  501  0.00000000000E+00  0.00000000000E+00  0.56663285386E+02  0.56663285443E+02  0.25500000920E-02 0.  1.
        2   -1    0    0  501    0  0.00000000000E+00  0.00000000000E+00 -0.97100989911E+03  0.97100989911E+03  0.25500000920E-02 0. -1.
    10030    2    1    2    0    0  0.00000000000E+00  0.00000000000E+00 -0.91434661372E+03  0.10276731846E+04  0.46912945359E+03 0.  0.
        3    1    3    3  502    0  0.72199048296E+02 -0.65542374756E+01  0.31506133261E+02  0.79046234811E+02  0.10100000352E+00 0.  1.
       -3    1    3    3    0  502 -0.72199048296E+02  0.65542374756E+01 -0.94585274699E+03  0.94862694975E+03  0.10100000352E+00 0. -1.
</event>
<event>
 5   0  0.2504064E-01  0.4130235E+03  0.7818609E-02  0.1039361E+00
       -2   -1    0    0    0  501  0.00000000000E+00  0.00000000000E+00  0.15656847035E+03  0.15656847037E+03  0.25500000920E-02 0. -1.
        2   -1    0    0  501    0  0.00000000000E+00  0.00000000000E+00 -0.27238623080E+03  0.27238623082E+03  0.25500000920E-02 0.  1.
    10030    2    1    2    0    0  0.00000000000E+00  0.00000000000E+00 -0.11581776046E+03  0.42895470118E+03  0.41302346426E+03 0.  0.
        5    1    3    3  502    0  0.74229456806E+02 -0.13972786414E+03  0.79838522332E+02  0.17728555475E+03  0.46999998093E+01 0. -1.
       -5    1    3    3    0  502 -0.74229456806E+02  0.13972786414E+03 -0.19565628279E+03  0.25166914644E+03  0.46999998093E+01 0.  1.
</event>
<event>
 5   0  0.1453602E-01  0.4965808E+03  0.7818609E-02  0.1014675E+00
        1   -1    0    0  501    0  0.00000000000E+00  0.00000000000E+00  0.64733797979E+03  0.64733797981E+03  0.50400001928E-02 0.  1.
       -1   -1    0    0    0  501  0.00000000000E+00  0.00000000000E+00 -0.95233287174E+02  0.95233287308E+02  0.50400001928E-02 0. -1.
    10030    2    1    2    0    0  0.00000000000E+00  0.00000000000E+00  0.55210469262E+03  0.74257126712E+03  0.49658080424E+03 0.  0.
        2    1    3    3  502    0  0.90124614682E+02  0.19316036469E+03  0.46646831074E+03  0.51286066099E+03  0.25500000920E-02 0. -1.
       -2    1    3    3    0  502 -0.90124614682E+02 -0.19316036469E+03  0.85636381877E+02  0.22971060613E+03  0.25500000920E-02 0.  1.
</event>
<event>
 5   0  0.1453602E-01  0.5209509E+03  0.7818609E-02  0.1008451E+00
       -1   -1    0    0    0  501  0.00000000000E+00  0.00000000000E+00  0.79349266245E+02  0.79349266405E+02  0.50400001928E-02 0. -1.
        1   -1    0    0  501    0  0.00000000000E+00  0.00000000000E+00 -0.85504828408E+03  0.85504828410E+03  0.50400001928E-02 0.  1.
    10030    2    1    2    0    0  0.00000000000E+00  0.00000000000E+00 -0.77569901784E+03  0.93439755050E+03  0.52095087687E+03 0.  0.
        2    1    3    3  502    0 -0.12069804042E+03 -0.19192238684E+03 -0.15783514741E+03  0.27625016433E+03  0.25500000920E-02 0. -1.
       -2    1    3    3    0  502  0.12069804042E+03  0.19192238684E+03 -0.61786387043E+03  0.65814738617E+03  0.25500000920E-02 0.  1.
</event>
<event>
 5   0  0.1413361E-01  0.4951872E+03  0.7818609E-02  0.1015043E+00
        1   -1    0    0  501    0  0.00000000000E+00  0.00000000000E+00  0.91161239538E+03  0.91161239540E+03  0.50400001928E-02 0.  1.
       -1   -1    0    0    0  501  0.00000000000E+00  0.00000000000E+00 -0.67246325554E+02  0.67246325743E+02  0.50400001928E-02 0. -1.
    10030    2    1    2    0    0  0.00000000000E+00  0.00000000000E+00  0.84436606983E+03  0.97885872114E+03  0.49518717277E+03 0.  0.
        3    1    3    3  502    0  0.30021475074E+02  0.14765645822E+03  0.81054602872E+03  0.82443228557E+03  0.10100000352E+00 0.  1.
       -3    1    3    3    0  502 -0.30021475074E+02 -0.14765645822E+03  0.33820041108E+02  0.15442643557E+03  0.10100000352E+00 0. -1.
</event>
<event>
 5   0  0.2466034E-01  0.5026027E+03  0.7818609E-02  0.1013102E+00
        2   -1    0    0  501    0  0.00000000000E+00  0.00000000000E+00  0.65425391400E+03  0.65425391400E+03  0.25500000920E-02 0.  1.
       -2   -1    0    0    0  501  0.00000000000E+00  0.00000000000E+00 -0.96525763266E+02  0.96525763299E+02  0.25500000920E-02 0. -1.
    10030    2    1    2    0    0  0.00000000000E+00  0.00000000000E+00  0.55772815073E+03  0.75077967730E+03  0.50260265989E+03 0.  0.
        3    1    3    3  502    0 -0.12501415296E+03  0.16635077347E+03  0.68398323208E+02  0.21904214000E+03  0.10100000352E+00 0. -1.
       -3    1    3    3    0  502  0.12501415296E+03 -0.16635077347E+03  0.48932982752E+03  0.53173753731E+03  0.10100000352E+00 0.  1.
</event>
<event>
 5   0  0.1413361E-01  0.4929848E+03  0.7818609E-02  0.1015626E+00
       -1   -1    0    0    0  501  0.00000000000E+00  0.00000000000E+00  0.79109725853E+02  0.79109726014E+02  0.50400001928E-02 0.  1.
        1   -1    0    0  501    0  0.00000000000E+00  0.00000000000E+00 -0.76802825544E+03  0.76802825545E+03  0.50400001928E-02 0. -1.
    10030    2    1    2    0    0  0.00000000000E+00  0.00000000000E+00 -0.68891852958E+03  0.84713798147E+03  0.49298480630E+03 0.  0.
        3    1    3    3  502    0  0.16979538390E+03  0.91807607140E+00 -0.65150346273E+03  0.67326672828E+03  0.10100000352E+00 0. -1.
       -3    1    3    3    0  502 -0.16979538390E+03 -0.91807607140E+00 -0.37415066852E+02  0.17387125319E+03  0.10100000352E+00 0.  1.
</event>
<event>
 5   0  0.1453602E-01  0.4887836E+03  0.7818609E-02  0.1016749E+00
        1   -1    0    0  501    0  0.00000000000E+00  0.00000000000E+00  0.12856821137E+04  0.12856821137E+04  0.50400001928E-02 0.  1.
       -1   -1    0    0    0  501  0.00000000000E+00  0.00000000000E+00 -0.46455768705E+02  0.46455768979E+02  0.50400001928E-02 0. -1.
    10030    2    1    2    0    0  0.00000000000E+00  0.00000000000E+00  0.12392263450E+04  0.13321378827E+04  0.48878359665E+03 0.  0.
        2    1    3    3  502    0 -0.17887375840E+03  0.15871869213E+03  0.48225914035E+03  0.53829482919E+03  0.25500000920E-02 0. -1.
       -2    1    3    3    0  502  0.17887375840E+03 -0.15871869213E+03  0.75696720461E+03  0.79384305346E+03  0.25500000920E-02 0.  1.
</event>
<event>
 5   0  0.2466034E-01  0.5048013E+03  0.7818609E-02  0.1012533E+00
       -2   -1    0    0    0  501  0.00000000000E+00  0.00000000000E+00  0.17444979315E+03  0.17444979317E+03  0.25500000920E-02 0. -1.
        2   -1    0    0  501    0  0.00000000000E+00  0.00000000000E+00 -0.36518287992E+03  0.36518287993E+03  0.25500000920E-02 0.  1.
    10030    2    1    2    0    0  0.00000000000E+00  0.00000000000E+00 -0.19073308676E+03  0.53963267310E+03  0.50480125940E+03 0.  0.
        3    1    3    3  502    0  0.71619124742E+02 -0.20173630017E+02 -0.35319245829E+03  0.36094486721E+03  0.10100000352E+00 0.  1.
       -3    1    3    3    0  502 -0.71619124742E+02  0.20173630017E+02  0.16245937152E+03  0.17868780589E+03  0.10100000352E+00 0. -1.
</event>
<event>
 5   0  0.2504064E-01  0.5047113E+03  0.7818609E-02  0.1012556E+00
       -2   -1    0    0    0  501  0.00000000000E+00  0.00000000000E+00  0.16034618069E+03  0.16034618071E+03  0.25500000920E-02 0.  1.
        2   -1    0    0  501    0  0.00000000000E+00  0.00000000000E+00 -0.39716183651E+03  0.39716183651E+03  0.25500000920E-02 0. -1.
    10030    2    1    2    0    0  0.00000000000E+00  0.00000000000E+00 -0.23681565582E+03  0.55750801722E+03  0.50471133772E+03 0.  0.
        5    1    3    3  502    0 -0.23873501813E+03 -0.15933036225E+02 -0.29949350861E+02  0.24117902923E+03  0.46999998093E+01 0. -1.
       -5    1    3    3    0  502  0.23873501813E+03  0.15933036225E+02 -0.20686630496E+03  0.31632898800E+03  0.46999998093E+01 0.  1.
</event>
<event>
 5   0  0.2504064E-01  0.5035637E+03  0.7818609E-02  0.1012853E+00
        2   -1    0    0  501    0  0.00000000000E+00  0.00000000000E+00  0.28696707413E+03  0.28696707414E+03  0.25500000920E-02 0.  1.
       -2   -1    0    0    0  501  0.00000000000E+00  0.00000000000E+00 -0.22091073406E+03  0.22091073407E+03  0.25500000920E-02 0. -1.
    10030    2    1    2    0    0  0.00000000000E+00  0.00000000000E+00  0.66056340072E+02  0.50787780821E+03  0.50356372785E+03 0.  0.
        5    1    3    3  502    0  0.10120075719E+03  0.17290063707E+03 -0.12071065243E+03  0.23394310241E+03  0.46999998093E+01 0.  1.
       -5    1    3    3    0  502 -0.10120075719E+03 -0.17290063707E+03  0.18676699250E+03  0.27393470580E+03  0.46999998093E+01 0. -1.
</event>
<event>
 5   0  0.2504064E-01  0.4217950E+03  0.7818609E-02  0.1036484E+00
        2   -1    0    0  501    0  0.00000000000E+00  0.00000000000E+00  0.82155780473E+03  0.82155780474E+03  0.25500000920E-02 0.  1.
       -2   -1    0    0    0  501  0.00000000000E+00  0.00000000000E+00 -0.54138314303E+02  0.54138314363E+02  0.25500000920E-02 0. -1.
    10030    2    1    2    0    0  0.00000000000E+00  0.00000000000E+00  0.76741949043E+03  0.87569611910E+03  0.42179499608E+03 0.  0.
        5    1    3    3  502    0  0.12569255004E+03 -0.12466691647E+03  0.14594931139E+03  0.22948583549E+03  0.46999998093E+01 0. -1.
       -5    1    3    3    0  502 -0.12569255004E+03  0.12466691647E+03  0.62147017904E+03  0.64621028361E+03  0.46999998093E+01 0.  1.
</event>
<event>
 5   0  0.2488968E-01  0.4993558E+03  0.7818609E-02  0.1013947E+00
       -2   -1    0    0    0  501  0.00000000000E+00  0.00000000000E+00  0.70542562810E+02  0.70542562856E+02  0.25500000920E-02 0. -1.
        2   -1    0    0  501    0  0.00000000000E+00  0.00000000000E+00 -0.88370845834E+03  0.88370845834E+03  0.25500000920E-02 0.  1.
    10030    2    1    2    0    0  0.00000000000E+00  0.00000000000E+00 -0.81316589553E+03  0.95425102120E+03  0.49935582284E+03 0.  0.
        2    1    3    3  502    0  0.12754487960E+03  0.28939870231E+02 -0.81301156301E+03  0.82346403321E+03  0.25500000920E-02 0.  1.
       -2    1    3    3    0  502 -0.12754487960E+03 -0.28939870231E+02 -0.15433252272E+00  0.13078698799E+03  0.25500000920E-02 0. -1.
</event>
<event>
 5   0  0.2413301E-01  0.5106219E+03  0.7818609E-02  0.1011043E+00
        2   -1    0    0  501    0  0.00000000000E+00  0.00000000000E+00  0.20480047827E+03  0.20480047829E+03  0.25500000920E-02 0. -1.
       -2   -1    0    0    0  501  0.00000000000E+00  0.00000000000E+00 -0.31827893960E+03  0.31827893961E+03  0.25500000920E-02 0.  1.
    10030    2    1    2    0    0  0.00000000000E+00  0.00000000000E+00 -0.11347846133E+03  0.52307941790E+03  0.51062189166E+03 0.  0.
        4    1    3    3  502    0 -0.10731328719E+02  0.23105323072E+03  0.53977681134E+02  0.23752044081E+03  0.12699999809E+01 0. -1.
       -4    1    3    3    0  502  0.10731328719E+02 -0.23105323072E+03 -0.16745614247E+03  0.28555897708E+03  0.12699999809E+01 0.  1.
</event>
<event>
 5   0  0.2504064E-01  0.4907438E+03  0.7818609E-02  0.1016224E+00
        2   -1    0    0  501    0  0.00000000000E+00  0.00000000000E+00  0.12994637359E+04  0.12994637359E+04  0.25500000920E-02 0. -1.
       -2   -1    0    0    0  501  0.00000000000E+00  0.00000000000E+00 -0.46332480636E+02  0.46332480707E+02  0.25500000920E-02 0.  1.
    10030    2    1    2    0    0  0.00000000000E+00  0.00000000000E+00  0.12531312553E+04  0.13457962166E+04  0.49074383717E+03 0.  0.
        5    1    3    3  502    0 -0.11401835971E+03  0.13915841875E+03  0.16915811119E+03  0.24698544175E+03  0.46999998093E+01 0.  1.
       -5    1    3    3    0  502  0.11401835971E+03 -0.13915841875E+03  0.10839731441E+04  0.10988107749E+04  0.46999998093E+01 0. -1.
</event>
<event>
 5   0  0.2504064E-01  0.4859676E+03  0.7818609E-02  0.1017508E+00
       -2   -1    0    0    0  501  0.00000000000E+00  0.00000000000E+00  0.12320832269E+03  0.12320832272E+03  0.25500000920E-02 0.  1.
        2   -1    0    0  501    0  0.00000000000E+00  0.00000000000E+00 -0.47919762146E+03  0.47919762146E+03  0.25500000920E-02 0. -1.
    10030    2    1    2    0    0  0.00000000000E+00  0.00000000000E+00 -0.35598929876E+03  0.60240594418E+03  0.48596763344E+03 0.  0.
        5    1    3    3  502    0 -0.44539419543E+02  0.37007039485E+02 -0.47046105765E+03  0.47403478525E+03  0.46999998093E+01 0. -1.
       -5    1    3    3    0  502  0.44539419543E+02 -0.37007039485E+02  0.11447175889E+03  0.12837115893E+03  0.46999998093E+01 0.  1.
</event>
<event>
 5   0  0.2511944E-01  0.4952358E+03  0.7818609E-02  0.1015030E+00
        2   -1    0    0  501    0  0.00000000000E+00  0.00000000000E+00  0.80488704439E+03  0.80488704439E+03  0.25500000920E-02 0. -1.
       -2   -1    0    0    0  501  0.00000000000E+00  0.00000000000E+00 -0.76177926702E+02  0.76177926744E+02  0.25500000920E-02 0.  1.
    10030    2    1    2    0    0  0.00000000000E+00  0.00000000000E+00  0.72870911769E+03  0.88106497114E+03  0.49523580763E+03 0.  0.
        1    1    3    3  502    0  0.61452803669E+02  0.53668037423E+02 -0.51577552632E+02  0.96524345533E+02  0.50400001928E-02 0.  1.
       -1    1    3    3    0  502 -0.61452803669E+02 -0.53668037423E+02  0.78028667032E+03  0.78454062560E+03  0.50400001928E-02 0. -1.
</event>
<event>
 5   0  0.1448458E-01  0.5101085E+03  0.7818609E-02  0.1011174E+00
        1   -1    0    0  501    0  0.00000000000E+00  0.00000000000E+00  0.49041286745E+03  0.49041286748E+03  0.50400001928E-02 0. -1.
       -1   -1    0    0    0  501  0.00000000000E+00  0.00000000000E+00 -0.13264878384E+03  0.13264878394E+03  0.50400001928E-02 0.  1.
    10030    2    1    2    0    0  0.00000000000E+00  0.00000000000E+00  0.35776408361E+03  0.62306165142E+03  0.51010850017E+03 0.  0.
        5    1    3    3  502    0 -0.37814229770E+02 -0.25074705467E+03  0.21180583837E+03  0.33043577979E+03  0.46999998093E+01 0.  1.
       -5    1    3    3    0  502  0.37814229770E+02  0.25074705467E+03  0.14595824524E+03  0.29262587163E+03  0.46999998093E+01 0. -1.
</event>
<event>
 5   0  0.2511944E-01  0.5044598E+03  0.7818609E-02  0.1012621E+00
       -2   -1    0    0    0  501  0.00000000000E+00  0.00000000000E+00  0.20340310571E+03  0.20340310572E+03  0.25500000920E-02 0.  1.
        2   -1    0    0  501    0  0.00000000000E+00  0.00000000000E+00 -0.31277754678E+03  0.31277754679E+03  0.25500000920E-02 0. -1.
    10030    2    1    2    0    0  0.00000000000E+00  0.00000000000E+00 -0.10937444107E+03  0.51618065252E+03  0.50445980779E+03 0.  0.
        1    1    3    3  502    0  0.28950128450E+02  0.59105056668E+02  0.19446229213E+03  0.20529759070E+03  0.50400001928E-02 0.  1.
       -1    1    3    3    0  502 -0.28950128450E+02 -0.59105056668E+02 -0.30383673320E+03  0.31088306182E+03  0.50400001928E-02 0. -1.
</event>
<event>
 5   0  0.1453602E-01  0.4946110E+03  0.7818609E-02  0.1015195E+00
        1   -1    0    0  501    0  0.00000000000E+00  0.00000000000E+00  0.24996676139E+03  0.24996676144E+03  0.50400001928E-02 0.  1.
       -1   -1    0    0    0  501  0.00000000000E+00  0.00000000000E+00 -0.24467256251E+03  0.24467256256E+03  0.50400001928E-02 0. -1.
    10030    2    1    2    0    0  0.00000000000E+00  0.00000000000E+00  0.52941988760E+01  0.49463932400E+03  0.49461099089E+03 0.  0.
        2    1    3    3  502    0 -0.25674371326E+02  0.13054259534E+03  0.21112838086E+03  0.24955106842E+03  0.25500000920E-02 0.  1.
       -2    1    3    3    0  502  0.25674371326E+02 -0.13054259534E+03 -0.20583418198E+03  0.24508825557E+03  0.25500000920E-02 0. -1.
</event>
<event>
 5   0  0.2466034E-01  0.5031527E+03  0.7818609E-02  0.1012959E+00
       -2   -1    0    0    0  501  0.00000000000E+00  0.00000000000E+00  0.14213253469E+03  0.14213253472E+03  0.25500000920E-02 0. -1.
        2   -1    0    0  501    0  0.00000000000E+00  0.00000000000E+00 -0.44529332487E+03  0.44529332488E+03  0.25500000920E-02 0.  1.
    10030    2    1    2    0    0  0.00000000000E+00  0.00000000000E+00 -0.30316079017E+03  0.58742585959E+03  0.50315273608E+03 0.  0.
        3    1    3    3  502    0  0.16849182984E+03  0.31725247045E+02 -0.36652123028E+03  0.40464034706E+03  0.10100000352E+00 0.  1.
       -3    1    3    3    0  502 -0.16849182984E+03 -0.31725247045E+02  0.63360440103E+02  0.18278551254E+03  0.10100000352E+00 0. -1.
</event>
<event>
 5   0  0.1439814E-01  0.5040248E+03  0.7818609E-02  0.1012734E+00
       -1   -1    0    0    0  501  0.00000000000E+00  0.00000000000E+00  0.22972835623E+03  0.22972835629E+03  0.50400001928E-02 0. -1.
        1   -1    0    0  501    0  0.00000000000E+00  0.00000000000E+00 -0.27645800072E+03  0.27645800076E+03  0.50400001928E-02 0.  1.
    10030    2    1    2    0    0  0.00000000000E+00  0.00000000000E+00 -0.46729644485E+02  0.50618635705E+03  0.50402476962E+03 0.  0.
        4    1    3    3  502    0 -0.86304883585E+02 -0.78490455484E+02  0.20097479621E+03  0.23238280088E+03  0.12699999809E+01 0. -1.
       -4    1    3    3    0  502  0.86304883585E+02  0.78490455484E+02 -0.24770444069E+03  0.27380355617E+03  0.12699999809E+01 0.  1.
</event>
<event>
 5   0  0.1529146E-01  0.5069971E+03  0.7818609E-02  0.1011969E+00
       -1   -1    0    0    0  501  0.00000000000E+00  0.00000000000E+00  0.12565113309E+03  0.12565113319E+03  0.50400001928E-02 0.  1.
        1   -1    0    0  501    0  0.00000000000E+00  0.00000000000E+00 -0.51142809720E+03  0.51142809723E+03  0.50400001928E-02 0. -1.
    10030    2    1    2    0    0  0.00000000000E+00  0.00000000000E+00 -0.38577696411E+03  0.63707923041E+03  0.50699712010E+03 0.  0.
        1    1    3    3  502    0 -0.14793750390E+03 -0.20579748501E+03 -0.18680868801E+03  0.31485805665E+03  0.50400001928E-02 0. -1.
       -1    1    3    3    0  502  0.14793750390E+03  0.20579748501E+03 -0.19896827611E+03  0.32222117376E+03  0.50400001928E-02 0.  1.
</event>
<event>
 5   0  0.1448458E-01  0.4926939E+03  0.7818609E-02  0.1015704E+00
       -1   -1    0    0    0  501  0.00000000000E+00  0.00000000000E+00  0.20439148955E+03  0.20439148962E+03  0.50400001928E-02 0.  1.
        1   -1    0    0  501    0  0.00000000000E+00  0.00000000000E+00 -0.29691457646E+03  0.29691457650E+03  0.50400001928E-02 0. -1.
    10030    2    1    2    0    0  0.00000000000E+00  0.00000000000E+00 -0.92523086900E+02  0.50130606612E+03  0.49269387079E+03 0.  0.
        5    1    3    3  502    0 -0.13204048388E+03  0.77154564371E+02  0.15018639671E+03  0.21439580206E+03  0.46999998093E+01 0.  1.
       -5    1    3    3    0  502  0.13204048388E+03 -0.77154564371E+02 -0.24270948361E+03  0.28691026405E+03  0.46999998093E+01 0. -1.
</event>
<event>
 5   0  0.2413301E-01  0.4884029E+03  0.7818609E-02  0.1016851E+00
       -2   -1    0    0    0  501  0.00000000000E+00  0.00000000000E+00  0.53280366363E+02  0.53280366424E+02  0.25500000920E-02 0. -1.
        2   -1    0    0  501    0  0.00000000000E+00  0.00000000000E+00 -0.11192553752E+04  0.11192553752E+04  0.25500000920E-02 0.  1.
    10030    2    1    2    0    0  0.00000000000E+00  0.00000000000E+00 -0.10659750089E+04  0.11725357416E+04  0.48840285209E+03 0.  0.
        4    1    3    3  502    0  0.14170456575E+03 -0.36765160742E+02 -0.63758895495E+02  0.15968303183E+03  0.12699999809E+01 0. -1.
       -4    1    3    3    0  502 -0.14170456575E+03  0.36765160742E+02 -0.10022161134E+04  0.10128527098E+04  0.12699999809E+01 0.  1.
</event>
<event>
 5   0  0.1453602E-01  0.5001775E+03  0.7818609E-02  0.1013733E+00
       -1   -1    0    0    0  501  0.00000000000E+00  0.00000000000E+00  0.91425236189E+02  0.91425236328E+02  0.50400001928E-02 0.  1.
        1   -1    0    0  501    0  0.00000000000E+00  0.00000000000E+00 -0.68410401890E+03  0.68410401892E+03  0.50400001928E-02 0. -1.
    10030    2    1    2    0    0  0.00000000000E+00  0.00000000000E+00 -0.59267878271E+03  0.77552925525E+03  0.50017745478E+03 0.  0.
        2    1    3    3  502    0  0.10294756119E+03  0.67553694441E+02  0.41168425556E+02  0.12983274339E+03  0.25500000920E-02 0.  1.
       -2    1    3    3    0  502 -0.10294756119E+03 -0.67553694441E+02 -0.63384720827E+03  0.64569651186E+03  0.25500000920E-02 0. -1.
</event>
<event>
 5   0  0.2488968E-01  0.4857611E+03  0.7818609E-02  0.1017564E+00
       -2   -1    0    0    0  501  0.00000000000E+00  0.00000000000E+00  0.56533521282E+02  0.56533521340E+02  0.25500000920E-02 0.  1.
        2   -1    0    0  501    0  0.00000000000E+00  0.00000000000E+00 -0.10434686595E+04  0.10434686596E+04  0.25500000920E-02 0. -1.
    10030    2    1    2    0    0  0.00000000000E+00  0.00000000000E+00 -0.98693513827E+03  0.11000021809E+04  0.48576108409E+03 0.  0.
        2    1    3    3  502    0 -0.14763584598E+03 -0.17725409921E+03 -0.32137213701E+03  0.39559500649E+03  0.25500000920E-02 0. -1.
       -2    1    3    3    0  502  0.14763584598E+03  0.17725409921E+03 -0.66556300126E+03  0.70440717440E+03  0.25500000920E-02 0.  1.
</event>
<event>
 5   0  0.9868500E-02  0.4790245E+03  0.7818609E-02  0.1019404E+00
        3   -1    0    0  501    0  0.00000000000E+00  0.00000000000E+00  0.19274122890E+03  0.19274125536E+03  0.10100000352E+00 0. -1.
       -3   -1    0    0    0  501  0.00000000000E+00  0.00000000000E+00 -0.29763281760E+03  0.29763283474E+03  0.10100000352E+00 0.  1.
    10030    2    1    2    0    0  0.00000000000E+00  0.00000000000E+00 -0.10489158870E+03  0.49037409010E+03  0.47902453263E+03 0.  0.
        4    1    3    3  502    0  0.14213013727E+02  0.22148250573E+03 -0.14462367150E+03  0.26490400028E+03  0.12699999809E+01 0.  1.
       -4    1    3    3    0  502 -0.14213013727E+02 -0.22148250573E+03  0.39732082798E+02  0.22547008983E+03  0.12699999809E+01 0. -1.
</event>
<event>
 5   0  0.9868500E-02  0.5216976E+03  0.7818609E-02  0.1008266E+00
       -3   -1    0    0    0  501  0.00000000000E+00  0.00000000000E+00  0.17805020933E+03  0.17805023798E+03  0.10100000352E+00 0.  1.
        3   -1    0    0  501    0  0.00000000000E+00  0.00000000000E+00 -0.38215111187E+03  0.38215112522E+03  0.10100000352E+00 0. -1.
    10030    2    1    2    0    0  0.00000000000E+00  0.00000000000E+00 -0.20410090254E+03  0.56020136319E+03  0.52169760293E+03 0.  0.
        3    1    3    3  502    0 -0.34789776817E+02 -0.25384583814E+03 -0.15459066435E+03  0.29924291440E+03  0.10100000352E+00 0.  1.
       -3    1    3    3    0  502  0.34789776817E+02  0.25384583814E+03 -0.49510238189E+02  0.26095844880E+03  0.10100000352E+00 0. -1.
</event>
<event>
 5   0  0.2511944E-01  0.4922320E+03  0.7818609E-02  0.1015827E+00
        2   -1    0    0  501    0  0.00000000000E+00  0.00000000000E+00  0.81616522262E+03  0.81616522262E+03  0.25500000920E-02 0.  1.
       -2   -1    0    0    0  501  0.00000000000E+00  0.00000000000E+00 -0.74216695413E+02  0.74216695457E+02  0.25500000920E-02 0. -1.
    10030    2    1    2    0    0  0.00000000000E+00  0.00000000000E+00  0.74194852721E+03  0.89038191808E+03  0.49223200122E+03 0.  0.
        1    1    3    3  502    0 -0.31263584459E+02  0.19992939381E+03  0.62436998370E+03  0.65634369867E+03  0.50400001928E-02 0.  1.
       -1    1    3    3    0  502  0.31263584459E+02 -0.19992939381E+03  0.11757854351E+03  0.23403821941E+03  0.50400001928E-02 0. -1.
</event>
<event>
 5   0  0.2504064E-01  0.5036798E+03  0.7818609E-02  0.1012823E+00
        2   -1    0    0  501    0  0.00000000000E+00  0.00000000000E+00  0.11730869822E+03  0.11730869824E+03  0.25500000920E-02 0.  1.
       -2   -1    0    0    0  501  0.00000000000E+00  0.00000000000E+00 -0.54065338557E+03  0.54065338558E+03  0.25500000920E-02 0. -1.
    10030    2    1    2    0    0  0.00000000000E+00  0.00000000000E+00 -0.42334468736E+03  0.65796208382E+03  0.50367983823E+03 0.  0.
        5    1    3    3  502    0  0.24764996447E+02 -0.24569988340E+03 -0.14741679308E+03  0.28763786022E+03  0.46999998093E+01 0.  1.
       -5    1    3    3    0  502 -0.24764996447E+02  0.24569988340E+03 -0.27592789427E+03  0.37032422360E+03  0.46999998093E+01 0. -1.
</event>
<event>
 5   0  0.1453602E-01  0.5388486E+03  0.7818609E-02  0.1004108E+00
       -1   -1    0    0    0  501  0.00000000000E+00  0.00000000000E+00  0.73636572034E+02  0.73636572207E+02  0.50400001928E-02 0. -1.
        1   -1    0    0  501    0  0.00000000000E+00  0.00000000000E+00 -0.98577985292E+03  0.98577985293E+03  0.50400001928E-02 0.  1.
    10030    2    1    2    0    0  0.00000000000E+00  0.00000000000E+00 -0.91214328089E+03  0.10594164251E+04  0.53884858448E+03 0.  0.
        2    1    3    3  502    0  0.96816875680E+02  0.97700363470E+02 -0.59290824191E+00  0.13754715550E+03  0.25500000920E-02 0. -1.
       -2    1    3    3    0  502 -0.96816875680E+02 -0.97700363470E+02 -0.91155037264E+03  0.92186926964E+03  0.25500000920E-02 0.  1.
</event>
<event>
 5   0  0.1439814E-01  0.5019216E+03  0.7818609E-02  0.1013279E+00
        1   -1    0    0  501    0  0.00000000000E+00  0.00000000000E+00  0.74393142179E+03  0.74393142181E+03  0.50400001928E-02 0.  1.
       -1   -1    0    0    0  501  0.00000000000E+00  0.00000000000E+00 -0.84660105982E+02  0.84660106132E+02  0.50400001928E-02 0. -1.
    10030    2    1    2    0    0  0.00000000000E+00  0.00000000000E+00  0.65927131581E+03  0.82859152794E+03  0.50192155993E+03 0.  0.
        4    1    3    3  502    0 -0.16484736495E+03  0.15084315553E+01  0.17270231894E+02  0.16576128290E+03  0.12699999809E+01 0. -1.
       -4    1    3    3    0  502  0.16484736495E+03 -0.15084315553E+01  0.64200108392E+03  0.66283024505E+03  0.12699999809E+01 0.  1.
</event>
<event>
 5   0  0.2413301E-01  0.5058909E+03  0.7818609E-02  0.1012253E+00
       -2   -1    0    0    0  501  0.00000000000E+00  0.00000000000E+00  0.14171048764E+03  0.14171048766E+03  0.25500000920E-02 0.  1.
        2   -1    0    0  501    0  0.00000000000E+00  0.00000000000E+00 -0.45149375309E+03  0.45149375310E+03  0.25500000920E-02 0. -1.
    10030    2    1    2    0    0  0.00000000000E+00  0.00000000000E+00 -0.30978326546E+03  0.59320424076E+03  0.50589089703E+03 0.  0.
        4    1    3    3  502    0  0.79364973267E+02 -0.21294141569E+03 -0.28513365637E+03  0.36461714221E+03  0.12699999809E+01 0. -1.
       -4    1    3    3    0  502 -0.79364973267E+02  0.21294141569E+03 -0.24649609089E+02  0.22858709855E+03  0.12699999809E+01 0.  1.
</event>
<event>
 5   0  0.2466034E-01  0.5043376E+03  0.7818609E-02  0.1012653E+00
        2   -1    0    0  501    0  0.00000000000E+00  0.00000000000E+00  0.26084140714E+03  0.26084140716E+03  0.25500000920E-02 0. -1.
       -2   -1    0    0    0  501  0.00000000000E+00  0.00000000000E+00 -0.24378451484E+03  0.24378451486E+03  0.25500000920E-02 0.  1.
    10030    2    1    2    0    0  0.00000000000E+00  0.00000000000E+00  0.17056892300E+02  0.50462592201E+03  0.50433756909E+03 0.  0.
        3    1    3    3  502    0  0.16611404060E+03  0.77493986436E+02  0.18180336146E+03  0.25816983724E+03  0.10100000352E+00 0. -1.
       -3    1    3    3    0  502 -0.16611404060E+03 -0.77493986436E+02 -0.16474646916E+03  0.24645608477E+03  0.10100000352E+00 0.  1.
</event>
<event>
 5   0  0.1529146E-01  0.5006013E+03  0.7818609E-02  0.1013622E+00
       -1   -1    0    0    0  501  0.00000000000E+00  0.00000000000E+00  0.18844631295E+03  0.18844631302E+03  0.50400001928E-02 0.  1.
        1   -1    0    0  501    0  0.00000000000E+00  0.00000000000E+00 -0.33245769991E+03  0.33245769995E+03  0.50400001928E-02 0. -1.
    10030    2    1    2    0    0  0.00000000000E+00  0.00000000000E+00 -0.14401138695E+03  0.52090401297E+03  0.50060134953E+03 0.  0.
        1    1    3    3  502    0 -0.16573779910E+03  0.18711984425E+03 -0.85475721178E+02  0.26417598887E+03  0.50400001928E-02 0. -1.
       -1    1    3    3    0  502  0.16573779910E+03 -0.18711984425E+03 -0.58535665776E+02  0.25672802409E+03  0.50400001928E-02 0.  1.
</event>
<event>
 5   0  0.1529146E-01  0.5079166E+03  0.7818609E-02  0.1011733E+00
       -1   -1    0    0    0  501  0.00000000000E+00  0.00000000000E+00  0.87750337012E+03  0.87750337013E+03  0.50400001928E-02 0. -1.
        1   -1    0    0  501    0  0.00000000000E+00  0.00000000000E+00 -0.73498098466E+02  0.73498098639E+02  0.50400001928E-02 0.  1.
    10030    2    1    2    0    0  0.00000000000E+00  0.00000000000E+00  0.80400527165E+03  0.95100146877E+03  0.50791664351E+03 0.  0.
        1    1    3    3  502    0  0.13930184637E+02  0.13992552745E+03  0.79795918961E+03  0.81025432525E+03  0.50400001928E-02 0. -1.
       -1    1    3    3    0  502 -0.13930184637E+02 -0.13992552745E+03  0.60460820362E+01  0.14074714352E+03  0.50400001928E-02 0.  1.
</event>
<event>
 5   0  0.1453602E-01  0.4777566E+03  0.7818609E-02  0.1019754E+00
        1   -1    0    0  501    0  0.00000000000E+00  0.00000000000E+00  0.14725438869E+03  0.14725438877E+03  0.50400001928E-02 0.  1.
       -1   -1    0    0    0  501  0.00000000000E+00  0.00000000000E+00 -0.38751192631E+03  0.38751192635E+03  0.50400001928E-02 0. -1.
    10030    2    1    2    0    0  0.00000000000E+00  0.00000000000E+00 -0.24025753762E+03  0.53476631512E+03  0.47775655663E+03 0.  0.
        2    1    3    3  502    0 -0.15743640866E+03 -0.16049681740E+03 -0.21049245354E+03  0.30798136984E+03  0.25500000920E-02 0. -1.
       -2    1    3    3    0  502  0.15743640866E+03  0.16049681740E+03 -0.29765084089E+02  0.22678494528E+03  0.25500000920E-02 0.  1.
</event>
<event>
 5   0  0.1453602E-01  0.5011120E+03  0.7818609E-02  0.1013489E+00
        1   -1    0    0  501    0  0.00000000000E+00  0.00000000000E+00  0.14534868003E+03  0.14534868012E+03  0.50400001928E-02 0. -1.
       -1   -1    0    0    0  501  0.00000000000E+00  0.00000000000E+00 -0.43191516960E+03  0.43191516963E+03  0.50400001928E-02 0.  1.
    10030    2    1    2    0    0  0.00000000000E+00  0.00000000000E+00 -0.28656648957E+03  0.57726384974E+03  0.50111196281E+03 0.  0.
        2    1    3    3  502    0 -0.16882061611E+03  0.11113932380E+03  0.27293099034E+02  0.20395407076E+03  0.25500000920E-02 0.  1.
       -2    1    3    3    0  502  0.16882061611E+03 -0.11113932380E+03 -0.31385958860E+03  0.37330977898E+03  0.25500000920E-02 0. -1.
</event>
<event>
 5   0  0.2504064E-01  0.4997698E+03  0.7818609E-02  0.1013839E+00
        2   -1    0    0  501    0  0.00000000000E+00  0.00000000000E+00  0.60949812777E+03  0.60949812777E+03  0.25500000920E-02 0. -1.
       -2   -1    0    0    0  501  0.00000000000E+00  0.00000000000E+00 -0.10244898503E+03  0.10244898506E+03  0.25500000920E-02 0.  1.
    10030    2    1    2    0    0  0.00000000000E+00  0.00000000000E+00  0.50704914274E+03  0.71194711283E+03  0.49976980532E+03 0.  0.
        5    1    3    3  502    0  0.13479755273E+03 -0.42266063742E+02 -0.40028070119E+02  0.14690519651E+03  0.46999998093E+01 0.  1.
       -5    1    3    3    0  502 -0.13479755273E+03  0.42266063742E+02  0.54707721286E+03  0.56504191632E+03  0.46999998093E+01 0. -1.
</event>
<event>
 5   0  0.1448458E-01  0.4965318E+03  0.7818609E-02  0.1014688E+00
        1   -1    0    0  501    0  0.00000000000E+00  0.00000000000E+00  0.15031716484E+03  0.15031716492E+03  0.50400001928E-02 0. -1.
       -1   -1    0    0    0  501  0.00000000000E+00  0.00000000000E+00 -0.41003942608E+03  0.41003942611E+03  0.50400001928E-02 0.  1.
    10030    2    1    2    0    0  0.00000000000E+00  0.00000000000E+00 -0.25972226124E+03  0.56035659104E+03  0.49653182792E+03 0.  0.
        5    1    3    3  502    0 -0.23007467709E+03  0.71875800321E+02 -0.19675408014E+03  0.31118281726E+03  0.46999998093E+01 0.  1.
       -5    1    3    3    0  502  0.23007467709E+03 -0.71875800321E+02 -0.62968181100E+02  0.24917377378E+03  0.46999998093E+01 0. -1.
</event>
<event>
 5   0  0.1413361E-01  0.5017476E+03  0.7818609E-02  0.1013324E+00
       -1   -1    0    0    0  501  0.00000000000E+00  0.00000000000E+00  0.58892961082E+03  0.58892961084E+03  0.50400001928E-02 0.  1.
        1   -1    0    0  501    0  0.00000000000E+00  0.00000000000E+00 -0.10686789268E+03  0.10686789280E+03  0.50400001928E-02 0. -1.
    10030    2    1    2    0    0  0.00000000000E+00  0.00000000000E+00  0.48206171813E+03  0.69579750364E+03  0.50174761184E+03 0.  0.
        3    1    3    3  502    0 -0.13956041257E+03  0.15395547787E+02  0.52933948840E+03  0.54764444289E+03  0.10100000352E+00 0.  1.
       -3    1    3    3    0  502  0.13956041257E+03 -0.15395547787E+02 -0.47277770263E+02  0.14815306075E+03  0.10100000352E+00 0. -1.
</event>
<event>
 5   0  0.1413361E-01  0.5011855E+03  0.7818609E-02  0.1013470E+00
        1   -1    0    0  501    0  0.00000000000E+00  0.00000000000E+00  0.75437242103E+02  0.75437242272E+02  0.50400001928E-02 0.  1.
       -1   -1    0    0    0  501  0.00000000000E+00  0.00000000000E+00 -0.83243678018E+03  0.83243678019E+03  0.50400001928E-02 0. -1.
    10030    2    1    2    0    0  0.00000000000E+00  0.00000000000E+00 -0.75699953807E+03  0.90787402246E+03  0.50118553453E+03 0.  0.
        3    1    3    3  502    0 -0.23929409162E+03  0.16875496877E+02 -0.50975550749E+03  0.56338009576E+03  0.10100000352E+00 0. -1.
       -3    1    3    3    0  502  0.23929409162E+03 -0.16875496877E+02 -0.24724403059E+03  0.34449392671E+03  0.10100000352E+00 0.  1.
</event>
<event>
 5   0  0.1439814E-01  0.4970314E+03  0.7818609E-02  0.1014557E+00
       -1   -1    0    0    0  501  0.00000000000E+00  0.00000000000E+00  0.83955855637E+02  0.83955855788E+02  0.50400001928E-02 0. -1.
        1   -1    0    0  501    0  0.00000000000E+00  0.00000000000E+00 -0.73562544769E+03  0.73562544770E+03  0.50400001928E-02 0.  1.
    10030    2    1    2    0    0  0.00000000000E+00  0.00000000000E+00 -0.65166959205E+03  0.81958130349E+03  0.49703144350E+03 0.  0.
        4    1    3    3  502    0 -0.14560301202E+03  0.15347222379E+03 -0.54086030779E+03  0.58076281392E+03  0.12699999809E+01 0.  1.
       -4    1    3    3    0  502  0.14560301202E+03 -0.15347222379E+03 -0.11080928426E+03  0.23881848957E+03  0.12699999809E+01 0. -1.
</event>
<event>
 5   0  0.2488968E-01  0.5003877E+03  0.7818609E-02  0.1013678E+00
       -2   -1    0    0    0  501  0.00000000000E+00  0.00000000000E+00  0.85627142465E+02  0.85627142503E+02  0.25500000920E-02 0. -1.
        2   -1    0    0  501    0  0.00000000000E+00  0.00000000000E+00 -0.73104124172E+03  0.73104124172E+03  0.25500000920E-02 0.  1.
    10030    2    1    2    0    0  0.00000000000E+00  0.00000000000E+00 -0.64541409925E+03  0.81666838423E+03  0.50038773994E+03 0.  0.
        2    1    3    3  502    0  0.71876965495E+02 -0.22382736526E+03 -0.46245642167E+03  0.51877830483E+03  0.25500000920E-02 0.  1.
       -2    1    3    3    0  502 -0.71876965495E+02  0.22382736526E+03 -0.18295767758E+03  0.29789007940E+03  0.25500000920E-02 0. -1.
</event>
<event>
 5   0  0.2511944E-01  0.4852388E+03  0.7818609E-02  0.1017705E+00
        2   -1    0    0  501    0  0.00000000000E+00  0.00000000000E+00  0.36543581748E+03  0.36543581749E+03  0.25500000920E-02 0.  1.
       -2   -1    0    0    0  501  0.00000000000E+00  0.00000000000E+00 -0.16107938389E+03  0.16107938391E+03  0.25500000920E-02 0. -1.
    10030    2    1    2    0    0  0.00000000000E+00  0.00000000000E+00  0.20435643359E+03  0.52651520140E+03  0.48523881270E+03 0.  0.
        1    1    3    3  502    0 -0.13210309580E+03 -0.43713122807E+02  0.31783619889E+03  0.34696096953E+03  0.50400001928E-02 0.  1.
       -1    1    3    3    0  502  0.13210309580E+03  0.43713122807E+02 -0.11347976530E+03  0.17955423187E+03  0.50400001928E-02 0. -1.
</event>
<event>
 5   0  0.1448458E-01  0.4931408E+03  0.7818609E-02  0.1015585E+00
       -1   -1    0    0    0  501  0.00000000000E+00  0.00000000000E+00  0.27622156618E+03  0.27622156622E+03  0.50400001928E-02 0. -1.
        1   -1    0    0  501    0  0.00000000000E+00  0.00000000000E+00 -0.22010211831E+03  0.22010211837E+03  0.50400001928E-02 0.  1.
    10030    2    1    2    0    0  0.00000000000E+00  0.00000000000E+00  0.56119447865E+02  0.49632368460E+03  0.49314075827E+03 0.  0.
        5    1    3    3  502    0  0.16640559704E+03  0.17160594817E+03 -0.32624032236E+02  0.24130031423E+03  0.46999998093E+01 0.  1.
       -5    1    3    3    0  502 -0.16640559704E+03 -0.17160594817E+03  0.88743480100E+02  0.25502337036E+03  0.46999998093E+01 0. -1.
</event>
<event>
 5   0  0.1453602E-01  0.5012090E+03  0.7818609E-02  0.1013464E+00
        1   -1    0    0  501    0  0.00000000000E+00  0.00000000000E+00  0.10186554576E+04  0.10186554576E+04  0.50400001928E-02 0. -1.
       -1   -1    0    0    0  501  0.00000000000E+00  0.00000000000E+00 -0.61652449020E+02  0.61652449226E+02  0.50400001928E-02 0.  1.
    10030    2    1    2    0    0  0.00000000000E+00  0.00000000000E+00  0.95700300853E+03  0.10803079068E+04  0.50120895357E+03 0.  0.
        2    1    3    3  502    0 -0.19913574303E+03  0.13351510157E+03  0.32127104651E+03  0.40086956960E+03  0.25500000920E-02 0. -1.
       -2    1    3    3    0  502  0.19913574303E+03 -0.13351510157E+03  0.63573196202E+03  0.67943833719E+03  0.25500000920E-02 0.  1.
</event>
<event>
 5   0  0.1413361E-01  0.5045867E+03  0.7818609E-02  0.1012589E+00
        1   -1    0    0  501    0  0.00000000000E+00  0.00000000000E+00  0.66587682069E+03  0.66587682071E+03  0.50400001928E-02 0. -1.
       -1   -1    0    0    0  501  0.00000000000E+00  0.00000000000E+00 -0.95591170549E+02  0.95591170682E+02  0.50400001928E-02 0.  1.
    10030    2    1    2    0    0  0.00000000000E+00  0.00000000000E+00  0.57028565014E+03  0.76146799139E+03  0.50458674096E+03 0.  0.
        3    1    3    3  502    0  0.35982992781E+02  0.15787048036E+03  0.57712029667E+03  0.59940446392E+03  0.10100000352E+00 0. -1.
       -3    1    3    3    0  502 -0.35982992781E+02 -0.15787048036E+03 -0.68346465341E+01  0.16206352746E+03  0.10100000352E+00 0.  1.
</event>
<event>
 5   0  0.2488968E-01  0.4980840E+03  0.7818609E-02  0.1014280E+00
        2   -1    0    0  501    0  0.00000000000E+00  0.00000000000E+00  0.22514332472E+04  0.22514332472E+04  0.25500000920E-02 0. -1.
       -2   -1    0    0    0  501  0.00000000000E+00  0.00000000000E+00 -0.27547753753E+02  0.27547753871E+02  0.25500000920E-02 0.  1.
    10030    2    1    2    0    0  0.00000000000E+00  0.00000000000E+00  0.22238854935E+04  0.22789810011E+04  0.49808404441E+03 0.  0.
        2    1    3    3  502    0 -0.23663234097E+03  0.29193001938E+02  0.14410869647E+04  0.14606774921E+04  0.25500000920E-02 0. -1.
       -2    1    3    3    0  502  0.23663234097E+03 -0.29193001938E+02  0.78279852883E+03  0.81830350903E+03  0.25500000920E-02 0.  1.
</event>
<event>
 5   0  0.2466034E-01  0.4948576E+03  0.7818609E-02  0.1015130E+00
        2   -1    0    0  501    0  0.00000000000E+00  0.00000000000E+00  0.92161587998E+03  0.92161587999E+03  0.25500000920E-02 0.  1.
       -2   -1    0    0    0  501  0.00000000000E+00  0.00000000000E+00 -0.66427904545E+02  0.66427904594E+02  0.25500000920E-02 0. -1.
    10030    2    1    2    0    0  0.00000000000E+00  0.00000000000E+00  0.85518797544E+03  0.98804378458E+03  0.49485760266E+03 0.  0.
        3    1    3    3  502    0 -0.15850316139E+03  0.16337881952E+03  0.23396164529E+03  0.32642602915E+03  0.10100000352E+00 0. -1.
       -3    1    3    3    0  502  0.15850316139E+03 -0.16337881952E+03  0.62122633015E+03  0.66161775544E+03  0.10100000352E+00 0.  1.
</event>
<event>
 5   0  0.1529146E-01  0.5060342E+03  0.7818609E-02  0.1012216E+00
        1   -1    0    0  501    0  0.00000000000E+00  0.00000000000E+00  0.38695741003E+03  0.38695741006E+03  0.50400001928E-02 0.  1.
       -1   -1    0    0    0  501  0.00000000000E+00  0.00000000000E+00 -0.16543848819E+03  0.16543848827E+03  0.50400001928E-02 0. -1.
    10030    2    1    2    0    0  0.00000000000E+00  0.00000000000E+00  0.22151892184E+03  0.55239589833E+03  0.50603418438E+03 0.  0.
        1    1    3    3  502    0 -0.23861213410E+02 -0.19632850397E+03 -0.61506709044E+02  0.20711666823E+03  0.50400001928E-02 0. -1.
       -1    1    3    3    0  502  0.23861213410E+02  0.19632850397E+03  0.28302563088E+03  0.34527923010E+03  0.50400001928E-02 0.  1.
</event>
<event>
 5   0  0.2488968E-01  0.4930795E+03  0.7818609E-02  0.1015601E+00
       -2   -1    0    0    0  501  0.00000000000E+00  0.00000000000E+00  0.85054029643E+02  0.85054029681E+02  0.25500000920E-02 0. -1.
        2   -1    0    0  501    0  0.00000000000E+00  0.00000000000E+00 -0.71462641359E+03  0.71462641359E+03  0.25500000920E-02 0.  1.
    10030    2    1    2    0    0  0.00000000000E+00  0.00000000000E+00 -0.62957238395E+03  0.79968044328E+03  0.49307953185E+03 0.  0.
        2    1    3    3  502    0  0.16962878277E+03  0.20243022266E+02 -0.26495683536E+02  0.17287488293E+03  0.25500000920E-02 0. -1.
       -2    1    3    3    0  502 -0.16962878277E+03 -0.20243022266E+02 -0.60307670041E+03  0.62680556035E+03  0.25500000920E-02 0.  1.
</event>
<event>
 5   0  0.1453602E-01  0.5009737E+03  0.7818609E-02  0.1013525E+00
        1   -1    0    0  501    0  0.00000000000E+00  0.00000000000E+00  0.55624915977E+02  0.55624916205E+02  0.50400001928E-02 0. -1.
       -1   -1    0    0    0  501  0.00000000000E+00  0.00000000000E+00 -0.11279776949E+04  0.11279776949E+04  0.50400001928E-02 0.  1.
    10030    2    1    2    0    0  0.00000000000E+00  0.00000000000E+00 -0.10723527789E+04  0.11836026111E+04  0.50097371047E+03 0.  0.
        2    1    3    3  502    0  0.61972507432E+02 -0.19801326207E+03 -0.86773168724E+03  0.89219287415E+03  0.25500000920E-02 0.  1.
       -2    1    3    3    0  502 -0.61972507432E+02  0.19801326207E+03 -0.20462109170E+03  0.29140973698E+03  0.25500000920E-02 0. -1.
</event>
<event>
 5   0  0.1448458E-01  0.4993801E+03  0.7818609E-02  0.1013941E+00
        1   -1    0    0  501    0  0.00000000000E+00  0.00000000000E+00  0.17455918999E+03  0.17455919006E+03  0.50400001928E-02 0.  1.
       -1   -1    0    0    0  501  0.00000000000E+00  0.00000000000E+00 -0.35715752354E+03  0.35715752358E+03  0.50400001928E-02 0. -1.
    10030    2    1    2    0    0  0.00000000000E+00  0.00000000000E+00 -0.18259833356E+03  0.53171671364E+03  0.49938012790E+03 0.  0.
        5    1    3    3  502    0 -0.11054966319E+03 -0.18189384551E+03  0.47594804606E+02  0.21816038708E+03  0.46999998093E+01 0.  1.
       -5    1    3    3    0  502  0.11054966319E+03  0.18189384551E+03 -0.23019313816E+03  0.31355632656E+03  0.46999998093E+01 0. -1.
</event>
<event>
 5   0  0.1413361E-01  0.4945326E+03  0.7818609E-02  0.1015216E+00
        1   -1    0    0  501    0  0.00000000000E+00  0.00000000000E+00  0.28340283111E+03  0.28340283115E+03  0.50400001928E-02 0.  1.
       -1   -1    0    0    0  501  0.00000000000E+00  0.00000000000E+00 -0.21573751244E+03  0.21573751250E+03  0.50400001928E-02 0. -1.
    10030    2    1    2    0    0  0.00000000000E+00  0.00000000000E+00  0.67665318669E+02  0.49914034365E+03  0.49453259479E+03 0.  0.
        3    1    3    3  502    0 -0.23706347280E+03 -0.66650457196E+02  0.56384478909E+02  0.25262738024E+03  0.10100000352E+00 0. -1.
       -3    1    3    3    0  502  0.23706347280E+03  0.66650457196E+02  0.11280839761E+02  0.24651296341E+03  0.10100000352E+00 0.  1.
</event>
<event>
 5   0  0.2504064E-01  0.4605768E+03  0.7818609E-02  0.1024614E+00
       -2   -1    0    0    0  501  0.00000000000E+00  0.00000000000E+00  0.14693910486E+03  0.14693910488E+03  0.25500000920E-02 0.  1.
        2   -1    0    0  501    0  0.00000000000E+00  0.00000000000E+00 -0.36091652476E+03  0.36091652477E+03  0.25500000920E-02 0. -1.
    10030    2    1    2    0    0  0.00000000000E+00  0.00000000000E+00 -0.21397741990E+03  0.50785562965E+03  0.46057681698E+03 0.  0.
        5    1    3    3  502    0  0.12222691208E+03 -0.19511846871E+03 -0.10716725300E+03  0.25400304129E+03  0.46999998093E+01 0. -1.
       -5    1    3    3    0  502 -0.12222691208E+03  0.19511846871E+03 -0.10681016690E+03  0.25385258837E+03  0.46999998093E+01 0.  1.
</event>
<event>
 5   0  0.2488968E-01  0.5060610E+03  0.7818609E-02  0.1012209E+00
       -2   -1    0    0    0  501  0.00000000000E+00  0.00000000000E+00  0.24699596129E+03  0.24699596130E+03  0.25500000920E-02 0. -1.
        2   -1    0    0  501    0  0.00000000000E+00  0.00000000000E+00 -0.25921245273E+03  0.25921245274E+03  0.25500000920E-02 0.  1.
    10030    2    1    2    0    0  0.00000000000E+00  0.00000000000E+00 -0.12216491442E+02  0.50620841404E+03  0.50606098030E+03 0.  0.
        2    1    3    3  502    0  0.23287589038E+03  0.81547122403E+02  0.49973366535E+02  0.25175077133E+03  0.25500000920E-02 0.  1.
       -2    1    3    3    0  502 -0.23287589038E+03 -0.81547122403E+02 -0.62189857977E+02  0.25445764271E+03  0.25500000920E-02 0. -1.
</event>
<event>
 5   0  0.1448458E-01  0.5045380E+03  0.7818609E-02  0.1012601E+00
       -1   -1    0    0    0  501  0.00000000000E+00  0.00000000000E+00  0.33280267962E+03  0.33280267965E+03  0.50400001928E-02 0. -1.
        1   -1    0    0  501    0  0.00000000000E+00  0.00000000000E+00 -0.19122333923E+03  0.19122333930E+03  0.50400001928E-02 0.  1.
    10030    2    1    2    0    0  0.00000000000E+00  0.00000000000E+00  0.14157934039E+03  0.52402601895E+03  0.50453796578E+03 0.  0.
        5    1    3    3  502    0  0.45865506881E+02  0.24798828001E+03  0.66671943860E+02  0.26090049796E+03  0.46999998093E+01 0. -1.
       -5    1    3    3    0  502 -0.45865506881E+02 -0.24798828001E+03  0.74907396527E+02  0.26312552099E+03  0.46999998093E+01 0.  1.
</event>
<event>
 5   0  0.9868500E-02  0.5190511E+03  0.7818609E-02  0.1008923E+00
       -3   -1    0    0    0  501  0.00000000000E+00  0.00000000000E+00  0.44346209024E+02  0.44346324040E+02  0.10100000352E+00 0.  1.
        3   -1    0    0  501    0  0.00000000000E+00  0.00000000000E+00 -0.15188086485E+04  0.15188086519E+04  0.10100000352E+00 0. -1.
    10030    2    1    2    0    0  0.00000000000E+00  0.00000000000E+00 -0.14744624395E+04  0.15631549759E+04  0.51905105072E+03 0.  0.
        1    1    3    3  502    0 -0.63494340769E+02 -0.15638391442E+03 -0.13309449601E+04  0.13416042438E+04  0.50400001928E-02 0. -1.
       -1    1    3    3    0  502  0.63494340769E+02  0.15638391442E+03 -0.14351747935E+03  0.22155073212E+03  0.50400001928E-02 0.  1.
</event>
<event>
 5   0  0.1448458E-01  0.5003297E+03  0.7818609E-02  0.1013693E+00
       -1   -1    0    0    0  501  0.00000000000E+00  0.00000000000E+00  0.47845655432E+03  0.47845655435E+03  0.50400001928E-02 0. -1.
        1   -1    0    0  501    0  0.00000000000E+00  0.00000000000E+00 -0.13080067479E+03  0.13080067488E+03  0.50400001928E-02 0.  1.
    10030    2    1    2    0    0  0.00000000000E+00  0.00000000000E+00  0.34765587954E+03  0.60925722923E+03  0.50032965212E+03 0.  0.
        5    1    3    3  502    0  0.11035338746E+03  0.21234398853E+03  0.26241602556E+03  0.35517896906E+03  0.46999998093E+01 0. -1.
       -5    1    3    3    0  502 -0.11035338746E+03 -0.21234398853E+03  0.85239853976E+02  0.25407826018E+03  0.46999998093E+01 0.  1.
</event>
<event>
 5   0  0.1453602E-01  0.4807175E+03  0.7818609E-02  0.1018938E+00
        1   -1    0    0  501    0  0.00000000000E+00  0.00000000000E+00  0.49000483558E+03  0.49000483561E+03  0.50400001928E-02 0. -1.
       -1   -1    0    0    0  501  0.00000000000E+00  0.00000000000E+00 -0.11790153164E+03  0.11790153175E+03  0.50400001928E-02 0.  1.
    10030    2    1    2    0    0  0.00000000000E+00  0.00000000000E+00  0.37210330394E+03  0.60790636736E+03  0.48071746658E+03 0.  0.
        2    1    3    3  502    0  0.11024462538E+03 -0.56131368750E+02  0.44665274041E+03  0.46346874599E+03  0.25500000920E-02 0. -1.
       -2    1    3    3    0  502 -0.11024462538E+03  0.56131368750E+02 -0.74549436476E+02  0.14443762137E+03  0.25500000920E-02 0.  1.
</event>
<event>
 5   0  0.1529146E-01  0.5003092E+03  0.7818609E-02  0.1013698E+00
       -1   -1    0    0    0  501  0.00000000000E+00  0.00000000000E+00  0.54693837557E+02  0.54693837789E+02  0.50400001928E-02 0.  1.
        1   -1    0    0  501    0  0.00000000000E+00  0.00000000000E+00 -0.11441386359E+04  0.11441386359E+04  0.50400001928E-02 0. -1.
    10030    2    1    2    0    0  0.00000000000E+00  0.00000000000E+00 -0.10894447983E+04  0.11988324737E+04  0.50030923573E+03 0.  0.
        1    1    3    3  502    0 -0.21861908132E+03 -0.11072322849E+03 -0.42435392654E+03  0.49003080622E+03  0.50400001928E-02 0. -1.
       -1    1    3    3    0  502  0.21861908132E+03  0.11072322849E+03 -0.66509087177E+03  0.70880166745E+03  0.50400001928E-02 0.  1.
</event>
<event>
 5   0  0.2488968E-01  0.5080110E+03  0.7818609E-02  0.1011709E+00
       -2   -1    0    0    0  501  0.00000000000E+00  0.00000000000E+00  0.10603930933E+03  0.10603930936E+03  0.25500000920E-02 0. -1.
        2   -1    0    0  501    0  0.00000000000E+00  0.00000000000E+00 -0.60844233752E+03  0.60844233752E+03  0.25500000920E-02 0.  1.
    10030    2    1    2    0    0  0.00000000000E+00  0.00000000000E+00 -0.50240302819E+03  0.71448164688E+03  0.50801104417E+03 0.  0.
        2    1    3    3  502    0  0.15911067804E+03  0.18165108706E+03 -0.14041022597E+03  0.27933556318E+03  0.25500000920E-02 0. -1.
       -2    1    3    3    0  502 -0.15911067804E+03 -0.18165108706E+03 -0.36199280222E+03  0.43514608370E+03  0.25500000920E-02 0.  1.
</event>
<event>
 5   0  0.1529146E-01  0.5638854E+03  0.7818609E-02  0.9983301E-01
        1   -1    0    0  501    0  0.00000000000E+00  0.00000000000E+00  0.51078231242E+03  0.51078231244E+03  0.50400001928E-02 0. -1.
       -1   -1    0    0    0  501  0.00000000000E+00  0.00000000000E+00 -0.15562730173E+03  0.15562730182E+03  0.50400001928E-02 0.  1.
    10030    2    1    2    0    0  0.00000000000E+00  0.00000000000E+00  0.35515501068E+03  0.66640961426E+03  0.56388535392E+03 0.  0.
        1    1    3    3  502    0 -0.14863642740E+03 -0.10043806426E+03  0.43463594908E+03  0.47020102144E+03  0.50400001928E-02 0. -1.
       -1    1    3    3    0  502  0.14863642740E+03  0.10043806426E+03 -0.79480938401E+02  0.19620859282E+03  0.50400001928E-02 0.  1.
</event>
<event>
 5   0  0.9868500E-02  0.4653370E+03  0.7818609E-02  0.1023245E+00
       -3   -1    0    0    0  501  0.00000000000E+00  0.00000000000E+00  0.16831946175E+03  0.16831949205E+03  0.10100000352E+00 0. -1.
        3   -1    0    0  501    0  0.00000000000E+00  0.00000000000E+00 -0.32161825764E+03  0.32161827350E+03  0.10100000352E+00 0.  1.
    10030    2    1    2    0    0  0.00000000000E+00  0.00000000000E+00 -0.15329879589E+03  0.48993776556E+03  0.46533696747E+03 0.  0.
        4    1    3    3  502    0  0.24418614258E+02  0.35579839358E+02 -0.31736431537E+03  0.32028723868E+03  0.12699999809E+01 0.  1.
       -4    1    3    3    0  502 -0.24418614258E+02 -0.35579839358E+02  0.16406551947E+03  0.16965052688E+03  0.12699999809E+01 0. -1.
</event>
<event>
 5   0  0.9868500E-02  0.5039503E+03  0.7818609E-02  0.1012753E+00
       -3   -1    0    0    0  501  0.00000000000E+00  0.00000000000E+00  0.19349601382E+03  0.19349604018E+03  0.10100000352E+00 0.  1.
        3   -1    0    0  501    0  0.00000000000E+00  0.00000000000E+00 -0.32812807761E+03  0.32812809315E+03  0.10100000352E+00 0. -1.
    10030    2    1    2    0    0  0.00000000000E+00  0.00000000000E+00 -0.13463206379E+03  0.52162413333E+03  0.50395033870E+03 0.  0.
        3    1    3    3  502    0 -0.12653749156E+03  0.21738416791E+03 -0.51829269087E+02  0.25681490721E+03  0.10100000352E+00 0.  1.
       -3    1    3    3    0  502  0.12653749156E+03 -0.21738416791E+03 -0.82802794703E+02  0.26480922612E+03  0.10100000352E+00 0. -1.
</event>
<event>
 5   0  0.9868500E-02  0.5081238E+03  0.7818609E-02  0.1011680E+00
        4   -1    0    0  501    0  0.00000000000E+00  0.00000000000E+00  0.11846858981E+03  0.11847539690E+03  0.12699999809E+01 0.  1.
       -4   -1    0    0    0  501  0.00000000000E+00  0.00000000000E+00 -0.54482544711E+03  0.54482692731E+03  0.12699999809E+01 0. -1.
    10030    2    1    2    0    0  0.00000000000E+00  0.00000000000E+00 -0.42635685730E+03  0.66330232421E+03  0.50812380728E+03 0.  0.
        2    1    3    3  502    0 -0.20337874774E+03 -0.36804685686E+02 -0.20306796548E+02  0.20767731198E+03  0.25500000920E-02 0.  1.
       -2    1    3    3    0  502  0.20337874774E+03  0.36804685686E+02 -0.40605006076E+03  0.45562501223E+03  0.25500000920E-02 0. -1.
</event>
<event>
 5   0  0.1413361E-01  0.5230159E+03  0.7818609E-02  0.1007940E+00
       -1   -1    0    0    0  501  0.00000000000E+00  0.00000000000E+00  0.16670976741E+03  0.16670976749E+03  0.50400001928E-02 0. -1.
        1   -1    0    0  501    0  0.00000000000E+00  0.00000000000E+00 -0.41021236503E+03  0.41021236506E+03  0.50400001928E-02 0.  1.
    10030    2    1    2    0    0  0.00000000000E+00  0.00000000000E+00 -0.24350259761E+03  0.57692213255E+03  0.52301590031E+03 0.  0.
        3    1    3    3  502    0 -0.52178970978E+02 -0.14379057274E+03  0.11221363278E+03  0.18971105240E+03  0.10100000352E+00 0. -1.
       -3    1    3    3    0  502  0.52178970978E+02  0.14379057274E+03 -0.35571623039E+03  0.38721108014E+03  0.10100000352E+00 0.  1.
</event>
<event>
 5   0  0.1448458E-01  0.4859801E+03  0.7818609E-02  0.1017505E+00
       -1   -1    0    0    0  501  0.00000000000E+00  0.00000000000E+00  0.13007552188E+03  0.13007552197E+03  0.50400001928E-02 0. -1.
        1   -1    0    0  501    0  0.00000000000E+00  0.00000000000E+00 -0.45392213185E+03  0.45392213187E+03  0.50400001928E-02 0.  1.
    10030    2    1    2    0    0  0.00000000000E+00  0.00000000000E+00 -0.32384660997E+03  0.58399765385E+03  0.48598007460E+03 0.  0.
        5    1    3    3  502    0 -0.33916601108E+02 -0.21392130884E+03 -0.29416063125E+03  0.36532893286E+03  0.46999998093E+01 0.  1.
       -5    1    3    3    0  502  0.33916601108E+02  0.21392130884E+03 -0.29685978717E+02  0.21866872099E+03  0.46999998093E+01 0. -1.
</event>
<event>
 5   0  0.1448458E-01  0.4990764E+03  0.7818609E-02  0.1014020E+00
        1   -1    0    0  501    0  0.00000000000E+00  0.00000000000E+00  0.13335812366E+04  0.13335812367E+04  0.50400001928E-02 0. -1.
       -1   -1    0    0    0  501  0.00000000000E+00  0.00000000000E+00 -0.46693300089E+02  0.46693300361E+02  0.50400001928E-02 0.  1.
    10030    2    1    2    0    0  0.00000000000E+00  0.00000000000E+00  0.12868879366E+04  0.13802745370E+04  0.49907638321E+03 0.  0.
        5    1    3    3  502    0 -0.34791382911E+02 -0.34213211440E+02 -0.33245519594E+02  0.59231231062E+02  0.46999998093E+01 0.  1.
       -5    1    3    3    0  502  0.34791382911E+02  0.34213211440E+02  0.13201334561E+04  0.13210433060E+04  0.46999998093E+01 0. -1.
</event>
<event>
 5   0  0.2488968E-01  0.5027105E+03  0.7818609E-02  0.1013074E+00
       -2   -1    0    0    0  501  0.00000000000E+00  0.00000000000E+00  0.63437018748E+02  0.63437018800E+02  0.25500000920E-02 0.  1.
        2   -1    0    0  501    0  0.00000000000E+00  0.00000000000E+00 -0.99593985002E+03  0.99593985002E+03  0.25500000920E-02 0. -1.
    10030    2    1    2    0    0  0.00000000000E+00  0.00000000000E+00 -0.93250283127E+03  0.10593768688E+04  0.50271047320E+03 0.  0.
        2    1    3    3  502    0  0.10683930875E+03 -0.20619978430E+03 -0.66888920636E+03  0.70805773729E+03  0.25500000920E-02 0. -1.
       -2    1    3    3    0  502 -0.10683930875E+03  0.20619978430E+03 -0.26361362491E+03  0.35131913153E+03  0.25500000920E-02 0.  1.
</event>
<event>
 5   0  0.1448458E-01  0.4443650E+03  0.7818609E-02  0.1029416E+00
       -1   -1    0    0    0  501  0.00000000000E+00  0.00000000000E+00  0.23736850533E+02  0.23736851068E+02  0.50400001928E-02 0. -1.
        1   -1    0    0  501    0  0.00000000000E+00  0.00000000000E+00 -0.20796808555E+04  0.20796808555E+04  0.50400001928E-02 0.  1.
    10030    2    1    2    0    0  0.00000000000E+00  0.00000000000E+00 -0.20559440049E+04  0.21034177065E+04  0.44436504899E+03 0.  0.
        5    1    3    3  502    0  0.19949015574E+03  0.94935425411E+02 -0.91859486407E+03  0.94480033421E+03  0.46999998093E+01 0. -1.
       -5    1    3    3    0  502 -0.19949015574E+03 -0.94935425411E+02 -0.11373491409E+04  0.11586173723E+04  0.46999998093E+01 0.  1.
</event>
<event>
 5   0  0.1529146E-01  0.3538916E+03  0.7818609E-02  0.1061029E+00
       -1   -1    0    0    0  501  0.00000000000E+00  0.00000000000E+00  0.10556609512E+03  0.10556609524E+03  0.50400001928E-02 0.  1.
        1   -1    0    0  501    0  0.00000000000E+00  0.00000000000E+00 -0.29658967653E+03  0.29658967657E+03  0.50400001928E-02 0. -1.
    10030    2    1    2    0    0  0.00000000000E+00  0.00000000000E+00 -0.19102358140E+03  0.40215577181E+03  0.35389158813E+03 0.  0.
        1    1    3    3  502    0 -0.55510362687E+02  0.16489334188E+03 -0.13213430105E+03  0.21847354097E+03  0.50400001928E-02 0. -1.
       -1    1    3    3    0  502  0.55510362687E+02 -0.16489334188E+03 -0.58889280351E+02  0.18368223084E+03  0.50400001928E-02 0.  1.
</event>
<event>
 5   0  0.2488968E-01  0.5289916E+03  0.7818609E-02  0.1006477E+00
        2   -1    0    0  501    0  0.00000000000E+00  0.00000000000E+00  0.77236815994E+03  0.77236815994E+03  0.25500000920E-02 0.  1.
       -2   -1    0    0    0  501  0.00000000000E+00  0.00000000000E+00 -0.90576001384E+02  0.90576001420E+02  0.25500000920E-02 0. -1.
    10030    2    1    2    0    0  0.00000000000E+00  0.00000000000E+00  0.68179215855E+03  0.86294416136E+03  0.52899156719E+03 0.  0.
        2    1    3    3  502    0 -0.12310842034E+03 -0.12580507263E+03  0.18841596847E+02  0.17702430691E+03  0.25500000920E-02 0. -1.
       -2    1    3    3    0  502  0.12310842034E+03  0.12580507263E+03  0.66295056170E+03  0.68591985445E+03  0.25500000920E-02 0.  1.
</event>
<event>
 5   0  0.9868500E-02  0.5037900E+03  0.7818609E-02  0.1012794E+00
       -4   -1    0    0    0  501  0.00000000000E+00  0.00000000000E+00  0.10673112909E+03  0.10673868472E+03  0.12699999809E+01 0.  1.
        4   -1    0    0  501    0  0.00000000000E+00  0.00000000000E+00 -0.59446551411E+03  0.59446687070E+03  0.12699999809E+01 0. -1.
    10030    2    1    2    0    0  0.00000000000E+00  0.00000000000E+00 -0.48773438502E+03  0.70120555543E+03  0.50379003626E+03 0.  0.
        3    1    3    3  502    0  0.79312373005E+02  0.23350538226E+03 -0.31532638254E+03  0.40030732417E+03  0.10100000352E+00 0. -1.
       -3    1    3    3    0  502 -0.79312373005E+02 -0.23350538226E+03 -0.17240800248E+03  0.30089823126E+03  0.10100000352E+00 0.  1.
</event>
<event>
 5   0  0.1453602E-01  0.5054633E+03  0.7818609E-02  0.1012363E+00
       -1   -1    0    0    0  501  0.00000000000E+00  0.00000000000E+00  0.35549313411E+03  0.35549313415E+03  0.50400001928E-02 0. -1.
        1   -1    0    0  501    0  0.00000000000E+00  0.00000000000E+00 -0.17967514523E+03  0.17967514530E+03  0.50400001928E-02 0.  1.
    10030    2    1    2    0    0  0.00000000000E+00  0.00000000000E+00  0.17581798888E+03  0.53516827945E+03  0.50546327474E+03 0.  0.
        2    1    3    3  502    0 -0.16295560267E+03 -0.14705803333E+03  0.22054132849E+03  0.31115763077E+03  0.25500000920E-02 0. -1.
       -2    1    3    3    0  502  0.16295560267E+03  0.14705803333E+03 -0.44723339611E+02  0.22401064868E+03  0.25500000920E-02 0.  1.
</event>
<event>
 5   0  0.1453602E-01  0.4953463E+03  0.7818609E-02  0.1015001E+00
       -1   -1    0    0    0  501  0.00000000000E+00  0.00000000000E+00  0.10908879080E+04  0.10908879080E+04  0.50400001928E-02 0. -1.
        1   -1    0    0  501    0  0.00000000000E+00  0.00000000000E+00 -0.56231243727E+02  0.56231243953E+02  0.50400001928E-02 0.  1.
    10030    2    1    2    0    0  0.00000000000E+00  0.00000000000E+00  0.10346566642E+04  0.11471191519E+04  0.49534627875E+03 0.  0.
        2    1    3    3  502    0 -0.57158426843E+02  0.30050906828E+02 -0.36392311851E+02  0.74125185522E+02  0.25500000920E-02 0.  1.
       -2    1    3    3    0  502  0.57158426843E+02 -0.30050906828E+02  0.10710489761E+04  0.10729939664E+04  0.25500000920E-02 0. -1.
</event>
<event>
 5   0  0.1439814E-01  0.5087664E+03  0.7818609E-02  0.1011516E+00
        1   -1    0    0  501    0  0.00000000000E+00  0.00000000000E+00  0.79723656651E+03  0.79723656652E+03  0.50400001928E-02 0.  1.
       -1   -1    0    0    0  501  0.00000000000E+00  0.00000000000E+00 -0.81168898821E+02  0.81168898978E+02  0.50400001928E-02 0. -1.
    10030    2    1    2    0    0  0.00000000000E+00  0.00000000000E+00  0.71606766769E+03  0.87840546550E+03  0.50876640722E+03 0.  0.
        4    1    3    3  502    0  0.10057365882E+03  0.68435523927E+02 -0.27687373080E+02  0.12476652320E+03  0.12699999809E+01 0. -1.
       -4    1    3    3    0  502 -0.10057365882E+03 -0.68435523927E+02  0.74375504077E+03  0.75363894230E+03  0.12699999809E+01 0.  1.
</event>
<event>
 5   0  0.1448458E-01  0.5007473E+03  0.7818609E-02  0.1013584E+00
       -1   -1    0    0    0  501  0.00000000000E+00  0.00000000000E+00  0.21077712074E+03  0.21077712080E+03  0.50400001928E-02 0. -1.
        1   -1    0    0  501    0  0.00000000000E+00  0.00000000000E+00 -0.29740882668E+03  0.29740882672E+03  0.50400001928E-02 0.  1.
    10030    2    1    2    0    0  0.00000000000E+00  0.00000000000E+00 -0.86631705935E+02  0.50818594752E+03  0.50074734626E+03 0.  0.
        5    1    3    3  502    0 -0.13329851457E+03 -0.19924555909E+03 -0.11648119327E+03  0.26656564892E+03  0.46999998093E+01 0.  1.
       -5    1    3    3    0  502  0.13329851457E+03  0.19924555909E+03  0.29849487335E+02  0.24162029860E+03  0.46999998093E+01 0. -1.
</event>
<event>
 5   0  0.1413361E-01  0.4895078E+03  0.7818609E-02  0.1016554E+00
       -1   -1    0    0    0  501  0.00000000000E+00  0.00000000000E+00  0.11045793886E+03  0.11045793898E+03  0.50400001928E-02 0.  1.
        1   -1    0    0  501    0  0.00000000000E+00  0.00000000000E+00 -0.54232833525E+03  0.54232833527E+03  0.50400001928E-02 0. -1.
    10030    2    1    2    0    0  0.00000000000E+00  0.00000000000E+00 -0.43187039638E+03  0.65278627425E+03  0.48950779420E+03 0.  0.
        3    1    3    3  502    0 -0.14739128469E+03 -0.86269911665E+02 -0.44973685893E+03  0.48107165884E+03  0.10100000352E+00 0. -1.
       -3    1    3    3    0  502  0.14739128469E+03  0.86269911665E+02  0.17866462544E+02  0.17171461541E+03  0.10100000352E+00 0.  1.
</event>
<event>
 5   0  0.2504064E-01  0.4292033E+03  0.7818609E-02  0.1034112E+00
        2   -1    0    0  501    0  0.00000000000E+00  0.00000000000E+00  0.79198861619E+03  0.79198861620E+03  0.25500000920E-02 0. -1.
       -2   -1    0    0    0  501  0.00000000000E+00  0.00000000000E+00 -0.58149662575E+02  0.58149662631E+02  0.25500000920E-02 0.  1.
    10030    2    1    2    0    0  0.00000000000E+00  0.00000000000E+00  0.73383895362E+03  0.85013827883E+03  0.42920331229E+03 0.  0.
        5    1    3    3  502    0  0.19279072212E+02 -0.11446745370E+03  0.72431630901E+03  0.73357391317E+03  0.46999998093E+01 0. -1.
       -5    1    3    3    0  502 -0.19279072212E+02  0.11446745370E+03  0.95226446052E+01  0.11656436566E+03  0.46999998093E+01 0.  1.
</event>
<event>
 5   0  0.1448458E-01  0.5024123E+03  0.7818609E-02  0.1013151E+00
        1   -1    0    0  501    0  0.00000000000E+00  0.00000000000E+00  0.80356942173E+03  0.80356942174E+03  0.50400001928E-02 0.  1.
       -1   -1    0    0    0  501  0.00000000000E+00  0.00000000000E+00 -0.78530284157E+02  0.78530284319E+02  0.50400001928E-02 0. -1.
    10030    2    1    2    0    0  0.00000000000E+00  0.00000000000E+00  0.72503913757E+03  0.88209970606E+03  0.50241232113E+03 0.  0.
        5    1    3    3  502    0  0.41823985225E+02 -0.73271582208E+02 -0.52829854114E+02  0.99654673665E+02  0.46999998093E+01 0. -1.
       -5    1    3    3    0  502 -0.41823985225E+02  0.73271582208E+02  0.77786899169E+03  0.78244503240E+03  0.46999998093E+01 0.  1.
</event>
<event>
 5   0  0.2511944E-01  0.4926656E+03  0.7818609E-02  0.1015711E+00
        2   -1    0    0  501    0  0.00000000000E+00  0.00000000000E+00  0.52667744214E+03  0.52667744215E+03  0.25500000920E-02 0. -1.
       -2   -1    0    0    0  501  0.00000000000E+00  0.00000000000E+00 -0.11521252401E+03  0.11521252404E+03  0.25500000920E-02 0.  1.
    10030    2    1    2    0    0  0.00000000000E+00  0.00000000000E+00  0.41146491813E+03  0.64188996619E+03  0.49266555576E+03 0.  0.
        1    1    3    3  502    0  0.20885026316E+03 -0.61910091730E+02  0.35558511186E+03  0.41700367346E+03  0.50400001928E-02 0. -1.
       -1    1    3    3    0  502 -0.20885026316E+03  0.61910091730E+02  0.55879806277E+02  0.22488629273E+03  0.50400001928E-02 0.  1.
</event>
<event>
 5   0  0.1413361E-01  0.6124507E+03  0.7818609E-02  0.9879906E-01
        1   -1    0    0  501    0  0.00000000000E+00  0.00000000000E+00  0.12842381255E+04  0.12842381255E+04  0.50400001928E-02 0. -1.
       -1   -1    0    0    0  501  0.00000000000E+00  0.00000000000E+00 -0.73019131591E+02  0.73019131765E+02  0.50400001928E-02 0.  1.
    10030    2    1    2    0    0  0.00000000000E+00  0.00000000000E+00  0.12112189939E+04  0.13572572573E+04  0.61245066023E+03 0.  0.
        3    1    3    3  502    0 -0.11926284014E+03  0.25466279362E+03  0.33694637394E+03  0.43887313953E+03  0.10100000352E+00 0.  1.
       -3    1    3    3    0  502  0.11926284014E+03 -0.25466279362E+03  0.87427261997E+03  0.91838411774E+03  0.10100000352E+00 0. -1.
</event>
<event>
 5   0  0.1453602E-01  0.4984503E+03  0.7818609E-02  0.1014184E+00
       -1   -1    0    0    0  501  0.00000000000E+00  0.00000000000E+00  0.23236684205E+03  0.23236684211E+03  0.50400001928E-02 0.  1.
        1   -1    0    0  501    0  0.00000000000E+00  0.00000000000E+00 -0.26730654143E+03  0.26730654148E+03  0.50400001928E-02 0. -1.
    10030    2    1    2    0    0  0.00000000000E+00  0.00000000000E+00 -0.34939699380E+02  0.49967338359E+03  0.49845030612E+03 0.  0.
        2    1    3    3  502    0 -0.11357680444E+03  0.21142513282E+03  0.49873107904E+02  0.24512773036E+03  0.25500000920E-02 0.  1.
       -2    1    3    3    0  502  0.11357680444E+03 -0.21142513282E+03 -0.84812807284E+02  0.25454565323E+03  0.25500000920E-02 0. -1.
</event>
<event>
 5   0  0.1448458E-01  0.4950434E+03  0.7818609E-02  0.1015081E+00
        1   -1    0    0  501    0  0.00000000000E+00  0.00000000000E+00  0.19122870612E+03  0.19122870619E+03  0.50400001928E-02 0. -1.
       -1   -1    0    0    0  501  0.00000000000E+00  0.00000000000E+00 -0.32038593999E+03  0.32038594003E+03  0.50400001928E-02 0.  1.
    10030    2    1    2    0    0  0.00000000000E+00  0.00000000000E+00 -0.12915723387E+03  0.51161464622E+03  0.49504338715E+03 0.  0.
        5    1    3    3  502    0 -0.36917819894E+02 -0.14122788613E+03  0.14195253262E+03  0.20366848740E+03  0.46999998093E+01 0. -1.
       -5    1    3    3    0  502  0.36917819894E+02  0.14122788613E+03 -0.27110976649E+03  0.30794615882E+03  0.46999998093E+01 0.  1.
</event>
<event>
 5   0  0.2511944E-01  0.5048183E+03  0.7818609E-02  0.1012529E+00
        2   -1    0    0  501    0  0.00000000000E+00  0.00000000000E+00  0.86459805648E+03  0.86459805648E+03  0.25500000920E-02 0.  1.
       -2   -1    0    0    0  501  0.00000000000E+00  0.00000000000E+00 -0.73687867341E+02  0.73687867385E+02  0.25500000920E-02 0. -1.
    10030    2    1    2    0    0  0.00000000000E+00  0.00000000000E+00  0.79091018914E+03  0.93828592387E+03  0.50481833133E+03 0.  0.
        1    1    3    3  502    0 -0.38714266248E+02  0.45601415245E+02 -0.60322825278E+02  0.84953674190E+02  0.50400001928E-02 0. -1.
       -1    1    3    3    0  502  0.38714266248E+02 -0.45601415245E+02  0.85123301442E+03  0.85333224968E+03  0.50400001928E-02 0.  1.
</event>
<event>
 5   0  0.2466034E-01  0.5073532E+03  0.7818609E-02  0.1011877E+00
       -2   -1    0    0    0  501  0.00000000000E+00  0.00000000000E+00  0.82163921130E+02  0.82163921170E+02  0.25500000920E-02 0. -1.
        2   -1    0    0  501    0  0.00000000000E+00  0.00000000000E+00 -0.78321254823E+03  0.78321254823E+03  0.25500000920E-02 0.  1.
    10030    2    1    2    0    0  0.00000000000E+00  0.00000000000E+00 -0.70104862710E+03  0.86537646940E+03  0.50735318688E+03 0.  0.
        3    1    3    3  502    0  0.14261414640E+03  0.83554900269E+02 -0.67875626582E+03  0.69859165090E+03  0.10100000352E+00 0.  1.
       -3    1    3    3    0  502 -0.14261414640E+03 -0.83554900269E+02 -0.22292361276E+02  0.16678481850E+03  0.10100000352E+00 0. -1.
</event>
<event>
 5   0  0.9868500E-02  0.5032132E+03  0.7818609E-02  0.1012944E+00
       -3   -1    0    0    0  501  0.00000000000E+00  0.00000000000E+00  0.34130213108E+03  0.34130214603E+03  0.10100000352E+00 0. -1.
        3   -1    0    0  501    0  0.00000000000E+00  0.00000000000E+00 -0.18548338286E+03  0.18548341036E+03  0.10100000352E+00 0.  1.
    10030    2    1    2    0    0  0.00000000000E+00  0.00000000000E+00  0.15581874822E+03  0.52678555638E+03  0.50321321536E+03 0.  0.
        5    1    3    3  502    0 -0.11954935873E+03  0.18684351663E+03  0.20213247500E+03  0.30013692929E+03  0.46999998093E+01 0. -1.
       -5    1    3    3    0  502  0.11954935873E+03 -0.18684351663E+03 -0.46313726773E+02  0.22664862709E+03  0.46999998093E+01 0.  1.
</event>
<event>
 5   0  0.2511944E-01  0.5032218E+03  0.7818609E-02  0.1012941E+00
        2   -1    0    0  501    0  0.00000000000E+00  0.00000000000E+00  0.99848429136E+03  0.99848429136E+03  0.25500000920E-02 0. -1.
       -2   -1    0    0    0  501  0.00000000000E+00  0.00000000000E+00 -0.63404146454E+02  0.63404146505E+02  0.25500000920E-02 0.  1.
    10030    2    1    2    0    0  0.00000000000E+00  0.00000000000E+00  0.93508014490E+03  0.10618884379E+04  0.50322179710E+03 0.  0.
        1    1    3    3  502    0  0.89150481287E+01  0.25012688733E+03  0.52196088344E+03  0.57886622091E+03  0.50400001928E-02 0.  1.
       -1    1    3    3    0  502 -0.89150481287E+01 -0.25012688733E+03  0.41311926147E+03  0.48302221695E+03  0.50400001928E-02 0. -1.
</event>
<event>
 5   0  0.2466034E-01  0.4742617E+03  0.7818609E-02  0.1020724E+00
       -2   -1    0    0    0  501  0.00000000000E+00  0.00000000000E+00  0.37238018734E+03  0.37238018735E+03  0.25500000920E-02 0. -1.
        2   -1    0    0  501    0  0.00000000000E+00  0.00000000000E+00 -0.15100441107E+03  0.15100441109E+03  0.25500000920E-02 0.  1.
    10030    2    1    2    0    0  0.00000000000E+00  0.00000000000E+00  0.22137577627E+03  0.52338459845E+03  0.47426174585E+03 0.  0.
        3    1    3    3  502    0 -0.18996729943E+03  0.29416464118E+01 -0.45906660146E+02  0.19545756517E+03  0.10100000352E+00 0.  1.
       -3    1    3    3    0  502  0.18996729943E+03 -0.29416464118E+01  0.26728243642E+03  0.32792703328E+03  0.10100000352E+00 0. -1.
</event>
<event>
 5   0  0.2488968E-01  0.4926784E+03  0.7818609E-02  0.1015708E+00
       -2   -1    0    0    0  501  0.00000000000E+00  0.00000000000E+00  0.96978945046E+02  0.96978945080E+02  0.25500000920E-02 0.  1.
        2   -1    0    0  501    0  0.00000000000E+00  0.00000000000E+00 -0.62573379887E+03  0.62573379887E+03  0.25500000920E-02 0. -1.
    10030    2    1    2    0    0  0.00000000000E+00  0.00000000000E+00 -0.52875485382E+03  0.72271274395E+03  0.49267840914E+03 0.  0.
        2    1    3    3  502    0 -0.87981492256E+01  0.24564725705E+03 -0.28816760564E+03  0.37876186618E+03  0.25500000920E-02 0. -1.
       -2    1    3    3    0  502  0.87981492256E+01 -0.24564725705E+03 -0.24058724819E+03  0.34395087778E+03  0.25500000920E-02 0.  1.
</event>
<event>
 5   0  0.2511944E-01  0.5069790E+03  0.7818609E-02  0.1011973E+00
       -2   -1    0    0    0  501  0.00000000000E+00  0.00000000000E+00  0.41335172617E+03  0.41335172618E+03  0.25500000920E-02 0. -1.
        2   -1    0    0  501    0  0.00000000000E+00  0.00000000000E+00 -0.15545337897E+03  0.15545337899E+03  0.25500000920E-02 0.  1.
    10030    2    1    2    0    0  0.00000000000E+00  0.00000000000E+00  0.25789834719E+03  0.56880510517E+03  0.50697898397E+03 0.  0.
        1    1    3    3  502    0 -0.22949926747E+03  0.10458119971E+03  0.10034975712E+03  0.27143547094E+03  0.50400001928E-02 0.  1.
       -1    1    3    3    0  502  0.22949926747E+03 -0.10458119971E+03  0.15754859008E+03  0.29736963423E+03  0.50400001928E-02 0. -1.
</event>
<event>
 5   0  0.1448458E-01  0.4998155E+03  0.7818609E-02  0.1013827E+00
        1   -1    0    0  501    0  0.00000000000E+00  0.00000000000E+00  0.32324750682E+02  0.32324751075E+02  0.50400001928E-02 0.  1.
       -1   -1    0    0    0  501  0.00000000000E+00  0.00000000000E+00 -0.19320761164E+04  0.19320761164E+04  0.50400001928E-02 0. -1.
    10030    2    1    2    0    0  0.00000000000E+00  0.00000000000E+00 -0.18997513657E+04  0.19644008675E+04  0.49981548257E+03 0.  0.
        5    1    3    3  502    0  0.75671486988E+02 -0.15473052106E+03 -0.16612847698E+04  0.16701966604E+04  0.46999998093E+01 0. -1.
       -5    1    3    3    0  502 -0.75671486988E+02  0.15473052106E+03 -0.23846659593E+03  0.29420420708E+03  0.46999998093E+01 0.  1.
</event>
<event>
 5   0  0.1413361E-01  0.5019890E+03  0.7818609E-02  0.1013261E+00
       -1   -1    0    0    0  501  0.00000000000E+00  0.00000000000E+00  0.12690540802E+03  0.12690540812E+03  0.50400001928E-02 0.  1.
        1   -1    0    0  501    0  0.00000000000E+00  0.00000000000E+00 -0.49641879155E+03  0.49641879157E+03  0.50400001928E-02 0. -1.
    10030    2    1    2    0    0  0.00000000000E+00  0.00000000000E+00 -0.36951338352E+03  0.62332419969E+03  0.50198896135E+03 0.  0.
        3    1    3    3  502    0 -0.28799436698E+02  0.13176831553E+02  0.12441433834E+03  0.12838214140E+03  0.10100000352E+00 0.  1.
       -3    1    3    3    0  502  0.28799436698E+02 -0.13176831553E+02 -0.49392772186E+03  0.49494205830E+03  0.10100000352E+00 0. -1.
</event>
<event>
 5   0  0.2488968E-01  0.4944279E+03  0.7818609E-02  0.1015244E+00
       -2   -1    0    0    0  501  0.00000000000E+00  0.00000000000E+00  0.25750528008E+03  0.25750528009E+03  0.25500000920E-02 0.  1.
        2   -1    0    0  501    0  0.00000000000E+00  0.00000000000E+00 -0.23733387772E+03  0.23733387773E+03  0.25500000920E-02 0. -1.
    10030    2    1    2    0    0  0.00000000000E+00  0.00000000000E+00  0.20171402361E+02  0.49483915782E+03  0.49442785787E+03 0.  0.
        2    1    3    3  502    0  0.97229380752E+02  0.11027705625E+03 -0.18882606413E+03  0.23931122857E+03  0.25500000920E-02 0. -1.
       -2    1    3    3    0  502 -0.97229380752E+02 -0.11027705625E+03  0.20899746649E+03  0.25552792925E+03  0.25500000920E-02 0.  1.
</event>
<event>
 5   0  0.1413361E-01  0.4959419E+03  0.7818609E-02  0.1014844E+00
       -1   -1    0    0    0  501  0.00000000000E+00  0.00000000000E+00  0.16008120543E+03  0.16008120551E+03  0.50400001928E-02 0.  1.
        1   -1    0    0  501    0  0.00000000000E+00  0.00000000000E+00 -0.38411507493E+03  0.38411507496E+03  0.50400001928E-02 0. -1.
    10030    2    1    2    0    0  0.00000000000E+00  0.00000000000E+00 -0.22403386949E+03  0.54419628047E+03  0.49594194922E+03 0.  0.
        3    1    3    3  502    0  0.12028794983E+03 -0.20619767868E+03 -0.38384041844E+02  0.24178506661E+03  0.10100000352E+00 0.  1.
       -3    1    3    3    0  502 -0.12028794983E+03  0.20619767868E+03 -0.18564982765E+03  0.30241121387E+03  0.10100000352E+00 0. -1.
</event>
<event>
 5   0  0.1413361E-01  0.5566760E+03  0.7818609E-02  0.9999604E-01
        1   -1    0    0  501    0  0.00000000000E+00  0.00000000000E+00  0.96585414853E+03  0.96585414855E+03  0.50400001928E-02 0. -1.
       -1   -1    0    0    0  501  0.00000000000E+00  0.00000000000E+00 -0.80210918497E+02  0.80210918655E+02  0.50400001928E-02 0.  1.
    10030    2    1    2    0    0  0.00000000000E+00  0.00000000000E+00  0.88564323004E+03  0.10460650672E+04  0.55667602240E+03 0.  0.
        3    1    3    3  502    0 -0.20599344742E+03  0.12673515428E+03  0.18395904433E+03  0.30386845822E+03  0.10100000352E+00 0.  1.
       -3    1    3    3    0  502  0.20599344742E+03 -0.12673515428E+03  0.70168418570E+03  0.74219660898E+03  0.10100000352E+00 0. -1.
</event>
<event>
 5   0  0.9868500E-02  0.4889544E+03  0.7818609E-02  0.1016703E+00
       -4   -1    0    0    0  501  0.00000000000E+00  0.00000000000E+00  0.15606411521E+04  0.15606416688E+04  0.12699999809E+01 0.  1.
        4   -1    0    0  501    0  0.00000000000E+00  0.00000000000E+00 -0.38286735681E+02  0.38307793320E+02  0.12699999809E+01 0. -1.
    10030    2    1    2    0    0  0.00000000000E+00  0.00000000000E+00  0.15223544164E+04  0.15989494622E+04  0.48895440826E+03 0.  0.
        2    1    3    3  502    0  0.17983938055E+03  0.53123072970E+02  0.24822531047E+03  0.31109495085E+03  0.25500000920E-02 0. -1.
       -2    1    3    3    0  502 -0.17983938055E+03 -0.53123072970E+02  0.12741291060E+04  0.12878545113E+04  0.25500000920E-02 0.  1.
</event>
<event>
 5   0  0.2466034E-01  0.5140064E+03  0.7818609E-02  0.1010186E+00
        2   -1    0    0  501    0  0.00000000000E+00  0.00000000000E+00  0.89386542407E+03  0.89386542408E+03  0.25500000920E-02 0.  1.
       -2   -1    0    0    0  501  0.00000000000E+00  0.00000000000E+00 -0.73893285881E+02  0.73893285925E+02  0.25500000920E-02 0. -1.
    10030    2    1    2    0    0  0.00000000000E+00  0.00000000000E+00  0.81997213819E+03  0.96775871000E+03  0.51400643320E+03 0.  0.
        3    1    3    3  502    0  0.15576698693E+03  0.17576761204E+03  0.60649079217E+03  0.65037581355E+03  0.10100000352E+00 0.  1.
       -3    1    3    3    0  502 -0.15576698693E+03 -0.17576761204E+03  0.21348134602E+03  0.31738289646E+03  0.10100000352E+00 0. -1.
</event>
<event>
 5   0  0.9868500E-02  0.4939100E+03  0.7818609E-02  0.1015381E+00
       -3   -1    0    0    0  501  0.00000000000E+00  0.00000000000E+00  0.19097649321E+03  0.19097651991E+03  0.10100000352E+00 0.  1.
        3   -1    0    0  501    0  0.00000000000E+00  0.00000000000E+00 -0.31934174779E+03  0.31934176376E+03  0.10100000352E+00 0. -1.
    10030    2    1    2    0    0  0.00000000000E+00  0.00000000000E+00 -0.12836525458E+03  0.51031828368E+03  0.49391002427E+03 0.  0.
        5    1    3    3  502    0 -0.17991184985E+03 -0.16315636401E+03 -0.11011642770E+03  0.26671331141E+03  0.46999998093E+01 0. -1.
       -5    1    3    3    0  502  0.17991184985E+03  0.16315636401E+03 -0.18248826884E+02  0.24360497227E+03  0.46999998093E+01 0.  1.
</event>
<event>
 5   0  0.1448458E-01  0.5066625E+03  0.7818609E-02  0.1012054E+00
        1   -1    0    0  501    0  0.00000000000E+00  0.00000000000E+00  0.12195151648E+03  0.12195151658E+03  0.50400001928E-02 0.  1.
       -1   -1    0    0    0  501  0.00000000000E+00  0.00000000000E+00 -0.52624777301E+03  0.52624777304E+03  0.50400001928E-02 0. -1.
    10030    2    1    2    0    0  0.00000000000E+00  0.00000000000E+00 -0.40429625654E+03  0.64819928962E+03  0.50666246754E+03 0.  0.
        5    1    3    3  502    0 -0.21427814288E+03 -0.40084154134E+02 -0.36714359209E+03  0.42701097075E+03  0.46999998093E+01 0.  1.
       -5    1    3    3    0  502  0.21427814288E+03  0.40084154134E+02 -0.37152664448E+02  0.22118831887E+03  0.46999998093E+01 0. -1.
</event>
<event>
 5   0  0.2488968E-01  0.5012783E+03  0.7818609E-02  0.1013446E+00
        2   -1    0    0  501    0  0.00000000000E+00  0.00000000000E+00  0.26608918492E+03  0.26608918493E+03  0.25500000920E-02 0.  1.
       -2   -1    0    0    0  501  0.00000000000E+00  0.00000000000E+00 -0.23608622776E+03  0.23608622777E+03  0.25500000920E-02 0. -1.
    10030    2    1    2    0    0  0.00000000000E+00  0.00000000000E+00  0.30002957160E+02  0.50217541270E+03  0.50127833354E+03 0.  0.
        2    1    3    3  502    0  0.68450939418E+02 -0.16653840396E+02  0.25596698627E+03  0.26548442435E+03  0.25500000920E-02 0.  1.
       -2    1    3    3    0  502 -0.68450939418E+02  0.16653840396E+02 -0.22596402911E+03  0.23669098835E+03  0.25500000920E-02 0. -1.
</event>
<event>
 5   0  0.1529146E-01  0.5012713E+03  0.7818609E-02  0.1013448E+00
       -1   -1    0    0    0  501  0.00000000000E+00  0.00000000000E+00  0.69132787933E+02  0.69132788117E+02  0.50400001928E-02 0.  1.
        1   -1    0    0  501    0  0.00000000000E+00  0.00000000000E+00 -0.90866038099E+03  0.90866038101E+03  0.50400001928E-02 0. -1.
    10030    2    1    2    0    0  0.00000000000E+00  0.00000000000E+00 -0.83952759306E+03  0.97779316912E+03  0.50127128591E+03 0.  0.
        1    1    3    3  502    0 -0.89389507308E+02  0.25810247501E+02 -0.87372611356E+03  0.87866601985E+03  0.50400001928E-02 0. -1.
       -1    1    3    3    0  502  0.89389507308E+02 -0.25810247501E+02  0.34198520504E+02  0.99127149272E+02  0.50400001928E-02 0.  1.
</event>
<event>
 5   0  0.1448458E-01  0.5007045E+03  0.7818609E-02  0.1013595E+00
       -1   -1    0    0    0  501  0.00000000000E+00  0.00000000000E+00  0.12705934992E+03  0.12705935002E+03  0.50400001928E-02 0. -1.
        1   -1    0    0  501    0  0.00000000000E+00  0.00000000000E+00 -0.49328321513E+03  0.49328321516E+03  0.50400001928E-02 0.  1.
    10030    2    1    2    0    0  0.00000000000E+00  0.00000000000E+00 -0.36622386521E+03  0.62034256518E+03  0.50070448243E+03 0.  0.
        5    1    3    3  502    0  0.58779654604E+02 -0.12600227985E+03 -0.44098561363E+03  0.46240893562E+03  0.46999998093E+01 0.  1.
       -5    1    3    3    0  502 -0.58779654604E+02  0.12600227985E+03  0.74761748416E+02  0.15793362956E+03  0.46999998093E+01 0. -1.
</event>
<event>
 5   0  0.2466034E-01  0.5023918E+03  0.7818609E-02  0.1013156E+00
        2   -1    0    0  501    0  0.00000000000E+00  0.00000000000E+00  0.38604058349E+03  0.38604058350E+03  0.25500000920E-02 0.  1.
       -2   -1    0    0    0  501  0.00000000000E+00  0.00000000000E+00 -0.16345274060E+03  0.16345274061E+03  0.25500000920E-02 0. -1.
    10030    2    1    2    0    0  0.00000000000E+00  0.00000000000E+00  0.22258784290E+03  0.54949332411E+03  0.50239184452E+03 0.  0.
        3    1    3    3  502    0 -0.15727029674E+03 -0.68159924593E+02  0.31213910926E+03  0.35610469708E+03  0.10100000352E+00 0.  1.
       -3    1    3    3    0  502  0.15727029674E+03  0.68159924593E+02 -0.89551266364E+02  0.19338862703E+03  0.10100000352E+00 0. -1.
</event>
<event>
 5   0  0.1453602E-01  0.4985692E+03  0.7818609E-02  0.1014153E+00
       -1   -1    0    0    0  501  0.00000000000E+00  0.00000000000E+00  0.84394259915E+03  0.84394259916E+03  0.50400001928E-02 0.  1.
        1   -1    0    0  501    0  0.00000000000E+00  0.00000000000E+00 -0.73633944427E+02  0.73633944599E+02  0.50400001928E-02 0. -1.
    10030    2    1    2    0    0  0.00000000000E+00  0.00000000000E+00  0.77030865472E+03  0.91757654376E+03  0.49856924306E+03 0.  0.
        2    1    3    3  502    0  0.14810103262E+01 -0.18148762698E+03  0.69966080182E+03  0.72281753559E+03  0.25500000920E-02 0.  1.
       -2    1    3    3    0  502 -0.14810103262E+01  0.18148762698E+03  0.70647852899E+02  0.19475900817E+03  0.25500000920E-02 0. -1.
</event>
<event>
 5   0  0.1413361E-01  0.5013896E+03  0.7818609E-02  0.1013417E+00
        1   -1    0    0  501    0  0.00000000000E+00  0.00000000000E+00  0.19365583101E+03  0.19365583108E+03  0.50400001928E-02 0. -1.
       -1   -1    0    0    0  501  0.00000000000E+00  0.00000000000E+00 -0.32453390819E+03  0.32453390823E+03  0.50400001928E-02 0.  1.
    10030    2    1    2    0    0  0.00000000000E+00  0.00000000000E+00 -0.13087807718E+03  0.51818973931E+03  0.50138960384E+03 0.  0.
        3    1    3    3  502    0 -0.90559197097E+02  0.17338371453E+03 -0.22748884919E+03  0.30002344467E+03  0.10100000352E+00 0.  1.
       -3    1    3    3    0  502  0.90559197097E+02 -0.17338371453E+03  0.96610772016E+02  0.21816629464E+03  0.10100000352E+00 0. -1.
</event>
<event>
 5   0  0.1448458E-01  0.4981387E+03  0.7818609E-02  0.1014266E+00
       -1   -1    0    0    0  501  0.00000000000E+00  0.00000000000E+00  0.55206346839E+03  0.55206346842E+03  0.50400001928E-02 0.  1.
        1   -1    0    0  501    0  0.00000000000E+00  0.00000000000E+00 -0.11237032534E+03  0.11237032545E+03  0.50400001928E-02 0. -1.
    10030    2    1    2    0    0  0.00000000000E+00  0.00000000000E+00  0.43969314306E+03  0.66443379387E+03  0.49813874210E+03 0.  0.
        5    1    3    3  502    0  0.82978763086E+02 -0.32967495457E+02 -0.90226182745E+02  0.12702434779E+03  0.46999998093E+01 0. -1.
       -5    1    3    3    0  502 -0.82978763086E+02  0.32967495457E+02  0.52991932580E+03  0.53740944608E+03  0.46999998093E+01 0.  1.
</event>
<event>
 5   0  0.1453602E-01  0.5032447E+03  0.7818609E-02  0.1012935E+00
        1   -1    0    0  501    0  0.00000000000E+00  0.00000000000E+00  0.16411994317E+04  0.16411994317E+04  0.50400001928E-02 0. -1.
       -1   -1    0    0    0  501  0.00000000000E+00  0.00000000000E+00 -0.38577772275E+02  0.38577772604E+02  0.50400001928E-02 0.  1.
    10030    2    1    2    0    0  0.00000000000E+00  0.00000000000E+00  0.16026216594E+04  0.16797772043E+04  0.50324474450E+03 0.  0.
        2    1    3    3  502    0 -0.18044878525E+03  0.89105681920E+02  0.29716483541E+03  0.35889904717E+03  0.25500000920E-02 0.  1.
       -2    1    3    3    0  502  0.18044878525E+03 -0.89105681920E+02  0.13054568240E+04  0.13208781571E+04  0.25500000920E-02 0. -1.
</event>
<event>
 5   0  0.9868500E-02  0.4732393E+03  0.7818609E-02  0.1021010E+00
       -3   -1    0    0    0  501  0.00000000000E+00  0.00000000000E+00  0.11591413702E+03  0.11591418103E+03  0.10100000352E+00 0. -1.
        3   -1    0    0  501    0  0.00000000000E+00  0.00000000000E+00 -0.48301996927E+03  0.48301997983E+03  0.10100000352E+00 0.  1.
    10030    2    1    2    0    0  0.00000000000E+00  0.00000000000E+00 -0.36710583224E+03  0.59893416085E+03  0.47323930201E+03 0.  0.
        5    1    3    3  502    0 -0.13702209567E+03 -0.17985907866E+03 -0.27162328024E+03  0.35344821296E+03  0.46999998093E+01 0.  1.
       -5    1    3    3    0  502  0.13702209567E+03  0.17985907866E+03 -0.95482552002E+02  0.24548594789E+03  0.46999998093E+01 0. -1.
</event>
<event>
 5   0  0.9868500E-02  0.5187548E+03  0.7818609E-02  0.1008996E+00
        3   -1    0    0  501    0  0.00000000000E+00  0.00000000000E+00  0.18045428872E+03  0.18045431698E+03  0.10100000352E+00 0.  1.
       -3   -1    0    0    0  501  0.00000000000E+00  0.00000000000E+00 -0.37281811457E+03  0.37281812825E+03  0.10100000352E+00 0. -1.
    10030    2    1    2    0    0  0.00000000000E+00  0.00000000000E+00 -0.19236382585E+03  0.55327244523E+03  0.51875481411E+03 0.  0.
        4    1    3    3  502    0 -0.23168805937E+02  0.34770275079E+02 -0.36920195917E+03  0.37156084986E+03  0.12699999809E+01 0. -1.
       -4    1    3    3    0  502  0.23168805937E+02 -0.34770275079E+02  0.17683813332E+03  0.18171159537E+03  0.12699999809E+01 0.  1.
</event>
<event>
 5   0  0.2413301E-01  0.5059571E+03  0.7818609E-02  0.1012236E+00
       -2   -1    0    0    0  501  0.00000000000E+00  0.00000000000E+00  0.49878074094E+02  0.49878074159E+02  0.25500000920E-02 0.  1.
        2   -1    0    0  501    0  0.00000000000E+00  0.00000000000E+00 -0.12830915376E+04  0.12830915376E+04  0.25500000920E-02 0. -1.
    10030    2    1    2    0    0  0.00000000000E+00  0.00000000000E+00 -0.12332134635E+04  0.13329696117E+04  0.50595705282E+03 0.  0.
        4    1    3    3  502    0 -0.26587431594E+02 -0.24877667222E+03 -0.51803798328E+03  0.57529269871E+03  0.12699999809E+01 0. -1.
       -4    1    3    3    0  502  0.26587431594E+02  0.24877667222E+03 -0.71517548020E+03  0.75767691304E+03  0.12699999809E+01 0.  1.
</event>
<event>
 5   0  0.1439814E-01  0.4977967E+03  0.7818609E-02  0.1014356E+00
       -1   -1    0    0    0  501  0.00000000000E+00  0.00000000000E+00  0.16897670390E+03  0.16897670398E+03  0.50400001928E-02 0.  1.
        1   -1    0    0  501    0  0.00000000000E+00  0.00000000000E+00 -0.36662086684E+03  0.36662086687E+03  0.50400001928E-02 0. -1.
    10030    2    1    2    0    0  0.00000000000E+00  0.00000000000E+00 -0.19764416293E+03  0.53559757085E+03  0.49779668818E+03 0.  0.
        4    1    3    3  502    0  0.87797726707E+02 -0.13588331199E+02  0.15133183131E+03  0.17548794724E+03  0.12699999809E+01 0.  1.
       -4    1    3    3    0  502 -0.87797726707E+02  0.13588331199E+02 -0.34897599424E+03  0.36010962361E+03  0.12699999809E+01 0. -1.
</event>
<event>
 5   0  0.1413361E-01  0.5014910E+03  0.7818609E-02  0.1013390E+00
        1   -1    0    0  501    0  0.00000000000E+00  0.00000000000E+00  0.22845418806E+03  0.22845418812E+03  0.50400001928E-02 0. -1.
       -1   -1    0    0    0  501  0.00000000000E+00  0.00000000000E+00 -0.27521192453E+03  0.27521192458E+03  0.50400001928E-02 0.  1.
    10030    2    1    2    0    0  0.00000000000E+00  0.00000000000E+00 -0.46757736465E+02  0.50366611270E+03  0.50149104395E+03 0.  0.
        3    1    3    3  502    0 -0.64533903194E+02 -0.17188355526E+03 -0.19489639121E+03  0.26775584912E+03  0.10100000352E+00 0.  1.
       -3    1    3    3    0  502  0.64533903194E+02  0.17188355526E+03  0.14813865474E+03  0.23591026358E+03  0.10100000352E+00 0. -1.
</event>
<event>
 5   0  0.9868500E-02  0.5258608E+03  0.7818609E-02  0.1007241E+00
        4   -1    0    0  501    0  0.00000000000E+00  0.00000000000E+00  0.74047630087E+02  0.74058520249E+02  0.12699999809E+01 0.  1.
       -4   -1    0    0    0  501  0.00000000000E+00  0.00000000000E+00 -0.93354075281E+03  0.93354161667E+03  0.12699999809E+01 0. -1.
    10030    2    1    2    0    0  0.00000000000E+00  0.00000000000E+00 -0.85949312272E+03  0.10076001369E+04  0.52586082561E+03 0.  0.
        1    1    3    3  502    0 -0.21565609978E+03  0.14441404285E+03 -0.34914667366E+03  0.43504754786E+03  0.50400001928E-02 0.  1.
       -1    1    3    3    0  502  0.21565609978E+03 -0.14441404285E+03 -0.51034644906E+03  0.57255258905E+03  0.50400001928E-02 0. -1.
</event>
<event>
 5   0  0.2511944E-01  0.4957747E+03  0.7818609E-02  0.1014888E+00
        2   -1    0    0  501    0  0.00000000000E+00  0.00000000000E+00  0.64878664034E+03  0.64878664035E+03  0.25500000920E-02 0.  1.
       -2   -1    0    0    0  501  0.00000000000E+00  0.00000000000E+00 -0.94712410253E+02  0.94712410287E+02  0.25500000920E-02 0. -1.
    10030    2    1    2    0    0  0.00000000000E+00  0.00000000000E+00  0.55407423009E+03  0.74349905063E+03  0.49577473296E+03 0.  0.
        1    1    3    3  502    0 -0.14473977275E+03 -0.15219527349E+03  0.79585928597E+02  0.22460392504E+03  0.50400001928E-02 0. -1.
       -1    1    3    3    0  502  0.14473977275E+03  0.15219527349E+03  0.47448830149E+03  0.51889512559E+03  0.50400001928E-02 0.  1.
</event>
<event>
 5   0  0.2466034E-01  0.5195417E+03  0.7818609E-02  0.1008800E+00
        2   -1    0    0  501    0  0.00000000000E+00  0.00000000000E+00  0.25100725463E+03  0.25100725464E+03  0.25500000920E-02 0.  1.
       -2   -1    0    0    0  501  0.00000000000E+00  0.00000000000E+00 -0.26884042003E+03  0.26884042005E+03  0.25500000920E-02 0. -1.
    10030    2    1    2    0    0  0.00000000000E+00  0.00000000000E+00 -0.17833165408E+02  0.51984767469E+03  0.51954170486E+03 0.  0.
        3    1    3    3  502    0  0.15102445702E+03 -0.17642610362E+03 -0.12537382417E+03  0.26391885617E+03  0.10100000352E+00 0. -1.
       -3    1    3    3    0  502 -0.15102445702E+03  0.17642610362E+03  0.10754065876E+03  0.25592881851E+03  0.10100000352E+00 0.  1.
</event>
<event>
 5   0  0.2466034E-01  0.4988814E+03  0.7818609E-02  0.1014071E+00
       -2   -1    0    0    0  501  0.00000000000E+00  0.00000000000E+00  0.12053757129E+03  0.12053757131E+03  0.25500000920E-02 0.  1.
        2   -1    0    0  501    0  0.00000000000E+00  0.00000000000E+00 -0.51619308813E+03  0.51619308814E+03  0.25500000920E-02 0. -1.
    10030    2    1    2    0    0  0.00000000000E+00  0.00000000000E+00 -0.39565551684E+03  0.63673065945E+03  0.49888139340E+03 0.  0.
        3    1    3    3  502    0  0.14002228621E+03 -0.47793291961E+02 -0.45414257152E+03  0.47763576589E+03  0.10100000352E+00 0. -1.
       -3    1    3    3    0  502 -0.14002228621E+03  0.47793291961E+02  0.58487054674E+02  0.15909489356E+03  0.10100000352E+00 0.  1.
</event>
<event>
 5   0  0.1439814E-01  0.4996803E+03  0.7818609E-02  0.1013862E+00
        1   -1    0    0  501    0  0.00000000000E+00  0.00000000000E+00  0.16069140577E+04  0.16069140577E+04  0.50400001928E-02 0.  1.
       -1   -1    0    0    0  501  0.00000000000E+00  0.00000000000E+00 -0.38844710753E+02  0.38844711080E+02  0.50400001928E-02 0. -1.
    10030    2    1    2    0    0  0.00000000000E+00  0.00000000000E+00  0.15680693470E+04  0.16457587688E+04  0.49968034603E+03 0.  0.
        4    1    3    3  502    0 -0.11660948295E+02 -0.15910636680E+03  0.15077032268E+03  0.21950880796E+03  0.12699999809E+01 0. -1.
       -4    1    3    3    0  502  0.11660948295E+02  0.15910636680E+03  0.14172990243E+04  0.14262499608E+04  0.12699999809E+01 0.  1.
</event>
<event>
 5   0  0.2511944E-01  0.5022707E+03  0.7818609E-02  0.1013188E+00
        2   -1    0    0  501    0  0.00000000000E+00  0.00000000000E+00  0.40306855056E+03  0.40306855056E+03  0.25500000920E-02 0. -1.
       -2   -1    0    0    0  501  0.00000000000E+00  0.00000000000E+00 -0.15647205428E+03  0.15647205430E+03  0.25500000920E-02 0.  1.
    10030    2    1    2    0    0  0.00000000000E+00  0.00000000000E+00  0.24659649628E+03  0.55954060486E+03  0.50227070043E+03 0.  0.
        1    1    3    3  502    0 -0.17115834456E+02  0.55965471277E+02  0.39536577019E+03  0.39967383956E+03  0.50400001928E-02 0. -1.
       -1    1    3    3    0  502  0.17115834456E+02 -0.55965471277E+02 -0.14876927391E+03  0.15986676531E+03  0.50400001928E-02 0.  1.
</event>
<event>
 5   0  0.1453602E-01  0.4828680E+03  0.7818609E-02  0.1018350E+00
       -1   -1    0    0    0  501  0.00000000000E+00  0.00000000000E+00  0.30924202985E+03  0.30924202989E+03  0.50400001928E-02 0.  1.
        1   -1    0    0  501    0  0.00000000000E+00  0.00000000000E+00 -0.18849433076E+03  0.18849433083E+03  0.50400001928E-02 0. -1.
    10030    2    1    2    0    0  0.00000000000E+00  0.00000000000E+00  0.12074769909E+03  0.49773636072E+03  0.48286797155E+03 0.  0.
        2    1    3    3  502    0  0.12113178156E+03 -0.20777633828E+03  0.38593771127E+02  0.24358447082E+03  0.25500000920E-02 0. -1.
       -2    1    3    3    0  502 -0.12113178156E+03  0.20777633828E+03  0.82153927958E+02  0.25415188989E+03  0.25500000920E-02 0.  1.
</event>
<event>
 5   0  0.1529146E-01  0.4993301E+03  0.7818609E-02  0.1013954E+00
       -1   -1    0    0    0  501  0.00000000000E+00  0.00000000000E+00  0.84490179969E+02  0.84490180119E+02  0.50400001928E-02 0. -1.
        1   -1    0    0  501    0  0.00000000000E+00  0.00000000000E+00 -0.73775022131E+03  0.73775022133E+03  0.50400001928E-02 0.  1.
    10030    2    1    2    0    0  0.00000000000E+00  0.00000000000E+00 -0.65326004134E+03  0.82224040145E+03  0.49933014746E+03 0.  0.
        1    1    3    3  502    0  0.24198741964E+03 -0.26183977653E+01 -0.42770872272E+03  0.49142600540E+03  0.50400001928E-02 0.  1.
       -1    1    3    3    0  502 -0.24198741964E+03  0.26183977653E+01 -0.22555131862E+03  0.33081439604E+03  0.50400001928E-02 0. -1.
</event>
<event>
 5   0  0.1448458E-01  0.5020934E+03  0.7818609E-02  0.1013234E+00
       -1   -1    0    0    0  501  0.00000000000E+00  0.00000000000E+00  0.49533794807E+02  0.49533795064E+02  0.50400001928E-02 0.  1.
        1   -1    0    0  501    0  0.00000000000E+00  0.00000000000E+00 -0.12723527039E+04  0.12723527039E+04  0.50400001928E-02 0. -1.
    10030    2    1    2    0    0  0.00000000000E+00  0.00000000000E+00 -0.12228189091E+04  0.13218864990E+04  0.50209344920E+03 0.  0.
        5    1    3    3  502    0 -0.23964370917E+02 -0.13437631295E+03 -0.56835297002E+02  0.14793115135E+03  0.46999998093E+01 0.  1.
       -5    1    3    3    0  502  0.23964370917E+02  0.13437631295E+03 -0.11659836121E+04  0.11739553476E+04  0.46999998093E+01 0. -1.
</event>
<event>
 5   0  0.2488968E-01  0.4978155E+03  0.7818609E-02  0.1014351E+00
       -2   -1    0    0    0  501  0.00000000000E+00  0.00000000000E+00  0.13952585400E+03  0.13952585402E+03  0.25500000920E-02 0. -1.
        2   -1    0    0  501    0  0.00000000000E+00  0.00000000000E+00 -0.44404010450E+03  0.44404010451E+03  0.25500000920E-02 0.  1.
    10030    2    1    2    0    0  0.00000000000E+00  0.00000000000E+00 -0.30451425051E+03  0.58356595853E+03  0.49781552727E+03 0.  0.
        2    1    3    3  502    0 -0.81994651451E+02  0.19297089332E+03  0.49917751785E+01  0.20972793414E+03  0.25500000920E-02 0. -1.
       -2    1    3    3    0  502  0.81994651451E+02 -0.19297089332E+03 -0.30950602569E+03  0.37383802439E+03  0.25500000920E-02 0.  1.
</event>
<event>
 5   0  0.2511944E-01  0.5348488E+03  0.7818609E-02  0.1005063E+00
        2   -1    0    0  501    0  0.00000000000E+00  0.00000000000E+00  0.16606298281E+04  0.16606298281E+04  0.25500000920E-02 0.  1.
       -2   -1    0    0    0  501  0.00000000000E+00  0.00000000000E+00 -0.43065470261E+02  0.43065470336E+02  0.25500000920E-02 0. -1.
    10030    2    1    2    0    0  0.00000000000E+00  0.00000000000E+00  0.16175643578E+04  0.17036952984E+04  0.53484878066E+03 0.  0.
        1    1    3    3  502    0  0.15315169372E+03  0.74461795592E+02  0.15197768719E+03  0.22824814943E+03  0.50400001928E-02 0. -1.
       -1    1    3    3    0  502 -0.15315169372E+03 -0.74461795592E+02  0.14655866707E+04  0.14754471490E+04  0.50400001928E-02 0.  1.
</event>
<event>
 5   0  0.2504064E-01  0.5028012E+03  0.7818609E-02  0.1013050E+00
       -2   -1    0    0    0  501  0.00000000000E+00  0.00000000000E+00  0.11261745761E+03  0.11261745764E+03  0.25500000920E-02 0. -1.
        2   -1    0    0  501    0  0.00000000000E+00  0.00000000000E+00 -0.56121197571E+03  0.56121197572E+03  0.25500000920E-02 0.  1.
    10030    2    1    2    0    0  0.00000000000E+00  0.00000000000E+00 -0.44859451810E+03  0.67382943336E+03  0.50280121678E+03 0.  0.
        5    1    3    3  502    0 -0.11073176645E+03  0.15288738472E+02 -0.52600953520E+03  0.53777633896E+03  0.46999998093E+01 0.  1.
       -5    1    3    3    0  502  0.11073176645E+03 -0.15288738472E+02  0.77415017098E+02  0.13605309440E+03  0.46999998093E+01 0. -1.
</event>
<event>
 5   0  0.1448458E-01  0.4936692E+03  0.7818609E-02  0.1015445E+00
        1   -1    0    0  501    0  0.00000000000E+00  0.00000000000E+00  0.12313220448E+04  0.12313220448E+04  0.50400001928E-02 0.  1.
       -1   -1    0    0    0  501  0.00000000000E+00  0.00000000000E+00 -0.49481227332E+02  0.49481227589E+02  0.50400001928E-02 0. -1.
    10030    2    1    2    0    0  0.00000000000E+00  0.00000000000E+00  0.11818408175E+04  0.12808032724E+04  0.49366922606E+03 0.  0.
        5    1    3    3  502    0  0.20179692628E+03 -0.11159161599E+03  0.36280663298E+03  0.42991328329E+03  0.46999998093E+01 0. -1.
       -5    1    3    3    0  502 -0.20179692628E+03  0.11159161599E+03  0.81903418449E+03  0.85088998911E+03  0.46999998093E+01 0.  1.
</event>
<event>
 5   0  0.9868500E-02  0.4981709E+03  0.7818609E-02  0.1014257E+00
       -4   -1    0    0    0  501  0.00000000000E+00  0.00000000000E+00  0.13434398144E+03  0.13434998418E+03  0.12699999809E+01 0. -1.
        4   -1    0    0  501    0  0.00000000000E+00  0.00000000000E+00 -0.46180898469E+03  0.46181073097E+03  0.12699999809E+01 0.  1.
    10030    2    1    2    0    0  0.00000000000E+00  0.00000000000E+00 -0.32746500325E+03  0.59616071515E+03  0.49817092441E+03 0.  0.
        4    1    3    3  502    0 -0.27423251712E+01 -0.19057816822E+03 -0.35563169174E+03  0.40348862638E+03  0.12699999809E+01 0.  1.
       -4    1    3    3    0  502  0.27423251712E+01  0.19057816822E+03  0.28166688491E+02  0.19267208877E+03  0.12699999809E+01 0. -1.
</event>
<event>
 5   0  0.2413301E-01  0.5076022E+03  0.7818609E-02  0.1011813E+00
       -2   -1    0    0    0  501  0.00000000000E+00  0.00000000000E+00  0.34781268106E+03  0.34781268107E+03  0.25500000920E-02 0. -1.
        2   -1    0    0  501    0  0.00000000000E+00  0.00000000000E+00 -0.18520028977E+03  0.18520028979E+03  0.25500000920E-02 0.  1.
    10030    2    1    2    0    0  0.00000000000E+00  0.00000000000E+00  0.16261239129E+03  0.53301297086E+03  0.50760224320E+03 0.  0.
        4    1    3    3  502    0  0.17488189674E+03 -0.11845521869E+03 -0.66443222773E+02  0.22143087273E+03  0.12699999809E+01 0.  1.
       -4    1    3    3    0  502 -0.17488189674E+03  0.11845521869E+03  0.22905561406E+03  0.31158209813E+03  0.12699999809E+01 0. -1.
</event>
<event>
 5   0  0.2511944E-01  0.4918106E+03  0.7818609E-02  0.1015939E+00
       -2   -1    0    0    0  501  0.00000000000E+00  0.00000000000E+00  0.11564530980E+03  0.11564530983E+03  0.25500000920E-02 0. -1.
        2   -1    0    0  501    0  0.00000000000E+00  0.00000000000E+00 -0.52288682324E+03  0.52288682325E+03  0.25500000920E-02 0.  1.
    10030    2    1    2    0    0  0.00000000000E+00  0.00000000000E+00 -0.40724151344E+03  0.63853213308E+03  0.49181056791E+03 0.  0.
        1    1    3    3  502    0 -0.60324712592E+02  0.10120228346E+02 -0.51285197090E+03  0.51648681886E+03  0.50400001928E-02 0.  1.
       -1    1    3    3    0  502  0.60324712592E+02 -0.10120228346E+02  0.10561045747E+03  0.12204531422E+03  0.50400001928E-02 0. -1.
</event>
<event>
 5   0  0.1439814E-01  0.3749425E+03  0.7818609E-02  0.1052819E+00
        1   -1    0    0  501    0  0.00000000000E+00  0.00000000000E+00  0.10149818679E+04  0.10149818679E+04  0.50400001928E-02 0.  1.
       -1   -1    0    0    0  501  0.00000000000E+00  0.00000000000E+00 -0.34626688467E+02  0.34626688834E+02  0.50400001928E-02 0. -1.
    10030    2    1    2    0    0  0.00000000000E+00  0.00000000000E+00  0.98035517941E+03  0.10496085567E+04  0.37494245498E+03 0.  0.
        4    1    3    3  502    0  0.83555935174E+02  0.67482761150E+02  0.60051896478E+02  0.12305836227E+03  0.12699999809E+01 0. -1.
       -4    1    3    3    0  502 -0.83555935174E+02 -0.67482761150E+02  0.92030328293E+03  0.92655019444E+03  0.12699999809E+01 0.  1.
</event>
<event>
 5   0  0.1413361E-01  0.4941409E+03  0.7818609E-02  0.1015320E+00
       -1   -1    0    0    0  501  0.00000000000E+00  0.00000000000E+00  0.59407937846E+02  0.59407938060E+02  0.50400001928E-02 0.  1.
        1   -1    0    0  501    0  0.00000000000E+00  0.00000000000E+00 -0.10275361593E+04  0.10275361593E+04  0.50400001928E-02 0. -1.
    10030    2    1    2    0    0  0.00000000000E+00  0.00000000000E+00 -0.96812822148E+03  0.10869440974E+04  0.49414088845E+03 0.  0.
        3    1    3    3  502    0 -0.24619800753E+03 -0.90605506583E+01 -0.52511256580E+03  0.58003342098E+03  0.10100000352E+00 0. -1.
       -3    1    3    3    0  502  0.24619800753E+03  0.90605506583E+01 -0.44301565568E+03  0.50691067642E+03  0.10100000352E+00 0.  1.
</event>
<event>
 5   0  0.2504064E-01  0.4956693E+03  0.7818609E-02  0.1014916E+00
       -2   -1    0    0    0  501  0.00000000000E+00  0.00000000000E+00  0.20773626948E+03  0.20773626950E+03  0.25500000920E-02 0.  1.
        2   -1    0    0  501    0  0.00000000000E+00  0.00000000000E+00 -0.29567299917E+03  0.29567299918E+03  0.25500000920E-02 0. -1.
    10030    2    1    2    0    0  0.00000000000E+00  0.00000000000E+00 -0.87936729686E+02  0.50340926867E+03  0.49566926812E+03 0.  0.
        5    1    3    3  502    0 -0.10665131792E+03  0.13858902175E+03 -0.22226162630E+03  0.28284932577E+03  0.46999998093E+01 0. -1.
       -5    1    3    3    0  502  0.10665131792E+03 -0.13858902175E+03  0.13432489661E+03  0.22055994290E+03  0.46999998093E+01 0.  1.
</event>
<event>
 5   0  0.2504064E-01  0.5003108E+03  0.7818609E-02  0.1013698E+00
        2   -1    0    0  501    0  0.00000000000E+00  0.00000000000E+00  0.97465143928E+03  0.97465143929E+03  0.25500000920E-02 0. -1.
       -2   -1    0    0    0  501  0.00000000000E+00  0.00000000000E+00 -0.64205245687E+02  0.64205245738E+02  0.25500000920E-02 0.  1.
    10030    2    1    2    0    0  0.00000000000E+00  0.00000000000E+00  0.91044619360E+03  0.10388566850E+04  0.50031084396E+03 0.  0.
        5    1    3    3  502    0  0.89755272453E+01 -0.18704141416E+03  0.11094627253E+03  0.21770672036E+03  0.46999998093E+01 0. -1.
       -5    1    3    3    0  502 -0.89755272453E+01  0.18704141416E+03  0.79949992106E+03  0.82114996467E+03  0.46999998093E+01 0.  1.
</event>
<event>
 5   0  0.2504064E-01  0.4934698E+03  0.7818609E-02  0.1015498E+00
       -2   -1    0    0    0  501  0.00000000000E+00  0.00000000000E+00  0.49880164836E+02  0.49880164901E+02  0.25500000920E-02 0.  1.
        2   -1    0    0  501    0  0.00000000000E+00  0.00000000000E+00 -0.12204874233E+04  0.12204874233E+04  0.25500000920E-02 0. -1.
    10030    2    1    2    0    0  0.00000000000E+00  0.00000000000E+00 -0.11706072585E+04  0.12703675882E+04  0.49346981224E+03 0.  0.
        5    1    3    3  502    0 -0.21838906832E+03  0.77083824029E+02 -0.36655410254E+03  0.43361238587E+03  0.46999998093E+01 0.  1.
       -5    1    3    3    0  502  0.21838906832E+03 -0.77083824029E+02 -0.80405315592E+03  0.83675520233E+03  0.46999998093E+01 0. -1.
</event>
<event>
 5   0  0.2413301E-01  0.4872809E+03  0.7818609E-02  0.1017153E+00
       -2   -1    0    0    0  501  0.00000000000E+00  0.00000000000E+00  0.52195663833E+02  0.52195663895E+02  0.25500000920E-02 0.  1.
        2   -1    0    0  501    0  0.00000000000E+00  0.00000000000E+00 -0.11372722232E+04  0.11372722232E+04  0.25500000920E-02 0. -1.
    10030    2    1    2    0    0  0.00000000000E+00  0.00000000000E+00 -0.10850765593E+04  0.11894678871E+04  0.48728094026E+03 0.  0.
        4    1    3    3  502    0 -0.49546926348E+02  0.22749650187E+03 -0.36736969157E+03  0.43493868471E+03  0.12699999809E+01 0.  1.
       -4    1    3    3    0  502  0.49546926348E+02 -0.22749650187E+03 -0.71770686776E+03  0.75452920235E+03  0.12699999809E+01 0. -1.
</event>
<event>
 5   0  0.2413301E-01  0.5006237E+03  0.7818609E-02  0.1013616E+00
       -2   -1    0    0    0  501  0.00000000000E+00  0.00000000000E+00  0.51377583568E+03  0.51377583569E+03  0.25500000920E-02 0. -1.
        2   -1    0    0  501    0  0.00000000000E+00  0.00000000000E+00 -0.12195207686E+03  0.12195207689E+03  0.25500000920E-02 0.  1.
    10030    2    1    2    0    0  0.00000000000E+00  0.00000000000E+00  0.39182375882E+03  0.63572791258E+03  0.50062373182E+03 0.  0.
        4    1    3    3  502    0 -0.14693618552E+03  0.13922727423E+03  0.89345756044E+01  0.20262259510E+03  0.12699999809E+01 0. -1.
       -4    1    3    3    0  502  0.14693618552E+03 -0.13922727423E+03  0.38288918321E+03  0.43310531748E+03  0.12699999809E+01 0.  1.
</event>
<event>
 5   0  0.1448458E-01  0.4995551E+03  0.7818609E-02  0.1013895E+00
        1   -1    0    0  501    0  0.00000000000E+00  0.00000000000E+00  0.44773249449E+03  0.44773249452E+03  0.50400001928E-02 0.  1.
       -1   -1    0    0    0  501  0.00000000000E+00  0.00000000000E+00 -0.13934398785E+03  0.13934398794E+03  0.50400001928E-02 0. -1.
    10030    2    1    2    0    0  0.00000000000E+00  0.00000000000E+00  0.30838850664E+03  0.58707648245E+03  0.49955512731E+03 0.  0.
        5    1    3    3  502    0 -0.79623075949E+02  0.18829585974E+02  0.43148223986E+03  0.43919631243E+03  0.46999998093E+01 0.  1.
       -5    1    3    3    0  502  0.79623075949E+02 -0.18829585974E+02 -0.12309373322E+03  0.14788017003E+03  0.46999998093E+01 0. -1.
</event>
<event>
 5   0  0.2466034E-01  0.4326120E+03  0.7818609E-02  0.1033038E+00
        2   -1    0    0  501    0  0.00000000000E+00  0.00000000000E+00  0.11488914042E+03  0.11488914044E+03  0.25500000920E-02 0.  1.
       -2   -1    0    0    0  501  0.00000000000E+00  0.00000000000E+00 -0.40724722466E+03  0.40724722467E+03  0.25500000920E-02 0. -1.
    10030    2    1    2    0    0  0.00000000000E+00  0.00000000000E+00 -0.29235808425E+03  0.52213636512E+03  0.43261199053E+03 0.  0.
        3    1    3    3  502    0  0.23142153284E+01  0.21620842361E+03 -0.15350421376E+03  0.26516974163E+03  0.10100000352E+00 0.  1.
       -3    1    3    3    0  502 -0.23142153284E+01 -0.21620842361E+03 -0.13885387049E+03  0.25696662349E+03  0.10100000352E+00 0. -1.
</event>
<event>
 5   0  0.2488968E-01  0.4983434E+03  0.7818609E-02  0.1014212E+00
       -2   -1    0    0    0  501  0.00000000000E+00  0.00000000000E+00  0.45123150223E+02  0.45123150295E+02  0.25500000920E-02 0. -1.
        2   -1    0    0  501    0  0.00000000000E+00  0.00000000000E+00 -0.13759355850E+04  0.13759355850E+04  0.25500000920E-02 0.  1.
    10030    2    1    2    0    0  0.00000000000E+00  0.00000000000E+00 -0.13308124348E+04  0.14210587353E+04  0.49834344844E+03 0.  0.
        2    1    3    3  502    0  0.54076414319E+02 -0.62021072935E+02 -0.13360739128E+04  0.13386053834E+04  0.25500000920E-02 0.  1.
       -2    1    3    3    0  502 -0.54076414319E+02  0.62021072935E+02  0.52614780412E+01  0.82453351850E+02  0.25500000920E-02 0. -1.
</event>
<event>
 5   0  0.1529146E-01  0.4832175E+03  0.7818609E-02  0.1018255E+00
        1   -1    0    0  501    0  0.00000000000E+00  0.00000000000E+00  0.28802450415E+03  0.28802450419E+03  0.50400001928E-02 0.  1.
       -1   -1    0    0    0  501  0.00000000000E+00  0.00000000000E+00 -0.20267296893E+03  0.20267296899E+03  0.50400001928E-02 0. -1.
    10030    2    1    2    0    0  0.00000000000E+00  0.00000000000E+00  0.85351535222E+02  0.49069747318E+03  0.48321747239E+03 0.  0.
        1    1    3    3  502    0  0.11929805552E+03  0.15532146146E+03 -0.10099933741E+03  0.22035800104E+03  0.50400001928E-02 0. -1.
       -1    1    3    3    0  502 -0.11929805552E+03 -0.15532146146E+03  0.18635087263E+03  0.27033947214E+03  0.50400001928E-02 0.  1.
</event>
<event>
 5   0  0.2504064E-01  0.5000540E+03  0.7818609E-02  0.1013765E+00
        2   -1    0    0  501    0  0.00000000000E+00  0.00000000000E+00  0.34730503954E+03  0.34730503955E+03  0.25500000920E-02 0.  1.
       -2   -1    0    0    0  501  0.00000000000E+00  0.00000000000E+00 -0.17999597164E+03  0.17999597166E+03  0.25500000920E-02 0. -1.
    10030    2    1    2    0    0  0.00000000000E+00  0.00000000000E+00  0.16730906790E+03  0.52730101121E+03  0.50005402930E+03 0.  0.
        5    1    3    3  502    0  0.14515797533E+03 -0.17435067725E+03 -0.27053766141E+02  0.22852350584E+03  0.46999998093E+01 0. -1.
       -5    1    3    3    0  502 -0.14515797533E+03  0.17435067725E+03  0.19436283405E+03  0.29877750537E+03  0.46999998093E+01 0.  1.
</event>
<event>
 5   0  0.2488968E-01  0.5061020E+03  0.7818609E-02  0.1012198E+00
       -2   -1    0    0    0  501  0.00000000000E+00  0.00000000000E+00  0.49194850186E+02  0.49194850252E+02  0.25500000920E-02 0. -1.
        2   -1    0    0  501    0  0.00000000000E+00  0.00000000000E+00 -0.13016569061E+04  0.13016569061E+04  0.25500000920E-02 0.  1.
    10030    2    1    2    0    0  0.00000000000E+00  0.00000000000E+00 -0.12524620559E+04  0.13508517564E+04  0.50610203136E+03 0.  0.
        2    1    3    3  502    0 -0.63855417151E+02  0.21248855979E+03 -0.30145256262E+03  0.37430275160E+03  0.25500000920E-02 0. -1.
       -2    1    3    3    0  502  0.63855417151E+02 -0.21248855979E+03 -0.95100949331E+03  0.97654900477E+03  0.25500000920E-02 0.  1.
</event>
<event>
 5   0  0.1529146E-01  0.4982838E+03  0.7818609E-02  0.1014228E+00
       -1   -1    0    0    0  501  0.00000000000E+00  0.00000000000E+00  0.11005448682E+03  0.11005448693E+03  0.50400001928E-02 0.  1.
        1   -1    0    0  501    0  0.00000000000E+00  0.00000000000E+00 -0.56400858816E+03  0.56400858819E+03  0.50400001928E-02 0. -1.
    10030    2    1    2    0    0  0.00000000000E+00  0.00000000000E+00 -0.45395410135E+03  0.67406307512E+03  0.49828375762E+03 0.  0.
        1    1    3    3  502    0 -0.65791883568E+02  0.37880611741E+02  0.94026241330E+02  0.12084885921E+03  0.50400001928E-02 0.  1.
       -1    1    3    3    0  502  0.65791883568E+02 -0.37880611741E+02 -0.54798034268E+03  0.55321421590E+03  0.50400001928E-02 0. -1.
</event>
<event>
 5   0  0.2504064E-01  0.5422365E+03  0.7818609E-02  0.1003307E+00
        2   -1    0    0  501    0  0.00000000000E+00  0.00000000000E+00  0.42338757384E+03  0.42338757385E+03  0.25500000920E-02 0. -1.
       -2   -1    0    0    0  501  0.00000000000E+00  0.00000000000E+00 -0.17361183834E+03  0.17361183836E+03  0.25500000920E-02 0.  1.
    10030    2    1    2    0    0  0.00000000000E+00  0.00000000000E+00  0.24977573550E+03  0.59699941221E+03  0.54223646146E+03 0.  0.
        5    1    3    3  502    0 -0.14509709271E+03  0.27719310640E+02 -0.12535897211E+03  0.19380012483E+03  0.46999998093E+01 0.  1.
       -5    1    3    3    0  502  0.14509709271E+03 -0.27719310640E+02  0.37513470761E+03  0.40319928739E+03  0.46999998093E+01 0. -1.
</event>
<event>
 5   0  0.9868500E-02  0.3334188E+03  0.7818609E-02  0.1069634E+00
       -4   -1    0    0    0  501  0.00000000000E+00  0.00000000000E+00  0.79933718977E+03  0.79933819867E+03  0.12699999809E+01 0.  1.
        4   -1    0    0  501    0  0.00000000000E+00  0.00000000000E+00 -0.34756217299E+02  0.34779412601E+02  0.12699999809E+01 0. -1.
    10030    2    1    2    0    0  0.00000000000E+00  0.00000000000E+00  0.76458097247E+03  0.83411761127E+03  0.33341884465E+03 0.  0.
        2    1    3    3  502    0 -0.33821217112E+02  0.70432329070E+02  0.13872069612E+02  0.79353777648E+02  0.25500000920E-02 0. -1.
       -2    1    3    3    0  502  0.33821217112E+02 -0.70432329070E+02  0.75070890286E+03  0.75476383362E+03  0.25500000920E-02 0.  1.
</event>
<event>
 5   0  0.9868500E-02  0.4853766E+03  0.7818609E-02  0.1017668E+00
        3   -1    0    0  501    0  0.00000000000E+00  0.00000000000E+00  0.24267883420E+03  0.24267885522E+03  0.10100000352E+00 0.  1.
       -3   -1    0    0    0  501  0.00000000000E+00  0.00000000000E+00 -0.24269775528E+03  0.24269777630E+03  0.10100000352E+00 0. -1.
    10030    2    1    2    0    0  0.00000000000E+00  0.00000000000E+00 -0.18921081601E-01  0.48537663151E+03  0.48537663114E+03 0.  0.
        5    1    3    3  502    0 -0.27528560853E+00 -0.11779383327E+03  0.21212272855E+03  0.24268004636E+03  0.46999998093E+01 0.  1.
       -5    1    3    3    0  502  0.27528560853E+00  0.11779383327E+03 -0.21214164963E+03  0.24269658515E+03  0.46999998093E+01 0. -1.
</event>
<event>
 5   0  0.2466034E-01  0.4967362E+03  0.7818609E-02  0.1014634E+00
        2   -1    0    0  501    0  0.00000000000E+00  0.00000000000E+00  0.37620440304E+03  0.37620440305E+03  0.25500000920E-02 0. -1.
       -2   -1    0    0    0  501  0.00000000000E+00  0.00000000000E+00 -0.16397127077E+03  0.16397127079E+03  0.25500000920E-02 0.  1.
    10030    2    1    2    0    0  0.00000000000E+00  0.00000000000E+00  0.21223313227E+03  0.54017567384E+03  0.49673620380E+03 0.  0.
        3    1    3    3  502    0  0.21637967272E+03 -0.35965191042E+02 -0.20575048350E+02  0.22031114486E+03  0.10100000352E+00 0.  1.
       -3    1    3    3    0  502 -0.21637967272E+03  0.35965191042E+02  0.23280818062E+03  0.31986452898E+03  0.10100000352E+00 0. -1.
</event>
<event>
 5   0  0.9868500E-02  0.4838104E+03  0.7818609E-02  0.1018093E+00
        4   -1    0    0  501    0  0.00000000000E+00  0.00000000000E+00  0.39644976398E+03  0.39645179815E+03  0.12699999809E+01 0. -1.
       -4   -1    0    0    0  501  0.00000000000E+00  0.00000000000E+00 -0.14760025668E+03  0.14760572032E+03  0.12699999809E+01 0.  1.
    10030    2    1    2    0    0  0.00000000000E+00  0.00000000000E+00  0.24884950730E+03  0.54405751848E+03  0.48381040308E+03 0.  0.
        3    1    3    3  502    0 -0.13631377159E+03  0.11249508493E+03 -0.61314612112E+02  0.18707239325E+03  0.10100000352E+00 0.  1.
       -3    1    3    3    0  502  0.13631377159E+03 -0.11249508493E+03  0.31016411941E+03  0.35698512522E+03  0.10100000352E+00 0. -1.
</event>
<event>
 5   0  0.1448458E-01  0.3922242E+03  0.7818609E-02  0.1046506E+00
       -1   -1    0    0    0  501  0.00000000000E+00  0.00000000000E+00  0.12391717458E+03  0.12391717469E+03  0.50400001928E-02 0. -1.
        1   -1    0    0  501    0  0.00000000000E+00  0.00000000000E+00 -0.31036822156E+03  0.31036822160E+03  0.50400001928E-02 0.  1.
    10030    2    1    2    0    0  0.00000000000E+00  0.00000000000E+00 -0.18645104698E+03  0.43428539629E+03  0.39222418654E+03 0.  0.
        5    1    3    3  502    0 -0.14708894356E+03 -0.74315411928E+02  0.24370860481E+02  0.16665523276E+03  0.46999998093E+01 0. -1.
       -5    1    3    3    0  502  0.14708894356E+03  0.74315411928E+02 -0.21082190746E+03  0.26763016353E+03  0.46999998093E+01 0.  1.
</event>
<event>
 5   0  0.2488968E-01  0.4896525E+03  0.7818609E-02  0.1016516E+00
        2   -1    0    0  501    0  0.00000000000E+00  0.00000000000E+00  0.12941120851E+04  0.12941120851E+04  0.25500000920E-02 0. -1.
       -2   -1    0    0    0  501  0.00000000000E+00  0.00000000000E+00 -0.46317387804E+02  0.46317387874E+02  0.25500000920E-02 0.  1.
    10030    2    1    2    0    0  0.00000000000E+00  0.00000000000E+00  0.12477946973E+04  0.13404294730E+04  0.48965249455E+03 0.  0.
        2    1    3    3  502    0  0.90873805118E+02  0.17463507030E+03  0.10223387336E+04  0.10411205225E+04  0.25500000920E-02 0. -1.
       -2    1    3    3    0  502 -0.90873805118E+02 -0.17463507030E+03  0.22545596369E+03  0.29930895043E+03  0.25500000920E-02 0.  1.
</event>
<event>
 5   0  0.2511944E-01  0.4947799E+03  0.7818609E-02  0.1015150E+00
        2   -1    0    0  501    0  0.00000000000E+00  0.00000000000E+00  0.89633324345E+03  0.89633324346E+03  0.25500000920E-02 0. -1.
       -2   -1    0    0    0  501  0.00000000000E+00  0.00000000000E+00 -0.68280172039E+02  0.68280172086E+02  0.25500000920E-02 0.  1.
    10030    2    1    2    0    0  0.00000000000E+00  0.00000000000E+00  0.82805307141E+03  0.96461341554E+03  0.49477990295E+03 0.  0.
        1    1    3    3  502    0  0.80637713889E+02  0.22995010328E+03  0.33080210242E+03  0.41086435948E+03  0.50400001928E-02 0. -1.
       -1    1    3    3    0  502 -0.80637713889E+02 -0.22995010328E+03  0.49725096899E+03  0.55374905606E+03  0.50400001928E-02 0.  1.
</event>
<event>
 5   0  0.1453602E-01  0.4742657E+03  0.7818609E-02  0.1020723E+00
       -1   -1    0    0    0  501  0.00000000000E+00  0.00000000000E+00  0.17944339967E+03  0.17944339974E+03  0.50400001928E-02 0.  1.
        1   -1    0    0  501    0  0.00000000000E+00  0.00000000000E+00 -0.31336891986E+03  0.31336891990E+03  0.50400001928E-02 0. -1.
    10030    2    1    2    0    0  0.00000000000E+00  0.00000000000E+00 -0.13392552020E+03  0.49281231964E+03  0.47426568233E+03 0.  0.
        2    1    3    3  502    0 -0.28365019436E+02 -0.45092501821E+02  0.17314510958E+03  0.18115500828E+03  0.25500000920E-02 0.  1.
       -2    1    3    3    0  502  0.28365019436E+02  0.45092501821E+02 -0.30707062977E+03  0.31165731136E+03  0.25500000920E-02 0. -1.
</event>
<event>
 5   0  0.1529146E-01  0.5251985E+03  0.7818609E-02  0.1007403E+00
       -1   -1    0    0    0  501  0.00000000000E+00  0.00000000000E+00  0.45168821681E+02  0.45168821963E+02  0.50400001928E-02 0.  1.
        1   -1    0    0  501    0  0.00000000000E+00  0.00000000000E+00 -0.15266807114E+04  0.15266807114E+04  0.50400001928E-02 0. -1.
    10030    2    1    2    0    0  0.00000000000E+00  0.00000000000E+00 -0.14815118897E+04  0.15718495334E+04  0.52519851121E+03 0.  0.
        1    1    3    3  502    0  0.62589937391E+02  0.89082426875E+02 -0.14559522704E+04  0.14600171892E+04  0.50400001928E-02 0. -1.
       -1    1    3    3    0  502 -0.62589937391E+02 -0.89082426875E+02 -0.25559619332E+02  0.11183234419E+03  0.50400001928E-02 0.  1.
</event>
<event>
 5   0  0.2488968E-01  0.5021187E+03  0.7818609E-02  0.1013227E+00
       -2   -1    0    0    0  501  0.00000000000E+00  0.00000000000E+00  0.74896700985E+02  0.74896701029E+02  0.25500000920E-02 0. -1.
        2   -1    0    0  501    0  0.00000000000E+00  0.00000000000E+00 -0.84156986219E+03  0.84156986220E+03  0.25500000920E-02 0.  1.
    10030    2    1    2    0    0  0.00000000000E+00  0.00000000000E+00 -0.76667316121E+03  0.91646656323E+03  0.50211873635E+03 0.  0.
        2    1    3    3  502    0 -0.17621866907E+03  0.16708049449E+03 -0.49966198304E+03  0.55554568514E+03  0.25500000920E-02 0. -1.
       -2    1    3    3    0  502  0.17621866907E+03 -0.16708049449E+03 -0.26701117817E+03  0.36092087809E+03  0.25500000920E-02 0.  1.
</event>
<event>
 5   0  0.1529146E-01  0.4728614E+03  0.7818609E-02  0.1021116E+00
       -1   -1    0    0    0  501  0.00000000000E+00  0.00000000000E+00  0.73448349536E+02  0.73448349708E+02  0.50400001928E-02 0. -1.
        1   -1    0    0  501    0  0.00000000000E+00  0.00000000000E+00 -0.76107197674E+03  0.76107197676E+03  0.50400001928E-02 0.  1.
    10030    2    1    2    0    0  0.00000000000E+00  0.00000000000E+00 -0.68762362721E+03  0.83452032647E+03  0.47286142007E+03 0.  0.
        1    1    3    3  502    0 -0.57197206756E+00 -0.41085394508E+02  0.67098765493E+02  0.78680246251E+02  0.50400001928E-02 0. -1.
       -1    1    3    3    0  502  0.57197206756E+00  0.41085394508E+02 -0.75472239270E+03  0.75584008022E+03  0.50400001928E-02 0.  1.
</event>
<event>
 5   0  0.1439814E-01  0.5083941E+03  0.7818609E-02  0.1011611E+00
        1   -1    0    0  501    0  0.00000000000E+00  0.00000000000E+00  0.12145053934E+03  0.12145053944E+03  0.50400001928E-02 0. -1.
       -1   -1    0    0    0  501  0.00000000000E+00  0.00000000000E+00 -0.53203661219E+03  0.53203661221E+03  0.50400001928E-02 0.  1.
    10030    2    1    2    0    0  0.00000000000E+00  0.00000000000E+00 -0.41058607285E+03  0.65348715166E+03  0.50839407369E+03 0.  0.
        4    1    3    3  502    0 -0.11794285049E+03  0.10770070961E+03  0.48892178608E+02  0.16703896809E+03  0.12699999809E+01 0. -1.
       -4    1    3    3    0  502  0.11794285049E+03 -0.10770070961E+03 -0.45947825146E+03  0.48644818357E+03  0.12699999809E+01 0.  1.
</event>
<event>
 5   0  0.1453602E-01  0.4968349E+03  0.7818609E-02  0.1014608E+00
        1   -1    0    0  501    0  0.00000000000E+00  0.00000000000E+00  0.45976416172E+03  0.45976416175E+03  0.50400001928E-02 0. -1.
       -1   -1    0    0    0  501  0.00000000000E+00  0.00000000000E+00 -0.13422366569E+03  0.13422366579E+03  0.50400001928E-02 0.  1.
    10030    2    1    2    0    0  0.00000000000E+00  0.00000000000E+00  0.32554049603E+03  0.59398782754E+03  0.49683490690E+03 0.  0.
        2    1    3    3  502    0 -0.13912693168E+03  0.53390993757E+02 -0.74852379284E+02  0.16676264577E+03  0.25500000920E-02 0.  1.
       -2    1    3    3    0  502  0.13912693168E+03 -0.53390993757E+02  0.40039287531E+03  0.42722518177E+03  0.25500000920E-02 0. -1.
</event>
<event>
 5   0  0.2413301E-01  0.5390591E+03  0.7818609E-02  0.1004059E+00
       -2   -1    0    0    0  501  0.00000000000E+00  0.00000000000E+00  0.62231201892E+02  0.62231201944E+02  0.25500000920E-02 0. -1.
        2   -1    0    0  501    0  0.00000000000E+00  0.00000000000E+00 -0.11673592430E+04  0.11673592430E+04  0.25500000920E-02 0.  1.
    10030    2    1    2    0    0  0.00000000000E+00  0.00000000000E+00 -0.11051280411E+04  0.12295904450E+04  0.53905906454E+03 0.  0.
        4    1    3    3  502    0 -0.83048676454E-01 -0.82973414306E+02 -0.11374953746E+04  0.11405182745E+04  0.12699999809E+01 0.  1.
       -4    1    3    3    0  502  0.83048676454E-01  0.82973414306E+02  0.32367333444E+02  0.89072170474E+02  0.12699999809E+01 0. -1.
</event>
<event>
 5   0  0.9868500E-02  0.5376902E+03  0.7818609E-02  0.1004384E+00
        4   -1    0    0  501    0  0.00000000000E+00  0.00000000000E+00  0.15521128190E+03  0.15521647764E+03  0.12699999809E+01 0.  1.
       -4   -1    0    0    0  501  0.00000000000E+00  0.00000000000E+00 -0.46565908552E+03  0.46566081736E+03  0.12699999809E+01 0. -1.
    10030    2    1    2    0    0  0.00000000000E+00  0.00000000000E+00 -0.31044780362E+03  0.62087729500E+03  0.53769022371E+03 0.  0.
        4    1    3    3  502    0 -0.48252281582E+02  0.40930134607E+02 -0.45693870123E+03  0.46130049662E+03  0.12699999809E+01 0. -1.
       -4    1    3    3    0  502  0.48252281582E+02 -0.40930134607E+02  0.14649089762E+03  0.15957679838E+03  0.12699999809E+01 0.  1.
</event>
<event>
 5   0  0.2413301E-01  0.4946800E+03  0.7818609E-02  0.1015177E+00
       -2   -1    0    0    0  501  0.00000000000E+00  0.00000000000E+00  0.26881744128E+03  0.26881744129E+03  0.25500000920E-02 0.  1.
        2   -1    0    0  501    0  0.00000000000E+00  0.00000000000E+00 -0.22757856496E+03  0.22757856497E+03  0.25500000920E-02 0. -1.
    10030    2    1    2    0    0  0.00000000000E+00  0.00000000000E+00  0.41238876322E+02  0.49639600626E+03  0.49468004822E+03 0.  0.
        4    1    3    3  502    0 -0.21546068792E+03 -0.98145348242E+02  0.92419418596E+02  0.25416289905E+03  0.12699999809E+01 0.  1.
       -4    1    3    3    0  502  0.21546068792E+03  0.98145348242E+02 -0.51180542274E+02  0.24223310721E+03  0.12699999809E+01 0. -1.
</event>
<event>
 5   0  0.2511944E-01  0.5003094E+03  0.7818609E-02  0.1013698E+00
        2   -1    0    0  501    0  0.00000000000E+00  0.00000000000E+00  0.86004377262E+03  0.86004377262E+03  0.25500000920E-02 0. -1.
       -2   -1    0    0    0  501  0.00000000000E+00  0.00000000000E+00 -0.72760687777E+02  0.72760687822E+02  0.25500000920E-02 0.  1.
    10030    2    1    2    0    0  0.00000000000E+00  0.00000000000E+00  0.78728308484E+03  0.93280446044E+03  0.50030941001E+03 0.  0.
        1    1    3    3  502    0  0.13160412907E+03  0.84636565533E+02  0.75754183568E+03  0.77353256418E+03  0.50400001928E-02 0. -1.
       -1    1    3    3    0  502 -0.13160412907E+03 -0.84636565533E+02  0.29741249164E+02  0.15927189627E+03  0.50400001928E-02 0.  1.
</event>
<event>
 5   0  0.9868500E-02  0.5022701E+03  0.7818609E-02  0.1013188E+00
        4   -1    0    0  501    0  0.00000000000E+00  0.00000000000E+00  0.14569511612E+03  0.14570065120E+03  0.12699999809E+01 0.  1.
       -4   -1    0    0    0  501  0.00000000000E+00  0.00000000000E+00 -0.43286742684E+03  0.43286928988E+03  0.12699999809E+01 0. -1.
    10030    2    1    2    0    0  0.00000000000E+00  0.00000000000E+00 -0.28717231073E+03  0.57856994108E+03  0.50227008738E+03 0.  0.
        2    1    3    3  502    0  0.10290923602E+03  0.63965783562E+02  0.10979969086E+03  0.16351729096E+03  0.25500000920E-02 0.  1.
       -2    1    3    3    0  502 -0.10290923602E+03 -0.63965783562E+02 -0.39697200158E+03  0.41505265012E+03  0.25500000920E-02 0. -1.
</event>
<event>
 5   0  0.2466034E-01  0.5027067E+03  0.7818609E-02  0.1013075E+00
       -2   -1    0    0    0  501  0.00000000000E+00  0.00000000000E+00  0.50457637766E+02  0.50457637831E+02  0.25500000920E-02 0. -1.
        2   -1    0    0  501    0  0.00000000000E+00  0.00000000000E+00 -0.12521099228E+04  0.12521099228E+04  0.25500000920E-02 0.  1.
    10030    2    1    2    0    0  0.00000000000E+00  0.00000000000E+00 -0.12016522850E+04  0.13025675606E+04  0.50270670961E+03 0.  0.
        3    1    3    3  502    0 -0.24965940247E+03 -0.22035684683E+02 -0.65020087543E+03  0.69683324924E+03  0.10100000352E+00 0. -1.
       -3    1    3    3    0  502  0.24965940247E+03  0.22035684683E+02 -0.55145140958E+03  0.60573431137E+03  0.10100000352E+00 0.  1.
</event>
<event>
 5   0  0.2413301E-01  0.4958414E+03  0.7818609E-02  0.1014870E+00
       -2   -1    0    0    0  501  0.00000000000E+00  0.00000000000E+00  0.49231375936E+02  0.49231376002E+02  0.25500000920E-02 0.  1.
        2   -1    0    0  501    0  0.00000000000E+00  0.00000000000E+00 -0.12484859322E+04  0.12484859322E+04  0.25500000920E-02 0. -1.
    10030    2    1    2    0    0  0.00000000000E+00  0.00000000000E+00 -0.11992545563E+04  0.12977173082E+04  0.49584142757E+03 0.  0.
        4    1    3    3  502    0 -0.16098718792E+03  0.16027692739E+03 -0.33977850831E+03  0.40872559956E+03  0.12699999809E+01 0.  1.
       -4    1    3    3    0  502  0.16098718792E+03 -0.16027692739E+03 -0.85947604796E+03  0.88899170865E+03  0.12699999809E+01 0. -1.
</event>
<event>
 5   0  0.1413361E-01  0.4874061E+03  0.7818609E-02  0.1017119E+00
       -1   -1    0    0    0  501  0.00000000000E+00  0.00000000000E+00  0.18777097832E+03  0.18777097839E+03  0.50400001928E-02 0.  1.
        1   -1    0    0  501    0  0.00000000000E+00  0.00000000000E+00 -0.31629587662E+03  0.31629587666E+03  0.50400001928E-02 0. -1.
    10030    2    1    2    0    0  0.00000000000E+00  0.00000000000E+00 -0.12852489830E+03  0.50406685505E+03  0.48740613956E+03 0.  0.
        3    1    3    3  502    0  0.12813517278E+03  0.44049000144E+02 -0.27375074037E+03  0.30544789240E+03  0.10100000352E+00 0. -1.
       -3    1    3    3    0  502 -0.12813517278E+03 -0.44049000144E+02  0.14522584207E+03  0.19861896265E+03  0.10100000352E+00 0.  1.
</event>
<event>
 5   0  0.1453602E-01  0.4961627E+03  0.7818609E-02  0.1014785E+00
       -1   -1    0    0    0  501  0.00000000000E+00  0.00000000000E+00  0.14091377942E+03  0.14091377951E+03  0.50400001928E-02 0.  1.
        1   -1    0    0  501    0  0.00000000000E+00  0.00000000000E+00 -0.43675193468E+03  0.43675193471E+03  0.50400001928E-02 0. -1.
    10030    2    1    2    0    0  0.00000000000E+00  0.00000000000E+00 -0.29583815526E+03  0.57766571422E+03  0.49616273870E+03 0.  0.
        2    1    3    3  502    0  0.13012550570E+03 -0.21996317825E+02 -0.39249234212E+03  0.41408540649E+03  0.25500000920E-02 0. -1.
       -2    1    3    3    0  502 -0.13012550570E+03  0.21996317825E+02  0.96654186862E+02  0.16358030773E+03  0.25500000920E-02 0.  1.
</event>
<event>
 5   0  0.1413361E-01  0.5052875E+03  0.7818609E-02  0.1012408E+00
        1   -1    0    0  501    0  0.00000000000E+00  0.00000000000E+00  0.11444509673E+04  0.11444509673E+04  0.50400001928E-02 0. -1.
       -1   -1    0    0    0  501  0.00000000000E+00  0.00000000000E+00 -0.55772470066E+02  0.55772470294E+02  0.50400001928E-02 0.  1.
    10030    2    1    2    0    0  0.00000000000E+00  0.00000000000E+00  0.10886784973E+04  0.12002234376E+04  0.50528747248E+03 0.  0.
        3    1    3    3  502    0  0.46288745614E+02  0.42377285851E+02 -0.36963065723E+02  0.72833788555E+02  0.10100000352E+00 0.  1.
       -3    1    3    3    0  502 -0.46288745614E+02 -0.42377285851E+02  0.11256415630E+04  0.11273896491E+04  0.10100000352E+00 0. -1.
</event>
<event>
 5   0  0.2413301E-01  0.5951993E+03  0.7818609E-02  0.9915416E-01
        2   -1    0    0  501    0  0.00000000000E+00  0.00000000000E+00  0.12365919577E+04  0.12365919577E+04  0.25500000920E-02 0.  1.
       -2   -1    0    0    0  501  0.00000000000E+00  0.00000000000E+00 -0.71620665795E+02  0.71620665841E+02  0.25500000920E-02 0. -1.
    10030    2    1    2    0    0  0.00000000000E+00  0.00000000000E+00  0.11649712919E+04  0.13082126235E+04  0.59519925859E+03 0.  0.
        4    1    3    3  502    0 -0.23441718993E+03 -0.17642145761E+03  0.47285319611E+03  0.55647794890E+03  0.12699999809E+01 0. -1.
       -4    1    3    3    0  502  0.23441718993E+03  0.17642145761E+03  0.69211809577E+03  0.75173467462E+03  0.12699999809E+01 0.  1.
</event>
<event>
 5   0  0.1439814E-01  0.4762156E+03  0.7818609E-02  0.1020180E+00
       -1   -1    0    0    0  501  0.00000000000E+00  0.00000000000E+00  0.44843618227E+02  0.44843618510E+02  0.50400001928E-02 0.  1.
        1   -1    0    0  501    0  0.00000000000E+00  0.00000000000E+00 -0.12642898128E+04  0.12642898128E+04  0.50400001928E-02 0. -1.
    10030    2    1    2    0    0  0.00000000000E+00  0.00000000000E+00 -0.12194461946E+04  0.13091334314E+04  0.47621562295E+03 0.  0.
        4    1    3    3  502    0 -0.21484586992E+03 -0.16591210564E+02 -0.33127283937E+03  0.39519276701E+03  0.12699999809E+01 0.  1.
       -4    1    3    3    0  502  0.21484586992E+03  0.16591210564E+02 -0.88817335524E+03  0.91394066435E+03  0.12699999809E+01 0. -1.
</event>
<event>
 5   0  0.1448458E-01  0.4973587E+03  0.7818609E-02  0.1014471E+00
        1   -1    0    0  501    0  0.00000000000E+00  0.00000000000E+00  0.12969956750E+04  0.12969956750E+04  0.50400001928E-02 0.  1.
       -1   -1    0    0    0  501  0.00000000000E+00  0.00000000000E+00 -0.47680519960E+02  0.47680520226E+02  0.50400001928E-02 0. -1.
    10030    2    1    2    0    0  0.00000000000E+00  0.00000000000E+00  0.12493151551E+04  0.13446761952E+04  0.49735873715E+03 0.  0.
        5    1    3    3  502    0  0.12625072611E+03  0.12881737048E+03  0.16197908630E+03  0.24247159664E+03  0.46999998093E+01 0. -1.
       -5    1    3    3    0  502 -0.12625072611E+03 -0.12881737048E+03  0.10873360688E+04  0.11022045986E+04  0.46999998093E+01 0.  1.
</event>
<event>
 5   0  0.1529146E-01  0.5053814E+03  0.7818609E-02  0.1012384E+00
        1   -1    0    0  501    0  0.00000000000E+00  0.00000000000E+00  0.22866472298E+03  0.22866472304E+03  0.50400001928E-02 0.  1.
       -1   -1    0    0    0  501  0.00000000000E+00  0.00000000000E+00 -0.27924107009E+03  0.27924107014E+03  0.50400001928E-02 0. -1.
    10030    2    1    2    0    0  0.00000000000E+00  0.00000000000E+00 -0.50576347108E+02  0.50790579318E+03  0.50538136873E+03 0.  0.
        1    1    3    3  502    0  0.19265461108E+02  0.91760847272E+02  0.21053552644E+03  0.23046999589E+03  0.50400001928E-02 0.  1.
       -1    1    3    3    0  502 -0.19265461108E+02 -0.91760847272E+02 -0.26111187355E+03  0.27743579729E+03  0.50400001928E-02 0. -1.
</event>
<event>
 5   0  0.1453602E-01  0.4978307E+03  0.7818609E-02  0.1014347E+00
       -1   -1    0    0    0  501  0.00000000000E+00  0.00000000000E+00  0.10392892666E+03  0.10392892678E+03  0.50400001928E-02 0. -1.
        1   -1    0    0  501    0  0.00000000000E+00  0.00000000000E+00 -0.59616572128E+03  0.59616572130E+03  0.50400001928E-02 0.  1.
    10030    2    1    2    0    0  0.00000000000E+00  0.00000000000E+00 -0.49223679462E+03  0.70009464808E+03  0.49783074864E+03 0.  0.
        2    1    3    3  502    0 -0.30678424233E+02  0.16330754133E+02 -0.59273692345E+03  0.59375493233E+03  0.25500000920E-02 0.  1.
       -2    1    3    3    0  502  0.30678424233E+02 -0.16330754133E+02  0.10050012883E+03  0.10633971575E+03  0.25500000920E-02 0. -1.
</event>
<event>
 5   0  0.2504064E-01  0.5019125E+03  0.7818609E-02  0.1013281E+00
       -2   -1    0    0    0  501  0.00000000000E+00  0.00000000000E+00  0.10527695505E+03  0.10527695508E+03  0.25500000920E-02 0. -1.
        2   -1    0    0  501    0  0.00000000000E+00  0.00000000000E+00 -0.59822235643E+03  0.59822235644E+03  0.25500000920E-02 0.  1.
    10030    2    1    2    0    0  0.00000000000E+00  0.00000000000E+00 -0.49294540138E+03  0.70349931152E+03  0.50191245508E+03 0.  0.
        5    1    3    3  502    0  0.92449909162E+02 -0.23313544813E+03 -0.23581516074E+03  0.34428186550E+03  0.46999998093E+01 0. -1.
       -5    1    3    3    0  502 -0.92449909162E+02  0.23313544813E+03 -0.25713024064E+03  0.35921744602E+03  0.46999998093E+01 0.  1.
</event>
<event>
 5   0  0.2413301E-01  0.5015433E+03  0.7818609E-02  0.1013377E+00
       -2   -1    0    0    0  501  0.00000000000E+00  0.00000000000E+00  0.59696224906E+02  0.59696224960E+02  0.25500000920E-02 0. -1.
        2   -1    0    0  501    0  0.00000000000E+00  0.00000000000E+00 -0.10534405650E+04  0.10534405650E+04  0.25500000920E-02 0.  1.
    10030    2    1    2    0    0  0.00000000000E+00  0.00000000000E+00 -0.99374434013E+03  0.11131367900E+04  0.50154331788E+03 0.  0.
        4    1    3    3  502    0  0.13097404009E+03 -0.14941644649E+03 -0.83641733465E+03  0.85969473900E+03  0.12699999809E+01 0.  1.
       -4    1    3    3    0  502 -0.13097404009E+03  0.14941644649E+03 -0.15732700548E+03  0.25344205100E+03  0.12699999809E+01 0. -1.
</event>
<event>
 5   0  0.1413361E-01  0.4789037E+03  0.7818609E-02  0.1019437E+00
       -1   -1    0    0    0  501  0.00000000000E+00  0.00000000000E+00  0.64249982906E+02  0.64249983104E+02  0.50400001928E-02 0. -1.
        1   -1    0    0  501    0  0.00000000000E+00  0.00000000000E+00 -0.89240788130E+03  0.89240788131E+03  0.50400001928E-02 0.  1.
    10030    2    1    2    0    0  0.00000000000E+00  0.00000000000E+00 -0.82815789839E+03  0.95665786442E+03  0.47890371149E+03 0.  0.
        3    1    3    3  502    0 -0.91315093293E+02  0.16696833063E+03 -0.12377121844E+03  0.22701584617E+03  0.10100000352E+00 0. -1.
       -3    1    3    3    0  502  0.91315093293E+02 -0.16696833063E+03 -0.70438667995E+03  0.72964201825E+03  0.10100000352E+00 0.  1.
</event>
<event>
 5   0  0.9868500E-02  0.5030603E+03  0.7818609E-02  0.1012983E+00
       -4   -1    0    0    0  501  0.00000000000E+00  0.00000000000E+00  0.12062799832E+03  0.12063468356E+03  0.12699999809E+01 0.  1.
        4   -1    0    0  501    0  0.00000000000E+00  0.00000000000E+00 -0.52446173914E+03  0.52446327681E+03  0.12699999809E+01 0. -1.
    10030    2    1    2    0    0  0.00000000000E+00  0.00000000000E+00 -0.40383374082E+03  0.64509796038E+03  0.50306032268E+03 0.  0.
        5    1    3    3  502    0  0.20920809293E+03  0.12462756477E+03 -0.28246293017E+03  0.37297111546E+03  0.46999998093E+01 0.  1.
       -5    1    3    3    0  502 -0.20920809293E+03 -0.12462756477E+03 -0.12137081066E+03  0.27212684492E+03  0.46999998093E+01 0. -1.
</event>
<event>
 5   0  0.2413301E-01  0.4853929E+03  0.7818609E-02  0.1017664E+00
       -2   -1    0    0    0  501  0.00000000000E+00  0.00000000000E+00  0.50682064321E+02  0.50682064385E+02  0.25500000920E-02 0.  1.
        2   -1    0    0  501    0  0.00000000000E+00  0.00000000000E+00 -0.11621775293E+04  0.11621775293E+04  0.25500000920E-02 0. -1.
    10030    2    1    2    0    0  0.00000000000E+00  0.00000000000E+00 -0.11114954649E+04  0.12128595936E+04  0.48539285669E+03 0.  0.
        4    1    3    3  502    0  0.21564907533E+03 -0.10112215553E+03 -0.43935658915E+03  0.49976598459E+03  0.12699999809E+01 0. -1.
       -4    1    3    3    0  502 -0.21564907533E+03  0.10112215553E+03 -0.67213887579E+03  0.71309360905E+03  0.12699999809E+01 0.  1.
</event>
<event>
 5   0  0.1439814E-01  0.5035879E+03  0.7818609E-02  0.1012847E+00
        1   -1    0    0  501    0  0.00000000000E+00  0.00000000000E+00  0.24628445411E+03  0.24628445416E+03  0.50400001928E-02 0.  1.
       -1   -1    0    0    0  501  0.00000000000E+00  0.00000000000E+00 -0.25742674258E+03  0.25742674263E+03  0.50400001928E-02 0. -1.
    10030    2    1    2    0    0  0.00000000000E+00  0.00000000000E+00 -0.11142288472E+02  0.50371119679E+03  0.50358794583E+03 0.  0.
        4    1    3    3  502    0 -0.20503725157E+03  0.14208522655E+03  0.28644036393E+02  0.25109874523E+03  0.12699999809E+01 0. -1.
       -4    1    3    3    0  502  0.20503725157E+03 -0.14208522655E+03 -0.39786324865E+02  0.25261245156E+03  0.12699999809E+01 0.  1.
</event>
<event>
 5   0  0.2511944E-01  0.5200099E+03  0.7818609E-02  0.1008684E+00
        2   -1    0    0  501    0  0.00000000000E+00  0.00000000000E+00  0.17686446944E+04  0.17686446944E+04  0.25500000920E-02 0. -1.
       -2   -1    0    0    0  501  0.00000000000E+00  0.00000000000E+00 -0.38222817280E+02  0.38222817365E+02  0.25500000920E-02 0.  1.
    10030    2    1    2    0    0  0.00000000000E+00  0.00000000000E+00  0.17304218771E+04  0.18068675118E+04  0.52000993478E+03 0.  0.
        1    1    3    3  502    0 -0.90489835677E+02  0.84904715777E+02  0.16591226778E+04  0.16637563767E+04  0.50400001928E-02 0. -1.
       -1    1    3    3    0  502  0.90489835677E+02 -0.84904715777E+02  0.71299199332E+02  0.14311113504E+03  0.50400001928E-02 0.  1.
</event>
<event>
 5   0  0.1439814E-01  0.4820628E+03  0.7818609E-02  0.1018570E+00
        1   -1    0    0  501    0  0.00000000000E+00  0.00000000000E+00  0.15655746706E+03  0.15655746714E+03  0.50400001928E-02 0.  1.
       -1   -1    0    0    0  501  0.00000000000E+00  0.00000000000E+00 -0.37108510409E+03  0.37108510413E+03  0.50400001928E-02 0. -1.
    10030    2    1    2    0    0  0.00000000000E+00  0.00000000000E+00 -0.21452763703E+03  0.52764257127E+03  0.48206283404E+03 0.  0.
        4    1    3    3  502    0  0.25460714303E+01 -0.19176898053E+03  0.52528347135E+02  0.19885337444E+03  0.12699999809E+01 0.  1.
       -4    1    3    3    0  502 -0.25460714303E+01  0.19176898053E+03 -0.26705598416E+03  0.32878919683E+03  0.12699999809E+01 0. -1.
</event>
<event>
 5   0  0.1529146E-01  0.5094618E+03  0.7818609E-02  0.1011338E+00
       -1   -1    0    0    0  501  0.00000000000E+00  0.00000000000E+00  0.13052163383E+03  0.13052163393E+03  0.50400001928E-02 0. -1.
        1   -1    0    0  501    0  0.00000000000E+00  0.00000000000E+00 -0.49714241430E+03  0.49714241433E+03  0.50400001928E-02 0.  1.
    10030    2    1    2    0    0  0.00000000000E+00  0.00000000000E+00 -0.36662078047E+03  0.62766404825E+03  0.50946183448E+03 0.  0.
        1    1    3    3  502    0  0.13674389565E+03  0.15694655925E+03 -0.24235442296E+01  0.20817538051E+03  0.50400001928E-02 0. -1.
       -1    1    3    3    0  502 -0.13674389565E+03 -0.15694655925E+03 -0.36419723624E+03  0.41948866775E+03  0.50400001928E-02 0.  1.
</event>
<event>
 5   0  0.2504064E-01  0.5355615E+03  0.7818609E-02  0.1004892E+00
       -2   -1    0    0    0  501  0.00000000000E+00  0.00000000000E+00  0.15498266383E+03  0.15498266385E+03  0.25500000920E-02 0.  1.
        2   -1    0    0  501    0  0.00000000000E+00  0.00000000000E+00 -0.46267444940E+03  0.46267444941E+03  0.25500000920E-02 0. -1.
    10030    2    1    2    0    0  0.00000000000E+00  0.00000000000E+00 -0.30769178557E+03  0.61765711325E+03  0.53556145739E+03 0.  0.
        5    1    3    3  502    0 -0.18694043753E+03 -0.17269218241E+03 -0.57941670101E+02  0.26105295283E+03  0.46999998093E+01 0. -1.
       -5    1    3    3    0  502  0.18694043753E+03  0.17269218241E+03 -0.24975011547E+03  0.35660416042E+03  0.46999998093E+01 0.  1.
</event>
<event>
 5   0  0.1448458E-01  0.4686073E+03  0.7818609E-02  0.1022314E+00
        1   -1    0    0  501    0  0.00000000000E+00  0.00000000000E+00  0.14203817151E+04  0.14203817151E+04  0.50400001928E-02 0.  1.
       -1   -1    0    0    0  501  0.00000000000E+00  0.00000000000E+00 -0.38650315943E+02  0.38650316272E+02  0.50400001928E-02 0. -1.
    10030    2    1    2    0    0  0.00000000000E+00  0.00000000000E+00  0.13817313991E+04  0.14590320314E+04  0.46860730807E+03 0.  0.
        5    1    3    3  502    0  0.11286216508E+03  0.21793545993E+02  0.55340865813E+02  0.12766177338E+03  0.46999998093E+01 0. -1.
       -5    1    3    3    0  502 -0.11286216508E+03 -0.21793545993E+02  0.13263905333E+04  0.13313702580E+04  0.46999998093E+01 0.  1.
</event>
<event>
 5   0  0.2466034E-01  0.4828767E+03  0.7818609E-02  0.1018348E+00
       -2   -1    0    0    0  501  0.00000000000E+00  0.00000000000E+00  0.44867096648E+02  0.44867096720E+02  0.25500000920E-02 0. -1.
        2   -1    0    0  501    0  0.00000000000E+00  0.00000000000E+00 -0.12992253904E+04  0.12992253904E+04  0.25500000920E-02 0.  1.
    10030    2    1    2    0    0  0.00000000000E+00  0.00000000000E+00 -0.12543582938E+04  0.13440924872E+04  0.48287667664E+03 0.  0.
        3    1    3    3  502    0  0.13756105505E+03  0.10522423575E+03 -0.15894266261E+03  0.23507012540E+03  0.10100000352E+00 0. -1.
       -3    1    3    3    0  502 -0.13756105505E+03 -0.10522423575E+03 -0.10954156312E+04  0.11090223618E+04  0.10100000352E+00 0.  1.
</event>
<event>
 5   0  0.2413301E-01  0.5025305E+03  0.7818609E-02  0.1013121E+00
       -2   -1    0    0    0  501  0.00000000000E+00  0.00000000000E+00  0.36681046309E+03  0.36681046310E+03  0.25500000920E-02 0. -1.
        2   -1    0    0  501    0  0.00000000000E+00  0.00000000000E+00 -0.17211677500E+03  0.17211677502E+03  0.25500000920E-02 0.  1.
    10030    2    1    2    0    0  0.00000000000E+00  0.00000000000E+00  0.19469368809E+03  0.53892723812E+03  0.50253053221E+03 0.  0.
        4    1    3    3  502    0  0.74104912048E+02 -0.64618200884E+02 -0.15062637858E+03  0.17988042889E+03  0.12699999809E+01 0.  1.
       -4    1    3    3    0  502 -0.74104912048E+02  0.64618200884E+02  0.34532006667E+03  0.35904680923E+03  0.12699999809E+01 0. -1.
</event>
<event>
 5   0  0.2466034E-01  0.5024786E+03  0.7818609E-02  0.1013134E+00
       -2   -1    0    0    0  501  0.00000000000E+00  0.00000000000E+00  0.66285301828E+02  0.66285301877E+02  0.25500000920E-02 0. -1.
        2   -1    0    0  501    0  0.00000000000E+00  0.00000000000E+00 -0.95226513973E+03  0.95226513973E+03  0.25500000920E-02 0.  1.
    10030    2    1    2    0    0  0.00000000000E+00  0.00000000000E+00 -0.88597983790E+03  0.10185504416E+04  0.50247858555E+03 0.  0.
        3    1    3    3  502    0 -0.55738426345E+02 -0.23409045936E+03 -0.58938825318E+03  0.63661891153E+03  0.10100000352E+00 0.  1.
       -3    1    3    3    0  502  0.55738426345E+02  0.23409045936E+03 -0.29659158472E+03  0.38193153007E+03  0.10100000352E+00 0. -1.
</event>
<event>
 5   0  0.2511944E-01  0.5087010E+03  0.7818609E-02  0.1011532E+00
       -2   -1    0    0    0  501  0.00000000000E+00  0.00000000000E+00  0.41206543269E+02  0.41206543348E+02  0.25500000920E-02 0.  1.
        2   -1    0    0  501    0  0.00000000000E+00  0.00000000000E+00 -0.15699978382E+04  0.15699978382E+04  0.25500000920E-02 0. -1.
    10030    2    1    2    0    0  0.00000000000E+00  0.00000000000E+00 -0.15287912949E+04  0.16112043815E+04  0.50870102778E+03 0.  0.
        1    1    3    3  502    0  0.17239189279E+03  0.18699221392E+03 -0.77396648809E+03  0.81468348300E+03  0.50400001928E-02 0. -1.
       -1    1    3    3    0  502 -0.17239189279E+03 -0.18699221392E+03 -0.75482480683E+03  0.79652089853E+03  0.50400001928E-02 0.  1.
</event>
<event>
 5   0  0.9868500E-02  0.4920271E+03  0.7818609E-02  0.1015881E+00
        4   -1    0    0  501    0  0.00000000000E+00  0.00000000000E+00  0.18247640589E+03  0.18248082531E+03  0.12699999809E+01 0. -1.
       -4   -1    0    0    0  501  0.00000000000E+00  0.00000000000E+00 -0.33166430007E+03  0.33166673158E+03  0.12699999809E+01 0.  1.
    10030    2    1    2    0    0  0.00000000000E+00  0.00000000000E+00 -0.14918789418E+03  0.51414755689E+03  0.49202711560E+03 0.  0.
        5    1    3    3  502    0 -0.62827611673E+02 -0.10549276492E+03 -0.29730616770E+03  0.32169718617E+03  0.46999998093E+01 0.  1.
       -5    1    3    3    0  502  0.62827611673E+02  0.10549276492E+03  0.14811827352E+03  0.19245037072E+03  0.46999998093E+01 0. -1.
</event>
<event>
 5   0  0.1439814E-01  0.4966207E+03  0.7818609E-02  0.1014665E+00
        1   -1    0    0  501    0  0.00000000000E+00  0.00000000000E+00  0.53059920463E+03  0.53059920466E+03  0.50400001928E-02 0.  1.
       -1   -1    0    0    0  501  0.00000000000E+00  0.00000000000E+00 -0.11620450992E+03  0.11620451003E+03  0.50400001928E-02 0. -1.
    10030    2    1    2    0    0  0.00000000000E+00  0.00000000000E+00  0.41439469471E+03  0.64680371469E+03  0.49662066241E+03 0.  0.
        4    1    3    3  502    0  0.18378224751E+03 -0.14569259967E+03  0.31343887986E+03  0.39146876301E+03  0.12699999809E+01 0.  1.
       -4    1    3    3    0  502 -0.18378224751E+03  0.14569259967E+03  0.10095581485E+03  0.25533495169E+03  0.12699999809E+01 0. -1.
</event>
<event>
 5   0  0.2504064E-01  0.4946206E+03  0.7818609E-02  0.1015193E+00
       -2   -1    0    0    0  501  0.00000000000E+00  0.00000000000E+00  0.17765998975E+03  0.17765998977E+03  0.25500000920E-02 0.  1.
        2   -1    0    0  501    0  0.00000000000E+00  0.00000000000E+00 -0.34426644412E+03  0.34426644413E+03  0.25500000920E-02 0. -1.
    10030    2    1    2    0    0  0.00000000000E+00  0.00000000000E+00 -0.16660645436E+03  0.52192643390E+03  0.49462055332E+03 0.  0.
        5    1    3    3  502    0  0.47471944473E+02  0.11540444585E+03  0.14194923894E+03  0.18905937710E+03  0.46999998093E+01 0.  1.
       -5    1    3    3    0  502 -0.47471944473E+02 -0.11540444585E+03 -0.30855569330E+03  0.33286705680E+03  0.46999998093E+01 0. -1.
</event>
<event>
 5   0  0.1529146E-01  0.5178070E+03  0.7818609E-02  0.1009233E+00
       -1   -1    0    0    0  501  0.00000000000E+00  0.00000000000E+00  0.86522602739E+02  0.86522602886E+02  0.50400001928E-02 0.  1.
        1   -1    0    0  501    0  0.00000000000E+00  0.00000000000E+00 -0.77472264899E+03  0.77472264901E+03  0.50400001928E-02 0. -1.
    10030    2    1    2    0    0  0.00000000000E+00  0.00000000000E+00 -0.68820004625E+03  0.86124525190E+03  0.51780699131E+03 0.  0.
        1    1    3    3  502    0  0.54211043539E+02  0.13392660353E+03 -0.70143234094E+03  0.71615815384E+03  0.50400001928E-02 0. -1.
       -1    1    3    3    0  502 -0.54211043539E+02 -0.13392660353E+03  0.13232294685E+02  0.14508709805E+03  0.50400001928E-02 0.  1.
</event>
<event>
 5   0  0.9868500E-02  0.4924617E+03  0.7818609E-02  0.1015765E+00
        3   -1    0    0  501    0  0.00000000000E+00  0.00000000000E+00  0.27904519539E+03  0.27904521366E+03  0.10100000352E+00 0. -1.
       -3   -1    0    0    0  501  0.00000000000E+00  0.00000000000E+00 -0.21727530257E+03  0.21727532604E+03  0.10100000352E+00 0.  1.
    10030    2    1    2    0    0  0.00000000000E+00  0.00000000000E+00  0.61769892818E+02  0.49632053971E+03  0.49246173301E+03 0.  0.
        1    1    3    3  502    0 -0.15609425708E+02 -0.22911985906E+03  0.12040706299E+03  0.25930180260E+03  0.50400001928E-02 0. -1.
       -1    1    3    3    0  502  0.15609425708E+02  0.22911985906E+03 -0.58637170174E+02  0.23701873711E+03  0.50400001928E-02 0.  1.
</event>
<event>
 5   0  0.1439814E-01  0.4936218E+03  0.7818609E-02  0.1015457E+00
       -1   -1    0    0    0  501  0.00000000000E+00  0.00000000000E+00  0.55508892444E+03  0.55508892446E+03  0.50400001928E-02 0.  1.
        1   -1    0    0  501    0  0.00000000000E+00  0.00000000000E+00 -0.10974027896E+03  0.10974027908E+03  0.50400001928E-02 0. -1.
    10030    2    1    2    0    0  0.00000000000E+00  0.00000000000E+00  0.44534864548E+03  0.66482920354E+03  0.49362177206E+03 0.  0.
        4    1    3    3  502    0  0.19121511376E+02  0.61495236924E+02 -0.98220434449E+02  0.11745706877E+03  0.12699999809E+01 0. -1.
       -4    1    3    3    0  502 -0.19121511376E+02 -0.61495236924E+02  0.54356907993E+03  0.54737213477E+03  0.12699999809E+01 0.  1.
</event>
<event>
 5   0  0.1448458E-01  0.5024500E+03  0.7818609E-02  0.1013141E+00
        1   -1    0    0  501    0  0.00000000000E+00  0.00000000000E+00  0.44940666892E+03  0.44940666895E+03  0.50400001928E-02 0.  1.
       -1   -1    0    0    0  501  0.00000000000E+00  0.00000000000E+00 -0.14043848375E+03  0.14043848384E+03  0.50400001928E-02 0. -1.
    10030    2    1    2    0    0  0.00000000000E+00  0.00000000000E+00  0.30896818517E+03  0.58984515279E+03  0.50244996250E+03 0.  0.
        5    1    3    3  502    0  0.83067355555E+02  0.21659146926E+03  0.41396306927E+02  0.23568579580E+03  0.46999998093E+01 0. -1.
       -5    1    3    3    0  502 -0.83067355555E+02 -0.21659146926E+03  0.26757187824E+03  0.35415935699E+03  0.46999998093E+01 0.  1.
</event>
<event>
 5   0  0.2413301E-01  0.5148462E+03  0.7818609E-02  0.1009975E+00
        2   -1    0    0  501    0  0.00000000000E+00  0.00000000000E+00  0.64678067055E+03  0.64678067056E+03  0.25500000920E-02 0.  1.
       -2   -1    0    0    0  501  0.00000000000E+00  0.00000000000E+00 -0.10245612453E+03  0.10245612457E+03  0.25500000920E-02 0. -1.
    10030    2    1    2    0    0  0.00000000000E+00  0.00000000000E+00  0.54432454602E+03  0.74923679512E+03  0.51484615544E+03 0.  0.
        4    1    3    3  502    0 -0.11284369953E+03  0.83754685229E+02  0.58602883201E+03  0.60264413435E+03  0.12699999809E+01 0.  1.
       -4    1    3    3    0  502  0.11284369953E+03 -0.83754685229E+02 -0.41704285994E+02  0.14659266077E+03  0.12699999809E+01 0. -1.
</event>
<event>
 5   0  0.1529146E-01  0.4940747E+03  0.7818609E-02  0.1015337E+00
        1   -1    0    0  501    0  0.00000000000E+00  0.00000000000E+00  0.73894680843E+03  0.73894680845E+03  0.50400001928E-02 0. -1.
       -1   -1    0    0    0  501  0.00000000000E+00  0.00000000000E+00 -0.82587073930E+02  0.82587074084E+02  0.50400001928E-02 0.  1.
    10030    2    1    2    0    0  0.00000000000E+00  0.00000000000E+00  0.65635973450E+03  0.82153388254E+03  0.49407471001E+03 0.  0.
        1    1    3    3  502    0 -0.12422523499E+03  0.17115771585E+03  0.11588748462E+03  0.24115717244E+03  0.50400001928E-02 0.  1.
       -1    1    3    3    0  502  0.12422523499E+03 -0.17115771585E+03  0.54047224988E+03  0.58037671009E+03  0.50400001928E-02 0. -1.
</event>
<event>
 5   0  0.2488968E-01  0.5023519E+03  0.7818609E-02  0.1013167E+00
       -2   -1    0    0    0  501  0.00000000000E+00  0.00000000000E+00  0.14120997056E+03  0.14120997058E+03  0.25500000920E-02 0. -1.
        2   -1    0    0  501    0  0.00000000000E+00  0.00000000000E+00 -0.44677693353E+03  0.44677693354E+03  0.25500000920E-02 0.  1.
    10030    2    1    2    0    0  0.00000000000E+00  0.00000000000E+00 -0.30556696298E+03  0.58798690412E+03  0.50235189912E+03 0.  0.
        2    1    3    3  502    0 -0.40172259085E+02 -0.22303638251E+03 -0.27955290695E+03  0.35987340290E+03  0.25500000920E-02 0.  1.
       -2    1    3    3    0  502  0.40172259085E+02  0.22303638251E+03 -0.26014056030E+02  0.22811350122E+03  0.25500000920E-02 0. -1.
</event>
<event>
 5   0  0.2504064E-01  0.4989990E+03  0.7818609E-02  0.1014041E+00
       -2   -1    0    0    0  501  0.00000000000E+00  0.00000000000E+00  0.20649116139E+03  0.20649116140E+03  0.25500000920E-02 0.  1.
        2   -1    0    0  501    0  0.00000000000E+00  0.00000000000E+00 -0.30146569524E+03  0.30146569525E+03  0.25500000920E-02 0. -1.
    10030    2    1    2    0    0  0.00000000000E+00  0.00000000000E+00 -0.94974533853E+02  0.50795685665E+03  0.49899900415E+03 0.  0.
        5    1    3    3  502    0  0.17908311882E+03  0.35091236296E+02 -0.22061613377E+03  0.28634895982E+03  0.46999998093E+01 0. -1.
       -5    1    3    3    0  502 -0.17908311882E+03 -0.35091236296E+02  0.12564159991E+03  0.22160789683E+03  0.46999998093E+01 0.  1.
</event>
<event>
 5   0  0.1413361E-01  0.5054887E+03  0.7818609E-02  0.1012356E+00
        1   -1    0    0  501    0  0.00000000000E+00  0.00000000000E+00  0.32848880323E+03  0.32848880327E+03  0.50400001928E-02 0.  1.
       -1   -1    0    0    0  501  0.00000000000E+00  0.00000000000E+00 -0.19446542970E+03  0.19446542976E+03  0.50400001928E-02 0. -1.
    10030    2    1    2    0    0  0.00000000000E+00  0.00000000000E+00  0.13402337354E+03  0.52295423304E+03  0.50548873894E+03 0.  0.
        3    1    3    3  502    0 -0.22738049636E+03 -0.59524257765E+02 -0.29121931590E+02  0.23683987098E+03  0.10100000352E+00 0. -1.
       -3    1    3    3    0  502  0.22738049636E+03  0.59524257765E+02  0.16314530513E+03  0.28611436205E+03  0.10100000352E+00 0.  1.
</event>
<event>
 5   0  0.1448458E-01  0.4993396E+03  0.7818609E-02  0.1013951E+00
        1   -1    0    0  501    0  0.00000000000E+00  0.00000000000E+00  0.37576983904E+03  0.37576983908E+03  0.50400001928E-02 0.  1.
       -1   -1    0    0    0  501  0.00000000000E+00  0.00000000000E+00 -0.16588615763E+03  0.16588615771E+03  0.50400001928E-02 0. -1.
    10030    2    1    2    0    0  0.00000000000E+00  0.00000000000E+00  0.20988368141E+03  0.54165599678E+03  0.49933962303E+03 0.  0.
        5    1    3    3  502    0 -0.61520476810E+02 -0.25191765727E+02 -0.15605938363E+03  0.16969388718E+03  0.46999998093E+01 0. -1.
       -5    1    3    3    0  502  0.61520476810E+02  0.25191765727E+02  0.36594306505E+03  0.37196210961E+03  0.46999998093E+01 0.  1.
</event>
<event>
 5   0  0.1413361E-01  0.5034304E+03  0.7818609E-02  0.1012887E+00
        1   -1    0    0  501    0  0.00000000000E+00  0.00000000000E+00  0.82939940106E+02  0.82939940259E+02  0.50400001928E-02 0.  1.
       -1   -1    0    0    0  501  0.00000000000E+00  0.00000000000E+00 -0.76393290770E+03  0.76393290772E+03  0.50400001928E-02 0. -1.
    10030    2    1    2    0    0  0.00000000000E+00  0.00000000000E+00 -0.68099296760E+03  0.84687284798E+03  0.50343043087E+03 0.  0.
        3    1    3    3  502    0  0.18797643253E+03 -0.13133765763E+03 -0.51512047449E+03  0.56385621654E+03  0.10100000352E+00 0. -1.
       -3    1    3    3    0  502 -0.18797643253E+03  0.13133765763E+03 -0.16587249311E+03  0.28301663143E+03  0.10100000352E+00 0.  1.
</event>
<event>
 5   0  0.2488968E-01  0.4982859E+03  0.7818609E-02  0.1014227E+00
        2   -1    0    0  501    0  0.00000000000E+00  0.00000000000E+00  0.14931783886E+04  0.14931783886E+04  0.25500000920E-02 0.  1.
       -2   -1    0    0    0  501  0.00000000000E+00  0.00000000000E+00 -0.41570522260E+02  0.41570522339E+02  0.25500000920E-02 0. -1.
    10030    2    1    2    0    0  0.00000000000E+00  0.00000000000E+00  0.14516078664E+04  0.15347489110E+04  0.49828588383E+03 0.  0.
        2    1    3    3  502    0 -0.14677554670E+03  0.19672445969E+03  0.59409299900E+03  0.64279861980E+03  0.25500000920E-02 0. -1.
       -2    1    3    3    0  502  0.14677554670E+03 -0.19672445969E+03  0.85751486738E+03  0.89195029118E+03  0.25500000920E-02 0.  1.
</event>
<event>
 5   0  0.1439814E-01  0.5344986E+03  0.7818609E-02  0.1005147E+00
        1   -1    0    0  501    0  0.00000000000E+00  0.00000000000E+00  0.40099407655E+03  0.40099407658E+03  0.50400001928E-02 0.  1.
       -1   -1    0    0    0  501  0.00000000000E+00  0.00000000000E+00 -0.17811284848E+03  0.17811284855E+03  0.50400001928E-02 0. -1.
    10030    2    1    2    0    0  0.00000000000E+00  0.00000000000E+00  0.22288122807E+03  0.57910692513E+03  0.53449863322E+03 0.  0.
        4    1    3    3  502    0  0.20583582678E+03  0.43998124299E+01  0.29605133048E+03  0.36060469924E+03  0.12699999809E+01 0.  1.
       -4    1    3    3    0  502 -0.20583582678E+03 -0.43998124299E+01 -0.73170102410E+02  0.21850222589E+03  0.12699999809E+01 0. -1.
</event>
<event>
 5   0  0.2466034E-01  0.5656018E+03  0.7818609E-02  0.9979459E-01
       -2   -1    0    0    0  501  0.00000000000E+00  0.00000000000E+00  0.40089279325E+02  0.40089279406E+02  0.25500000920E-02 0. -1.
        2   -1    0    0  501    0  0.00000000000E+00  0.00000000000E+00 -0.19949561800E+04  0.19949561800E+04  0.25500000920E-02 0.  1.
    10030    2    1    2    0    0  0.00000000000E+00  0.00000000000E+00 -0.19548669007E+04  0.20350454594E+04  0.56560182329E+03 0.  0.
        3    1    3    3  502    0 -0.13851371715E+03  0.23823327684E+03 -0.74887571629E+03  0.79796991966E+03  0.10100000352E+00 0.  1.
       -3    1    3    3    0  502  0.13851371715E+03 -0.23823327684E+03 -0.12059911844E+04  0.12370755398E+04  0.10100000352E+00 0. -1.
</event>
<event>
 5   0  0.2504064E-01  0.4812797E+03  0.7818609E-02  0.1018784E+00
        2   -1    0    0  501    0  0.00000000000E+00  0.00000000000E+00  0.37612520947E+03  0.37612520948E+03  0.25500000920E-02 0.  1.
       -2   -1    0    0    0  501  0.00000000000E+00  0.00000000000E+00 -0.15395814720E+03  0.15395814722E+03  0.25500000920E-02 0. -1.
    10030    2    1    2    0    0  0.00000000000E+00  0.00000000000E+00  0.22216706228E+03  0.53008335670E+03  0.48127971232E+03 0.  0.
        5    1    3    3  502    0 -0.94508344104E+02 -0.52946709056E+02 -0.12552681635E+03  0.16587420754E+03  0.46999998093E+01 0. -1.
       -5    1    3    3    0  502  0.94508344104E+02  0.52946709056E+02  0.34769387862E+03  0.36420914917E+03  0.46999998093E+01 0.  1.
</event>
<event>
 5   0  0.2511944E-01  0.4716669E+03  0.7818609E-02  0.1021451E+00
       -2   -1    0    0    0  501  0.00000000000E+00  0.00000000000E+00  0.20685239049E+03  0.20685239051E+03  0.25500000920E-02 0. -1.
        2   -1    0    0  501    0  0.00000000000E+00  0.00000000000E+00 -0.26887493975E+03  0.26887493976E+03  0.25500000920E-02 0.  1.
    10030    2    1    2    0    0  0.00000000000E+00  0.00000000000E+00 -0.62022549256E+02  0.47572733027E+03  0.47166693349E+03 0.  0.
        1    1    3    3  502    0 -0.72467990848E+02 -0.14511559149E+03 -0.20367870415E+03  0.26037503556E+03  0.50400001928E-02 0.  1.
       -1    1    3    3    0  502  0.72467990848E+02  0.14511559149E+03  0.14165615489E+03  0.21535229471E+03  0.50400001928E-02 0. -1.
</event>
<event>
 5   0  0.1439814E-01  0.4600924E+03  0.7818609E-02  0.1024754E+00
        1   -1    0    0  501    0  0.00000000000E+00  0.00000000000E+00  0.45181985085E+03  0.45181985088E+03  0.50400001928E-02 0.  1.
       -1   -1    0    0    0  501  0.00000000000E+00  0.00000000000E+00 -0.11712912378E+03  0.11712912389E+03  0.50400001928E-02 0. -1.
    10030    2    1    2    0    0  0.00000000000E+00  0.00000000000E+00  0.33469072707E+03  0.56894897477E+03  0.46009243974E+03 0.  0.
        4    1    3    3  502    0 -0.18775170664E+02 -0.22839631297E+03  0.14254341909E+03  0.26988446053E+03  0.12699999809E+01 0.  1.
       -4    1    3    3    0  502  0.18775170664E+02  0.22839631297E+03  0.19214730798E+03  0.29906451423E+03  0.12699999809E+01 0. -1.
</event>
<event>
 5   0  0.2511944E-01  0.4918075E+03  0.7818609E-02  0.1015940E+00
        2   -1    0    0  501    0  0.00000000000E+00  0.00000000000E+00  0.73964226361E+03  0.73964226362E+03  0.25500000920E-02 0. -1.
       -2   -1    0    0    0  501  0.00000000000E+00  0.00000000000E+00 -0.81753928010E+02  0.81753928050E+02  0.25500000920E-02 0.  1.
    10030    2    1    2    0    0  0.00000000000E+00  0.00000000000E+00  0.65788833560E+03  0.82139619167E+03  0.49180752492E+03 0.  0.
        1    1    3    3  502    0  0.40385794753E+02  0.51473630782E+02  0.72483891567E+03  0.72778568328E+03  0.50400001928E-02 0. -1.
       -1    1    3    3    0  502 -0.40385794753E+02 -0.51473630782E+02 -0.66950580071E+02  0.93610508390E+02  0.50400001928E-02 0.  1.
</event>
<event>
 5   0  0.1439814E-01  0.5003460E+03  0.7818609E-02  0.1013689E+00
       -1   -1    0    0    0  501  0.00000000000E+00  0.00000000000E+00  0.38619104780E+03  0.38619104783E+03  0.50400001928E-02 0. -1.
        1   -1    0    0  501    0  0.00000000000E+00  0.00000000000E+00 -0.16206106421E+03  0.16206106429E+03  0.50400001928E-02 0.  1.
    10030    2    1    2    0    0  0.00000000000E+00  0.00000000000E+00  0.22412998358E+03  0.54825211212E+03  0.50034600918E+03 0.  0.
        4    1    3    3  502    0  0.68557979234E+02 -0.42752297473E+02 -0.14736767463E+03  0.16806784310E+03  0.12699999809E+01 0.  1.
       -4    1    3    3    0  502 -0.68557979234E+02  0.42752297473E+02  0.37149765822E+03  0.38018426903E+03  0.12699999809E+01 0. -1.
</event>
<event>
 5   0  0.2413301E-01  0.4964245E+03  0.7818609E-02  0.1014716E+00
       -2   -1    0    0    0  501  0.00000000000E+00  0.00000000000E+00  0.26521558592E+03  0.26521558593E+03  0.25500000920E-02 0.  1.
        2   -1    0    0  501    0  0.00000000000E+00  0.00000000000E+00 -0.23229904325E+03  0.23229904326E+03  0.25500000920E-02 0. -1.
    10030    2    1    2    0    0  0.00000000000E+00  0.00000000000E+00  0.32916542669E+02  0.49751462919E+03  0.49642452344E+03 0.  0.
        4    1    3    3  502    0  0.12257896217E+03  0.32007070638E+02 -0.19745283298E+03  0.23460453681E+03  0.12699999809E+01 0. -1.
       -4    1    3    3    0  502 -0.12257896217E+03 -0.32007070638E+02  0.23036937565E+03  0.26291009238E+03  0.12699999809E+01 0.  1.
</event>
<event>
 5   0  0.1529146E-01  0.4948111E+03  0.7818609E-02  0.1015142E+00
       -1   -1    0    0    0  501  0.00000000000E+00  0.00000000000E+00  0.11996269375E+03  0.11996269386E+03  0.50400001928E-02 0.  1.
        1   -1    0    0  501    0  0.00000000000E+00  0.00000000000E+00 -0.51023784493E+03  0.51023784495E+03  0.50400001928E-02 0. -1.
    10030    2    1    2    0    0  0.00000000000E+00  0.00000000000E+00 -0.39027515118E+03  0.63020053881E+03  0.49481110082E+03 0.  0.
        1    1    3    3  502    0 -0.65250159734E+02  0.25644437149E+02 -0.49732159457E+03  0.50223897594E+03  0.50400001928E-02 0. -1.
       -1    1    3    3    0  502  0.65250159734E+02 -0.25644437149E+02  0.10704644340E+03  0.12796156287E+03  0.50400001928E-02 0.  1.
</event>
<event>
 5   0  0.2504064E-01  0.5029594E+03  0.7818609E-02  0.1013009E+00
       -2   -1    0    0    0  501  0.00000000000E+00  0.00000000000E+00  0.47487342234E+02  0.47487342303E+02  0.25500000920E-02 0. -1.
        2   -1    0    0  501    0  0.00000000000E+00  0.00000000000E+00 -0.13317661116E+04  0.13317661116E+04  0.25500000920E-02 0.  1.
    10030    2    1    2    0    0  0.00000000000E+00  0.00000000000E+00 -0.12842787694E+04  0.13792534539E+04  0.50295937477E+03 0.  0.
        5    1    3    3  502    0  0.10946816840E+03  0.10211577814E+03 -0.11961132986E+04  0.12054542817E+04  0.46999998093E+01 0.  1.
       -5    1    3    3    0  502 -0.10946816840E+03 -0.10211577814E+03 -0.88165470709E+02  0.17379917221E+03  0.46999998093E+01 0. -1.
</event>
<event>
 5   0  0.2504064E-01  0.4923335E+03  0.7818609E-02  0.1015800E+00
        2   -1    0    0  501    0  0.00000000000E+00  0.00000000000E+00  0.74046296717E+03  0.74046296718E+03  0.25500000920E-02 0.  1.
       -2   -1    0    0    0  501  0.00000000000E+00  0.00000000000E+00 -0.81838075430E+02  0.81838075470E+02  0.25500000920E-02 0. -1.
    10030    2    1    2    0    0  0.00000000000E+00  0.00000000000E+00  0.65862489174E+03  0.82230104265E+03  0.49233348121E+03 0.  0.
        5    1    3    3  502    0  0.78692818927E+02  0.10972391093E+03 -0.14378276863E+02  0.13587023672E+03  0.46999998093E+01 0. -1.
       -5    1    3    3    0  502 -0.78692818927E+02 -0.10972391093E+03  0.67300316861E+03  0.68643080593E+03  0.46999998093E+01 0.  1.
</event>
<event>
 5   0  0.2488968E-01  0.4288773E+03  0.7818609E-02  0.1034215E+00
        2   -1    0    0  501    0  0.00000000000E+00  0.00000000000E+00  0.25239215675E+03  0.25239215676E+03  0.25500000920E-02 0. -1.
       -2   -1    0    0    0  501  0.00000000000E+00  0.00000000000E+00 -0.18219240281E+03  0.18219240283E+03  0.25500000920E-02 0.  1.
    10030    2    1    2    0    0  0.00000000000E+00  0.00000000000E+00  0.70199753939E+02  0.43458455959E+03  0.42887729478E+03 0.  0.
        2    1    3    3  502    0  0.16594680408E+03  0.80984810582E+02 -0.75378763559E+02  0.19944633196E+03  0.25500000920E-02 0.  1.
       -2    1    3    3    0  502 -0.16594680408E+03 -0.80984810582E+02  0.14557851750E+03  0.23513822763E+03  0.25500000920E-02 0. -1.
</event>
<event>
 5   0  0.2488968E-01  0.4987710E+03  0.7818609E-02  0.1014100E+00
        2   -1    0    0  501    0  0.00000000000E+00  0.00000000000E+00  0.17116842087E+03  0.17116842089E+03  0.25500000920E-02 0.  1.
       -2   -1    0    0    0  501  0.00000000000E+00  0.00000000000E+00 -0.36334456701E+03  0.36334456702E+03  0.25500000920E-02 0. -1.
    10030    2    1    2    0    0  0.00000000000E+00  0.00000000000E+00 -0.19217614613E+03  0.53451298791E+03  0.49877095255E+03 0.  0.
        2    1    3    3  502    0 -0.10688248645E+03  0.36122698666E+02 -0.33443166732E+03  0.35294936660E+03  0.25500000920E-02 0. -1.
       -2    1    3    3    0  502  0.10688248645E+03 -0.36122698666E+02  0.14225552119E+03  0.18156362131E+03  0.25500000920E-02 0.  1.
</event>
<event>
 5   0  0.2511944E-01  0.5166623E+03  0.7818609E-02  0.1009519E+00
       -2   -1    0    0    0  501  0.00000000000E+00  0.00000000000E+00  0.81892375313E+02  0.81892375353E+02  0.25500000920E-02 0.  1.
        2   -1    0    0  501    0  0.00000000000E+00  0.00000000000E+00 -0.81491066841E+03  0.81491066842E+03  0.25500000920E-02 0. -1.
    10030    2    1    2    0    0  0.00000000000E+00  0.00000000000E+00 -0.73301829310E+03  0.89680304377E+03  0.51666225070E+03 0.  0.
        1    1    3    3  502    0 -0.25777478820E+03  0.80812553891E+01 -0.34065722514E+03  0.42727098332E+03  0.50400001928E-02 0.  1.
       -1    1    3    3    0  502  0.25777478820E+03 -0.80812553891E+01 -0.39236106796E+03  0.46953206045E+03  0.50400001928E-02 0. -1.
</event>
<event>
 5   0  0.1413361E-01  0.4946840E+03  0.7818609E-02  0.1015176E+00
        1   -1    0    0  501    0  0.00000000000E+00  0.00000000000E+00  0.11442267449E+04  0.11442267449E+04  0.50400001928E-02 0.  1.
       -1   -1    0    0    0  501  0.00000000000E+00  0.00000000000E+00 -0.53466723985E+02  0.53466724222E+02  0.50400001928E-02 0. -1.
    10030    2    1    2    0    0  0.00000000000E+00  0.00000000000E+00  0.10907600209E+04  0.11976934691E+04  0.49468396252E+03 0.  0.
        3    1    3    3  502    0 -0.79113494884E+02 -0.21789800669E+03  0.33655070235E+03  0.40866229560E+03  0.10100000352E+00 0. -1.
       -3    1    3    3    0  502  0.79113494884E+02  0.21789800669E+03  0.75420931857E+03  0.78903117354E+03  0.10100000352E+00 0.  1.
</event>
<event>
 5   0  0.1413361E-01  0.4972219E+03  0.7818609E-02  0.1014507E+00
       -1   -1    0    0    0  501  0.00000000000E+00  0.00000000000E+00  0.48672375567E+02  0.48672375828E+02  0.50400001928E-02 0.  1.
        1   -1    0    0  501    0  0.00000000000E+00  0.00000000000E+00 -0.12698662296E+04  0.12698662296E+04  0.50400001928E-02 0. -1.
    10030    2    1    2    0    0  0.00000000000E+00  0.00000000000E+00 -0.12211938540E+04  0.13185386054E+04  0.49722190710E+03 0.  0.
        3    1    3    3  502    0  0.15919022785E+03  0.69394485801E+02 -0.10823680164E+04  0.10962105894E+04  0.10100000352E+00 0. -1.
       -3    1    3    3    0  502 -0.15919022785E+03 -0.69394485801E+02 -0.13882583767E+03  0.22232801602E+03  0.10100000352E+00 0.  1.
</event>
<event>
 5   0  0.1448458E-01  0.4953136E+03  0.7818609E-02  0.1015009E+00
        1   -1    0    0  501    0  0.00000000000E+00  0.00000000000E+00  0.56626959385E+03  0.56626959387E+03  0.50400001928E-02 0.  1.
       -1   -1    0    0    0  501  0.00000000000E+00  0.00000000000E+00 -0.10831219275E+03  0.10831219287E+03  0.50400001928E-02 0. -1.
    10030    2    1    2    0    0  0.00000000000E+00  0.00000000000E+00  0.45795740110E+03  0.67458178674E+03  0.49531364385E+03 0.  0.
        5    1    3    3  502    0 -0.16388429828E+02 -0.14113066845E+03 -0.47212097021E+02  0.14979158291E+03  0.46999998093E+01 0. -1.
       -5    1    3    3    0  502  0.16388429828E+02  0.14113066845E+03  0.50516949812E+03  0.52479020383E+03  0.46999998093E+01 0.  1.
</event>
<event>
 5   0  0.2466034E-01  0.4941592E+03  0.7818609E-02  0.1015315E+00
       -2   -1    0    0    0  501  0.00000000000E+00  0.00000000000E+00  0.35753611561E+02  0.35753611652E+02  0.25500000920E-02 0. -1.
        2   -1    0    0  501    0  0.00000000000E+00  0.00000000000E+00 -0.17074728428E+04  0.17074728428E+04  0.25500000920E-02 0.  1.
    10030    2    1    2    0    0  0.00000000000E+00  0.00000000000E+00 -0.16717192312E+04  0.17432264544E+04  0.49415916809E+03 0.  0.
        3    1    3    3  502    0 -0.15393568891E+03 -0.14324839738E+02 -0.15157647437E+04  0.15236286181E+04  0.10100000352E+00 0.  1.
       -3    1    3    3    0  502  0.15393568891E+03  0.14324839738E+02 -0.15595448748E+03  0.21959783633E+03  0.10100000352E+00 0. -1.
</event>
<event>
 5   0  0.9868500E-02  0.5489075E+03  0.7818609E-02  0.1001747E+00
        3   -1    0    0  501    0  0.00000000000E+00  0.00000000000E+00  0.18193742151E+03  0.18193744955E+03  0.10100000352E+00 0. -1.
       -3   -1    0    0    0  501  0.00000000000E+00  0.00000000000E+00 -0.41401518402E+03  0.41401519634E+03  0.10100000352E+00 0.  1.
    10030    2    1    2    0    0  0.00000000000E+00  0.00000000000E+00 -0.23207776250E+03  0.59595264589E+03  0.54890752253E+03 0.  0.
        5    1    3    3  502    0  0.24044892530E+02  0.38758271495E+02  0.17774948808E+03  0.18356832782E+03  0.46999998093E+01 0. -1.
       -5    1    3    3    0  502 -0.24044892530E+02 -0.38758271495E+02 -0.40982725059E+03  0.41238431807E+03  0.46999998093E+01 0.  1.
</event>
<event>
 5   0  0.1439814E-01  0.4979131E+03  0.7818609E-02  0.1014325E+00
        1   -1    0    0  501    0  0.00000000000E+00  0.00000000000E+00  0.55900127278E+03  0.55900127280E+03  0.50400001928E-02 0.  1.
       -1   -1    0    0    0  501  0.00000000000E+00  0.00000000000E+00 -0.11087516055E+03  0.11087516066E+03  0.50400001928E-02 0. -1.
    10030    2    1    2    0    0  0.00000000000E+00  0.00000000000E+00  0.44812611223E+03  0.66987643346E+03  0.49791306836E+03 0.  0.
        4    1    3    3  502    0  0.10638638874E+02 -0.88459770581E+02 -0.88686397463E+02  0.12571874022E+03  0.12699999809E+01 0. -1.
       -4    1    3    3    0  502 -0.10638638874E+02  0.88459770581E+02  0.53681250969E+03  0.54415769324E+03  0.12699999809E+01 0.  1.
</event>
<event>
 5   0  0.2488968E-01  0.5031734E+03  0.7818609E-02  0.1012954E+00
       -2   -1    0    0    0  501  0.00000000000E+00  0.00000000000E+00  0.39420630232E+02  0.39420630314E+02  0.25500000920E-02 0.  1.
        2   -1    0    0  501    0  0.00000000000E+00  0.00000000000E+00 -0.16056535525E+04  0.16056535525E+04  0.25500000920E-02 0. -1.
    10030    2    1    2    0    0  0.00000000000E+00  0.00000000000E+00 -0.15662329223E+04  0.16450741829E+04  0.50317342952E+03 0.  0.
        2    1    3    3  502    0  0.15551764189E+03  0.13786219476E+03 -0.12466815067E+04  0.12638854777E+04  0.25500000920E-02 0. -1.
       -2    1    3    3    0  502 -0.15551764189E+03 -0.13786219476E+03 -0.31955141560E+03  0.38118870511E+03  0.25500000920E-02 0.  1.
</event>
<event>
 5   0  0.1439814E-01  0.5174423E+03  0.7818609E-02  0.1009324E+00
       -1   -1    0    0    0  501  0.00000000000E+00  0.00000000000E+00  0.10202290124E+03  0.10202290136E+03  0.50400001928E-02 0.  1.
        1   -1    0    0  501    0  0.00000000000E+00  0.00000000000E+00 -0.65609430352E+03  0.65609430354E+03  0.50400001928E-02 0. -1.
    10030    2    1    2    0    0  0.00000000000E+00  0.00000000000E+00 -0.55407140228E+03  0.75811720490E+03  0.51744234223E+03 0.  0.
        4    1    3    3  502    0 -0.17107494810E+03 -0.19324351166E+03 -0.30346236451E+03  0.39837257967E+03  0.12699999809E+01 0.  1.
       -4    1    3    3    0  502  0.17107494810E+03  0.19324351166E+03 -0.25060903777E+03  0.35974462522E+03  0.12699999809E+01 0. -1.
</event>
<event>
 5   0  0.1529146E-01  0.5034242E+03  0.7818609E-02  0.1012889E+00
       -1   -1    0    0    0  501  0.00000000000E+00  0.00000000000E+00  0.47092590819E+02  0.47092591088E+02  0.50400001928E-02 0. -1.
        1   -1    0    0  501    0  0.00000000000E+00  0.00000000000E+00 -0.13454130929E+04  0.13454130929E+04  0.50400001928E-02 0.  1.
    10030    2    1    2    0    0  0.00000000000E+00  0.00000000000E+00 -0.12983205020E+04  0.13925056840E+04  0.50342422849E+03 0.  0.
        1    1    3    3  502    0  0.14827336856E+02  0.15882959608E+03 -0.11877435940E+04  0.11984079170E+04  0.50400001928E-02 0.  1.
       -1    1    3    3    0  502 -0.14827336856E+02 -0.15882959608E+03 -0.11057690806E+03  0.19409776694E+03  0.50400001928E-02 0. -1.
</event>
<event>
 5   0  0.1453602E-01  0.5033104E+03  0.7818609E-02  0.1012918E+00
        1   -1    0    0  501    0  0.00000000000E+00  0.00000000000E+00  0.55358838471E+03  0.55358838473E+03  0.50400001928E-02 0.  1.
       -1   -1    0    0    0  501  0.00000000000E+00  0.00000000000E+00 -0.11439966901E+03  0.11439966912E+03  0.50400001928E-02 0. -1.
    10030    2    1    2    0    0  0.00000000000E+00  0.00000000000E+00  0.43918871570E+03  0.66798805386E+03  0.50331035365E+03 0.  0.
        2    1    3    3  502    0 -0.22903937372E+03  0.90717044743E+02  0.28780866798E+03  0.37884356441E+03  0.25500000920E-02 0.  1.
       -2    1    3    3    0  502  0.22903937372E+03 -0.90717044743E+02  0.15138004772E+03  0.28914448945E+03  0.25500000920E-02 0. -1.
</event>
<event>
 5   0  0.1413361E-01  0.4957893E+03  0.7818609E-02  0.1014884E+00
        1   -1    0    0  501    0  0.00000000000E+00  0.00000000000E+00  0.64451232536E+03  0.64451232538E+03  0.50400001928E-02 0. -1.
       -1   -1    0    0    0  501  0.00000000000E+00  0.00000000000E+00 -0.95346143966E+02  0.95346144099E+02  0.50400001928E-02 0.  1.
    10030    2    1    2    0    0  0.00000000000E+00  0.00000000000E+00  0.54916618140E+03  0.73985846948E+03  0.49578933033E+03 0.  0.
        3    1    3    3  502    0 -0.14303245803E+03 -0.10745451493E+03  0.18505257255E+02  0.17985330572E+03  0.10100000352E+00 0.  1.
       -3    1    3    3    0  502  0.14303245803E+03  0.10745451493E+03  0.53066092414E+03  0.56000516376E+03  0.10100000352E+00 0. -1.
</event>
<event>
 5   0  0.2413301E-01  0.5010463E+03  0.7818609E-02  0.1013506E+00
       -2   -1    0    0    0  501  0.00000000000E+00  0.00000000000E+00  0.17145030069E+03  0.17145030071E+03  0.25500000920E-02 0.  1.
        2   -1    0    0  501    0  0.00000000000E+00  0.00000000000E+00 -0.36606432597E+03  0.36606432598E+03  0.25500000920E-02 0. -1.
    10030    2    1    2    0    0  0.00000000000E+00  0.00000000000E+00 -0.19461402528E+03  0.53751462669E+03  0.50104626040E+03 0.  0.
        4    1    3    3  502    0  0.15154846562E+03 -0.11631263524E+03 -0.27116648110E+03  0.33170535105E+03  0.12699999809E+01 0. -1.
       -4    1    3    3    0  502 -0.15154846562E+03  0.11631263524E+03  0.76552455811E+02  0.20580927563E+03  0.12699999809E+01 0.  1.
</event>
<event>
 5   0  0.2413301E-01  0.5027651E+03  0.7818609E-02  0.1013060E+00
        2   -1    0    0  501    0  0.00000000000E+00  0.00000000000E+00  0.51948945772E+03  0.51948945773E+03  0.25500000920E-02 0. -1.
       -2   -1    0    0    0  501  0.00000000000E+00  0.00000000000E+00 -0.12164477879E+03  0.12164477882E+03  0.25500000920E-02 0.  1.
    10030    2    1    2    0    0  0.00000000000E+00  0.00000000000E+00  0.39784467893E+03  0.64113423655E+03  0.50276507508E+03 0.  0.
        4    1    3    3  502    0 -0.13312420578E+02  0.24343029970E+03  0.27707589416E+03  0.36906394484E+03  0.12699999809E+01 0.  1.
       -4    1    3    3    0  502  0.13312420578E+02 -0.24343029970E+03  0.12076878477E+03  0.27207029171E+03  0.12699999809E+01 0. -1.
</event>
<event>
 5   0  0.1453602E-01  0.5056643E+03  0.7818609E-02  0.1012311E+00
       -1   -1    0    0    0  501  0.00000000000E+00  0.00000000000E+00  0.12391930354E+03  0.12391930365E+03  0.50400001928E-02 0.  1.
        1   -1    0    0  501    0  0.00000000000E+00  0.00000000000E+00 -0.51585264105E+03  0.51585264108E+03  0.50400001928E-02 0. -1.
    10030    2    1    2    0    0  0.00000000000E+00  0.00000000000E+00 -0.39193333751E+03  0.63977194473E+03  0.50566431573E+03 0.  0.
        2    1    3    3  502    0 -0.17706704717E+03  0.18045916865E+03 -0.19290671551E+03  0.31801140175E+03  0.25500000920E-02 0. -1.
       -2    1    3    3    0  502  0.17706704717E+03 -0.18045916865E+03 -0.19902662200E+03  0.32176054298E+03  0.25500000920E-02 0.  1.
</event>
<event>
 5   0  0.2413301E-01  0.5096914E+03  0.7818609E-02  0.1011280E+00
        2   -1    0    0  501    0  0.00000000000E+00  0.00000000000E+00  0.56016853519E+03  0.56016853519E+03  0.25500000920E-02 0.  1.
       -2   -1    0    0    0  501  0.00000000000E+00  0.00000000000E+00 -0.11594070167E+03  0.11594070170E+03  0.25500000920E-02 0. -1.
    10030    2    1    2    0    0  0.00000000000E+00  0.00000000000E+00  0.44422783352E+03  0.67610923689E+03  0.50969140874E+03 0.  0.
        4    1    3    3  502    0  0.86899758616E+02 -0.23113547634E+03  0.13853825043E+03  0.28314243095E+03  0.12699999809E+01 0.  1.
       -4    1    3    3    0  502 -0.86899758616E+02  0.23113547634E+03  0.30568958308E+03  0.39296680595E+03  0.12699999809E+01 0. -1.
</event>
<event>
 5   0  0.2511944E-01  0.4991606E+03  0.7818609E-02  0.1013998E+00
        2   -1    0    0  501    0  0.00000000000E+00  0.00000000000E+00  0.49981082951E+03  0.49981082952E+03  0.25500000920E-02 0.  1.
       -2   -1    0    0    0  501  0.00000000000E+00  0.00000000000E+00 -0.12462779887E+03  0.12462779889E+03  0.25500000920E-02 0. -1.
    10030    2    1    2    0    0  0.00000000000E+00  0.00000000000E+00  0.37518303064E+03  0.62443862841E+03  0.49916058956E+03 0.  0.
        1    1    3    3  502    0  0.83899044442E+01 -0.42910452462E+02  0.49498247114E+03  0.49690979482E+03  0.50400001928E-02 0.  1.
       -1    1    3    3    0  502 -0.83899044442E+01  0.42910452462E+02 -0.11979944050E+03  0.12752883359E+03  0.50400001928E-02 0. -1.
</event>
<event>
 5   0  0.9868500E-02  0.4903645E+03  0.7818609E-02  0.1016325E+00
        3   -1    0    0  501    0  0.00000000000E+00  0.00000000000E+00  0.39888871912E+02  0.39888999780E+02  0.10100000352E+00 0.  1.
       -3   -1    0    0    0  501  0.00000000000E+00  0.00000000000E+00 -0.15070429335E+04  0.15070429369E+04  0.10100000352E+00 0. -1.
    10030    2    1    2    0    0  0.00000000000E+00  0.00000000000E+00 -0.14671540616E+04  0.15469319367E+04  0.49036453404E+03 0.  0.
        4    1    3    3  502    0  0.79954847491E+02  0.77911405105E+02 -0.44952416809E+02  0.12035488091E+03  0.12699999809E+01 0.  1.
       -4    1    3    3    0  502 -0.79954847491E+02 -0.77911405105E+02 -0.14222016448E+04  0.14265770558E+04  0.12699999809E+01 0. -1.
</event>
<event>
 5   0  0.2413301E-01  0.5102606E+03  0.7818609E-02  0.1011135E+00
       -2   -1    0    0    0  501  0.00000000000E+00  0.00000000000E+00  0.63881416633E+02  0.63881416684E+02  0.25500000920E-02 0.  1.
        2   -1    0    0  501    0  0.00000000000E+00  0.00000000000E+00 -0.10189423088E+04  0.10189423088E+04  0.25500000920E-02 0. -1.
    10030    2    1    2    0    0  0.00000000000E+00  0.00000000000E+00 -0.95506089218E+03  0.10828237255E+04  0.51026063216E+03 0.  0.
        4    1    3    3  502    0  0.15851861650E+03  0.79803769848E+01 -0.53651924812E+02  0.16754694903E+03  0.12699999809E+01 0.  1.
       -4    1    3    3    0  502 -0.15851861650E+03 -0.79803769848E+01 -0.90140896737E+03  0.91527677647E+03  0.12699999809E+01 0. -1.
</event>
<event>
 5   0  0.1413361E-01  0.4843406E+03  0.7818609E-02  0.1017949E+00
        1   -1    0    0  501    0  0.00000000000E+00  0.00000000000E+00  0.16781685443E+04  0.16781685443E+04  0.50400001928E-02 0.  1.
       -1   -1    0    0    0  501  0.00000000000E+00  0.00000000000E+00 -0.34946695721E+02  0.34946696085E+02  0.50400001928E-02 0. -1.
    10030    2    1    2    0    0  0.00000000000E+00  0.00000000000E+00  0.16432218486E+04  0.17131152404E+04  0.48434056532E+03 0.  0.
        3    1    3    3  502    0 -0.65735545341E+01 -0.78443456101E+02  0.11568337100E+02  0.79563961997E+02  0.10100000352E+00 0. -1.
       -3    1    3    3    0  502  0.65735545341E+01  0.78443456101E+02  0.16316535115E+04  0.16335512784E+04  0.10100000352E+00 0.  1.
</event>
<event>
 5   0  0.2504064E-01  0.4934017E+03  0.7818609E-02  0.1015516E+00
       -2   -1    0    0    0  501  0.00000000000E+00  0.00000000000E+00  0.23988779541E+03  0.23988779542E+03  0.25500000920E-02 0. -1.
        2   -1    0    0  501    0  0.00000000000E+00  0.00000000000E+00 -0.25370739487E+03  0.25370739488E+03  0.25500000920E-02 0.  1.
    10030    2    1    2    0    0  0.00000000000E+00  0.00000000000E+00 -0.13819599460E+02  0.49359519031E+03  0.49340169291E+03 0.  0.
        5    1    3    3  502    0 -0.77346205730E+02  0.12195460647E+03 -0.20694785401E+03  0.25239822871E+03  0.46999998093E+01 0.  1.
       -5    1    3    3    0  502  0.77346205730E+02 -0.12195460647E+03  0.19312825455E+03  0.24119696160E+03  0.46999998093E+01 0. -1.
</event>
<event>
 5   0  0.1413361E-01  0.5324296E+03  0.7818609E-02  0.1005645E+00
       -1   -1    0    0    0  501  0.00000000000E+00  0.00000000000E+00  0.27657788850E+03  0.27657788855E+03  0.50400001928E-02 0. -1.
        1   -1    0    0  501    0  0.00000000000E+00  0.00000000000E+00 -0.25623999747E+03  0.25623999752E+03  0.50400001928E-02 0.  1.
    10030    2    1    2    0    0  0.00000000000E+00  0.00000000000E+00  0.20337891028E+02  0.53281788607E+03  0.53242959150E+03 0.  0.
        3    1    3    3  502    0 -0.64313031964E+02  0.25814087821E+03  0.20046716082E+02  0.26678598185E+03  0.10100000352E+00 0.  1.
       -3    1    3    3    0  502  0.64313031964E+02 -0.25814087821E+03  0.29117494615E+00  0.26603190423E+03  0.10100000352E+00 0. -1.
</event>
<event>
 5   0  0.1413361E-01  0.4913259E+03  0.7818609E-02  0.1016068E+00
        1   -1    0    0  501    0  0.00000000000E+00  0.00000000000E+00  0.16602125224E+04  0.16602125224E+04  0.50400001928E-02 0.  1.
       -1   -1    0    0    0  501  0.00000000000E+00  0.00000000000E+00 -0.36350933349E+02  0.36350933699E+02  0.50400001928E-02 0. -1.
    10030    2    1    2    0    0  0.00000000000E+00  0.00000000000E+00  0.16238615891E+04  0.16965634561E+04  0.49132585949E+03 0.  0.
        3    1    3    3  502    0  0.32638756885E+02  0.24262117663E+03  0.88269190653E+03  0.91601055445E+03  0.10100000352E+00 0. -1.
       -3    1    3    3    0  502 -0.32638756885E+02 -0.24262117663E+03  0.74116968252E+03  0.78055290166E+03  0.10100000352E+00 0.  1.
</event>
<event>
 5   0  0.2504064E-01  0.4985710E+03  0.7818609E-02  0.1014153E+00
        2   -1    0    0  501    0  0.00000000000E+00  0.00000000000E+00  0.64576378537E+02  0.64576378588E+02  0.25500000920E-02 0. -1.
       -2   -1    0    0    0  501  0.00000000000E+00  0.00000000000E+00 -0.96232201828E+03  0.96232201828E+03  0.25500000920E-02 0.  1.
    10030    2    1    2    0    0  0.00000000000E+00  0.00000000000E+00 -0.89774563974E+03  0.10268983969E+04  0.49857104190E+03 0.  0.
        5    1    3    3  502    0 -0.26751410227E+02 -0.17025618601E+03 -0.78024734836E+02  0.18924258524E+03  0.46999998093E+01 0. -1.
       -5    1    3    3    0  502  0.26751410227E+02  0.17025618601E+03 -0.81972090490E+03  0.83765581163E+03  0.46999998093E+01 0.  1.
</event>
<event>
 5   0  0.9868500E-02  0.4723141E+03  0.7818609E-02  0.1021269E+00
        3   -1    0    0  501    0  0.00000000000E+00  0.00000000000E+00  0.51903424341E+03  0.51903425323E+03  0.10100000352E+00 0. -1.
       -3   -1    0    0    0  501  0.00000000000E+00  0.00000000000E+00 -0.10744983554E+03  0.10744988301E+03  0.10100000352E+00 0.  1.
    10030    2    1    2    0    0  0.00000000000E+00  0.00000000000E+00  0.41158440787E+03  0.62648413624E+03  0.47231414140E+03 0.  0.
        1    1    3    3  502    0 -0.16765111566E+03 -0.16532359436E+03  0.18164656370E+03  0.29737898642E+03  0.50400001928E-02 0. -1.
       -1    1    3    3    0  502  0.16765111566E+03  0.16532359436E+03  0.22993784417E+03  0.32910514983E+03  0.50400001928E-02 0.  1.
</event>
<event>
 5   0  0.1529146E-01  0.4967103E+03  0.7818609E-02  0.1014641E+00
        1   -1    0    0  501    0  0.00000000000E+00  0.00000000000E+00  0.95500148156E+03  0.95500148157E+03  0.50400001928E-02 0. -1.
       -1   -1    0    0    0  501  0.00000000000E+00  0.00000000000E+00 -0.64586585846E+02  0.64586586043E+02  0.50400001928E-02 0.  1.
    10030    2    1    2    0    0  0.00000000000E+00  0.00000000000E+00  0.89041489571E+03  0.10195880676E+04  0.49671031911E+03 0.  0.
        1    1    3    3  502    0 -0.24781747633E+03 -0.15657179223E+02  0.45475548815E+03  0.51813241827E+03  0.50400001928E-02 0.  1.
       -1    1    3    3    0  502  0.24781747633E+03  0.15657179223E+02  0.43565940756E+03  0.50145564934E+03  0.50400001928E-02 0. -1.
</event>
<event>
 5   0  0.1439814E-01  0.4978159E+03  0.7818609E-02  0.1014351E+00
       -1   -1    0    0    0  501  0.00000000000E+00  0.00000000000E+00  0.45200588170E+02  0.45200588451E+02  0.50400001928E-02 0. -1.
        1   -1    0    0  501    0  0.00000000000E+00  0.00000000000E+00 -0.13706717458E+04  0.13706717458E+04  0.50400001928E-02 0.  1.
    10030    2    1    2    0    0  0.00000000000E+00  0.00000000000E+00 -0.13254711576E+04  0.14158723342E+04  0.49781590695E+03 0.  0.
        4    1    3    3  502    0 -0.28000543333E+02  0.74678215258E+02 -0.13333365394E+04  0.13357203324E+04  0.12699999809E+01 0.  1.
       -4    1    3    3    0  502  0.28000543333E+02 -0.74678215258E+02  0.78653818072E+01  0.80152001796E+02  0.12699999809E+01 0. -1.
</event>
<event>
 5   0  0.1448458E-01  0.5007775E+03  0.7818609E-02  0.1013576E+00
        1   -1    0    0  501    0  0.00000000000E+00  0.00000000000E+00  0.20328318374E+03  0.20328318380E+03  0.50400001928E-02 0. -1.
       -1   -1    0    0    0  501  0.00000000000E+00  0.00000000000E+00 -0.30840983770E+03  0.30840983774E+03  0.50400001928E-02 0.  1.
    10030    2    1    2    0    0  0.00000000000E+00  0.00000000000E+00 -0.10512665396E+03  0.51169302154E+03  0.50077753037E+03 0.  0.
        5    1    3    3  502    0 -0.95000883605E+02  0.19908248717E+03  0.68395349472E+02  0.23099571080E+03  0.46999998093E+01 0.  1.
       -5    1    3    3    0  502  0.95000883605E+02 -0.19908248717E+03 -0.17352200344E+03  0.28069731074E+03  0.46999998093E+01 0. -1.
</event>
<event>
 5   0  0.9868500E-02  0.5050307E+03  0.7818609E-02  0.1012474E+00
       -3   -1    0    0    0  501  0.00000000000E+00  0.00000000000E+00  0.51901097859E+03  0.51901098842E+03  0.10100000352E+00 0.  1.
        3   -1    0    0  501    0  0.00000000000E+00  0.00000000000E+00 -0.12285673834E+03  0.12285677985E+03  0.10100000352E+00 0. -1.
    10030    2    1    2    0    0  0.00000000000E+00  0.00000000000E+00  0.39615424026E+03  0.64186776827E+03  0.50503074151E+03 0.  0.
        1    1    3    3  502    0  0.83233744528E+02  0.81839973660E+02  0.48266269324E+03  0.49657719741E+03  0.50400001928E-02 0.  1.
       -1    1    3    3    0  502 -0.83233744528E+02 -0.81839973660E+02 -0.86508452986E+02  0.14529057086E+03  0.50400001928E-02 0. -1.
</event>
<event>
 5   0  0.1439814E-01  0.4945981E+03  0.7818609E-02  0.1015199E+00
       -1   -1    0    0    0  501  0.00000000000E+00  0.00000000000E+00  0.40563608772E+02  0.40563609085E+02  0.50400001928E-02 0. -1.
        1   -1    0    0  501    0  0.00000000000E+00  0.00000000000E+00 -0.15076772830E+04  0.15076772830E+04  0.50400001928E-02 0.  1.
    10030    2    1    2    0    0  0.00000000000E+00  0.00000000000E+00 -0.14671136742E+04  0.15482408921E+04  0.49459814682E+03 0.  0.
        4    1    3    3  502    0  0.17066503228E+03  0.10535375866E+03 -0.11864157225E+04  0.12032497028E+04  0.12699999809E+01 0.  1.
       -4    1    3    3    0  502 -0.17066503228E+03 -0.10535375866E+03 -0.28069795168E+03  0.34499118928E+03  0.12699999809E+01 0. -1.
</event>
<event>
 5   0  0.1529146E-01  0.4941012E+03  0.7818609E-02  0.1015330E+00
       -1   -1    0    0    0  501  0.00000000000E+00  0.00000000000E+00  0.10121915449E+03  0.10121915462E+03  0.50400001928E-02 0. -1.
        1   -1    0    0  501    0  0.00000000000E+00  0.00000000000E+00 -0.60298857304E+03  0.60298857306E+03  0.50400001928E-02 0.  1.
    10030    2    1    2    0    0  0.00000000000E+00  0.00000000000E+00 -0.50176941854E+03  0.70420772768E+03  0.49410117824E+03 0.  0.
        1    1    3    3  502    0  0.54287862802E+02 -0.23686241709E+03 -0.18741768989E+03  0.30688168271E+03  0.50400001928E-02 0. -1.
       -1    1    3    3    0  502 -0.54287862802E+02  0.23686241709E+03 -0.31435172865E+03  0.39732604496E+03  0.50400001928E-02 0.  1.
</event>
<event>
 5   0  0.2413301E-01  0.5058026E+03  0.7818609E-02  0.1012275E+00
        2   -1    0    0  501    0  0.00000000000E+00  0.00000000000E+00  0.74643826201E+03  0.74643826201E+03  0.25500000920E-02 0. -1.
       -2   -1    0    0    0  501  0.00000000000E+00  0.00000000000E+00 -0.85685673613E+02  0.85685673651E+02  0.25500000920E-02 0.  1.
    10030    2    1    2    0    0  0.00000000000E+00  0.00000000000E+00  0.66075258839E+03  0.83212393566E+03  0.50580259117E+03 0.  0.
        4    1    3    3  502    0 -0.19794048957E+03  0.43654796587E+02  0.57917730502E+03  0.61362377906E+03  0.12699999809E+01 0. -1.
       -4    1    3    3    0  502  0.19794048957E+03 -0.43654796587E+02  0.81575283370E+02  0.21850015660E+03  0.12699999809E+01 0.  1.
</event>
<event>
 5   0  0.1439814E-01  0.4889038E+03  0.7818609E-02  0.1016716E+00
       -1   -1    0    0    0  501  0.00000000000E+00  0.00000000000E+00  0.20185680139E+03  0.20185680145E+03  0.50400001928E-02 0.  1.
        1   -1    0    0  501    0  0.00000000000E+00  0.00000000000E+00 -0.29603523845E+03  0.29603523849E+03  0.50400001928E-02 0. -1.
    10030    2    1    2    0    0  0.00000000000E+00  0.00000000000E+00 -0.94178437056E+02  0.49789203994E+03  0.48890377932E+03 0.  0.
        4    1    3    3  502    0 -0.18685770245E+03  0.57417919533E+02 -0.19656119907E+03  0.27721929285E+03  0.12699999809E+01 0. -1.
       -4    1    3    3    0  502  0.18685770245E+03 -0.57417919533E+02  0.10238276202E+03  0.22067274709E+03  0.12699999809E+01 0.  1.
</event>
<event>
 5   0  0.1439814E-01  0.4941781E+03  0.7818609E-02  0.1015310E+00
        1   -1    0    0  501    0  0.00000000000E+00  0.00000000000E+00  0.57321246226E+03  0.57321246228E+03  0.50400001928E-02 0.  1.
       -1   -1    0    0    0  501  0.00000000000E+00  0.00000000000E+00 -0.10651024017E+03  0.10651024029E+03  0.50400001928E-02 0. -1.
    10030    2    1    2    0    0  0.00000000000E+00  0.00000000000E+00  0.46670222209E+03  0.67972270257E+03  0.49417809369E+03 0.  0.
        4    1    3    3  502    0 -0.12874409488E+02 -0.20450253761E+03  0.42326609882E+03  0.47025827119E+03  0.12699999809E+01 0.  1.
       -4    1    3    3    0  502  0.12874409488E+02  0.20450253761E+03  0.43436123269E+02  0.20946443138E+03  0.12699999809E+01 0. -1.
</event>
<event>
 5   0  0.1413361E-01  0.4936371E+03  0.7818609E-02  0.1015453E+00
       -1   -1    0    0    0  501  0.00000000000E+00  0.00000000000E+00  0.19306357159E+03  0.19306357165E+03  0.50400001928E-02 0.  1.
        1   -1    0    0  501    0  0.00000000000E+00  0.00000000000E+00 -0.31554057597E+03  0.31554057601E+03  0.50400001928E-02 0. -1.
    10030    2    1    2    0    0  0.00000000000E+00  0.00000000000E+00 -0.12247700439E+03  0.50860414766E+03  0.49363707561E+03 0.  0.
        3    1    3    3  502    0  0.10455645322E+03 -0.73457260494E+02 -0.27880773621E+03  0.30669493801E+03  0.10100000352E+00 0. -1.
       -3    1    3    3    0  502 -0.10455645322E+03  0.73457260494E+02  0.15633073182E+03  0.20190920965E+03  0.10100000352E+00 0.  1.
</event>
<event>
 5   0  0.1413361E-01  0.4849280E+03  0.7818609E-02  0.1017790E+00
        1   -1    0    0  501    0  0.00000000000E+00  0.00000000000E+00  0.34993855950E+03  0.34993855954E+03  0.50400001928E-02 0. -1.
       -1   -1    0    0    0  501  0.00000000000E+00  0.00000000000E+00 -0.16799747569E+03  0.16799747576E+03  0.50400001928E-02 0.  1.
    10030    2    1    2    0    0  0.00000000000E+00  0.00000000000E+00  0.18194108381E+03  0.51793603530E+03  0.48492801392E+03 0.  0.
        3    1    3    3  502    0  0.34377543412E+02  0.69120205928E+02  0.33646209541E+03  0.34520453387E+03  0.10100000352E+00 0. -1.
       -3    1    3    3    0  502 -0.34377543412E+02 -0.69120205928E+02 -0.15452101160E+03  0.17273150143E+03  0.10100000352E+00 0.  1.
</event>
<event>
 5   0  0.9868500E-02  0.4856361E+03  0.7818609E-02  0.1017598E+00
        3   -1    0    0  501    0  0.00000000000E+00  0.00000000000E+00  0.12261144995E+04  0.12261145037E+04  0.10100000352E+00 0. -1.
       -3   -1    0    0    0  501  0.00000000000E+00  0.00000000000E+00 -0.48087297423E+02  0.48087403490E+02  0.10100000352E+00 0.  1.
    10030    2    1    2    0    0  0.00000000000E+00  0.00000000000E+00  0.11780272021E+04  0.12742019071E+04  0.48563608942E+03 0.  0.
        4    1    3    3  502    0  0.91570192714E+02  0.22077238757E+03  0.47666673553E+03  0.53323384829E+03  0.12699999809E+01 0.  1.
       -4    1    3    3    0  502 -0.91570192714E+02 -0.22077238757E+03  0.70136046655E+03  0.74096805885E+03  0.12699999809E+01 0. -1.
</event>
<event>
 5   0  0.2413301E-01  0.5029166E+03  0.7818609E-02  0.1013020E+00
        2   -1    0    0  501    0  0.00000000000E+00  0.00000000000E+00  0.31865862947E+03  0.31865862948E+03  0.25500000920E-02 0. -1.
       -2   -1    0    0    0  501  0.00000000000E+00  0.00000000000E+00 -0.19842948023E+03  0.19842948024E+03  0.25500000920E-02 0.  1.
    10030    2    1    2    0    0  0.00000000000E+00  0.00000000000E+00  0.12022914925E+03  0.51708810973E+03  0.50291655858E+03 0.  0.
        4    1    3    3  502    0  0.34514675212E+02  0.64332843279E+02 -0.18728940565E+03  0.20101968037E+03  0.12699999809E+01 0.  1.
       -4    1    3    3    0  502 -0.34514675212E+02 -0.64332843279E+02  0.30751855490E+03  0.31606842935E+03  0.12699999809E+01 0. -1.
</event>
<event>
 5   0  0.1453602E-01  0.5222297E+03  0.7818609E-02  0.1008134E+00
        1   -1    0    0  501    0  0.00000000000E+00  0.00000000000E+00  0.13298019430E+03  0.13298019439E+03  0.50400001928E-02 0. -1.
       -1   -1    0    0    0  501  0.00000000000E+00  0.00000000000E+00 -0.51271521461E+03  0.51271521463E+03  0.50400001928E-02 0.  1.
    10030    2    1    2    0    0  0.00000000000E+00  0.00000000000E+00 -0.37973502031E+03  0.64569540902E+03  0.52222971534E+03 0.  0.
        2    1    3    3  502    0  0.10360070689E+03  0.92842175351E+02  0.83345542895E+02  0.16217045205E+03  0.25500000920E-02 0. -1.
       -2    1    3    3    0  502 -0.10360070689E+03 -0.92842175351E+02 -0.46308056320E+03  0.48352495697E+03  0.25500000920E-02 0.  1.
</event>
<event>
 5   0  0.1439814E-01  0.5062360E+03  0.7818609E-02  0.1012164E+00
       -1   -1    0    0    0  501  0.00000000000E+00  0.00000000000E+00  0.55200743240E+03  0.55200743242E+03  0.50400001928E-02 0. -1.
        1   -1    0    0  501    0  0.00000000000E+00  0.00000000000E+00 -0.11606495101E+03  0.11606495112E+03  0.50400001928E-02 0.  1.
    10030    2    1    2    0    0  0.00000000000E+00  0.00000000000E+00  0.43594248139E+03  0.66807238354E+03  0.50623597518E+03 0.  0.
        4    1    3    3  502    0  0.34038216679E+02 -0.17135672515E+03 -0.23734431510E+02  0.17631410491E+03  0.12699999809E+01 0.  1.
       -4    1    3    3    0  502 -0.34038216679E+02  0.17135672515E+03  0.45967691290E+03  0.49175827863E+03  0.12699999809E+01 0. -1.
</event>
<event>
 5   0  0.2413301E-01  0.5040221E+03  0.7818609E-02  0.1012734E+00
        2   -1    0    0  501    0  0.00000000000E+00  0.00000000000E+00  0.11057801890E+04  0.11057801890E+04  0.25500000920E-02 0. -1.
       -2   -1    0    0    0  501  0.00000000000E+00  0.00000000000E+00 -0.57434160870E+02  0.57434160926E+02  0.25500000920E-02 0.  1.
    10030    2    1    2    0    0  0.00000000000E+00  0.00000000000E+00  0.10483460281E+04  0.11632143499E+04  0.50402205227E+03 0.  0.
        4    1    3    3  502    0 -0.20632947694E+03 -0.95577393170E+02  0.77488240272E+03  0.80755881648E+03  0.12699999809E+01 0. -1.
       -4    1    3    3    0  502  0.20632947694E+03  0.95577393170E+02  0.27346362537E+03  0.35565553340E+03  0.12699999809E+01 0.  1.
</event>
<event>
 5   0  0.2504064E-01  0.4992199E+03  0.7818609E-02  0.1013983E+00
        2   -1    0    0  501    0  0.00000000000E+00  0.00000000000E+00  0.44645117418E+03  0.44645117418E+03  0.25500000920E-02 0. -1.
       -2   -1    0    0    0  501  0.00000000000E+00  0.00000000000E+00 -0.13955640174E+03  0.13955640176E+03  0.25500000920E-02 0.  1.
    10030    2    1    2    0    0  0.00000000000E+00  0.00000000000E+00  0.30689477244E+03  0.58600757595E+03  0.49921986912E+03 0.  0.
        5    1    3    3  502    0  0.63039958929E+02 -0.13565139674E+03 -0.81050899465E+02  0.17019599337E+03  0.46999998093E+01 0.  1.
       -5    1    3    3    0  502 -0.63039958929E+02  0.13565139674E+03  0.38794567190E+03  0.41581158257E+03  0.46999998093E+01 0. -1.
</event>
<event>
 5   0  0.1439814E-01  0.5048692E+03  0.7818609E-02  0.1012516E+00
       -1   -1    0    0    0  501  0.00000000000E+00  0.00000000000E+00  0.17993217295E+03  0.17993217302E+03  0.50400001928E-02 0.  1.
        1   -1    0    0  501    0  0.00000000000E+00  0.00000000000E+00 -0.35415130934E+03  0.35415130938E+03  0.50400001928E-02 0. -1.
    10030    2    1    2    0    0  0.00000000000E+00  0.00000000000E+00 -0.17421913640E+03  0.53408348240E+03  0.50486915006E+03 0.  0.
        4    1    3    3  502    0  0.46013258797E+02 -0.12578290072E+03  0.13924154954E+03  0.19320553852E+03  0.12699999809E+01 0.  1.
       -4    1    3    3    0  502 -0.46013258797E+02  0.12578290072E+03 -0.31346068593E+03  0.34087794388E+03  0.12699999809E+01 0. -1.
</event>
<event>
 5   0  0.2413301E-01  0.5026596E+03  0.7818609E-02  0.1013087E+00
        2   -1    0    0  501    0  0.00000000000E+00  0.00000000000E+00  0.16719488657E+04  0.16719488657E+04  0.25500000920E-02 0.  1.
       -2   -1    0    0    0  501  0.00000000000E+00  0.00000000000E+00 -0.37780265586E+02  0.37780265672E+02  0.25500000920E-02 0. -1.
    10030    2    1    2    0    0  0.00000000000E+00  0.00000000000E+00  0.16341686001E+04  0.17097291313E+04  0.50265961551E+03 0.  0.
        4    1    3    3  502    0 -0.17977203495E+03 -0.23524409308E+02  0.14090946670E+04  0.14207113626E+04  0.12699999809E+01 0.  1.
       -4    1    3    3    0  502  0.17977203495E+03  0.23524409308E+02  0.22507393305E+03  0.28901776869E+03  0.12699999809E+01 0. -1.
</event>
<event>
 5   0  0.2466034E-01  0.4816071E+03  0.7818609E-02  0.1018694E+00
        2   -1    0    0  501    0  0.00000000000E+00  0.00000000000E+00  0.29896775108E+03  0.29896775109E+03  0.25500000920E-02 0. -1.
       -2   -1    0    0    0  501  0.00000000000E+00  0.00000000000E+00 -0.19395517766E+03  0.19395517768E+03  0.25500000920E-02 0.  1.
    10030    2    1    2    0    0  0.00000000000E+00  0.00000000000E+00  0.10501257342E+03  0.49292292877E+03  0.48160707338E+03 0.  0.
        3    1    3    3  502    0  0.72153017417E+02 -0.22449970595E+03  0.10243943892E+03  0.25709925075E+03  0.10100000352E+00 0.  1.
       -3    1    3    3    0  502 -0.72153017417E+02  0.22449970595E+03  0.25731345032E+01  0.23582367802E+03  0.10100000352E+00 0. -1.
</event>
<event>
 5   0  0.1448458E-01  0.5009866E+03  0.7818609E-02  0.1013522E+00
        1   -1    0    0  501    0  0.00000000000E+00  0.00000000000E+00  0.25943076346E+03  0.25943076351E+03  0.50400001928E-02 0.  1.
       -1   -1    0    0    0  501  0.00000000000E+00  0.00000000000E+00 -0.24186369519E+03  0.24186369524E+03  0.50400001928E-02 0. -1.
    10030    2    1    2    0    0  0.00000000000E+00  0.00000000000E+00  0.17567068270E+02  0.50129445875E+03  0.50098655919E+03 0.  0.
        5    1    3    3  502    0  0.13034070431E+03  0.19609985702E+03 -0.76597331891E+02  0.24765519251E+03  0.46999998093E+01 0. -1.
       -5    1    3    3    0  502 -0.13034070431E+03 -0.19609985702E+03  0.94164400161E+02  0.25363926624E+03  0.46999998093E+01 0.  1.
</event>
<event>
 5   0  0.2488968E-01  0.4868375E+03  0.7818609E-02  0.1017273E+00
        2   -1    0    0  501    0  0.00000000000E+00  0.00000000000E+00  0.13895826745E+03  0.13895826748E+03  0.25500000920E-02 0.  1.
       -2   -1    0    0    0  501  0.00000000000E+00  0.00000000000E+00 -0.42640641912E+03  0.42640641912E+03  0.25500000920E-02 0. -1.
    10030    2    1    2    0    0  0.00000000000E+00  0.00000000000E+00 -0.28744815166E+03  0.56536468660E+03  0.48683753857E+03 0.  0.
        2    1    3    3  502    0 -0.77047233290E+02  0.82360055942E+02 -0.39423477394E+03  0.41004940185E+03  0.25500000920E-02 0. -1.
       -2    1    3    3    0  502  0.77047233290E+02 -0.82360055942E+02  0.10678662228E+03  0.15531528475E+03  0.25500000920E-02 0.  1.
</event>
<event>
 5   0  0.1448458E-01  0.5115592E+03  0.7818609E-02  0.1010805E+00
        1   -1    0    0  501    0  0.00000000000E+00  0.00000000000E+00  0.31220536505E+03  0.31220536509E+03  0.50400001928E-02 0.  1.
       -1   -1    0    0    0  501  0.00000000000E+00  0.00000000000E+00 -0.20955185711E+03  0.20955185717E+03  0.50400001928E-02 0. -1.
    10030    2    1    2    0    0  0.00000000000E+00  0.00000000000E+00  0.10265350793E+03  0.52175722226E+03  0.51155924026E+03 0.  0.
        5    1    3    3  502    0  0.81887718616E+02  0.23852685760E+03  0.80489979107E+01  0.25236389723E+03  0.46999998093E+01 0.  1.
       -5    1    3    3    0  502 -0.81887718616E+02 -0.23852685760E+03  0.94604510024E+02  0.26939332503E+03  0.46999998093E+01 0. -1.
</event>
<event>
 5   0  0.2488968E-01  0.4292072E+03  0.7818609E-02  0.1034111E+00
        2   -1    0    0  501    0  0.00000000000E+00  0.00000000000E+00  0.10858685892E+04  0.10858685892E+04  0.25500000920E-02 0. -1.
       -2   -1    0    0    0  501  0.00000000000E+00  0.00000000000E+00 -0.42412770607E+02  0.42412770684E+02  0.25500000920E-02 0.  1.
    10030    2    1    2    0    0  0.00000000000E+00  0.00000000000E+00  0.10434558186E+04  0.11282813598E+04  0.42920715477E+03 0.  0.
        2    1    3    3  502    0 -0.16365082261E+03  0.53072962778E+02  0.18450473906E+03  0.25227035074E+03  0.25500000920E-02 0.  1.
       -2    1    3    3    0  502  0.16365082261E+03 -0.53072962778E+02  0.85895107949E+03  0.87601100911E+03  0.25500000920E-02 0. -1.
</event>
<event>
 5   0  0.1413361E-01  0.4780885E+03  0.7818609E-02  0.1019662E+00
       -1   -1    0    0    0  501  0.00000000000E+00  0.00000000000E+00  0.54300295142E+02  0.54300295376E+02  0.50400001928E-02 0. -1.
        1   -1    0    0  501    0  0.00000000000E+00  0.00000000000E+00 -0.10523360685E+04  0.10523360685E+04  0.50400001928E-02 0.  1.
    10030    2    1    2    0    0  0.00000000000E+00  0.00000000000E+00 -0.99803577337E+03  0.11066363639E+04  0.47808852421E+03 0.  0.
        3    1    3    3  502    0 -0.13312212984E+03 -0.63894539202E+02 -0.93414729208E+03  0.94574583641E+03  0.10100000352E+00 0.  1.
       -3    1    3    3    0  502  0.13312212984E+03  0.63894539202E+02 -0.63888481295E+02  0.16089052749E+03  0.10100000352E+00 0. -1.
</event>
<event>
 5   0  0.2466034E-01  0.4957073E+03  0.7818609E-02  0.1014905E+00
        2   -1    0    0  501    0  0.00000000000E+00  0.00000000000E+00  0.81811117471E+03  0.81811117472E+03  0.25500000920E-02 0.  1.
       -2   -1    0    0    0  501  0.00000000000E+00  0.00000000000E+00 -0.75089335188E+02  0.75089335231E+02  0.25500000920E-02 0. -1.
    10030    2    1    2    0    0  0.00000000000E+00  0.00000000000E+00  0.74302183952E+03  0.89320050995E+03  0.49570726942E+03 0.  0.
        3    1    3    3  502    0 -0.18238940342E+03 -0.85335090102E+02  0.11112067229E+03  0.22999083915E+03  0.10100000352E+00 0. -1.
       -3    1    3    3    0  502  0.18238940342E+03  0.85335090102E+02  0.63190116723E+03  0.66320967080E+03  0.10100000352E+00 0.  1.
</event>
<event>
 5   0  0.1453602E-01  0.4997871E+03  0.7818609E-02  0.1013834E+00
        1   -1    0    0  501    0  0.00000000000E+00  0.00000000000E+00  0.24485084898E+03  0.24485084903E+03  0.50400001928E-02 0.  1.
       -1   -1    0    0    0  501  0.00000000000E+00  0.00000000000E+00 -0.25504011268E+03  0.25504011273E+03  0.50400001928E-02 0. -1.
    10030    2    1    2    0    0  0.00000000000E+00  0.00000000000E+00 -0.10189263700E+02  0.49989096175E+03  0.49978710722E+03 0.  0.
        2    1    3    3  502    0 -0.21239453214E+03 -0.76899726804E+02 -0.11198958119E+03  0.25212431768E+03  0.25500000920E-02 0. -1.
       -2    1    3    3    0  502  0.21239453214E+03  0.76899726804E+02  0.10180031749E+03  0.24776664407E+03  0.25500000920E-02 0.  1.
</event>
<event>
 5   0  0.1529146E-01  0.5071394E+03  0.7818609E-02  0.1011932E+00
       -1   -1    0    0    0  501  0.00000000000E+00  0.00000000000E+00  0.51041647202E+02  0.51041647451E+02  0.50400001928E-02 0.  1.
        1   -1    0    0  501    0  0.00000000000E+00  0.00000000000E+00 -0.12597086118E+04  0.12597086118E+04  0.50400001928E-02 0. -1.
    10030    2    1    2    0    0  0.00000000000E+00  0.00000000000E+00 -0.12086669646E+04  0.13107502593E+04  0.50713943926E+03 0.  0.
        1    1    3    3  502    0  0.11580376025E+03 -0.94415325909E+02 -0.74820351819E+02  0.16710131575E+03  0.50400001928E-02 0.  1.
       -1    1    3    3    0  502 -0.11580376025E+03  0.94415325909E+02 -0.11338466128E+04  0.11436489435E+04  0.50400001928E-02 0. -1.
</event>
<event>
 5   0  0.2488968E-01  0.5129094E+03  0.7818609E-02  0.1010463E+00
       -2   -1    0    0    0  501  0.00000000000E+00  0.00000000000E+00  0.13696671361E+03  0.13696671363E+03  0.25500000920E-02 0.  1.
        2   -1    0    0  501    0  0.00000000000E+00  0.00000000000E+00 -0.48018253928E+03  0.48018253929E+03  0.25500000920E-02 0. -1.
    10030    2    1    2    0    0  0.00000000000E+00  0.00000000000E+00 -0.34321582567E+03  0.61714925292E+03  0.51290944365E+03 0.  0.
        2    1    3    3  502    0  0.16248635289E+02 -0.25586933034E+03 -0.16439935739E+03  0.30456572538E+03  0.25500000920E-02 0. -1.
       -2    1    3    3    0  502 -0.16248635289E+02  0.25586933034E+03 -0.17881646828E+03  0.31258352754E+03  0.25500000920E-02 0.  1.
</event>
<event>
 5   0  0.1413361E-01  0.5460321E+03  0.7818609E-02  0.1002417E+00
       -1   -1    0    0    0  501  0.00000000000E+00  0.00000000000E+00  0.13627938031E+03  0.13627938041E+03  0.50400001928E-02 0.  1.
        1   -1    0    0  501    0  0.00000000000E+00  0.00000000000E+00 -0.54694822827E+03  0.54694822829E+03  0.50400001928E-02 0. -1.
    10030    2    1    2    0    0  0.00000000000E+00  0.00000000000E+00 -0.41066884796E+03  0.68322760870E+03  0.54603210767E+03 0.  0.
        3    1    3    3  502    0  0.18214179502E+03 -0.18686551735E+03 -0.10489486754E+03  0.28124241946E+03  0.10100000352E+00 0. -1.
       -3    1    3    3    0  502 -0.18214179502E+03  0.18686551735E+03 -0.30577398042E+03  0.40198518924E+03  0.10100000352E+00 0.  1.
</event>
<event>
 5   0  0.2413301E-01  0.5045752E+03  0.7818609E-02  0.1012592E+00
        2   -1    0    0  501    0  0.00000000000E+00  0.00000000000E+00  0.14491929396E+04  0.14491929396E+04  0.25500000920E-02 0. -1.
       -2   -1    0    0    0  501  0.00000000000E+00  0.00000000000E+00 -0.43920338664E+02  0.43920338738E+02  0.25500000920E-02 0.  1.
    10030    2    1    2    0    0  0.00000000000E+00  0.00000000000E+00  0.14052726009E+04  0.14931132783E+04  0.50457524613E+03 0.  0.
        4    1    3    3  502    0 -0.16840871730E+03 -0.17582851274E+03  0.89825976505E+03  0.93067146747E+03  0.12699999809E+01 0.  1.
       -4    1    3    3    0  502  0.16840871730E+03  0.17582851274E+03  0.50701283585E+03  0.56244181083E+03  0.12699999809E+01 0. -1.
</event>
<event>
 5   0  0.2466034E-01  0.4972171E+03  0.7818609E-02  0.1014508E+00
        2   -1    0    0  501    0  0.00000000000E+00  0.00000000000E+00  0.26273808248E+03  0.26273808249E+03  0.25500000920E-02 0. -1.
       -2   -1    0    0    0  501  0.00000000000E+00  0.00000000000E+00 -0.23523886597E+03  0.23523886599E+03  0.25500000920E-02 0.  1.
    10030    2    1    2    0    0  0.00000000000E+00  0.00000000000E+00  0.27499216503E+02  0.49797694848E+03  0.49721708972E+03 0.  0.
        3    1    3    3  502    0 -0.10309033287E+03 -0.90929664408E+02  0.22121437941E+03  0.26044506611E+03  0.10100000352E+00 0. -1.
       -3    1    3    3    0  502  0.10309033287E+03  0.90929664408E+02 -0.19371516291E+03  0.23753188237E+03  0.10100000352E+00 0.  1.
</event>
<event>
 5   0  0.9868500E-02  0.4551356E+03  0.7818609E-02  0.1026202E+00
        4   -1    0    0  501    0  0.00000000000E+00  0.00000000000E+00  0.30655569546E+03  0.30655832612E+03  0.12699999809E+01 0. -1.
       -4   -1    0    0    0  501  0.00000000000E+00  0.00000000000E+00 -0.16892639546E+03  0.16893116937E+03  0.12699999809E+01 0.  1.
    10030    2    1    2    0    0  0.00000000000E+00  0.00000000000E+00  0.13762929999E+03  0.47548949549E+03  0.45513562386E+03 0.  0.
        2    1    3    3  502    0 -0.50112957840E+02  0.12743043948E+03  0.25870472369E+03  0.29270797652E+03  0.25500000920E-02 0. -1.
       -2    1    3    3    0  502  0.50112957840E+02 -0.12743043948E+03 -0.12107542370E+03  0.18278151898E+03  0.25500000920E-02 0.  1.
</event>
<event>
 5   0  0.1439814E-01  0.5001943E+03  0.7818609E-02  0.1013728E+00
       -1   -1    0    0    0  501  0.00000000000E+00  0.00000000000E+00  0.15462103336E+03  0.15462103345E+03  0.50400001928E-02 0.  1.
        1   -1    0    0  501    0  0.00000000000E+00  0.00000000000E+00 -0.40452827328E+03  0.40452827331E+03  0.50400001928E-02 0. -1.
    10030    2    1    2    0    0  0.00000000000E+00  0.00000000000E+00 -0.24990723991E+03  0.55914930676E+03  0.50019428094E+03 0.  0.
        4    1    3    3  502    0 -0.23276120933E+03 -0.30382433861E+01 -0.22716306873E+03  0.32525633612E+03  0.12699999809E+01 0.  1.
       -4    1    3    3    0  502  0.23276120933E+03  0.30382433861E+01 -0.22744171185E+02  0.23389297064E+03  0.12699999809E+01 0. -1.
</event>
<event>
 5   0  0.1529146E-01  0.5041746E+03  0.7818609E-02  0.1012695E+00
        1   -1    0    0  501    0  0.00000000000E+00  0.00000000000E+00  0.16738798436E+04  0.16738798436E+04  0.50400001928E-02 0.  1.
       -1   -1    0    0    0  501  0.00000000000E+00  0.00000000000E+00 -0.37964499901E+02  0.37964500236E+02  0.50400001928E-02 0. -1.
    10030    2    1    2    0    0  0.00000000000E+00  0.00000000000E+00  0.16359153437E+04  0.17118443438E+04  0.50417461836E+03 0.  0.
        1    1    3    3  502    0  0.48535234626E+02 -0.22880223701E+03  0.11372258043E+04  0.11610291394E+04  0.50400001928E-02 0. -1.
       -1    1    3    3    0  502 -0.48535234626E+02  0.22880223701E+03  0.49868953938E+03  0.55081520438E+03  0.50400001928E-02 0.  1.
</event>
<event>
 5   0  0.1448458E-01  0.4954724E+03  0.7818609E-02  0.1014967E+00
        1   -1    0    0  501    0  0.00000000000E+00  0.00000000000E+00  0.40083893191E+03  0.40083893194E+03  0.50400001928E-02 0.  1.
       -1   -1    0    0    0  501  0.00000000000E+00  0.00000000000E+00 -0.15311194664E+03  0.15311194672E+03  0.50400001928E-02 0. -1.
    10030    2    1    2    0    0  0.00000000000E+00  0.00000000000E+00  0.24772698528E+03  0.55395087866E+03  0.49547241774E+03 0.  0.
        5    1    3    3  502    0 -0.66581062677E+02 -0.23515134602E+03  0.16889017349E+03  0.29711138339E+03  0.46999998093E+01 0.  1.
       -5    1    3    3    0  502  0.66581062677E+02  0.23515134602E+03  0.78836811792E+02  0.25683949527E+03  0.46999998093E+01 0. -1.
</event>
<event>
 5   0  0.2413301E-01  0.4830313E+03  0.7818609E-02  0.1018305E+00
       -2   -1    0    0    0  501  0.00000000000E+00  0.00000000000E+00  0.42781803592E+02  0.42781803668E+02  0.25500000920E-02 0.  1.
        2   -1    0    0  501    0  0.00000000000E+00  0.00000000000E+00 -0.13634257331E+04  0.13634257331E+04  0.25500000920E-02 0. -1.
    10030    2    1    2    0    0  0.00000000000E+00  0.00000000000E+00 -0.13206439295E+04  0.14062075368E+04  0.48303131154E+03 0.  0.
        4    1    3    3  502    0  0.15704654949E+01  0.21631799409E+03 -0.97295244318E+03  0.99671159847E+03  0.12699999809E+01 0. -1.
       -4    1    3    3    0  502 -0.15704654949E+01 -0.21631799409E+03 -0.34769148636E+03  0.40949593834E+03  0.12699999809E+01 0.  1.
</event>
<event>
 5   0  0.2511944E-01  0.5103336E+03  0.7818609E-02  0.1011116E+00
        2   -1    0    0  501    0  0.00000000000E+00  0.00000000000E+00  0.68551354752E+03  0.68551354752E+03  0.25500000920E-02 0. -1.
       -2   -1    0    0    0  501  0.00000000000E+00  0.00000000000E+00 -0.94980038617E+02  0.94980038651E+02  0.25500000920E-02 0.  1.
    10030    2    1    2    0    0  0.00000000000E+00  0.00000000000E+00  0.59053350890E+03  0.78049358617E+03  0.51033362903E+03 0.  0.
        1    1    3    3  502    0 -0.19872632520E+03  0.15154608949E+03  0.21651139827E+03  0.33065927353E+03  0.50400001928E-02 0.  1.
       -1    1    3    3    0  502  0.19872632520E+03 -0.15154608949E+03  0.37402211063E+03  0.44983431264E+03  0.50400001928E-02 0. -1.
</event>
<event>
 5   0  0.2504064E-01  0.5028734E+03  0.7818609E-02  0.1013032E+00
        2   -1    0    0  501    0  0.00000000000E+00  0.00000000000E+00  0.21315168666E+03  0.21315168668E+03  0.25500000920E-02 0. -1.
       -2   -1    0    0    0  501  0.00000000000E+00  0.00000000000E+00 -0.29659823786E+03  0.29659823787E+03  0.25500000920E-02 0.  1.
    10030    2    1    2    0    0  0.00000000000E+00  0.00000000000E+00 -0.83446551194E+02  0.50974992455E+03  0.50287340223E+03 0.  0.
        5    1    3    3  502    0  0.11081642656E+03  0.84891930341E+02 -0.25365495749E+03  0.28956838171E+03  0.46999998093E+01 0.  1.
       -5    1    3    3    0  502 -0.11081642656E+03 -0.84891930341E+02  0.17020840629E+03  0.22018154283E+03  0.46999998093E+01 0. -1.
</event>
<event>
 5   0  0.2413301E-01  0.4902702E+03  0.7818609E-02  0.1016350E+00
        2   -1    0    0  501    0  0.00000000000E+00  0.00000000000E+00  0.84322496820E+03  0.84322496821E+03  0.25500000920E-02 0. -1.
       -2   -1    0    0    0  501  0.00000000000E+00  0.00000000000E+00 -0.71263559389E+02  0.71263559435E+02  0.25500000920E-02 0.  1.
    10030    2    1    2    0    0  0.00000000000E+00  0.00000000000E+00  0.77196140882E+03  0.91448852764E+03  0.49027018111E+03 0.  0.
        4    1    3    3  502    0 -0.17789311299E+03  0.15137158306E+03  0.52469349083E+03  0.57433804334E+03  0.12699999809E+01 0. -1.
       -4    1    3    3    0  502  0.17789311299E+03 -0.15137158306E+03  0.24726791798E+03  0.34015048430E+03  0.12699999809E+01 0.  1.
</event>
<event>
 5   0  0.2488968E-01  0.4981092E+03  0.7818609E-02  0.1014274E+00
        2   -1    0    0  501    0  0.00000000000E+00  0.00000000000E+00  0.65903354818E+03  0.65903354819E+03  0.25500000920E-02 0.  1.
       -2   -1    0    0    0  501  0.00000000000E+00  0.00000000000E+00 -0.94119949047E+02  0.94119949082E+02  0.25500000920E-02 0. -1.
    10030    2    1    2    0    0  0.00000000000E+00  0.00000000000E+00  0.56491359914E+03  0.75315349727E+03  0.49810924099E+03 0.  0.
        2    1    3    3  502    0 -0.16438008807E+02 -0.51267325697E+02 -0.85216064945E+02  0.10079843525E+03  0.25500000920E-02 0. -1.
       -2    1    3    3    0  502  0.16438008807E+02  0.51267325697E+02  0.65012966408E+03  0.65235506202E+03  0.25500000920E-02 0.  1.
</event>
<event>
 5   0  0.2504064E-01  0.5039337E+03  0.7818609E-02  0.1012757E+00
       -2   -1    0    0    0  501  0.00000000000E+00  0.00000000000E+00  0.35914227609E+02  0.35914227700E+02  0.25500000920E-02 0.  1.
        2   -1    0    0  501    0  0.00000000000E+00  0.00000000000E+00 -0.17677474984E+04  0.17677474984E+04  0.25500000920E-02 0. -1.
    10030    2    1    2    0    0  0.00000000000E+00  0.00000000000E+00 -0.17318332707E+04  0.18036617261E+04  0.50393367062E+03 0.  0.
        5    1    3    3  502    0  0.21801372271E+03 -0.33473417320E+02 -0.13015576649E+04  0.13201230616E+04  0.46999998093E+01 0. -1.
       -5    1    3    3    0  502 -0.21801372271E+03  0.33473417320E+02 -0.43027560589E+03  0.48353866441E+03  0.46999998093E+01 0.  1.
</event>
<event>
 5   0  0.2504064E-01  0.5045033E+03  0.7818609E-02  0.1012610E+00
       -2   -1    0    0    0  501  0.00000000000E+00  0.00000000000E+00  0.12972934068E+03  0.12972934071E+03  0.25500000920E-02 0. -1.
        2   -1    0    0  501    0  0.00000000000E+00  0.00000000000E+00 -0.49048958487E+03  0.49048958487E+03  0.25500000920E-02 0.  1.
    10030    2    1    2    0    0  0.00000000000E+00  0.00000000000E+00 -0.36076024418E+03  0.62021892558E+03  0.50450328232E+03 0.  0.
        5    1    3    3  502    0 -0.37057506696E+02 -0.24222595670E+03 -0.10700721060E+03  0.26743093691E+03  0.46999998093E+01 0. -1.
       -5    1    3    3    0  502  0.37057506696E+02  0.24222595670E+03 -0.25375303358E+03  0.35278798867E+03  0.46999998093E+01 0.  1.
</event>
<event>
 5   0  0.9868500E-02  0.4886674E+03  0.7818609E-02  0.1016780E+00
       -4   -1    0    0    0  501  0.00000000000E+00  0.00000000000E+00  0.69782821089E+03  0.69782936654E+03  0.12699999809E+01 0.  1.
        4   -1    0    0  501    0  0.00000000000E+00  0.00000000000E+00 -0.85543707524E+02  0.85553134349E+02  0.12699999809E+01 0. -1.
    10030    2    1    2    0    0  0.00000000000E+00  0.00000000000E+00  0.61228450336E+03  0.78338250089E+03  0.48866740186E+03 0.  0.
        5    1    3    3  502    0 -0.87235286879E+02  0.19489503044E+03  0.11590087007E+03  0.24300034948E+03  0.46999998093E+01 0. -1.
       -5    1    3    3    0  502  0.87235286879E+02 -0.19489503044E+03  0.49638363329E+03  0.54038215141E+03  0.46999998093E+01 0.  1.
</event>
<event>
 5   0  0.1453602E-01  0.4977815E+03  0.7818609E-02  0.1014360E+00
       -1   -1    0    0    0  501  0.00000000000E+00  0.00000000000E+00  0.13576962719E+03  0.13576962728E+03  0.50400001928E-02 0. -1.
        1   -1    0    0  501    0  0.00000000000E+00  0.00000000000E+00 -0.45626266770E+03  0.45626266773E+03  0.50400001928E-02 0.  1.
    10030    2    1    2    0    0  0.00000000000E+00  0.00000000000E+00 -0.32049304051E+03  0.59203229501E+03  0.49778152770E+03 0.  0.
        2    1    3    3  502    0 -0.13593405429E+03 -0.82571853982E+02  0.67444646908E+02  0.17275693500E+03  0.25500000920E-02 0. -1.
       -2    1    3    3    0  502  0.13593405429E+03  0.82571853982E+02 -0.38793768742E+03  0.41927536001E+03  0.25500000920E-02 0.  1.
</event>
<event>
 5   0  0.9868500E-02  0.5039420E+03  0.7818609E-02  0.1012755E+00
        4   -1    0    0  501    0  0.00000000000E+00  0.00000000000E+00  0.35168322976E+03  0.35168552287E+03  0.12699999809E+01 0.  1.
       -4   -1    0    0    0  501  0.00000000000E+00  0.00000000000E+00 -0.18052493650E+03  0.18052940369E+03  0.12699999809E+01 0. -1.
    10030    2    1    2    0    0  0.00000000000E+00  0.00000000000E+00  0.17115829326E+03  0.53221492656E+03  0.50394202712E+03 0.  0.
        1    1    3    3  502    0 -0.12470570559E+03 -0.37505459445E+02  0.31339224349E+03  0.33937128753E+03  0.50400001928E-02 0.  1.
       -1    1    3    3    0  502  0.12470570559E+03  0.37505459445E+02 -0.14223395022E+03  0.19284363903E+03  0.50400001928E-02 0. -1.
</event>
<event>
 5   0  0.1413361E-01  0.5020403E+03  0.7818609E-02  0.1013248E+00
        1   -1    0    0  501    0  0.00000000000E+00  0.00000000000E+00  0.35793051850E+03  0.35793051854E+03  0.50400001928E-02 0. -1.
       -1   -1    0    0    0  501  0.00000000000E+00  0.00000000000E+00 -0.17604286274E+03  0.17604286282E+03  0.50400001928E-02 0.  1.
    10030    2    1    2    0    0  0.00000000000E+00  0.00000000000E+00  0.18188765576E+03  0.53397338135E+03  0.50204028989E+03 0.  0.
        3    1    3    3  502    0  0.89140761517E+02 -0.94792230257E+02 -0.13737132193E+03  0.18921557170E+03  0.10100000352E+00 0.  1.
       -3    1    3    3    0  502 -0.89140761517E+02  0.94792230257E+02  0.31925897769E+03  0.34475780966E+03  0.10100000352E+00 0. -1.
</event>
<event>
 5   0  0.2466034E-01  0.3924292E+03  0.7818609E-02  0.1046433E+00
        2   -1    0    0  501    0  0.00000000000E+00  0.00000000000E+00  0.64399474070E+03  0.64399474071E+03  0.25500000920E-02 0.  1.
       -2   -1    0    0    0  501  0.00000000000E+00  0.00000000000E+00 -0.59783350910E+02  0.59783350964E+02  0.25500000920E-02 0. -1.
    10030    2    1    2    0    0  0.00000000000E+00  0.00000000000E+00  0.58421138979E+03  0.70377809167E+03  0.39242917113E+03 0.  0.
        3    1    3    3  502    0  0.14474521917E+03  0.38978023633E+01  0.52957761410E+03  0.54901623919E+03  0.10100000352E+00 0.  1.
       -3    1    3    3    0  502 -0.14474521917E+03 -0.38978023633E+01  0.54633775691E+02  0.15476185248E+03  0.10100000352E+00 0. -1.
</event>
<event>
 5   0  0.1529146E-01  0.5019373E+03  0.7818609E-02  0.1013274E+00
       -1   -1    0    0    0  501  0.00000000000E+00  0.00000000000E+00  0.28414937976E+03  0.28414937981E+03  0.50400001928E-02 0. -1.
        1   -1    0    0  501    0  0.00000000000E+00  0.00000000000E+00 -0.22166248890E+03  0.22166248896E+03  0.50400001928E-02 0.  1.
    10030    2    1    2    0    0  0.00000000000E+00  0.00000000000E+00  0.62486890861E+02  0.50581186876E+03  0.50193728199E+03 0.  0.
        1    1    3    3  502    0  0.25243931200E+02  0.63701964758E+02  0.27454048311E+03  0.28296231775E+03  0.50400001928E-02 0. -1.
       -1    1    3    3    0  502 -0.25243931200E+02 -0.63701964758E+02 -0.21205359225E+03  0.22284955101E+03  0.50400001928E-02 0.  1.
</event>
<event>
 5   0  0.1453602E-01  0.4913251E+03  0.7818609E-02  0.1016068E+00
        1   -1    0    0  501    0  0.00000000000E+00  0.00000000000E+00  0.41292671258E+03  0.41292671261E+03  0.50400001928E-02 0. -1.
       -1   -1    0    0    0  501  0.00000000000E+00  0.00000000000E+00 -0.14615205221E+03  0.14615205230E+03  0.50400001928E-02 0.  1.
    10030    2    1    2    0    0  0.00000000000E+00  0.00000000000E+00  0.26677466038E+03  0.55907876491E+03  0.49132509193E+03 0.  0.
        2    1    3    3  502    0 -0.10719906818E+03  0.18333183598E+03  0.27389785156E+03  0.34658654820E+03  0.25500000920E-02 0. -1.
       -2    1    3    3    0  502  0.10719906818E+03 -0.18333183598E+03 -0.71231911797E+01  0.21249221671E+03  0.25500000920E-02 0.  1.
</event>
<event>
 5   0  0.1448458E-01  0.4922358E+03  0.7818609E-02  0.1015826E+00
       -1   -1    0    0    0  501  0.00000000000E+00  0.00000000000E+00  0.55946727465E+02  0.55946727692E+02  0.50400001928E-02 0. -1.
        1   -1    0    0  501    0  0.00000000000E+00  0.00000000000E+00 -0.10827088281E+04  0.10827088281E+04  0.50400001928E-02 0.  1.
    10030    2    1    2    0    0  0.00000000000E+00  0.00000000000E+00 -0.10267621006E+04  0.11386555558E+04  0.49223578036E+03 0.  0.
        5    1    3    3  502    0  0.13691420721E+03  0.14489910016E+03 -0.17967637637E+03  0.26841560981E+03  0.46999998093E+01 0. -1.
       -5    1    3    3    0  502 -0.13691420721E+03 -0.14489910016E+03 -0.84708572427E+03  0.87023994601E+03  0.46999998093E+01 0.  1.
</event>
<event>
 5   0  0.2488968E-01  0.5002538E+03  0.7818609E-02  0.1013713E+00
        2   -1    0    0  501    0  0.00000000000E+00  0.00000000000E+00  0.82678838641E+03  0.82678838641E+03  0.25500000920E-02 0. -1.
       -2   -1    0    0    0  501  0.00000000000E+00  0.00000000000E+00 -0.75670470463E+02  0.75670470506E+02  0.25500000920E-02 0.  1.
    10030    2    1    2    0    0  0.00000000000E+00  0.00000000000E+00  0.75111791595E+03  0.90245885692E+03  0.50025380036E+03 0.  0.
        2    1    3    3  502    0 -0.32021324805E+01  0.67828466330E+02  0.80984227530E+03  0.81268411167E+03  0.25500000920E-02 0. -1.
       -2    1    3    3    0  502  0.32021324805E+01 -0.67828466330E+02 -0.58724359350E+02  0.89774745250E+02  0.25500000920E-02 0.  1.
</event>
<event>
 5   0  0.2413301E-01  0.4934604E+03  0.7818609E-02  0.1015500E+00
       -2   -1    0    0    0  501  0.00000000000E+00  0.00000000000E+00  0.94112332994E+02  0.94112333029E+02  0.25500000920E-02 0. -1.
        2   -1    0    0  501    0  0.00000000000E+00  0.00000000000E+00 -0.64684170616E+03  0.64684170616E+03  0.25500000920E-02 0.  1.
    10030    2    1    2    0    0  0.00000000000E+00  0.00000000000E+00 -0.55272937316E+03  0.74095403919E+03  0.49346036136E+03 0.  0.
        4    1    3    3  502    0  0.79374682439E+02 -0.18908249899E+03 -0.70364459048E+02  0.21680706085E+03  0.12699999809E+01 0. -1.
       -4    1    3    3    0  502 -0.79374682439E+02  0.18908249899E+03 -0.48236491412E+03  0.52414697834E+03  0.12699999809E+01 0.  1.
</event>
<event>
 5   0  0.1413361E-01  0.5057386E+03  0.7818609E-02  0.1012292E+00
        1   -1    0    0  501    0  0.00000000000E+00  0.00000000000E+00  0.29253446275E+03  0.29253446279E+03  0.50400001928E-02 0.  1.
       -1   -1    0    0    0  501  0.00000000000E+00  0.00000000000E+00 -0.21858237038E+03  0.21858237044E+03  0.50400001928E-02 0. -1.
    10030    2    1    2    0    0  0.00000000000E+00  0.00000000000E+00  0.73952092363E+02  0.51111683323E+03  0.50573857402E+03 0.  0.
        3    1    3    3  502    0 -0.25030938276E+03  0.30436164408E+02  0.17754881032E+02  0.25277735896E+03  0.10100000352E+00 0. -1.
       -3    1    3    3    0  502  0.25030938276E+03 -0.30436164408E+02  0.56197211332E+02  0.25833947427E+03  0.10100000352E+00 0.  1.
</event>
<event>
 5   0  0.2488968E-01  0.4914793E+03  0.7818609E-02  0.1016027E+00
        2   -1    0    0  501    0  0.00000000000E+00  0.00000000000E+00  0.66565676847E+03  0.66565676847E+03  0.25500000920E-02 0.  1.
       -2   -1    0    0    0  501  0.00000000000E+00  0.00000000000E+00 -0.90719383773E+02  0.90719383809E+02  0.25500000920E-02 0. -1.
    10030    2    1    2    0    0  0.00000000000E+00  0.00000000000E+00  0.57493738470E+03  0.75637615228E+03  0.49147928483E+03 0.  0.
        2    1    3    3  502    0 -0.25264042491E+02 -0.23684311562E+03  0.38051059722E+03  0.44891118037E+03  0.25500000920E-02 0.  1.
       -2    1    3    3    0  502  0.25264042491E+02  0.23684311562E+03  0.19442678747E+03  0.30746497191E+03  0.25500000920E-02 0. -1.
</event>
<event>
 5   0  0.1448458E-01  0.5033011E+03  0.7818609E-02  0.1012921E+00
       -1   -1    0    0    0  501  0.00000000000E+00  0.00000000000E+00  0.72191869134E+02  0.72191869310E+02  0.50400001928E-02 0.  1.
        1   -1    0    0  501    0  0.00000000000E+00  0.00000000000E+00 -0.87721791778E+03  0.87721791780E+03  0.50400001928E-02 0. -1.
    10030    2    1    2    0    0  0.00000000000E+00  0.00000000000E+00 -0.80502604865E+03  0.94940978711E+03  0.50330110754E+03 0.  0.
        5    1    3    3  502    0  0.71984118473E+02 -0.23832808247E+03 -0.47114984894E+03  0.53290361076E+03  0.46999998093E+01 0. -1.
       -5    1    3    3    0  502 -0.71984118473E+02  0.23832808247E+03 -0.33387619970E+03  0.41650617634E+03  0.46999998093E+01 0.  1.
</event>
<event>
 5   0  0.1448458E-01  0.5397569E+03  0.7818609E-02  0.1003893E+00
       -1   -1    0    0    0  501  0.00000000000E+00  0.00000000000E+00  0.19806886876E+03  0.19806886883E+03  0.50400001928E-02 0.  1.
        1   -1    0    0  501    0  0.00000000000E+00  0.00000000000E+00 -0.36772250654E+03  0.36772250657E+03  0.50400001928E-02 0. -1.
    10030    2    1    2    0    0  0.00000000000E+00  0.00000000000E+00 -0.16965363777E+03  0.56579137540E+03  0.53975691164E+03 0.  0.
        5    1    3    3  502    0  0.47890834158E+02  0.23074806809E+03  0.52943503482E+02  0.24158499018E+03  0.46999998093E+01 0.  1.
       -5    1    3    3    0  502 -0.47890834158E+02 -0.23074806809E+03 -0.22259714125E+03  0.32420638522E+03  0.46999998093E+01 0. -1.
</event>
<event>
 5   0  0.1439814E-01  0.5330245E+03  0.7818609E-02  0.1005501E+00
       -1   -1    0    0    0  501  0.00000000000E+00  0.00000000000E+00  0.10103934186E+03  0.10103934199E+03  0.50400001928E-02 0.  1.
        1   -1    0    0  501    0  0.00000000000E+00  0.00000000000E+00 -0.70298130182E+03  0.70298130183E+03  0.50400001928E-02 0. -1.
    10030    2    1    2    0    0  0.00000000000E+00  0.00000000000E+00 -0.60194195995E+03  0.80402064382E+03  0.53302445773E+03 0.  0.
        4    1    3    3  502    0  0.19366758311E+03 -0.17438288229E+03 -0.38509973068E+03  0.46499455680E+03  0.12699999809E+01 0.  1.
       -4    1    3    3    0  502 -0.19366758311E+03  0.17438288229E+03 -0.21684222927E+03  0.33902608702E+03  0.12699999809E+01 0. -1.
</event>
<event>
 5   0  0.1453602E-01  0.4963531E+03  0.7818609E-02  0.1014735E+00
        1   -1    0    0  501    0  0.00000000000E+00  0.00000000000E+00  0.34748879214E+03  0.34748879217E+03  0.50400001928E-02 0.  1.
       -1   -1    0    0    0  501  0.00000000000E+00  0.00000000000E+00 -0.17724771632E+03  0.17724771639E+03  0.50400001928E-02 0. -1.
    10030    2    1    2    0    0  0.00000000000E+00  0.00000000000E+00  0.17024107582E+03  0.52473650856E+03  0.49635307949E+03 0.  0.
        2    1    3    3  502    0 -0.43913476132E+02  0.24259140183E+03  0.54984058952E+02  0.25259102987E+03  0.25500000920E-02 0. -1.
       -2    1    3    3    0  502  0.43913476132E+02 -0.24259140183E+03  0.11525701687E+03  0.27214547869E+03  0.25500000920E-02 0.  1.
</event>
<event>
 5   0  0.1448458E-01  0.5001473E+03  0.7818609E-02  0.1013740E+00
       -1   -1    0    0    0  501  0.00000000000E+00  0.00000000000E+00  0.11475062700E+03  0.11475062711E+03  0.50400001928E-02 0. -1.
        1   -1    0    0  501    0  0.00000000000E+00  0.00000000000E+00 -0.54498032251E+03  0.54498032253E+03  0.50400001928E-02 0.  1.
    10030    2    1    2    0    0  0.00000000000E+00  0.00000000000E+00 -0.43022969551E+03  0.65973094965E+03  0.50014731332E+03 0.  0.
        5    1    3    3  502    0 -0.22382433271E+03  0.10810301019E+03 -0.17944736436E+03  0.30660567395E+03  0.46999998093E+01 0.  1.
       -5    1    3    3    0  502  0.22382433271E+03 -0.10810301019E+03 -0.25078233115E+03  0.35312527570E+03  0.46999998093E+01 0. -1.
</event>
<event>
 5   0  0.1529146E-01  0.4994284E+03  0.7818609E-02  0.1013928E+00
       -1   -1    0    0    0  501  0.00000000000E+00  0.00000000000E+00  0.11021731343E+03  0.11021731355E+03  0.50400001928E-02 0.  1.
        1   -1    0    0  501    0  0.00000000000E+00  0.00000000000E+00 -0.56576569784E+03  0.56576569787E+03  0.50400001928E-02 0. -1.
    10030    2    1    2    0    0  0.00000000000E+00  0.00000000000E+00 -0.45554838441E+03  0.67598301141E+03  0.49942837442E+03 0.  0.
        1    1    3    3  502    0 -0.73511729586E+02  0.93355337212E+01  0.94992785154E+02  0.12047720047E+03  0.50400001928E-02 0.  1.
       -1    1    3    3    0  502  0.73511729586E+02 -0.93355337212E+01 -0.55054116957E+03  0.55550581094E+03  0.50400001928E-02 0. -1.
</event>
<event>
 5   0  0.2466034E-01  0.4998128E+03  0.7818609E-02  0.1013828E+00
        2   -1    0    0  501    0  0.00000000000E+00  0.00000000000E+00  0.57709692158E+03  0.57709692159E+03  0.25500000920E-02 0.  1.
       -2   -1    0    0    0  501  0.00000000000E+00  0.00000000000E+00 -0.10821960723E+03  0.10821960726E+03  0.25500000920E-02 0. -1.
    10030    2    1    2    0    0  0.00000000000E+00  0.00000000000E+00  0.46887731436E+03  0.68531652884E+03  0.49981277373E+03 0.  0.
        3    1    3    3  502    0  0.15570472809E+03 -0.70551824301E+02  0.48439256836E+03  0.51367080192E+03  0.10100000352E+00 0.  1.
       -3    1    3    3    0  502 -0.15570472809E+03  0.70551824301E+02 -0.15515254005E+02  0.17164572692E+03  0.10100000352E+00 0. -1.
</event>
<event>
 5   0  0.2466034E-01  0.5004910E+03  0.7818609E-02  0.1013651E+00
        2   -1    0    0  501    0  0.00000000000E+00  0.00000000000E+00  0.10470294036E+04  0.10470294036E+04  0.25500000920E-02 0.  1.
       -2   -1    0    0    0  501  0.00000000000E+00  0.00000000000E+00 -0.59809992679E+02  0.59809992733E+02  0.25500000920E-02 0. -1.
    10030    2    1    2    0    0  0.00000000000E+00  0.00000000000E+00  0.98721941091E+03  0.11068393963E+04  0.50049104286E+03 0.  0.
        3    1    3    3  502    0 -0.86081186572E+02  0.20493897797E+03  0.74781619940E+03  0.78015321165E+03  0.10100000352E+00 0.  1.
       -3    1    3    3    0  502  0.86081186572E+02 -0.20493897797E+03  0.23940321151E+03  0.32668618467E+03  0.10100000352E+00 0. -1.
</event>
<event>
 5   0  0.1448458E-01  0.5045138E+03  0.7818609E-02  0.1012607E+00
       -1   -1    0    0    0  501  0.00000000000E+00  0.00000000000E+00  0.21469543093E+03  0.21469543099E+03  0.50400001928E-02 0. -1.
        1   -1    0    0  501    0  0.00000000000E+00  0.00000000000E+00 -0.29638988185E+03  0.29638988189E+03  0.50400001928E-02 0.  1.
    10030    2    1    2    0    0  0.00000000000E+00  0.00000000000E+00 -0.81694450919E+02  0.51108531288E+03  0.50451383899E+03 0.  0.
        5    1    3    3  502    0 -0.13978475515E+03 -0.20980408587E+03 -0.33407782532E+02  0.25435349841E+03  0.46999998093E+01 0.  1.
       -5    1    3    3    0  502  0.13978475515E+03  0.20980408587E+03 -0.48286668387E+02  0.25673181447E+03  0.46999998093E+01 0. -1.
</event>
<event>
 5   0  0.1529146E-01  0.4995488E+03  0.7818609E-02  0.1013897E+00
       -1   -1    0    0    0  501  0.00000000000E+00  0.00000000000E+00  0.52580522724E+02  0.52580522965E+02  0.50400001928E-02 0. -1.
        1   -1    0    0  501    0  0.00000000000E+00  0.00000000000E+00 -0.11865085948E+04  0.11865085949E+04  0.50400001928E-02 0.  1.
    10030    2    1    2    0    0  0.00000000000E+00  0.00000000000E+00 -0.11339280721E+04  0.12390891178E+04  0.49954876555E+03 0.  0.
        1    1    3    3  502    0  0.14890590610E+03  0.82710332356E+02 -0.11383273630E+03  0.20487034883E+03  0.50400001928E-02 0. -1.
       -1    1    3    3    0  502 -0.14890590610E+03 -0.82710332356E+02 -0.10200953358E+04  0.10342187690E+04  0.50400001928E-02 0.  1.
</event>
<event>
 5   0  0.1413361E-01  0.5030026E+03  0.7818609E-02  0.1012998E+00
        1   -1    0    0  501    0  0.00000000000E+00  0.00000000000E+00  0.12333118837E+04  0.12333118838E+04  0.50400001928E-02 0. -1.
       -1   -1    0    0    0  501  0.00000000000E+00  0.00000000000E+00 -0.51287039847E+02  0.51287040095E+02  0.50400001928E-02 0.  1.
    10030    2    1    2    0    0  0.00000000000E+00  0.00000000000E+00  0.11820248439E+04  0.12845989238E+04  0.50300264767E+03 0.  0.
        3    1    3    3  502    0  0.12295436039E+03 -0.63550055659E+02  0.54722731545E+02  0.14883202566E+03  0.10100000352E+00 0.  1.
       -3    1    3    3    0  502 -0.12295436039E+03  0.63550055659E+02  0.11273021124E+04  0.11357668982E+04  0.10100000352E+00 0. -1.
</event>
<event>
 5   0  0.2488968E-01  0.5295089E+03  0.7818609E-02  0.1006351E+00
       -2   -1    0    0    0  501  0.00000000000E+00  0.00000000000E+00  0.33126422595E+02  0.33126422694E+02  0.25500000920E-02 0. -1.
        2   -1    0    0  501    0  0.00000000000E+00  0.00000000000E+00 -0.21159817557E+04  0.21159817557E+04  0.25500000920E-02 0.  1.
    10030    2    1    2    0    0  0.00000000000E+00  0.00000000000E+00 -0.20828553331E+04  0.21491081784E+04  0.52950885149E+03 0.  0.
        2    1    3    3  502    0 -0.24063094543E+03 -0.98489152475E+02 -0.12440181599E+04  0.12708991098E+04  0.25500000920E-02 0.  1.
       -2    1    3    3    0  502  0.24063094543E+03  0.98489152475E+02 -0.83883717323E+03  0.87820906865E+03  0.25500000920E-02 0. -1.
</event>
<event>
 5   0  0.2488968E-01  0.5004167E+03  0.7818609E-02  0.1013670E+00
       -2   -1    0    0    0  501  0.00000000000E+00  0.00000000000E+00  0.94805291771E+02  0.94805291805E+02  0.25500000920E-02 0.  1.
        2   -1    0    0  501    0  0.00000000000E+00  0.00000000000E+00 -0.66034523519E+03  0.66034523519E+03  0.25500000920E-02 0. -1.
    10030    2    1    2    0    0  0.00000000000E+00  0.00000000000E+00 -0.56553994342E+03  0.75515052700E+03  0.50041671717E+03 0.  0.
        2    1    3    3  502    0  0.10142629484E+02  0.21856241740E+03 -0.99610275569E+02  0.24040509611E+03  0.25500000920E-02 0. -1.
       -2    1    3    3    0  502 -0.10142629484E+02 -0.21856241740E+03 -0.46592966785E+03  0.51474543089E+03  0.25500000920E-02 0.  1.
</event>
<event>
 5   0  0.1439814E-01  0.5073115E+03  0.7818609E-02  0.1011888E+00
       -1   -1    0    0    0  501  0.00000000000E+00  0.00000000000E+00  0.31437513213E+03  0.31437513217E+03  0.50400001928E-02 0. -1.
        1   -1    0    0  501    0  0.00000000000E+00  0.00000000000E+00 -0.20466387649E+03  0.20466387655E+03  0.50400001928E-02 0.  1.
    10030    2    1    2    0    0  0.00000000000E+00  0.00000000000E+00  0.10971125564E+03  0.51903900872E+03  0.50731147529E+03 0.  0.
        4    1    3    3  502    0 -0.13864711307E+03  0.14608810730E+03  0.21261106146E+03  0.29286487227E+03  0.12699999809E+01 0. -1.
       -4    1    3    3    0  502  0.13864711307E+03 -0.14608810730E+03 -0.10289980582E+03  0.22617413644E+03  0.12699999809E+01 0.  1.
</event>
<event>
 5   0  0.2511944E-01  0.5026445E+03  0.7818609E-02  0.1013091E+00
       -2   -1    0    0    0  501  0.00000000000E+00  0.00000000000E+00  0.92305879880E+02  0.92305879916E+02  0.25500000920E-02 0.  1.
        2   -1    0    0  501    0  0.00000000000E+00  0.00000000000E+00 -0.68427795532E+03  0.68427795533E+03  0.25500000920E-02 0. -1.
    10030    2    1    2    0    0  0.00000000000E+00  0.00000000000E+00 -0.59197207544E+03  0.77658383524E+03  0.50264452156E+03 0.  0.
        1    1    3    3  502    0  0.98334901200E+02  0.22196383931E+02  0.59700278066E+02  0.11716038358E+03  0.50400001928E-02 0.  1.
       -1    1    3    3    0  502 -0.98334901200E+02 -0.22196383931E+02 -0.65167235351E+03  0.65942345166E+03  0.50400001928E-02 0. -1.
</event>
<event>
 5   0  0.1448458E-01  0.5040923E+03  0.7818609E-02  0.1012716E+00
       -1   -1    0    0    0  501  0.00000000000E+00  0.00000000000E+00  0.35077613734E+03  0.35077613738E+03  0.50400001928E-02 0. -1.
        1   -1    0    0  501    0  0.00000000000E+00  0.00000000000E+00 -0.18110482191E+03  0.18110482198E+03  0.50400001928E-02 0.  1.
    10030    2    1    2    0    0  0.00000000000E+00  0.00000000000E+00  0.16967131543E+03  0.53188095935E+03  0.50409225311E+03 0.  0.
        5    1    3    3  502    0  0.17290205956E+03  0.15620627465E+03  0.18609280496E+03  0.29824175512E+03  0.46999998093E+01 0. -1.
       -5    1    3    3    0  502 -0.17290205956E+03 -0.15620627465E+03 -0.16421489526E+02  0.23363920424E+03  0.46999998093E+01 0.  1.
</event>
<event>
 5   0  0.9868500E-02  0.4950343E+03  0.7818609E-02  0.1015083E+00
        4   -1    0    0  501    0  0.00000000000E+00  0.00000000000E+00  0.36649830961E+03  0.36650051002E+03  0.12699999809E+01 0.  1.
       -4   -1    0    0    0  501  0.00000000000E+00  0.00000000000E+00 -0.16715729007E+03  0.16716211449E+03  0.12699999809E+01 0. -1.
    10030    2    1    2    0    0  0.00000000000E+00  0.00000000000E+00  0.19934101954E+03  0.53366262452E+03  0.49503429652E+03 0.  0.
        2    1    3    3  502    0  0.24530449640E+03 -0.31344677895E+02  0.88469668326E+02  0.26264741957E+03  0.25500000920E-02 0.  1.
       -2    1    3    3    0  502 -0.24530449640E+03  0.31344677895E+02  0.11087135122E+03  0.27101520495E+03  0.25500000920E-02 0. -1.
</event>
<event>
 5   0  0.9868500E-02  0.4988671E+03  0.7818609E-02  0.1014075E+00
       -4   -1    0    0    0  501  0.00000000000E+00  0.00000000000E+00  0.70008996688E+03  0.70009111880E+03  0.12699999809E+01 0.  1.
        4   -1    0    0  501    0  0.00000000000E+00  0.00000000000E+00 -0.88864386033E+02  0.88873460634E+02  0.12699999809E+01 0. -1.
    10030    2    1    2    0    0  0.00000000000E+00  0.00000000000E+00  0.61122558085E+03  0.78896457944E+03  0.49886711349E+03 0.  0.
        2    1    3    3  502    0  0.62838511447E+02 -0.12253623591E+03  0.63452667912E+03  0.64929801644E+03  0.25500000920E-02 0.  1.
       -2    1    3    3    0  502 -0.62838511447E+02  0.12253623591E+03 -0.23301098269E+02  0.13966656300E+03  0.25500000920E-02 0. -1.
</event>
<event>
 5   0  0.9868500E-02  0.5031176E+03  0.7818609E-02  0.1012968E+00
       -3   -1    0    0    0  501  0.00000000000E+00  0.00000000000E+00  0.25775445351E+03  0.25775447330E+03  0.10100000352E+00 0. -1.
        3   -1    0    0  501    0  0.00000000000E+00  0.00000000000E+00 -0.24551201369E+03  0.24551203446E+03  0.10100000352E+00 0.  1.
    10030    2    1    2    0    0  0.00000000000E+00  0.00000000000E+00  0.12242439827E+02  0.50326650776E+03  0.50311758119E+03 0.  0.
        4    1    3    3  502    0  0.92561997642E+02 -0.47795893382E+02  0.23516070161E+03  0.25720485865E+03  0.12699999809E+01 0. -1.
       -4    1    3    3    0  502 -0.92561997642E+02  0.47795893382E+02 -0.22291826178E+03  0.24606164912E+03  0.12699999809E+01 0.  1.
</event>
<event>
 5   0  0.2488968E-01  0.5145916E+03  0.7818609E-02  0.1010039E+00
        2   -1    0    0  501    0  0.00000000000E+00  0.00000000000E+00  0.77074210548E+03  0.77074210549E+03  0.25500000920E-02 0. -1.
       -2   -1    0    0    0  501  0.00000000000E+00  0.00000000000E+00 -0.85892700309E+02  0.85892700347E+02  0.25500000920E-02 0.  1.
    10030    2    1    2    0    0  0.00000000000E+00  0.00000000000E+00  0.68484940517E+03  0.85663480583E+03  0.51459156891E+03 0.  0.
        2    1    3    3  502    0 -0.25689223578E+03  0.59272101610E+01  0.36428023849E+03  0.44579013536E+03  0.25500000920E-02 0.  1.
       -2    1    3    3    0  502  0.25689223578E+03 -0.59272101610E+01  0.32056916669E+03  0.41084467048E+03  0.25500000920E-02 0. -1.
</event>
<event>
 5   0  0.1448458E-01  0.4778017E+03  0.7818609E-02  0.1019741E+00
       -1   -1    0    0    0  501  0.00000000000E+00  0.00000000000E+00  0.32319075252E+03  0.32319075256E+03  0.50400001928E-02 0.  1.
        1   -1    0    0  501    0  0.00000000000E+00  0.00000000000E+00 -0.17659423263E+03  0.17659423271E+03  0.50400001928E-02 0. -1.
    10030    2    1    2    0    0  0.00000000000E+00  0.00000000000E+00  0.14659651988E+03  0.49978498526E+03  0.47780172860E+03 0.  0.
        5    1    3    3  502    0  0.19223379780E+03 -0.14153530489E+03  0.64835443497E+02  0.24741018629E+03  0.46999998093E+01 0.  1.
       -5    1    3    3    0  502 -0.19223379780E+03  0.14153530489E+03  0.81761076385E+02  0.25237479897E+03  0.46999998093E+01 0. -1.
</event>
<event>
 5   0  0.2466034E-01  0.4992613E+03  0.7818609E-02  0.1013972E+00
       -2   -1    0    0    0  501  0.00000000000E+00  0.00000000000E+00  0.64508333233E+02  0.64508333284E+02  0.25500000920E-02 0.  1.
        2   -1    0    0  501    0  0.00000000000E+00  0.00000000000E+00 -0.96600649777E+03  0.96600649777E+03  0.25500000920E-02 0. -1.
    10030    2    1    2    0    0  0.00000000000E+00  0.00000000000E+00 -0.90149816453E+03  0.10305148311E+04  0.49926133073E+03 0.  0.
        3    1    3    3  502    0  0.86715584330E+02 -0.23321361753E+03 -0.49240437125E+03  0.55169761554E+03  0.10100000352E+00 0.  1.
       -3    1    3    3    0  502 -0.86715584330E+02  0.23321361753E+03 -0.40909379328E+03  0.47881721551E+03  0.10100000352E+00 0. -1.
</event>
<event>
 5   0  0.1413361E-01  0.5067658E+03  0.7818609E-02  0.1012028E+00
        1   -1    0    0  501    0  0.00000000000E+00  0.00000000000E+00  0.32438895095E+03  0.32438895099E+03  0.50400001928E-02 0.  1.
       -1   -1    0    0    0  501  0.00000000000E+00  0.00000000000E+00 -0.19791950836E+03  0.19791950842E+03  0.50400001928E-02 0. -1.
    10030    2    1    2    0    0  0.00000000000E+00  0.00000000000E+00  0.12646944260E+03  0.52230845941E+03  0.50676583040E+03 0.  0.
        3    1    3    3  502    0 -0.22559855703E+03  0.10589157270E+03  0.16057966341E+02  0.24973106051E+03  0.10100000352E+00 0. -1.
       -3    1    3    3    0  502  0.22559855703E+03 -0.10589157270E+03  0.11041147626E+03  0.27257739890E+03  0.10100000352E+00 0.  1.
</event>
<event>
 5   0  0.2413301E-01  0.4991019E+03  0.7818609E-02  0.1014014E+00
        2   -1    0    0  501    0  0.00000000000E+00  0.00000000000E+00  0.30547098504E+03  0.30547098505E+03  0.25500000920E-02 0.  1.
       -2   -1    0    0    0  501  0.00000000000E+00  0.00000000000E+00 -0.20386773426E+03  0.20386773427E+03  0.25500000920E-02 0. -1.
    10030    2    1    2    0    0  0.00000000000E+00  0.00000000000E+00  0.10160325078E+03  0.50933871932E+03  0.49910190386E+03 0.  0.
        4    1    3    3  502    0 -0.90415835253E+02  0.62151164555E+02 -0.17792997915E+03  0.20904181615E+03  0.12699999809E+01 0. -1.
       -4    1    3    3    0  502  0.90415835253E+02 -0.62151164555E+02  0.27953322993E+03  0.30029690317E+03  0.12699999809E+01 0.  1.
</event>
<event>
 5   0  0.1453602E-01  0.4917028E+03  0.7818609E-02  0.1015968E+00
       -1   -1    0    0    0  501  0.00000000000E+00  0.00000000000E+00  0.27083782866E+02  0.27083783335E+02  0.50400001928E-02 0. -1.
        1   -1    0    0  501    0  0.00000000000E+00  0.00000000000E+00 -0.22317008445E+04  0.22317008445E+04  0.50400001928E-02 0.  1.
    10030    2    1    2    0    0  0.00000000000E+00  0.00000000000E+00 -0.22046170616E+04  0.22587846278E+04  0.49170276237E+03 0.  0.
        2    1    3    3  502    0 -0.11748840824E+03 -0.10207718208E+03 -0.22804140811E+03  0.27609085641E+03  0.25500000920E-02 0. -1.
       -2    1    3    3    0  502  0.11748840824E+03  0.10207718208E+03 -0.19765756535E+04  0.19826937714E+04  0.25500000920E-02 0.  1.
</event>
<event>
 5   0  0.1529146E-01  0.5027628E+03  0.7818609E-02  0.1013060E+00
        1   -1    0    0  501    0  0.00000000000E+00  0.00000000000E+00  0.50430316830E+03  0.50430316832E+03  0.50400001928E-02 0. -1.
       -1   -1    0    0    0  501  0.00000000000E+00  0.00000000000E+00 -0.12530680833E+03  0.12530680843E+03  0.50400001928E-02 0.  1.
    10030    2    1    2    0    0  0.00000000000E+00  0.00000000000E+00  0.37899635996E+03  0.62960997675E+03  0.50276284863E+03 0.  0.
        1    1    3    3  502    0 -0.12201669362E+03  0.10330608511E+03 -0.53436423259E+02  0.16856948745E+03  0.50400001928E-02 0.  1.
       -1    1    3    3    0  502  0.12201669362E+03 -0.10330608511E+03  0.43243278322E+03  0.46104048930E+03  0.50400001928E-02 0. -1.
</event>
<event>
 5   0  0.2504064E-01  0.4963688E+03  0.7818609E-02  0.1014731E+00
        2   -1    0    0  501    0  0.00000000000E+00  0.00000000000E+00  0.14263163532E+04  0.14263163532E+04  0.25500000920E-02 0.  1.
       -2   -1    0    0    0  501  0.00000000000E+00  0.00000000000E+00 -0.43185018569E+02  0.43185018644E+02  0.25500000920E-02 0. -1.
    10030    2    1    2    0    0  0.00000000000E+00  0.00000000000E+00  0.13831313347E+04  0.14695013719E+04  0.49636880747E+03 0.  0.
        5    1    3    3  502    0  0.22534012749E+03 -0.97920387694E+02  0.79441206391E+03  0.83155227897E+03  0.46999998093E+01 0.  1.
       -5    1    3    3    0  502 -0.22534012749E+03  0.97920387694E+02  0.58871927075E+03  0.63794909290E+03  0.46999998093E+01 0. -1.
</event>
<event>
 5   0  0.1413361E-01  0.5587038E+03  0.7818609E-02  0.9994992E-01
       -1   -1    0    0    0  501  0.00000000000E+00  0.00000000000E+00  0.23888342618E+03  0.23888342624E+03  0.50400001928E-02 0. -1.
        1   -1    0    0  501    0  0.00000000000E+00  0.00000000000E+00 -0.32667602898E+03  0.32667602902E+03  0.50400001928E-02 0.  1.
    10030    2    1    2    0    0  0.00000000000E+00  0.00000000000E+00 -0.87792602801E+02  0.56555945526E+03  0.55870381807E+03 0.  0.
        3    1    3    3  502    0 -0.64769685816E+02 -0.25220059204E+03  0.58524416899E+02  0.26688081310E+03  0.10100000352E+00 0. -1.
       -3    1    3    3    0  502  0.64769685816E+02  0.25220059204E+03 -0.14631701970E+03  0.29867864216E+03  0.10100000352E+00 0.  1.
</event>
<event>
 5   0  0.2466034E-01  0.5077778E+03  0.7818609E-02  0.1011769E+00
       -2   -1    0    0    0  501  0.00000000000E+00  0.00000000000E+00  0.37761267738E+02  0.37761267824E+02  0.25500000920E-02 0. -1.
        2   -1    0    0  501    0  0.00000000000E+00  0.00000000000E+00 -0.17070285284E+04  0.17070285284E+04  0.25500000920E-02 0.  1.
    10030    2    1    2    0    0  0.00000000000E+00  0.00000000000E+00 -0.16692672606E+04  0.17447897962E+04  0.50777775207E+03 0.  0.
        3    1    3    3  502    0  0.54807854371E+02  0.34605848003E+02  0.88508747872E+01  0.65420285862E+02  0.10100000352E+00 0. -1.
       -3    1    3    3    0  502 -0.54807854371E+02 -0.34605848003E+02 -0.16781181354E+04  0.16793695103E+04  0.10100000352E+00 0.  1.
</event>
<event>
 5   0  0.2511944E-01  0.5010223E+03  0.7818609E-02  0.1013512E+00
       -2   -1    0    0    0  501  0.00000000000E+00  0.00000000000E+00  0.99311848355E+02  0.99311848388E+02  0.25500000920E-02 0. -1.
        2   -1    0    0  501    0  0.00000000000E+00  0.00000000000E+00 -0.63190690500E+03  0.63190690500E+03  0.25500000920E-02 0.  1.
    10030    2    1    2    0    0  0.00000000000E+00  0.00000000000E+00 -0.53259505664E+03  0.73121875339E+03  0.50102232580E+03 0.  0.
        1    1    3    3  502    0 -0.16872505411E+03 -0.12260609183E+03 -0.46881711070E+03  0.51311780416E+03  0.50400001928E-02 0.  1.
       -1    1    3    3    0  502  0.16872505411E+03  0.12260609183E+03 -0.63777945944E+02  0.21810094923E+03  0.50400001928E-02 0. -1.
</event>
<event>
 5   0  0.1453602E-01  0.4907620E+03  0.7818609E-02  0.1016219E+00
       -1   -1    0    0    0  501  0.00000000000E+00  0.00000000000E+00  0.39870472523E+02  0.39870472841E+02  0.50400001928E-02 0. -1.
        1   -1    0    0  501    0  0.00000000000E+00  0.00000000000E+00 -0.15101862435E+04  0.15101862435E+04  0.50400001928E-02 0.  1.
    10030    2    1    2    0    0  0.00000000000E+00  0.00000000000E+00 -0.14703157709E+04  0.15500567163E+04  0.49076201718E+03 0.  0.
        2    1    3    3  502    0 -0.48094220162E+02  0.23298389732E+03 -0.54519522344E+03  0.59483811419E+03  0.25500000920E-02 0. -1.
       -2    1    3    3    0  502  0.48094220162E+02 -0.23298389732E+03 -0.92512054751E+03  0.95521860213E+03  0.25500000920E-02 0.  1.
</event>
<event>
 5   0  0.9868500E-02  0.5079150E+03  0.7818609E-02  0.1011733E+00
       -4   -1    0    0    0  501  0.00000000000E+00  0.00000000000E+00  0.43405337379E+03  0.43405523174E+03  0.12699999809E+01 0.  1.
        4   -1    0    0  501    0  0.00000000000E+00  0.00000000000E+00 -0.14858145129E+03  0.14858687885E+03  0.12699999809E+01 0. -1.
    10030    2    1    2    0    0  0.00000000000E+00  0.00000000000E+00  0.28547192250E+03  0.58264211058E+03  0.50791496384E+03 0.  0.
        5    1    3    3  502    0  0.46445154635E+02 -0.10941167978E+03  0.40012246848E+03  0.41743041078E+03  0.46999998093E+01 0.  1.
       -5    1    3    3    0  502 -0.46445154635E+02  0.10941167978E+03 -0.11465054598E+03  0.16521169981E+03  0.46999998093E+01 0. -1.
</event>
<event>
 5   0  0.2466034E-01  0.4686677E+03  0.7818609E-02  0.1022297E+00
       -2   -1    0    0    0  501  0.00000000000E+00  0.00000000000E+00  0.46766998691E+02  0.46766998761E+02  0.25500000920E-02 0. -1.
        2   -1    0    0  501    0  0.00000000000E+00  0.00000000000E+00 -0.11741686125E+04  0.11741686125E+04  0.25500000920E-02 0.  1.
    10030    2    1    2    0    0  0.00000000000E+00  0.00000000000E+00 -0.11274016138E+04  0.12209356112E+04  0.46866765199E+03 0.  0.
        3    1    3    3  502    0  0.19692520354E+03 -0.98788023263E+02 -0.77168213959E+03  0.80251600862E+03  0.10100000352E+00 0.  1.
       -3    1    3    3    0  502 -0.19692520354E+03  0.98788023263E+02 -0.35571947418E+03  0.41841960261E+03  0.10100000352E+00 0. -1.
</event>
<event>
 5   0  0.2504064E-01  0.5041355E+03  0.7818609E-02  0.1012705E+00
       -2   -1    0    0    0  501  0.00000000000E+00  0.00000000000E+00  0.59884699549E+02  0.59884699603E+02  0.25500000920E-02 0.  1.
        2   -1    0    0  501    0  0.00000000000E+00  0.00000000000E+00 -0.10610081249E+04  0.10610081249E+04  0.25500000920E-02 0. -1.
    10030    2    1    2    0    0  0.00000000000E+00  0.00000000000E+00 -0.10011234253E+04  0.11208928245E+04  0.50413550881E+03 0.  0.
        5    1    3    3  502    0 -0.23742809302E+03 -0.51676065119E+02 -0.35185079977E+03  0.42762552585E+03  0.46999998093E+01 0. -1.
       -5    1    3    3    0  502  0.23742809302E+03  0.51676065119E+02 -0.64927262556E+03  0.69326729864E+03  0.46999998093E+01 0.  1.
</event>
<event>
 5   0  0.1453602E-01  0.4902126E+03  0.7818609E-02  0.1016366E+00
        1   -1    0    0  501    0  0.00000000000E+00  0.00000000000E+00  0.19924553819E+03  0.19924553825E+03  0.50400001928E-02 0.  1.
       -1   -1    0    0    0  501  0.00000000000E+00  0.00000000000E+00 -0.30152290678E+03  0.30152290683E+03  0.50400001928E-02 0. -1.
    10030    2    1    2    0    0  0.00000000000E+00  0.00000000000E+00 -0.10227736860E+03  0.50076844508E+03  0.49021258190E+03 0.  0.
        2    1    3    3  502    0 -0.77910311646E+00 -0.23547260744E+03 -0.12064152655E+03  0.26457954152E+03  0.25500000920E-02 0. -1.
       -2    1    3    3    0  502  0.77910311646E+00  0.23547260744E+03  0.18364157949E+02  0.23618890355E+03  0.25500000920E-02 0.  1.
</event>
<event>
 5   0  0.1439814E-01  0.5057381E+03  0.7818609E-02  0.1012292E+00
        1   -1    0    0  501    0  0.00000000000E+00  0.00000000000E+00  0.37086547727E+03  0.37086547731E+03  0.50400001928E-02 0.  1.
       -1   -1    0    0    0  501  0.00000000000E+00  0.00000000000E+00 -0.17241499129E+03  0.17241499136E+03  0.50400001928E-02 0. -1.
    10030    2    1    2    0    0  0.00000000000E+00  0.00000000000E+00  0.19845048598E+03  0.54328046867E+03  0.50573814593E+03 0.  0.
        4    1    3    3  502    0  0.24491458168E+02  0.14426305237E+03  0.32076082720E+03  0.35256315883E+03  0.12699999809E+01 0.  1.
       -4    1    3    3    0  502 -0.24491458168E+02 -0.14426305237E+03 -0.12231034121E+03  0.19071730983E+03  0.12699999809E+01 0. -1.
</event>
<event>
 5   0  0.1529146E-01  0.4652843E+03  0.7818609E-02  0.1023260E+00
        1   -1    0    0  501    0  0.00000000000E+00  0.00000000000E+00  0.55590316057E+03  0.55590316059E+03  0.50400001928E-02 0.  1.
       -1   -1    0    0    0  501  0.00000000000E+00  0.00000000000E+00 -0.97359333635E+02  0.97359333765E+02  0.50400001928E-02 0. -1.
    10030    2    1    2    0    0  0.00000000000E+00  0.00000000000E+00  0.45854382693E+03  0.65326249435E+03  0.46528426291E+03 0.  0.
        1    1    3    3  502    0 -0.12728472225E+03  0.10853440252E+03  0.45627537959E+03  0.48597154144E+03  0.50400001928E-02 0. -1.
       -1    1    3    3    0  502  0.12728472225E+03 -0.10853440252E+03  0.22684473452E+01  0.16729095291E+03  0.50400001928E-02 0.  1.
</event>
<event>
 5   0  0.1529146E-01  0.5026688E+03  0.7818609E-02  0.1013085E+00
        1   -1    0    0  501    0  0.00000000000E+00  0.00000000000E+00  0.57634316365E+03  0.57634316367E+03  0.50400001928E-02 0.  1.
       -1   -1    0    0    0  501  0.00000000000E+00  0.00000000000E+00 -0.10960308079E+03  0.10960308091E+03  0.50400001928E-02 0. -1.
    10030    2    1    2    0    0  0.00000000000E+00  0.00000000000E+00  0.46674008286E+03  0.68594624458E+03  0.50266882289E+03 0.  0.
        1    1    3    3  502    0  0.41698572771E+02  0.18276831992E+03  0.49215178248E+01  0.18752933398E+03  0.50400001928E-02 0. -1.
       -1    1    3    3    0  502 -0.41698572771E+02 -0.18276831992E+03  0.46181856503E+03  0.49841691060E+03  0.50400001928E-02 0.  1.
</event>
<event>
 5   0  0.1453602E-01  0.4852017E+03  0.7818609E-02  0.1017715E+00
        1   -1    0    0  501    0  0.00000000000E+00  0.00000000000E+00  0.89980380486E+02  0.89980380627E+02  0.50400001928E-02 0.  1.
       -1   -1    0    0    0  501  0.00000000000E+00  0.00000000000E+00 -0.65408888565E+03  0.65408888567E+03  0.50400001928E-02 0. -1.
    10030    2    1    2    0    0  0.00000000000E+00  0.00000000000E+00 -0.56410850516E+03  0.74406926629E+03  0.48520167709E+03 0.  0.
        2    1    3    3  502    0  0.46277410075E+02  0.23111048435E+03 -0.19393972317E+03  0.30523150376E+03  0.25500000920E-02 0.  1.
       -2    1    3    3    0  502 -0.46277410075E+02 -0.23111048435E+03 -0.37016878199E+03  0.43883776253E+03  0.25500000920E-02 0. -1.
</event>
<event>
 5   0  0.1413361E-01  0.4834039E+03  0.7818609E-02  0.1018204E+00
       -1   -1    0    0    0  501  0.00000000000E+00  0.00000000000E+00  0.10800410888E+03  0.10800410900E+03  0.50400001928E-02 0. -1.
        1   -1    0    0  501    0  0.00000000000E+00  0.00000000000E+00 -0.54090371146E+03  0.54090371148E+03  0.50400001928E-02 0.  1.
    10030    2    1    2    0    0  0.00000000000E+00  0.00000000000E+00 -0.43289960258E+03  0.64890782048E+03  0.48340386177E+03 0.  0.
        3    1    3    3  502    0 -0.22120023918E+03 -0.45948669252E+02 -0.10113866005E+03  0.24752750307E+03  0.10100000352E+00 0. -1.
       -3    1    3    3    0  502  0.22120023918E+03  0.45948669252E+02 -0.33176094253E+03  0.40138031741E+03  0.10100000352E+00 0.  1.
</event>
<event>
 5   0  0.9868500E-02  0.4941413E+03  0.7818609E-02  0.1015320E+00
        3   -1    0    0  501    0  0.00000000000E+00  0.00000000000E+00  0.34435520284E+03  0.34435521765E+03  0.10100000352E+00 0. -1.
       -3   -1    0    0    0  501  0.00000000000E+00  0.00000000000E+00 -0.17727012763E+03  0.17727015640E+03  0.10100000352E+00 0.  1.
    10030    2    1    2    0    0  0.00000000000E+00  0.00000000000E+00  0.16708507521E+03  0.52162537405E+03  0.49414128394E+03 0.  0.
        4    1    3    3  502    0 -0.16917866086E+03 -0.53495682989E+01  0.27353139960E+03  0.32166920374E+03  0.12699999809E+01 0. -1.
       -4    1    3    3    0  502  0.16917866086E+03  0.53495682989E+01 -0.10644632438E+03  0.19995617031E+03  0.12699999809E+01 0.  1.
</event>
<event>
 5   0  0.1453602E-01  0.4938379E+03  0.7818609E-02  0.1015400E+00
        1   -1    0    0  501    0  0.00000000000E+00  0.00000000000E+00  0.22268220222E+03  0.22268220227E+03  0.50400001928E-02 0. -1.
       -1   -1    0    0    0  501  0.00000000000E+00  0.00000000000E+00 -0.27379362502E+03  0.27379362507E+03  0.50400001928E-02 0.  1.
    10030    2    1    2    0    0  0.00000000000E+00  0.00000000000E+00 -0.51111422806E+02  0.49647582734E+03  0.49383789809E+03 0.  0.
        2    1    3    3  502    0  0.99531225088E+02 -0.13917171198E+03 -0.20453402803E+03  0.26666345608E+03  0.25500000920E-02 0.  1.
       -2    1    3    3    0  502 -0.99531225088E+02  0.13917171198E+03  0.15342260522E+03  0.22981237126E+03  0.25500000920E-02 0. -1.
</event>
<event>
 5   0  0.2511944E-01  0.4977991E+03  0.7818609E-02  0.1014355E+00
        2   -1    0    0  501    0  0.00000000000E+00  0.00000000000E+00  0.85953911335E+03  0.85953911336E+03  0.25500000920E-02 0.  1.
       -2   -1    0    0    0  501  0.00000000000E+00  0.00000000000E+00 -0.72074667470E+02  0.72074667515E+02  0.25500000920E-02 0. -1.
    10030    2    1    2    0    0  0.00000000000E+00  0.00000000000E+00  0.78746444588E+03  0.93161378087E+03  0.49779913939E+03 0.  0.
        1    1    3    3  502    0  0.18426591001E+02 -0.46324653373E+02 -0.62634782495E+02  0.80053911644E+02  0.50400001928E-02 0. -1.
       -1    1    3    3    0  502 -0.18426591001E+02  0.46324653373E+02  0.85009922838E+03  0.85155986923E+03  0.50400001928E-02 0.  1.
</event>
<event>
 5   0  0.2511944E-01  0.5051656E+03  0.7818609E-02  0.1012439E+00
        2   -1    0    0  501    0  0.00000000000E+00  0.00000000000E+00  0.26384648623E+03  0.26384648624E+03  0.25500000920E-02 0.  1.
       -2   -1    0    0    0  501  0.00000000000E+00  0.00000000000E+00 -0.24180000336E+03  0.24180000337E+03  0.25500000920E-02 0. -1.
    10030    2    1    2    0    0  0.00000000000E+00  0.00000000000E+00  0.22046482874E+02  0.50564648961E+03  0.50516564120E+03 0.  0.
        1    1    3    3  502    0  0.10522578121E+03 -0.74748742517E+02 -0.20629685126E+03  0.24334796158E+03  0.50400001928E-02 0. -1.
       -1    1    3    3    0  502 -0.10522578121E+03  0.74748742517E+02  0.22834333413E+03  0.26229852803E+03  0.50400001928E-02 0.  1.
</event>
<event>
 5   0  0.2488968E-01  0.4808209E+03  0.7818609E-02  0.1018910E+00
       -2   -1    0    0    0  501  0.00000000000E+00  0.00000000000E+00  0.32959827061E+02  0.32959827160E+02  0.25500000920E-02 0.  1.
        2   -1    0    0  501    0  0.00000000000E+00  0.00000000000E+00 -0.17535642313E+04  0.17535642313E+04  0.25500000920E-02 0. -1.
    10030    2    1    2    0    0  0.00000000000E+00  0.00000000000E+00 -0.17206044043E+04  0.17865240585E+04  0.48082085602E+03 0.  0.
        2    1    3    3  502    0 -0.18958443385E+03 -0.97817602497E+02 -0.44844941024E+03  0.49660589452E+03  0.25500000920E-02 0.  1.
       -2    1    3    3    0  502  0.18958443385E+03  0.97817602497E+02 -0.12721549940E+04  0.12899181640E+04  0.25500000920E-02 0. -1.
</event>
<event>
 5   0  0.1453602E-01  0.4369724E+03  0.7818609E-02  0.1031680E+00
        1   -1    0    0  501    0  0.00000000000E+00  0.00000000000E+00  0.13383783465E+04  0.13383783465E+04  0.50400001928E-02 0.  1.
       -1   -1    0    0    0  501  0.00000000000E+00  0.00000000000E+00 -0.35667204849E+02  0.35667205206E+02  0.50400001928E-02 0. -1.
    10030    2    1    2    0    0  0.00000000000E+00  0.00000000000E+00  0.13027111416E+04  0.13740455517E+04  0.43697237853E+03 0.  0.
        2    1    3    3  502    0  0.20910701615E+03 -0.48847280043E+01  0.45281510915E+03  0.49878966293E+03  0.25500000920E-02 0.  1.
       -2    1    3    3    0  502 -0.20910701615E+03  0.48847280043E+01  0.84989603246E+03  0.87525588874E+03  0.25500000920E-02 0. -1.
</event>
<event>
 5   0  0.1439814E-01  0.5019863E+03  0.7818609E-02  0.1013262E+00
       -1   -1    0    0    0  501  0.00000000000E+00  0.00000000000E+00  0.15214418668E+03  0.15214418677E+03  0.50400001928E-02 0. -1.
        1   -1    0    0  501    0  0.00000000000E+00  0.00000000000E+00 -0.41406489730E+03  0.41406489733E+03  0.50400001928E-02 0.  1.
    10030    2    1    2    0    0  0.00000000000E+00  0.00000000000E+00 -0.26192071062E+03  0.56620908410E+03  0.50198632279E+03 0.  0.
        4    1    3    3  502    0  0.30901068112E+02 -0.69231529839E+02 -0.40083705237E+03  0.40794587409E+03  0.12699999809E+01 0.  1.
       -4    1    3    3    0  502 -0.30901068112E+02  0.69231529839E+02  0.13891634176E+03  0.15826321001E+03  0.12699999809E+01 0. -1.
</event>
<event>
 5   0  0.1529146E-01  0.5070955E+03  0.7818609E-02  0.1011943E+00
        1   -1    0    0  501    0  0.00000000000E+00  0.00000000000E+00  0.68337361161E+03  0.68337361163E+03  0.50400001928E-02 0. -1.
       -1   -1    0    0    0  501  0.00000000000E+00  0.00000000000E+00 -0.94072201767E+02  0.94072201902E+02  0.50400001928E-02 0.  1.
    10030    2    1    2    0    0  0.00000000000E+00  0.00000000000E+00  0.58930140984E+03  0.77744581353E+03  0.50709549528E+03 0.  0.
        1    1    3    3  502    0 -0.79957005452E+02 -0.16455437435E+03  0.56378115654E+03  0.59272291784E+03  0.50400001928E-02 0. -1.
       -1    1    3    3    0  502  0.79957005452E+02  0.16455437435E+03  0.25520253305E+02  0.18472289569E+03  0.50400001928E-02 0.  1.
</event>
<event>
 5   0  0.1453602E-01  0.4921924E+03  0.7818609E-02  0.1015837E+00
        1   -1    0    0  501    0  0.00000000000E+00  0.00000000000E+00  0.64860705054E+03  0.64860705056E+03  0.50400001928E-02 0.  1.
       -1   -1    0    0    0  501  0.00000000000E+00  0.00000000000E+00 -0.93374486061E+02  0.93374486197E+02  0.50400001928E-02 0. -1.
    10030    2    1    2    0    0  0.00000000000E+00  0.00000000000E+00  0.55523256448E+03  0.74198153676E+03  0.49219244227E+03 0.  0.
        2    1    3    3  502    0 -0.23211963798E+03 -0.76134153407E+01  0.15490647523E+03  0.27916573304E+03  0.25500000920E-02 0. -1.
       -2    1    3    3    0  502  0.23211963798E+03  0.76134153407E+01  0.40032608925E+03  0.46281580372E+03  0.25500000920E-02 0.  1.
</event>
<event>
 5   0  0.9868500E-02  0.4742331E+03  0.7818609E-02  0.1020732E+00
       -4   -1    0    0    0  501  0.00000000000E+00  0.00000000000E+00  0.18169515826E+03  0.18169959668E+03  0.12699999809E+01 0. -1.
        4   -1    0    0  501    0  0.00000000000E+00  0.00000000000E+00 -0.30943329355E+03  0.30943589976E+03  0.12699999809E+01 0.  1.
    10030    2    1    2    0    0  0.00000000000E+00  0.00000000000E+00 -0.12773813529E+03  0.49113549644E+03  0.47423311214E+03 0.  0.
        3    1    3    3  502    0  0.23387735797E+03 -0.32271449306E+02 -0.41080578063E+02  0.23964075010E+03  0.10100000352E+00 0. -1.
       -3    1    3    3    0  502 -0.23387735797E+03  0.32271449306E+02 -0.86657557229E+02  0.25149474634E+03  0.10100000352E+00 0.  1.
</event>
<event>
 5   0  0.2466034E-01  0.4364521E+03  0.7818609E-02  0.1031841E+00
        2   -1    0    0  501    0  0.00000000000E+00  0.00000000000E+00  0.18104486349E+04  0.18104486349E+04  0.25500000920E-02 0.  1.
       -2   -1    0    0    0  501  0.00000000000E+00  0.00000000000E+00 -0.26304315884E+02  0.26304316008E+02  0.25500000920E-02 0. -1.
    10030    2    1    2    0    0  0.00000000000E+00  0.00000000000E+00  0.17841443191E+04  0.18367529510E+04  0.43645211834E+03 0.  0.
        3    1    3    3  502    0  0.21393019879E+03 -0.85130957756E+01  0.10698229575E+04  0.10910361008E+04  0.10100000352E+00 0.  1.
       -3    1    3    3    0  502 -0.21393019879E+03  0.85130957756E+01  0.71432136159E+03  0.74571685014E+03  0.10100000352E+00 0. -1.
</event>
<event>
 5   0  0.2511944E-01  0.4901797E+03  0.7818609E-02  0.1016374E+00
       -2   -1    0    0    0  501  0.00000000000E+00  0.00000000000E+00  0.38858235109E+03  0.38858235110E+03  0.25500000920E-02 0.  1.
        2   -1    0    0  501    0  0.00000000000E+00  0.00000000000E+00 -0.15458510371E+03  0.15458510373E+03  0.25500000920E-02 0. -1.
    10030    2    1    2    0    0  0.00000000000E+00  0.00000000000E+00  0.23399724739E+03  0.54316745483E+03  0.49017973458E+03 0.  0.
        1    1    3    3  502    0 -0.12496673945E+03  0.19366952200E+03  0.20934036169E+03  0.31136466848E+03  0.50400001928E-02 0.  1.
       -1    1    3    3    0  502  0.12496673945E+03 -0.19366952200E+03  0.24656885698E+02  0.23180278635E+03  0.50400001928E-02 0. -1.
</event>
<event>
 5   0  0.2466034E-01  0.4893810E+03  0.7818609E-02  0.1016588E+00
       -2   -1    0    0    0  501  0.00000000000E+00  0.00000000000E+00  0.83601531922E+02  0.83601531961E+02  0.25500000920E-02 0.  1.
        2   -1    0    0  501    0  0.00000000000E+00  0.00000000000E+00 -0.71617635014E+03  0.71617635015E+03  0.25500000920E-02 0. -1.
    10030    2    1    2    0    0  0.00000000000E+00  0.00000000000E+00 -0.63257481822E+03  0.79977788211E+03  0.48938099683E+03 0.  0.
        3    1    3    3  502    0 -0.27555147703E+02  0.19480370712E+03 -0.78527739128E+02  0.21183575356E+03  0.10100000352E+00 0.  1.
       -3    1    3    3    0  502  0.27555147703E+02 -0.19480370712E+03 -0.55404707909E+03  0.58794212855E+03  0.10100000352E+00 0. -1.
</event>
<event>
 5   0  0.1439814E-01  0.5278924E+03  0.7818609E-02  0.1006745E+00
       -1   -1    0    0    0  501  0.00000000000E+00  0.00000000000E+00  0.65419089788E+02  0.65419089982E+02  0.50400001928E-02 0.  1.
        1   -1    0    0  501    0  0.00000000000E+00  0.00000000000E+00 -0.10649430636E+04  0.10649430636E+04  0.50400001928E-02 0. -1.
    10030    2    1    2    0    0  0.00000000000E+00  0.00000000000E+00 -0.99952397377E+03  0.11303621536E+04  0.52789243605E+03 0.  0.
        4    1    3    3  502    0 -0.11595873818E+03  0.82889169327E+02 -0.97543786238E+03  0.98579799128E+03  0.12699999809E+01 0. -1.
       -4    1    3    3    0  502  0.11595873818E+03 -0.82889169327E+02 -0.24086111399E+02  0.14456416228E+03  0.12699999809E+01 0.  1.
</event>
<event>
 5   0  0.2488968E-01  0.5016929E+03  0.7818609E-02  0.1013338E+00
       -2   -1    0    0    0  501  0.00000000000E+00  0.00000000000E+00  0.21333511180E+03  0.21333511182E+03  0.25500000920E-02 0. -1.
        2   -1    0    0  501    0  0.00000000000E+00  0.00000000000E+00 -0.29495353992E+03  0.29495353993E+03  0.25500000920E-02 0.  1.
    10030    2    1    2    0    0  0.00000000000E+00  0.00000000000E+00 -0.81618428115E+02  0.50828865175E+03  0.50169291971E+03 0.  0.
        2    1    3    3  502    0  0.29590184749E+02 -0.24904273501E+03 -0.35634867216E+02  0.25331345535E+03  0.25500000920E-02 0.  1.
       -2    1    3    3    0  502 -0.29590184749E+02  0.24904273501E+03 -0.45983560899E+02  0.25497519639E+03  0.25500000920E-02 0. -1.
</event>
<event>
 5   0  0.2488968E-01  0.4919434E+03  0.7818609E-02  0.1015903E+00
       -2   -1    0    0    0  501  0.00000000000E+00  0.00000000000E+00  0.24207252028E+03  0.24207252030E+03  0.25500000920E-02 0.  1.
        2   -1    0    0  501    0  0.00000000000E+00  0.00000000000E+00 -0.24993365563E+03  0.24993365564E+03  0.25500000920E-02 0. -1.
    10030    2    1    2    0    0  0.00000000000E+00  0.00000000000E+00 -0.78611353440E+01  0.49200617594E+03  0.49194337043E+03 0.  0.
        2    1    3    3  502    0  0.11016026002E+03  0.11861062093E+03 -0.18915223433E+03  0.24896250730E+03  0.25500000920E-02 0. -1.
       -2    1    3    3    0  502 -0.11016026002E+03 -0.11861062093E+03  0.18129109899E+03  0.24304366863E+03  0.25500000920E-02 0.  1.
</event>
<event>
 5   0  0.1439814E-01  0.4843508E+03  0.7818609E-02  0.1017946E+00
        1   -1    0    0  501    0  0.00000000000E+00  0.00000000000E+00  0.61443857148E+03  0.61443857150E+03  0.50400001928E-02 0.  1.
       -1   -1    0    0    0  501  0.00000000000E+00  0.00000000000E+00 -0.95451235003E+02  0.95451235136E+02  0.50400001928E-02 0. -1.
    10030    2    1    2    0    0  0.00000000000E+00  0.00000000000E+00  0.51898733648E+03  0.70988980664E+03  0.48435078419E+03 0.  0.
        4    1    3    3  502    0 -0.13884479400E+03  0.91751521062E+02  0.51734471653E+03  0.54345504603E+03  0.12699999809E+01 0.  1.
       -4    1    3    3    0  502  0.13884479400E+03 -0.91751521062E+02  0.16426199474E+01  0.16643476060E+03  0.12699999809E+01 0. -1.
</event>
<event>
 5   0  0.1453602E-01  0.4958028E+03  0.7818609E-02  0.1014880E+00
       -1   -1    0    0    0  501  0.00000000000E+00  0.00000000000E+00  0.16950940574E+03  0.16950940581E+03  0.50400001928E-02 0.  1.
        1   -1    0    0  501    0  0.00000000000E+00  0.00000000000E+00 -0.36254679699E+03  0.36254679703E+03  0.50400001928E-02 0. -1.
    10030    2    1    2    0    0  0.00000000000E+00  0.00000000000E+00 -0.19303739126E+03  0.53205620284E+03  0.49580275167E+03 0.  0.
        2    1    3    3  502    0  0.12340478932E+03  0.30718601987E+01 -0.32721946803E+03  0.34972955068E+03  0.25500000920E-02 0. -1.
       -2    1    3    3    0  502 -0.12340478932E+03 -0.30718601987E+01  0.13418207678E+03  0.18232665216E+03  0.25500000920E-02 0.  1.
</event>
<event>
 5   0  0.1448458E-01  0.4017273E+03  0.7818609E-02  0.1043183E+00
        1   -1    0    0  501    0  0.00000000000E+00  0.00000000000E+00  0.38755891499E+03  0.38755891502E+03  0.50400001928E-02 0.  1.
       -1   -1    0    0    0  501  0.00000000000E+00  0.00000000000E+00 -0.10410341879E+03  0.10410341891E+03  0.50400001928E-02 0. -1.
    10030    2    1    2    0    0  0.00000000000E+00  0.00000000000E+00  0.28345549620E+03  0.49166233393E+03  0.40172731084E+03 0.  0.
        5    1    3    3  502    0  0.16412335793E+03 -0.67523553817E+02  0.26734607201E+02  0.17953477702E+03  0.46999998093E+01 0.  1.
       -5    1    3    3    0  502 -0.16412335793E+03  0.67523553817E+02  0.25672088900E+03  0.31212755691E+03  0.46999998093E+01 0. -1.
</event>
<event>
 5   0  0.2413301E-01  0.5013536E+03  0.7818609E-02  0.1013426E+00
       -2   -1    0    0    0  501  0.00000000000E+00  0.00000000000E+00  0.86403488761E+02  0.86403488799E+02  0.25500000920E-02 0. -1.
        2   -1    0    0  501    0  0.00000000000E+00  0.00000000000E+00 -0.72727213965E+03  0.72727213966E+03  0.25500000920E-02 0.  1.
    10030    2    1    2    0    0  0.00000000000E+00  0.00000000000E+00 -0.64086865089E+03  0.81367562846E+03  0.50135356850E+03 0.  0.
        4    1    3    3  502    0  0.91392575298E+02  0.18272090962E+03 -0.55616971811E+03  0.59250814499E+03  0.12699999809E+01 0.  1.
       -4    1    3    3    0  502 -0.91392575298E+02 -0.18272090962E+03 -0.84698932779E+02  0.22116748347E+03  0.12699999809E+01 0. -1.
</event>
<event>
 5   0  0.1448458E-01  0.5163156E+03  0.7818609E-02  0.1009606E+00
       -1   -1    0    0    0  501  0.00000000000E+00  0.00000000000E+00  0.56797539118E+02  0.56797539342E+02  0.50400001928E-02 0.  1.
        1   -1    0    0  501    0  0.00000000000E+00  0.00000000000E+00 -0.11733862342E+04  0.11733862342E+04  0.50400001928E-02 0. -1.
    10030    2    1    2    0    0  0.00000000000E+00  0.00000000000E+00 -0.11165886951E+04  0.12301837736E+04  0.51631560381E+03 0.  0.
        5    1    3    3  502    0 -0.11095535576E+03 -0.29565163834E+02 -0.75113365687E+01  0.11516813821E+03  0.46999998093E+01 0.  1.
       -5    1    3    3    0  502  0.11095535576E+03  0.29565163834E+02 -0.11090773586E+04  0.11150156354E+04  0.46999998093E+01 0. -1.
</event>
<event>
 5   0  0.2466034E-01  0.4673521E+03  0.7818609E-02  0.1022670E+00
       -2   -1    0    0    0  501  0.00000000000E+00  0.00000000000E+00  0.44876077868E+03  0.44876077869E+03  0.25500000920E-02 0.  1.
        2   -1    0    0  501    0  0.00000000000E+00  0.00000000000E+00 -0.12167838388E+03  0.12167838391E+03  0.25500000920E-02 0. -1.
    10030    2    1    2    0    0  0.00000000000E+00  0.00000000000E+00  0.32708239480E+03  0.57043916260E+03  0.46735205706E+03 0.  0.
        3    1    3    3  502    0 -0.17364117926E+03  0.11435403181E+03  0.33354360642E+02  0.21057214275E+03  0.10100000352E+00 0. -1.
       -3    1    3    3    0  502  0.17364117926E+03 -0.11435403181E+03  0.29372803415E+03  0.35986701985E+03  0.10100000352E+00 0.  1.
</event>
<event>
 5   0  0.1448458E-01  0.4880633E+03  0.7818609E-02  0.1016942E+00
        1   -1    0    0  501    0  0.00000000000E+00  0.00000000000E+00  0.84810102933E+02  0.84810103082E+02  0.50400001928E-02 0.  1.
       -1   -1    0    0    0  501  0.00000000000E+00  0.00000000000E+00 -0.70217405722E+03  0.70217405724E+03  0.50400001928E-02 0. -1.
    10030    2    1    2    0    0  0.00000000000E+00  0.00000000000E+00 -0.61736395428E+03  0.78698416032E+03  0.48806333251E+03 0.  0.
        5    1    3    3  502    0  0.10438249397E+03  0.22037158830E+03 -0.29518900684E+03  0.38290727563E+03  0.46999998093E+01 0. -1.
       -5    1    3    3    0  502 -0.10438249397E+03 -0.22037158830E+03 -0.32217494745E+03  0.40407688469E+03  0.46999998093E+01 0.  1.
</event>
<event>
 5   0  0.1529146E-01  0.5130271E+03  0.7818609E-02  0.1010433E+00
       -1   -1    0    0    0  501  0.00000000000E+00  0.00000000000E+00  0.15797719070E+03  0.15797719078E+03  0.50400001928E-02 0.  1.
        1   -1    0    0  501    0  0.00000000000E+00  0.00000000000E+00 -0.41651074836E+03  0.41651074839E+03  0.50400001928E-02 0. -1.
    10030    2    1    2    0    0  0.00000000000E+00  0.00000000000E+00 -0.25853355766E+03  0.57448793917E+03  0.51302708682E+03 0.  0.
        1    1    3    3  502    0  0.67253803409E+02 -0.18824084053E+03  0.50744435636E+02  0.20623454098E+03  0.50400001928E-02 0.  1.
       -1    1    3    3    0  502 -0.67253803409E+02  0.18824084053E+03 -0.30927799330E+03  0.36825339819E+03  0.50400001928E-02 0. -1.
</event>
<event>
 5   0  0.1529146E-01  0.4961781E+03  0.7818609E-02  0.1014781E+00
       -1   -1    0    0    0  501  0.00000000000E+00  0.00000000000E+00  0.50725203246E+02  0.50725203497E+02  0.50400001928E-02 0.  1.
        1   -1    0    0  501    0  0.00000000000E+00  0.00000000000E+00 -0.12133645920E+04  0.12133645920E+04  0.50400001928E-02 0. -1.
    10030    2    1    2    0    0  0.00000000000E+00  0.00000000000E+00 -0.11626393887E+04  0.12640897955E+04  0.49617805556E+03 0.  0.
        1    1    3    3  502    0 -0.24555557273E+02 -0.19936253592E+03 -0.21037775120E+03  0.29087315852E+03  0.50400001928E-02 0.  1.
       -1    1    3    3    0  502  0.24555557273E+02  0.19936253592E+03 -0.95226163752E+03  0.97321663695E+03  0.50400001928E-02 0. -1.
</event>
<event>
 5   0  0.1448458E-01  0.4869345E+03  0.7818609E-02  0.1017247E+00
        1   -1    0    0  501    0  0.00000000000E+00  0.00000000000E+00  0.14580056231E+03  0.14580056239E+03  0.50400001928E-02 0. -1.
       -1   -1    0    0    0  501  0.00000000000E+00  0.00000000000E+00 -0.40655741889E+03  0.40655741892E+03  0.50400001928E-02 0.  1.
    10030    2    1    2    0    0  0.00000000000E+00  0.00000000000E+00 -0.26075685658E+03  0.55235798131E+03  0.48693449381E+03 0.  0.
        5    1    3    3  502    0 -0.13483330743E+03  0.12261774455E+03  0.52668690168E+02  0.18976620614E+03  0.46999998093E+01 0. -1.
       -5    1    3    3    0  502  0.13483330743E+03 -0.12261774455E+03 -0.31342554675E+03  0.36259177517E+03  0.46999998093E+01 0.  1.
</event>
<event>
 5   0  0.2413301E-01  0.4986442E+03  0.7818609E-02  0.1014133E+00
        2   -1    0    0  501    0  0.00000000000E+00  0.00000000000E+00  0.29629082378E+04  0.29629082378E+04  0.25500000920E-02 0.  1.
       -2   -1    0    0    0  501  0.00000000000E+00  0.00000000000E+00 -0.20979893313E+02  0.20979893468E+02  0.25500000920E-02 0. -1.
    10030    2    1    2    0    0  0.00000000000E+00  0.00000000000E+00  0.29419283445E+04  0.29838881313E+04  0.49864415753E+03 0.  0.
        4    1    3    3  502    0  0.12742925427E+03 -0.58268828094E+02  0.27049813012E+04  0.27086083002E+04  0.12699999809E+01 0.  1.
       -4    1    3    3    0  502 -0.12742925427E+03  0.58268828094E+02  0.23694704329E+03  0.27527983108E+03  0.12699999809E+01 0. -1.
</event>
<event>
 5   0  0.2466034E-01  0.4793679E+03  0.7818609E-02  0.1019309E+00
       -2   -1    0    0    0  501  0.00000000000E+00  0.00000000000E+00  0.70295060988E+02  0.70295061034E+02  0.25500000920E-02 0.  1.
        2   -1    0    0  501    0  0.00000000000E+00  0.00000000000E+00 -0.81724652311E+03  0.81724652311E+03  0.25500000920E-02 0. -1.
    10030    2    1    2    0    0  0.00000000000E+00  0.00000000000E+00 -0.74695146212E+03  0.88754158414E+03  0.47936789298E+03 0.  0.
        3    1    3    3  502    0  0.75896112671E+02  0.22726243294E+03 -0.38517831466E+03  0.45361963982E+03  0.10100000352E+00 0. -1.
       -3    1    3    3    0  502 -0.75896112671E+02 -0.22726243294E+03 -0.36177314746E+03  0.43392194432E+03  0.10100000352E+00 0.  1.
</event>
<event>
 5   0  0.2488968E-01  0.4814977E+03  0.7818609E-02  0.1018724E+00
        2   -1    0    0  501    0  0.00000000000E+00  0.00000000000E+00  0.39751073647E+03  0.39751073648E+03  0.25500000920E-02 0.  1.
       -2   -1    0    0    0  501  0.00000000000E+00  0.00000000000E+00 -0.14580740481E+03  0.14580740483E+03  0.25500000920E-02 0. -1.
    10030    2    1    2    0    0  0.00000000000E+00  0.00000000000E+00  0.25170333166E+03  0.54331814131E+03  0.48149770041E+03 0.  0.
        2    1    3    3  502    0 -0.22101315326E+03  0.17388888532E+02  0.23176928026E+03  0.32072758946E+03  0.25500000920E-02 0.  1.
       -2    1    3    3    0  502  0.22101315326E+03 -0.17388888532E+02  0.19934051397E+02  0.22259055185E+03  0.25500000920E-02 0. -1.
</event>
<event>
 5   0  0.2511944E-01  0.5035673E+03  0.7818609E-02  0.1012852E+00
       -2   -1    0    0    0  501  0.00000000000E+00  0.00000000000E+00  0.82727483296E+02  0.82727483335E+02  0.25500000920E-02 0. -1.
        2   -1    0    0  501    0  0.00000000000E+00  0.00000000000E+00 -0.76631126528E+03  0.76631126529E+03  0.25500000920E-02 0.  1.
    10030    2    1    2    0    0  0.00000000000E+00  0.00000000000E+00 -0.68358378199E+03  0.84903874862E+03  0.50356728415E+03 0.  0.
        1    1    3    3  502    0 -0.49533963003E+02 -0.23223044739E+03 -0.20062213710E+03  0.31085983353E+03  0.50400001928E-02 0. -1.
       -1    1    3    3    0  502  0.49533963003E+02  0.23223044739E+03 -0.48296164489E+03  0.53817891509E+03  0.50400001928E-02 0.  1.
</event>
<event>
 5   0  0.2504064E-01  0.5030105E+03  0.7818609E-02  0.1012996E+00
        2   -1    0    0  501    0  0.00000000000E+00  0.00000000000E+00  0.61023560761E+03  0.61023560762E+03  0.25500000920E-02 0.  1.
       -2   -1    0    0    0  501  0.00000000000E+00  0.00000000000E+00 -0.10365651740E+03  0.10365651743E+03  0.25500000920E-02 0. -1.
    10030    2    1    2    0    0  0.00000000000E+00  0.00000000000E+00  0.50657909022E+03  0.71389212505E+03  0.50301052828E+03 0.  0.
        5    1    3    3  502    0  0.23009536498E+03 -0.56171687838E+02  0.37315998428E+03  0.44200633409E+03  0.46999998093E+01 0.  1.
       -5    1    3    3    0  502 -0.23009536498E+03  0.56171687838E+02  0.13341910593E+03  0.27188579096E+03  0.46999998093E+01 0. -1.
</event>
<event>
 5   0  0.2466034E-01  0.5078816E+03  0.7818609E-02  0.1011742E+00
       -2   -1    0    0    0  501  0.00000000000E+00  0.00000000000E+00  0.38100820227E+02  0.38100820313E+02  0.25500000920E-02 0.  1.
        2   -1    0    0  501    0  0.00000000000E+00  0.00000000000E+00 -0.16925073293E+04  0.16925073293E+04  0.25500000920E-02 0. -1.
    10030    2    1    2    0    0  0.00000000000E+00  0.00000000000E+00 -0.16544065091E+04  0.17306081496E+04  0.50788155140E+03 0.  0.
        3    1    3    3  502    0  0.27115409817E+02  0.20295263912E+03 -0.31538661201E+03  0.37602359555E+03  0.10100000352E+00 0.  1.
       -3    1    3    3    0  502 -0.27115409817E+02 -0.20295263912E+03 -0.13390198971E+04  0.13545845541E+04  0.10100000352E+00 0. -1.
</event>
<event>
 5   0  0.1529146E-01  0.4705362E+03  0.7818609E-02  0.1021769E+00
        1   -1    0    0  501    0  0.00000000000E+00  0.00000000000E+00  0.56811706529E+03  0.56811706532E+03  0.50400001928E-02 0.  1.
       -1   -1    0    0    0  501  0.00000000000E+00  0.00000000000E+00 -0.97428987625E+02  0.97428987755E+02  0.50400001928E-02 0. -1.
    10030    2    1    2    0    0  0.00000000000E+00  0.00000000000E+00  0.47068807767E+03  0.66554605307E+03  0.47053616471E+03 0.  0.
        1    1    3    3  502    0  0.12543232325E+03  0.11276758593E+03  0.46733524943E+03  0.49684205895E+03  0.50400001928E-02 0.  1.
       -1    1    3    3    0  502 -0.12543232325E+03 -0.11276758593E+03  0.33528282386E+01  0.16870399413E+03  0.50400001928E-02 0. -1.
</event>
<event>
 5   0  0.1413361E-01  0.5010138E+03  0.7818609E-02  0.1013515E+00
       -1   -1    0    0    0  501  0.00000000000E+00  0.00000000000E+00  0.64518129211E+02  0.64518129408E+02  0.50400001928E-02 0.  1.
        1   -1    0    0  501    0  0.00000000000E+00  0.00000000000E+00 -0.97265211262E+03  0.97265211263E+03  0.50400001928E-02 0. -1.
    10030    2    1    2    0    0  0.00000000000E+00  0.00000000000E+00 -0.90813398340E+03  0.10371702420E+04  0.50101375146E+03 0.  0.
        3    1    3    3  502    0 -0.10953624901E+03 -0.12808421922E+03 -0.83774182583E+03  0.85452626291E+03  0.10100000352E+00 0. -1.
       -3    1    3    3    0  502  0.10953624901E+03  0.12808421922E+03 -0.70392157573E+02  0.18264397912E+03  0.10100000352E+00 0.  1.
</event>
<event>
 5   0  0.1448458E-01  0.4967603E+03  0.7818609E-02  0.1014628E+00
        1   -1    0    0  501    0  0.00000000000E+00  0.00000000000E+00  0.31319809340E+03  0.31319809344E+03  0.50400001928E-02 0. -1.
       -1   -1    0    0    0  501  0.00000000000E+00  0.00000000000E+00 -0.19697659011E+03  0.19697659017E+03  0.50400001928E-02 0.  1.
    10030    2    1    2    0    0  0.00000000000E+00  0.00000000000E+00  0.11622150329E+03  0.51017468361E+03  0.49676027414E+03 0.  0.
        5    1    3    3  502    0 -0.18880246389E+03  0.15716791272E+03  0.20762825375E+02  0.24657921258E+03  0.46999998093E+01 0.  1.
       -5    1    3    3    0  502  0.18880246389E+03 -0.15716791272E+03  0.95458677915E+02  0.26359547103E+03  0.46999998093E+01 0. -1.
</event>
<event>
 5   0  0.1413361E-01  0.4873632E+03  0.7818609E-02  0.1017131E+00
       -1   -1    0    0    0  501  0.00000000000E+00  0.00000000000E+00  0.43286585068E+02  0.43286585362E+02  0.50400001928E-02 0.  1.
        1   -1    0    0  501    0  0.00000000000E+00  0.00000000000E+00 -0.13718043841E+04  0.13718043841E+04  0.50400001928E-02 0. -1.
    10030    2    1    2    0    0  0.00000000000E+00  0.00000000000E+00 -0.13285177990E+04  0.14150909695E+04  0.48736322136E+03 0.  0.
        3    1    3    3  502    0 -0.47959743587E+02 -0.85844090360E+02 -0.16878593714E+02  0.99770947582E+02  0.10100000352E+00 0.  1.
       -3    1    3    3    0  502  0.47959743587E+02  0.85844090360E+02 -0.13116392053E+04  0.13153200219E+04  0.10100000352E+00 0. -1.
</event>
<event>
 5   0  0.2488968E-01  0.4994231E+03  0.7818609E-02  0.1013930E+00
       -2   -1    0    0    0  501  0.00000000000E+00  0.00000000000E+00  0.33587448509E+02  0.33587448606E+02  0.25500000920E-02 0. -1.
        2   -1    0    0  501    0  0.00000000000E+00  0.00000000000E+00 -0.18565227881E+04  0.18565227881E+04  0.25500000920E-02 0.  1.
    10030    2    1    2    0    0  0.00000000000E+00  0.00000000000E+00 -0.18229353396E+04  0.18901102367E+04  0.49942312180E+03 0.  0.
        2    1    3    3  502    0  0.20214225516E+03  0.14657067545E+03 -0.89868415744E+03  0.93272593459E+03  0.25500000920E-02 0. -1.
       -2    1    3    3    0  502 -0.20214225516E+03 -0.14657067545E+03 -0.92425118219E+03  0.95738430215E+03  0.25500000920E-02 0.  1.
</event>
<event>
 5   0  0.2466034E-01  0.5036984E+03  0.7818609E-02  0.1012818E+00
        2   -1    0    0  501    0  0.00000000000E+00  0.00000000000E+00  0.75311856024E+03  0.75311856024E+03  0.25500000920E-02 0. -1.
       -2   -1    0    0    0  501  0.00000000000E+00  0.00000000000E+00 -0.84220485544E+02  0.84220485583E+02  0.25500000920E-02 0.  1.
    10030    2    1    2    0    0  0.00000000000E+00  0.00000000000E+00  0.66889807469E+03  0.83733904582E+03  0.50369836543E+03 0.  0.
        3    1    3    3  502    0  0.80806536473E+02  0.56316436196E+02  0.71977310890E+03  0.72648095352E+03  0.10100000352E+00 0. -1.
       -3    1    3    3    0  502 -0.80806536473E+02 -0.56316436196E+02 -0.50875034211E+02  0.11085809231E+03  0.10100000352E+00 0.  1.
</event>
<event>
 5   0  0.1413361E-01  0.4354369E+03  0.7818609E-02  0.1032156E+00
        1   -1    0    0  501    0  0.00000000000E+00  0.00000000000E+00  0.18360147618E+04  0.18360147619E+04  0.50400001928E-02 0.  1.
       -1   -1    0    0    0  501  0.00000000000E+00  0.00000000000E+00 -0.25817508465E+02  0.25817508957E+02  0.50400001928E-02 0. -1.
    10030    2    1    2    0    0  0.00000000000E+00  0.00000000000E+00  0.18101972534E+04  0.18618322708E+04  0.43543691676E+03 0.  0.
        3    1    3    3  502    0 -0.15817000892E+03 -0.10267465807E+03  0.13703828174E+04  0.13832963939E+04  0.10100000352E+00 0.  1.
       -3    1    3    3    0  502  0.15817000892E+03  0.10267465807E+03  0.43981443603E+03  0.47853587689E+03  0.10100000352E+00 0. -1.
</event>
<event>
 5   0  0.1453602E-01  0.5014177E+03  0.7818609E-02  0.1013410E+00
       -1   -1    0    0    0  501  0.00000000000E+00  0.00000000000E+00  0.16712646802E+03  0.16712646810E+03  0.50400001928E-02 0. -1.
        1   -1    0    0  501    0  0.00000000000E+00  0.00000000000E+00 -0.37609203556E+03  0.37609203560E+03  0.50400001928E-02 0.  1.
    10030    2    1    2    0    0  0.00000000000E+00  0.00000000000E+00 -0.20896556754E+03  0.54321850369E+03  0.50141772440E+03 0.  0.
        2    1    3    3  502    0 -0.15812528953E+03  0.13916991788E+03 -0.25176890122E+03  0.32826734968E+03  0.25500000920E-02 0.  1.
       -2    1    3    3    0  502  0.15812528953E+03 -0.13916991788E+03  0.42803333681E+02  0.21495115402E+03  0.25500000920E-02 0. -1.
</event>
<event>
 5   0  0.2488968E-01  0.4921081E+03  0.7818609E-02  0.1015860E+00
       -2   -1    0    0    0  501  0.00000000000E+00  0.00000000000E+00  0.21229904669E+03  0.21229904670E+03  0.25500000920E-02 0.  1.
        2   -1    0    0  501    0  0.00000000000E+00  0.00000000000E+00 -0.28517604284E+03  0.28517604285E+03  0.25500000920E-02 0. -1.
    10030    2    1    2    0    0  0.00000000000E+00  0.00000000000E+00 -0.72876996151E+02  0.49747508956E+03  0.49210812649E+03 0.  0.
        2    1    3    3  502    0 -0.23185515208E+03 -0.73029663935E+02  0.20882802484E+01  0.24309361218E+03  0.25500000920E-02 0.  1.
       -2    1    3    3    0  502  0.23185515208E+03  0.73029663935E+02 -0.74965276400E+02  0.25438147738E+03  0.25500000920E-02 0. -1.
</event>
<event>
 5   0  0.1453602E-01  0.5037031E+03  0.7818609E-02  0.1012817E+00
        1   -1    0    0  501    0  0.00000000000E+00  0.00000000000E+00  0.18780379966E+04  0.18780379966E+04  0.50400001928E-02 0. -1.
       -1   -1    0    0    0  501  0.00000000000E+00  0.00000000000E+00 -0.33774187972E+02  0.33774188348E+02  0.50400001928E-02 0.  1.
    10030    2    1    2    0    0  0.00000000000E+00  0.00000000000E+00  0.18442638087E+04  0.19118121850E+04  0.50370312162E+03 0.  0.
        2    1    3    3  502    0 -0.18969805645E+03  0.15989131558E+03  0.75762261337E+03  0.79720926344E+03  0.25500000920E-02 0. -1.
       -2    1    3    3    0  502  0.18969805645E+03 -0.15989131558E+03  0.10866411953E+04  0.11146029215E+04  0.25500000920E-02 0.  1.
</event>
<event>
 5   0  0.1448458E-01  0.5290867E+03  0.7818609E-02  0.1006454E+00
        1   -1    0    0  501    0  0.00000000000E+00  0.00000000000E+00  0.70740395779E+03  0.70740395781E+03  0.50400001928E-02 0.  1.
       -1   -1    0    0    0  501  0.00000000000E+00  0.00000000000E+00 -0.98929573330E+02  0.98929573458E+02  0.50400001928E-02 0. -1.
    10030    2    1    2    0    0  0.00000000000E+00  0.00000000000E+00  0.60847438446E+03  0.80633353127E+03  0.52908665368E+03 0.  0.
        5    1    3    3  502    0  0.23508132579E+03 -0.10152345340E+02  0.48835115211E+03  0.54210260802E+03  0.46999998093E+01 0.  1.
       -5    1    3    3    0  502 -0.23508132579E+03  0.10152345340E+02  0.12012323235E+03  0.26423092325E+03  0.46999998093E+01 0. -1.
</event>
<event>
 5   0  0.2511944E-01  0.4937311E+03  0.7818609E-02  0.1015428E+00
        2   -1    0    0  501    0  0.00000000000E+00  0.00000000000E+00  0.10550777970E+03  0.10550777973E+03  0.25500000920E-02 0.  1.
       -2   -1    0    0    0  501  0.00000000000E+00  0.00000000000E+00 -0.57761241230E+03  0.57761241230E+03  0.25500000920E-02 0. -1.
    10030    2    1    2    0    0  0.00000000000E+00  0.00000000000E+00 -0.47210463259E+03  0.68312019204E+03  0.49373111372E+03 0.  0.
        1    1    3    3  502    0 -0.69535882040E+02  0.16405531276E+03  0.34776199492E+00  0.17818390921E+03  0.50400001928E-02 0.  1.
       -1    1    3    3    0  502  0.69535882040E+02 -0.16405531276E+03 -0.47245239459E+03  0.50493628283E+03  0.50400001928E-02 0. -1.
</event>
<event>
 5   0  0.1453602E-01  0.4949845E+03  0.7818609E-02  0.1015096E+00
       -1   -1    0    0    0  501  0.00000000000E+00  0.00000000000E+00  0.76850531695E+03  0.76850531697E+03  0.50400001928E-02 0. -1.
        1   -1    0    0  501    0  0.00000000000E+00  0.00000000000E+00 -0.79703290142E+02  0.79703290301E+02  0.50400001928E-02 0.  1.
    10030    2    1    2    0    0  0.00000000000E+00  0.00000000000E+00  0.68880202681E+03  0.84820860727E+03  0.49498445360E+03 0.  0.
        2    1    3    3  502    0  0.21532443983E+03 -0.23999044183E+02  0.54940332518E+03  0.59057986948E+03  0.25500000920E-02 0. -1.
       -2    1    3    3    0  502 -0.21532443983E+03  0.23999044183E+02  0.13939870163E+03  0.25762873779E+03  0.25500000920E-02 0.  1.
</event>
<event>
 5   0  0.1529146E-01  0.5010949E+03  0.7818609E-02  0.1013494E+00
       -1   -1    0    0    0  501  0.00000000000E+00  0.00000000000E+00  0.40169272068E+02  0.40169272384E+02  0.50400001928E-02 0. -1.
        1   -1    0    0  501    0  0.00000000000E+00  0.00000000000E+00 -0.15627376190E+04  0.15627376190E+04  0.50400001928E-02 0.  1.
    10030    2    1    2    0    0  0.00000000000E+00  0.00000000000E+00 -0.15225683469E+04  0.16029068914E+04  0.50109493252E+03 0.  0.
        1    1    3    3  502    0  0.13009029462E+03  0.49617183059E+02 -0.94973883385E+02  0.16853898113E+03  0.50400001928E-02 0. -1.
       -1    1    3    3    0  502 -0.13009029462E+03 -0.49617183059E+02 -0.14275944636E+04  0.14343679103E+04  0.50400001928E-02 0.  1.
</event>
<event>
 5   0  0.1453602E-01  0.4692076E+03  0.7818609E-02  0.1022144E+00
       -1   -1    0    0    0  501  0.00000000000E+00  0.00000000000E+00  0.15843907100E+03  0.15843907108E+03  0.50400001928E-02 0.  1.
        1   -1    0    0  501    0  0.00000000000E+00  0.00000000000E+00 -0.34738242977E+03  0.34738242981E+03  0.50400001928E-02 0. -1.
    10030    2    1    2    0    0  0.00000000000E+00  0.00000000000E+00 -0.18894335877E+03  0.50582150089E+03  0.46920762775E+03 0.  0.
        2    1    3    3  502    0  0.12355576030E+02  0.23214214473E+03 -0.12849920020E+03  0.26562130953E+03  0.25500000920E-02 0. -1.
       -2    1    3    3    0  502 -0.12355576030E+02 -0.23214214473E+03 -0.60444158576E+02  0.24020019136E+03  0.25500000920E-02 0.  1.
</event>
<event>
 5   0  0.2511944E-01  0.4995838E+03  0.7818609E-02  0.1013888E+00
        2   -1    0    0  501    0  0.00000000000E+00  0.00000000000E+00  0.13334917193E+04  0.13334917193E+04  0.25500000920E-02 0. -1.
       -2   -1    0    0    0  501  0.00000000000E+00  0.00000000000E+00 -0.46791439465E+02  0.46791439534E+02  0.25500000920E-02 0.  1.
    10030    2    1    2    0    0  0.00000000000E+00  0.00000000000E+00  0.12867002798E+04  0.13802831588E+04  0.49958381522E+03 0.  0.
        1    1    3    3  502    0 -0.10478539123E+03 -0.22172371384E+03  0.51216160284E+03  0.56784759481E+03  0.50400001928E-02 0.  1.
       -1    1    3    3    0  502  0.10478539123E+03  0.22172371384E+03  0.77453867697E+03  0.81243556399E+03  0.50400001928E-02 0. -1.
</event>
<event>
 5   0  0.2504064E-01  0.5131758E+03  0.7818609E-02  0.1010396E+00
       -2   -1    0    0    0  501  0.00000000000E+00  0.00000000000E+00  0.58254032239E+03  0.58254032240E+03  0.25500000920E-02 0. -1.
        2   -1    0    0  501    0  0.00000000000E+00  0.00000000000E+00 -0.11301765200E+03  0.11301765202E+03  0.25500000920E-02 0.  1.
    10030    2    1    2    0    0  0.00000000000E+00  0.00000000000E+00  0.46952267040E+03  0.69555797442E+03  0.51317575719E+03 0.  0.
        5    1    3    3  502    0 -0.85185352729E+02  0.12713884075E+03 -0.44314062835E+02  0.15939465270E+03  0.46999998093E+01 0.  1.
       -5    1    3    3    0  502  0.85185352729E+02 -0.12713884075E+03  0.51383673323E+03  0.53616332172E+03  0.46999998093E+01 0. -1.
</event>
<event>
 5   0  0.1413361E-01  0.4438332E+03  0.7818609E-02  0.1029577E+00
       -1   -1    0    0    0  501  0.00000000000E+00  0.00000000000E+00  0.25336907230E+03  0.25336907235E+03  0.50400001928E-02 0.  1.
        1   -1    0    0  501    0  0.00000000000E+00  0.00000000000E+00 -0.19436852189E+03  0.19436852196E+03  0.50400001928E-02 0. -1.
    10030    2    1    2    0    0  0.00000000000E+00  0.00000000000E+00  0.59000550404E+02  0.44773759431E+03  0.44383317633E+03 0.  0.
        3    1    3    3  502    0 -0.77560294601E+02  0.94754677241E+02  0.21620381822E+03  0.24847162689E+03  0.10100000352E+00 0.  1.
       -3    1    3    3    0  502  0.77560294601E+02 -0.94754677241E+02 -0.15720326781E+03  0.19926596741E+03  0.10100000352E+00 0. -1.
</event>
<event>
 5   0  0.2413301E-01  0.4979048E+03  0.7818609E-02  0.1014327E+00
       -2   -1    0    0    0  501  0.00000000000E+00  0.00000000000E+00  0.38025775888E+02  0.38025775974E+02  0.25500000920E-02 0. -1.
        2   -1    0    0  501    0  0.00000000000E+00  0.00000000000E+00 -0.16298762496E+04  0.16298762496E+04  0.25500000920E-02 0.  1.
    10030    2    1    2    0    0  0.00000000000E+00  0.00000000000E+00 -0.15918504738E+04  0.16679020256E+04  0.49790484660E+03 0.  0.
        4    1    3    3  502    0  0.23637805560E+03 -0.52934949733E+02 -0.98832984888E+03  0.10175825260E+04  0.12699999809E+01 0.  1.
       -4    1    3    3    0  502 -0.23637805560E+03  0.52934949733E+02 -0.60352062487E+03  0.65031949964E+03  0.12699999809E+01 0. -1.
</event>
<event>
 5   0  0.1439814E-01  0.5118391E+03  0.7818609E-02  0.1010734E+00
       -1   -1    0    0    0  501  0.00000000000E+00  0.00000000000E+00  0.68808540920E+02  0.68808541105E+02  0.50400001928E-02 0. -1.
        1   -1    0    0  501    0  0.00000000000E+00  0.00000000000E+00 -0.95184150258E+03  0.95184150259E+03  0.50400001928E-02 0.  1.
    10030    2    1    2    0    0  0.00000000000E+00  0.00000000000E+00 -0.88303296166E+03  0.10206500437E+04  0.51183913520E+03 0.  0.
        4    1    3    3  502    0 -0.14920948696E+03  0.15114896297E+03 -0.15681795277E+03  0.26401318758E+03  0.12699999809E+01 0. -1.
       -4    1    3    3    0  502  0.14920948696E+03 -0.15114896297E+03 -0.72621500889E+03  0.75663685612E+03  0.12699999809E+01 0.  1.
</event>
<event>
 5   0  0.1448458E-01  0.5008773E+03  0.7818609E-02  0.1013550E+00
        1   -1    0    0  501    0  0.00000000000E+00  0.00000000000E+00  0.16837655931E+04  0.16837655931E+04  0.50400001928E-02 0.  1.
       -1   -1    0    0    0  501  0.00000000000E+00  0.00000000000E+00 -0.37249547493E+02  0.37249547834E+02  0.50400001928E-02 0. -1.
    10030    2    1    2    0    0  0.00000000000E+00  0.00000000000E+00  0.16465160456E+04  0.17210151409E+04  0.50087725733E+03 0.  0.
        5    1    3    3  502    0  0.13598749381E+03 -0.90785206055E+00  0.10084738193E+03  0.16936855408E+03  0.46999998093E+01 0. -1.
       -5    1    3    3    0  502 -0.13598749381E+03  0.90785206055E+00  0.15456686637E+04  0.15516465869E+04  0.46999998093E+01 0.  1.
</event>
<event>
 5   0  0.1453602E-01  0.5179432E+03  0.7818609E-02  0.1009199E+00
        1   -1    0    0  501    0  0.00000000000E+00  0.00000000000E+00  0.72598880398E+02  0.72598880573E+02  0.50400001928E-02 0.  1.
       -1   -1    0    0    0  501  0.00000000000E+00  0.00000000000E+00 -0.92379224158E+03  0.92379224160E+03  0.50400001928E-02 0. -1.
    10030    2    1    2    0    0  0.00000000000E+00  0.00000000000E+00 -0.85119336119E+03  0.99639112217E+03  0.51794317276E+03 0.  0.
        2    1    3    3  502    0  0.12909937074E+03 -0.55847128396E+02 -0.72947796772E+01  0.14085014410E+03  0.25500000920E-02 0.  1.
       -2    1    3    3    0  502 -0.12909937074E+03  0.55847128396E+02 -0.84389858151E+03  0.85554097807E+03  0.25500000920E-02 0. -1.
</event>
<event>
 5   0  0.1453602E-01  0.4891402E+03  0.7818609E-02  0.1016653E+00
        1   -1    0    0  501    0  0.00000000000E+00  0.00000000000E+00  0.87158341801E+03  0.87158341802E+03  0.50400001928E-02 0. -1.
       -1   -1    0    0    0  501  0.00000000000E+00  0.00000000000E+00 -0.68627420437E+02  0.68627420622E+02  0.50400001928E-02 0.  1.
    10030    2    1    2    0    0  0.00000000000E+00  0.00000000000E+00  0.80295599757E+03  0.94021083864E+03  0.48914015074E+03 0.  0.
        2    1    3    3  502    0 -0.10955892081E+02 -0.24116363460E+03  0.47677684813E+03  0.53441191336E+03  0.25500000920E-02 0. -1.
       -2    1    3    3    0  502  0.10955892081E+02  0.24116363460E+03  0.32617914944E+03  0.40579892528E+03  0.25500000920E-02 0.  1.
</event>
<event>
 5   0  0.1448458E-01  0.5084142E+03  0.7818609E-02  0.1011606E+00
        1   -1    0    0  501    0  0.00000000000E+00  0.00000000000E+00  0.81890176256E+02  0.81890176411E+02  0.50400001928E-02 0. -1.
       -1   -1    0    0    0  501  0.00000000000E+00  0.00000000000E+00 -0.78912093118E+03  0.78912093120E+03  0.50400001928E-02 0.  1.
    10030    2    1    2    0    0  0.00000000000E+00  0.00000000000E+00 -0.70723075493E+03  0.87101110761E+03  0.50841420994E+03 0.  0.
        5    1    3    3  502    0  0.22965734512E+03  0.10481365406E+03 -0.30306129419E+03  0.39445739476E+03  0.46999998093E+01 0.  1.
       -5    1    3    3    0  502 -0.22965734512E+03 -0.10481365406E+03 -0.40416946073E+03  0.47655371285E+03  0.46999998093E+01 0. -1.
</event>
<event>
 5   0  0.1448458E-01  0.4933364E+03  0.7818609E-02  0.1015533E+00
        1   -1    0    0  501    0  0.00000000000E+00  0.00000000000E+00  0.53604079424E+03  0.53604079426E+03  0.50400001928E-02 0. -1.
       -1   -1    0    0    0  501  0.00000000000E+00  0.00000000000E+00 -0.11350852731E+03  0.11350852742E+03  0.50400001928E-02 0.  1.
    10030    2    1    2    0    0  0.00000000000E+00  0.00000000000E+00  0.42253226693E+03  0.64954932168E+03  0.49333640115E+03 0.  0.
        5    1    3    3  502    0  0.96265188068E+01  0.19460771592E+03  0.12203048869E+02  0.19528399156E+03  0.46999998093E+01 0.  1.
       -5    1    3    3    0  502 -0.96265188068E+01 -0.19460771592E+03  0.41032921806E+03  0.45426533012E+03  0.46999998093E+01 0. -1.
</event>
<event>
 5   0  0.1453602E-01  0.4528681E+03  0.7818609E-02  0.1026870E+00
        1   -1    0    0  501    0  0.00000000000E+00  0.00000000000E+00  0.10100774679E+04  0.10100774679E+04  0.50400001928E-02 0.  1.
       -1   -1    0    0    0  501  0.00000000000E+00  0.00000000000E+00 -0.50760844670E+02  0.50760844921E+02  0.50400001928E-02 0. -1.
    10030    2    1    2    0    0  0.00000000000E+00  0.00000000000E+00  0.95931662322E+03  0.10608383128E+04  0.45286812912E+03 0.  0.
        2    1    3    3  502    0 -0.16461517721E+03  0.13646706351E+03  0.65418500573E+03  0.68824373424E+03  0.25500000920E-02 0.  1.
       -2    1    3    3    0  502  0.16461517721E+03 -0.13646706351E+03  0.30513161749E+03  0.37259457859E+03  0.25500000920E-02 0. -1.
</event>
<event>
 5   0  0.9868500E-02  0.4955477E+03  0.7818609E-02  0.1014948E+00
       -4   -1    0    0    0  501  0.00000000000E+00  0.00000000000E+00  0.42534650220E+03  0.42534839817E+03  0.12699999809E+01 0. -1.
        4   -1    0    0  501    0  0.00000000000E+00  0.00000000000E+00 -0.14432881752E+03  0.14433440500E+03  0.12699999809E+01 0.  1.
    10030    2    1    2    0    0  0.00000000000E+00  0.00000000000E+00  0.28101768468E+03  0.56968280317E+03  0.49554773446E+03 0.  0.
        5    1    3    3  502    0 -0.24210105623E+03  0.51053500175E+02  0.12640954445E+03  0.27788638728E+03  0.46999998093E+01 0.  1.
       -5    1    3    3    0  502  0.24210105623E+03 -0.51053500175E+02  0.15460814023E+03  0.29179641589E+03  0.46999998093E+01 0. -1.
</event>
<event>
 5   0  0.9868500E-02  0.5138495E+03  0.7818609E-02  0.1010226E+00
        3   -1    0    0  501    0  0.00000000000E+00  0.00000000000E+00  0.98622703516E+02  0.98622755233E+02  0.10100000352E+00 0.  1.
       -3   -1    0    0    0  501  0.00000000000E+00  0.00000000000E+00 -0.66932148483E+03  0.66932149245E+03  0.10100000352E+00 0. -1.
    10030    2    1    2    0    0  0.00000000000E+00  0.00000000000E+00 -0.57069878132E+03  0.76794424768E+03  0.51384946099E+03 0.  0.
        1    1    3    3  502    0  0.24077336626E+03 -0.12324777112E+02 -0.15262865558E+03  0.28534053438E+03  0.50400001928E-02 0. -1.
       -1    1    3    3    0  502 -0.24077336626E+03  0.12324777112E+02 -0.41807012574E+03  0.48260371330E+03  0.50400001928E-02 0.  1.
</event>
<event>
 5   0  0.9868500E-02  0.3885117E+03  0.7818609E-02  0.1047832E+00
       -4   -1    0    0    0  501  0.00000000000E+00  0.00000000000E+00  0.79651093125E+02  0.79661217264E+02  0.12699999809E+01 0.  1.
        4   -1    0    0  501    0  0.00000000000E+00  0.00000000000E+00 -0.47371689571E+03  0.47371859810E+03  0.12699999809E+01 0. -1.
    10030    2    1    2    0    0  0.00000000000E+00  0.00000000000E+00 -0.39406580259E+03  0.55337981536E+03  0.38851172863E+03 0.  0.
        4    1    3    3  502    0 -0.49699347770E+02 -0.13189569044E+02  0.69781485273E+02  0.86689436999E+02  0.12699999809E+01 0.  1.
       -4    1    3    3    0  502  0.49699347770E+02  0.13189569044E+02 -0.46384728786E+03  0.46669037836E+03  0.12699999809E+01 0. -1.
</event>
<event>
 5   0  0.2511944E-01  0.5010074E+03  0.7818609E-02  0.1013516E+00
        2   -1    0    0  501    0  0.00000000000E+00  0.00000000000E+00  0.16189239258E+04  0.16189239258E+04  0.25500000920E-02 0. -1.
       -2   -1    0    0    0  501  0.00000000000E+00  0.00000000000E+00 -0.38761610984E+02  0.38761611068E+02  0.25500000920E-02 0.  1.
    10030    2    1    2    0    0  0.00000000000E+00  0.00000000000E+00  0.15801623148E+04  0.16576855369E+04  0.50100738316E+03 0.  0.
        1    1    3    3  502    0  0.18504528120E+03  0.75420233855E+02  0.12899270480E+04  0.13053128962E+04  0.50400001928E-02 0. -1.
       -1    1    3    3    0  502 -0.18504528120E+03 -0.75420233855E+02  0.29023526678E+03  0.35237264065E+03  0.50400001928E-02 0.  1.
</event>
<event>
 5   0  0.1448458E-01  0.4911979E+03  0.7818609E-02  0.1016102E+00
        1   -1    0    0  501    0  0.00000000000E+00  0.00000000000E+00  0.77883001863E+03  0.77883001865E+03  0.50400001928E-02 0. -1.
       -1   -1    0    0    0  501  0.00000000000E+00  0.00000000000E+00 -0.77448014069E+02  0.77448014233E+02  0.50400001928E-02 0.  1.
    10030    2    1    2    0    0  0.00000000000E+00  0.00000000000E+00  0.70138200456E+03  0.85627803288E+03  0.49119787588E+03 0.  0.
        5    1    3    3  502    0 -0.16440591824E+03 -0.17964725196E+03  0.40566010158E+03  0.47316450533E+03  0.46999998093E+01 0.  1.
       -5    1    3    3    0  502  0.16440591824E+03  0.17964725196E+03  0.29572190298E+03  0.38311352755E+03  0.46999998093E+01 0. -1.
</event>
<event>
 5   0  0.1453602E-01  0.5027383E+03  0.7818609E-02  0.1013067E+00
       -1   -1    0    0    0  501  0.00000000000E+00  0.00000000000E+00  0.36745379976E+03  0.36745379980E+03  0.50400001928E-02 0.  1.
        1   -1    0    0  501    0  0.00000000000E+00  0.00000000000E+00 -0.17195756492E+03  0.17195756500E+03  0.50400001928E-02 0. -1.
    10030    2    1    2    0    0  0.00000000000E+00  0.00000000000E+00  0.19549623484E+03  0.53941136480E+03  0.50273834411E+03 0.  0.
        2    1    3    3  502    0  0.23369962625E+03  0.50102157943E+02  0.18127767101E+03  0.29997889184E+03  0.25500000920E-02 0.  1.
       -2    1    3    3    0  502 -0.23369962625E+03 -0.50102157943E+02  0.14218563832E+02  0.23943247295E+03  0.25500000920E-02 0. -1.
</event>
<event>
 5   0  0.1529146E-01  0.5049195E+03  0.7818609E-02  0.1012503E+00
        1   -1    0    0  501    0  0.00000000000E+00  0.00000000000E+00  0.34367428924E+03  0.34367428928E+03  0.50400001928E-02 0.  1.
       -1   -1    0    0    0  501  0.00000000000E+00  0.00000000000E+00 -0.18545441198E+03  0.18545441205E+03  0.50400001928E-02 0. -1.
    10030    2    1    2    0    0  0.00000000000E+00  0.00000000000E+00  0.15821987726E+03  0.52912870132E+03  0.50491945199E+03 0.  0.
        1    1    3    3  502    0 -0.13035127118E+03  0.40094600303E+02  0.30175086307E+03  0.33113836120E+03  0.50400001928E-02 0.  1.
       -1    1    3    3    0  502  0.13035127118E+03 -0.40094600303E+02 -0.14353098580E+03  0.19799034012E+03  0.50400001928E-02 0. -1.
</event>
<event>
 5   0  0.2504064E-01  0.5003846E+03  0.7818609E-02  0.1013679E+00
       -2   -1    0    0    0  501  0.00000000000E+00  0.00000000000E+00  0.64935543558E+02  0.64935543608E+02  0.25500000920E-02 0. -1.
        2   -1    0    0  501    0  0.00000000000E+00  0.00000000000E+00 -0.96397401241E+03  0.96397401241E+03  0.25500000920E-02 0.  1.
    10030    2    1    2    0    0  0.00000000000E+00  0.00000000000E+00 -0.89903846885E+03  0.10289095560E+04  0.50038455811E+03 0.  0.
        5    1    3    3  502    0  0.10749973204E+03  0.12321994553E+03 -0.60272098665E+02  0.17433921888E+03  0.46999998093E+01 0. -1.
       -5    1    3    3    0  502 -0.10749973204E+03 -0.12321994553E+03 -0.83876637018E+03  0.85457033714E+03  0.46999998093E+01 0.  1.
</event>
<event>
 5   0  0.2504064E-01  0.5071116E+03  0.7818609E-02  0.1011939E+00
       -2   -1    0    0    0  501  0.00000000000E+00  0.00000000000E+00  0.79215084631E+02  0.79215084672E+02  0.25500000920E-02 0.  1.
        2   -1    0    0  501    0  0.00000000000E+00  0.00000000000E+00 -0.81159473206E+03  0.81159473207E+03  0.25500000920E-02 0. -1.
    10030    2    1    2    0    0  0.00000000000E+00  0.00000000000E+00 -0.73237964743E+03  0.89080981674E+03  0.50711160668E+03 0.  0.
        5    1    3    3  502    0 -0.24907421181E+03  0.45358582984E+02 -0.34307880187E+03  0.42640417251E+03  0.46999998093E+01 0. -1.
       -5    1    3    3    0  502  0.24907421181E+03 -0.45358582984E+02 -0.38930084556E+03  0.46440564423E+03  0.46999998093E+01 0.  1.
</event>
<event>
 5   0  0.2413301E-01  0.5076100E+03  0.7818609E-02  0.1011811E+00
       -2   -1    0    0    0  501  0.00000000000E+00  0.00000000000E+00  0.59178990207E+02  0.59178990262E+02  0.25500000920E-02 0.  1.
        2   -1    0    0  501    0  0.00000000000E+00  0.00000000000E+00 -0.10885108055E+04  0.10885108055E+04  0.25500000920E-02 0. -1.
    10030    2    1    2    0    0  0.00000000000E+00  0.00000000000E+00 -0.10293318153E+04  0.11476897957E+04  0.50760996968E+03 0.  0.
        4    1    3    3  502    0 -0.13337474432E+03 -0.21579343466E+03 -0.49719218605E+03  0.55817319143E+03  0.12699999809E+01 0. -1.
       -4    1    3    3    0  502  0.13337474432E+03  0.21579343466E+03 -0.53213962922E+03  0.58951660430E+03  0.12699999809E+01 0.  1.
</event>
<event>
 5   0  0.1448458E-01  0.4955740E+03  0.7818609E-02  0.1014941E+00
       -1   -1    0    0    0  501  0.00000000000E+00  0.00000000000E+00  0.38739785224E+02  0.38739785552E+02  0.50400001928E-02 0. -1.
        1   -1    0    0  501    0  0.00000000000E+00  0.00000000000E+00 -0.15848925669E+04  0.15848925669E+04  0.50400001928E-02 0.  1.
    10030    2    1    2    0    0  0.00000000000E+00  0.00000000000E+00 -0.15461527817E+04  0.16236323525E+04  0.49557400222E+03 0.  0.
        5    1    3    3  502    0  0.18040672818E+03 -0.12164529636E+03 -0.11611741813E+04  0.11813939796E+04  0.46999998093E+01 0.  1.
       -5    1    3    3    0  502 -0.18040672818E+03  0.12164529636E+03 -0.38497860045E+03  0.44223837294E+03  0.46999998093E+01 0. -1.
</event>
<event>
 5   0  0.2488968E-01  0.4747358E+03  0.7818609E-02  0.1020592E+00
        2   -1    0    0  501    0  0.00000000000E+00  0.00000000000E+00  0.11329605948E+04  0.11329605948E+04  0.25500000920E-02 0. -1.
       -2   -1    0    0    0  501  0.00000000000E+00  0.00000000000E+00 -0.49731230317E+02  0.49731230383E+02  0.25500000920E-02 0.  1.
    10030    2    1    2    0    0  0.00000000000E+00  0.00000000000E+00  0.10832293645E+04  0.11826918252E+04  0.47473581842E+03 0.  0.
        2    1    3    3  502    0 -0.67657903993E+01  0.10565749552E+03  0.12350296068E+02  0.10659180128E+03  0.25500000920E-02 0.  1.
       -2    1    3    3    0  502  0.67657903993E+01 -0.10565749552E+03  0.10708790685E+04  0.10761000239E+04  0.25500000920E-02 0. -1.
</event>
<event>
 5   0  0.1453602E-01  0.5009731E+03  0.7818609E-02  0.1013525E+00
        1   -1    0    0  501    0  0.00000000000E+00  0.00000000000E+00  0.51557964536E+03  0.51557964538E+03  0.50400001928E-02 0.  1.
       -1   -1    0    0    0  501  0.00000000000E+00  0.00000000000E+00 -0.12169508362E+03  0.12169508373E+03  0.50400001928E-02 0. -1.
    10030    2    1    2    0    0  0.00000000000E+00  0.00000000000E+00  0.39388456174E+03  0.63727472911E+03  0.50097308549E+03 0.  0.
        2    1    3    3  502    0 -0.12739651874E+03 -0.77399454288E+02  0.45301474520E+03  0.47690974816E+03  0.25500000920E-02 0.  1.
       -2    1    3    3    0  502  0.12739651874E+03  0.77399454288E+02 -0.59130183468E+02  0.16036498095E+03  0.25500000920E-02 0. -1.
</event>
<event>
 5   0  0.2488968E-01  0.5137170E+03  0.7818609E-02  0.1010259E+00
        2   -1    0    0  501    0  0.00000000000E+00  0.00000000000E+00  0.27354074459E+03  0.27354074460E+03  0.25500000920E-02 0. -1.
       -2   -1    0    0    0  501  0.00000000000E+00  0.00000000000E+00 -0.24119359754E+03  0.24119359755E+03  0.25500000920E-02 0.  1.
    10030    2    1    2    0    0  0.00000000000E+00  0.00000000000E+00  0.32347147050E+02  0.51473434215E+03  0.51371695034E+03 0.  0.
        2    1    3    3  502    0 -0.21787747456E+03 -0.13569290912E+03  0.25842386495E+02  0.25797478259E+03  0.25500000920E-02 0.  1.
       -2    1    3    3    0  502  0.21787747456E+03  0.13569290912E+03  0.65047605549E+01  0.25675955956E+03  0.25500000920E-02 0. -1.
</event>
<event>
 5   0  0.1448458E-01  0.4981850E+03  0.7818609E-02  0.1014254E+00
       -1   -1    0    0    0  501  0.00000000000E+00  0.00000000000E+00  0.83044831207E+02  0.83044831360E+02  0.50400001928E-02 0. -1.
        1   -1    0    0  501    0  0.00000000000E+00  0.00000000000E+00 -0.74715153082E+03  0.74715153084E+03  0.50400001928E-02 0.  1.
    10030    2    1    2    0    0  0.00000000000E+00  0.00000000000E+00 -0.66410669961E+03  0.83019636220E+03  0.49818499710E+03 0.  0.
        5    1    3    3  502    0 -0.67213789989E+02 -0.13751458019E+03 -0.65944464076E+03  0.67699134231E+03  0.46999998093E+01 0.  1.
       -5    1    3    3    0  502  0.67213789989E+02  0.13751458019E+03 -0.46620588513E+01  0.15320501989E+03  0.46999998093E+01 0. -1.
</event>
<event>
 5   0  0.2413301E-01  0.5003097E+03  0.7818609E-02  0.1013698E+00
       -2   -1    0    0    0  501  0.00000000000E+00  0.00000000000E+00  0.79940390300E+02  0.79940390341E+02  0.25500000920E-02 0.  1.
        2   -1    0    0  501    0  0.00000000000E+00  0.00000000000E+00 -0.78280144575E+03  0.78280144576E+03  0.25500000920E-02 0. -1.
    10030    2    1    2    0    0  0.00000000000E+00  0.00000000000E+00 -0.70286105545E+03  0.86274183610E+03  0.50030971656E+03 0.  0.
        4    1    3    3  502    0 -0.12399436173E+03 -0.17200485321E+03 -0.58030125956E+03  0.61782799873E+03  0.12699999809E+01 0. -1.
       -4    1    3    3    0  502  0.12399436173E+03  0.17200485321E+03 -0.12255979590E+03  0.24491383737E+03  0.12699999809E+01 0.  1.
</event>
<event>
 5   0  0.1529146E-01  0.4986668E+03  0.7818609E-02  0.1014127E+00
       -1   -1    0    0    0  501  0.00000000000E+00  0.00000000000E+00  0.15656453299E+03  0.15656453307E+03  0.50400001928E-02 0. -1.
        1   -1    0    0  501    0  0.00000000000E+00  0.00000000000E+00 -0.39707045312E+03  0.39707045315E+03  0.50400001928E-02 0.  1.
    10030    2    1    2    0    0  0.00000000000E+00  0.00000000000E+00 -0.24050592013E+03  0.55363498622E+03  0.49866682299E+03 0.  0.
        1    1    3    3  502    0  0.23135680413E+03 -0.62332144595E+02 -0.43688251685E+02  0.24355683203E+03  0.50400001928E-02 0. -1.
       -1    1    3    3    0  502 -0.23135680413E+03  0.62332144595E+02 -0.19681766845E+03  0.31007815419E+03  0.50400001928E-02 0.  1.
</event>
<event>
 5   0  0.1448458E-01  0.5070762E+03  0.7818609E-02  0.1011948E+00
        1   -1    0    0  501    0  0.00000000000E+00  0.00000000000E+00  0.75061128766E+03  0.75061128767E+03  0.50400001928E-02 0. -1.
       -1   -1    0    0    0  501  0.00000000000E+00  0.00000000000E+00 -0.85638952338E+02  0.85638952486E+02  0.50400001928E-02 0.  1.
    10030    2    1    2    0    0  0.00000000000E+00  0.00000000000E+00  0.66497233532E+03  0.83625024016E+03  0.50707618503E+03 0.  0.
        5    1    3    3  502    0  0.44259844960E+01  0.14428912182E+03  0.67613163746E+03  0.69138630387E+03  0.46999998093E+01 0. -1.
       -5    1    3    3    0  502 -0.44259844960E+01 -0.14428912182E+03 -0.11159302137E+02  0.14486393629E+03  0.46999998093E+01 0.  1.
</event>
<event>
 5   0  0.1439814E-01  0.4994085E+03  0.7818609E-02  0.1013933E+00
       -1   -1    0    0    0  501  0.00000000000E+00  0.00000000000E+00  0.32045928514E+03  0.32045928518E+03  0.50400001928E-02 0. -1.
        1   -1    0    0  501    0  0.00000000000E+00  0.00000000000E+00 -0.19457142945E+03  0.19457142952E+03  0.50400001928E-02 0.  1.
    10030    2    1    2    0    0  0.00000000000E+00  0.00000000000E+00  0.12588785569E+03  0.51503071470E+03  0.49940853504E+03 0.  0.
        4    1    3    3  502    0 -0.12951616045E+03  0.17763218257E+03 -0.59179034376E+02  0.22766510298E+03  0.12699999809E+01 0.  1.
       -4    1    3    3    0  502  0.12951616045E+03 -0.17763218257E+03  0.18506689006E+03  0.28736561172E+03  0.12699999809E+01 0. -1.
</event>
<event>
 5   0  0.2488968E-01  0.5015358E+03  0.7818609E-02  0.1013379E+00
       -2   -1    0    0    0  501  0.00000000000E+00  0.00000000000E+00  0.14943059348E+03  0.14943059350E+03  0.25500000920E-02 0. -1.
        2   -1    0    0  501    0  0.00000000000E+00  0.00000000000E+00 -0.42082772689E+03  0.42082772690E+03  0.25500000920E-02 0.  1.
    10030    2    1    2    0    0  0.00000000000E+00  0.00000000000E+00 -0.27139713342E+03  0.57025832040E+03  0.50153578931E+03 0.  0.
        2    1    3    3  502    0  0.12282832631E+03  0.90712859516E+02  0.90477568878E+02  0.17748749562E+03  0.25500000920E-02 0. -1.
       -2    1    3    3    0  502 -0.12282832631E+03 -0.90712859516E+02 -0.36187470230E+03  0.39277082478E+03  0.25500000920E-02 0.  1.
</event>
<event>
 5   0  0.2466034E-01  0.5126946E+03  0.7818609E-02  0.1010518E+00
       -2   -1    0    0    0  501  0.00000000000E+00  0.00000000000E+00  0.81900463524E+02  0.81900463564E+02  0.25500000920E-02 0.  1.
        2   -1    0    0  501    0  0.00000000000E+00  0.00000000000E+00 -0.80236338421E+03  0.80236338421E+03  0.25500000920E-02 0. -1.
    10030    2    1    2    0    0  0.00000000000E+00  0.00000000000E+00 -0.72046292068E+03  0.88426384778E+03  0.51269458004E+03 0.  0.
        3    1    3    3  502    0  0.16442273232E+03 -0.69444119292E+01 -0.69922416287E+03  0.71832965963E+03  0.10100000352E+00 0. -1.
       -3    1    3    3    0  502 -0.16442273232E+03  0.69444119292E+01 -0.21238757814E+02  0.16593418815E+03  0.10100000352E+00 0.  1.
</event>
<event>
 5   0  0.1413361E-01  0.5099684E+03  0.7818609E-02  0.1011209E+00
        1   -1    0    0  501    0  0.00000000000E+00  0.00000000000E+00  0.37579793248E+03  0.37579793251E+03  0.50400001928E-02 0. -1.
       -1   -1    0    0    0  501  0.00000000000E+00  0.00000000000E+00 -0.17301036778E+03  0.17301036786E+03  0.50400001928E-02 0.  1.
    10030    2    1    2    0    0  0.00000000000E+00  0.00000000000E+00  0.20278756469E+03  0.54880830037E+03  0.50996838545E+03 0.  0.
        3    1    3    3  502    0  0.10641888225E+03 -0.12883650642E+03 -0.10587028131E+03  0.19781898431E+03  0.10100000352E+00 0.  1.
       -3    1    3    3    0  502 -0.10641888225E+03  0.12883650642E+03  0.30865784601E+03  0.35098931606E+03  0.10100000352E+00 0. -1.
</event>
<event>
 5   0  0.2504064E-01  0.5010313E+03  0.7818609E-02  0.1013510E+00
       -2   -1    0    0    0  501  0.00000000000E+00  0.00000000000E+00  0.23542031025E+03  0.23542031027E+03  0.25500000920E-02 0. -1.
        2   -1    0    0  501    0  0.00000000000E+00  0.00000000000E+00 -0.26657891324E+03  0.26657891326E+03  0.25500000920E-02 0.  1.
    10030    2    1    2    0    0  0.00000000000E+00  0.00000000000E+00 -0.31158602989E+02  0.50199922352E+03  0.50103129830E+03 0.  0.
        5    1    3    3  502    0  0.56472358266E+02 -0.10700745469E+03 -0.23531161244E+03  0.26463818234E+03  0.46999998093E+01 0.  1.
       -5    1    3    3    0  502 -0.56472358266E+02  0.10700745469E+03  0.20415300945E+03  0.23736104118E+03  0.46999998093E+01 0. -1.
</event>
<event>
 5   0  0.2504064E-01  0.5020901E+03  0.7818609E-02  0.1013235E+00
       -2   -1    0    0    0  501  0.00000000000E+00  0.00000000000E+00  0.59798768657E+02  0.59798768711E+02  0.25500000920E-02 0.  1.
        2   -1    0    0  501    0  0.00000000000E+00  0.00000000000E+00 -0.10539281556E+04  0.10539281556E+04  0.25500000920E-02 0. -1.
    10030    2    1    2    0    0  0.00000000000E+00  0.00000000000E+00 -0.99412938692E+03  0.11137269243E+04  0.50209005562E+03 0.  0.
        5    1    3    3  502    0 -0.96760631434E+01  0.22395489660E+03 -0.74755322863E+03  0.78045329236E+03  0.46999998093E+01 0. -1.
       -5    1    3    3    0  502  0.96760631434E+01 -0.22395489660E+03 -0.24657615829E+03  0.33327363194E+03  0.46999998093E+01 0.  1.
</event>
<event>
 5   0  0.2504064E-01  0.5109348E+03  0.7818609E-02  0.1010964E+00
        2   -1    0    0  501    0  0.00000000000E+00  0.00000000000E+00  0.29079737479E+04  0.29079737479E+04  0.25500000920E-02 0.  1.
       -2   -1    0    0    0  501  0.00000000000E+00  0.00000000000E+00 -0.22442976716E+02  0.22442976861E+02  0.25500000920E-02 0. -1.
    10030    2    1    2    0    0  0.00000000000E+00  0.00000000000E+00  0.28855307712E+04  0.29304167248E+04  0.51093477991E+03 0.  0.
        5    1    3    3  502    0 -0.86869850458E+02 -0.65134016811E+02  0.27687811447E+04  0.27709131940E+04  0.46999998093E+01 0.  1.
       -5    1    3    3    0  502  0.86869850458E+02  0.65134016811E+02  0.11674962648E+03  0.15950353083E+03  0.46999998093E+01 0. -1.
</event>
<event>
 5   0  0.1439814E-01  0.4924145E+03  0.7818609E-02  0.1015778E+00
        1   -1    0    0  501    0  0.00000000000E+00  0.00000000000E+00  0.21274753667E+04  0.21274753667E+04  0.50400001928E-02 0. -1.
       -1   -1    0    0    0  501  0.00000000000E+00  0.00000000000E+00 -0.28492933734E+02  0.28492934180E+02  0.50400001928E-02 0.  1.
    10030    2    1    2    0    0  0.00000000000E+00  0.00000000000E+00  0.20989824330E+04  0.21559683009E+04  0.49241452103E+03 0.  0.
        4    1    3    3  502    0 -0.23844950992E+03  0.24980997428E+01  0.78130124989E+03  0.81688289569E+03  0.12699999809E+01 0.  1.
       -4    1    3    3    0  502  0.23844950992E+03 -0.24980997428E+01  0.13176811831E+04  0.13390854052E+04  0.12699999809E+01 0. -1.
</event>
<event>
 5   0  0.2413301E-01  0.5015307E+03  0.7818609E-02  0.1013380E+00
       -2   -1    0    0    0  501  0.00000000000E+00  0.00000000000E+00  0.49447752663E+02  0.49447752729E+02  0.25500000920E-02 0. -1.
        2   -1    0    0  501    0  0.00000000000E+00  0.00000000000E+00 -0.12717110109E+04  0.12717110109E+04  0.25500000920E-02 0.  1.
    10030    2    1    2    0    0  0.00000000000E+00  0.00000000000E+00 -0.12222632582E+04  0.13211587636E+04  0.50153066335E+03 0.  0.
        4    1    3    3  502    0 -0.19852266530E+02 -0.22644457382E+03 -0.89004395608E+03  0.91861369147E+03  0.12699999809E+01 0.  1.
       -4    1    3    3    0  502  0.19852266530E+02  0.22644457382E+03 -0.33221930215E+03  0.40254507216E+03  0.12699999809E+01 0. -1.
</event>
<event>
 5   0  0.1439814E-01  0.4900127E+03  0.7818609E-02  0.1016419E+00
       -1   -1    0    0    0  501  0.00000000000E+00  0.00000000000E+00  0.29961672546E+03  0.29961672550E+03  0.50400001928E-02 0.  1.
        1   -1    0    0  501    0  0.00000000000E+00  0.00000000000E+00 -0.20034968435E+03  0.20034968442E+03  0.50400001928E-02 0. -1.
    10030    2    1    2    0    0  0.00000000000E+00  0.00000000000E+00  0.99267041106E+02  0.49996640992E+03  0.49001271983E+03 0.  0.
        4    1    3    3  502    0  0.16239610361E+03 -0.17066297740E+03 -0.19024965093E+02  0.23635123973E+03  0.12699999809E+01 0. -1.
       -4    1    3    3    0  502 -0.16239610361E+03  0.17066297740E+03  0.11829200620E+03  0.26361517019E+03  0.12699999809E+01 0.  1.
</event>
<event>
 5   0  0.9868500E-02  0.5053731E+03  0.7818609E-02  0.1012386E+00
        3   -1    0    0  501    0  0.00000000000E+00  0.00000000000E+00  0.13886579163E+03  0.13886582836E+03  0.10100000352E+00 0.  1.
       -3   -1    0    0    0  501  0.00000000000E+00  0.00000000000E+00 -0.45979983793E+03  0.45979984902E+03  0.10100000352E+00 0. -1.
    10030    2    1    2    0    0  0.00000000000E+00  0.00000000000E+00 -0.32093404631E+03  0.59866567738E+03  0.50537306141E+03 0.  0.
        2    1    3    3  502    0  0.22419358268E+03 -0.29745596450E+02 -0.26953871106E+02  0.22775880707E+03  0.25500000920E-02 0. -1.
       -2    1    3    3    0  502 -0.22419358268E+03  0.29745596450E+02 -0.29398017520E+03  0.37090687031E+03  0.25500000920E-02 0.  1.
</event>
<event>
 5   0  0.1529146E-01  0.4954106E+03  0.7818609E-02  0.1014984E+00
        1   -1    0    0  501    0  0.00000000000E+00  0.00000000000E+00  0.18808832822E+03  0.18808832829E+03  0.50400001928E-02 0.  1.
       -1   -1    0    0    0  501  0.00000000000E+00  0.00000000000E+00 -0.32621856623E+03  0.32621856627E+03  0.50400001928E-02 0. -1.
    10030    2    1    2    0    0  0.00000000000E+00  0.00000000000E+00 -0.13813023801E+03  0.51430689456E+03  0.49541055614E+03 0.  0.
        1    1    3    3  502    0 -0.84239728629E+02 -0.15775790883E+03 -0.24699084510E+03  0.30493994043E+03  0.50400001928E-02 0. -1.
       -1    1    3    3    0  502  0.84239728629E+02  0.15775790883E+03  0.10886060709E+03  0.20936695413E+03  0.50400001928E-02 0.  1.
</event>
<event>
 5   0  0.1453602E-01  0.5050576E+03  0.7818609E-02  0.1012467E+00
        1   -1    0    0  501    0  0.00000000000E+00  0.00000000000E+00  0.30017512232E+03  0.30017512237E+03  0.50400001928E-02 0. -1.
       -1   -1    0    0    0  501  0.00000000000E+00  0.00000000000E+00 -0.21244528864E+03  0.21244528870E+03  0.50400001928E-02 0.  1.
    10030    2    1    2    0    0  0.00000000000E+00  0.00000000000E+00  0.87729833682E+02  0.51262041107E+03  0.50505758298E+03 0.  0.
        2    1    3    3  502    0 -0.22880470600E+03 -0.33458311908E+02  0.14687223866E+03  0.27393887387E+03  0.25500000920E-02 0. -1.
       -2    1    3    3    0  502  0.22880470600E+03  0.33458311908E+02 -0.59142404975E+02  0.23868153719E+03  0.25500000920E-02 0.  1.
</event>
<event>
 5   0  0.2413301E-01  0.4941511E+03  0.7818609E-02  0.1015317E+00
        2   -1    0    0  501    0  0.00000000000E+00  0.00000000000E+00  0.16702886977E+04  0.16702886977E+04  0.25500000920E-02 0. -1.
       -2   -1    0    0    0  501  0.00000000000E+00  0.00000000000E+00 -0.36548371459E+02  0.36548371548E+02  0.25500000920E-02 0.  1.
    10030    2    1    2    0    0  0.00000000000E+00  0.00000000000E+00  0.16337403262E+04  0.17068370692E+04  0.49415111795E+03 0.  0.
        4    1    3    3  502    0  0.98927206822E+02  0.20708453548E+03  0.11329537335E+04  0.11559655584E+04  0.12699999809E+01 0. -1.
       -4    1    3    3    0  502 -0.98927206822E+02 -0.20708453548E+03  0.50078659276E+03  0.55087151085E+03  0.12699999809E+01 0.  1.
</event>
<event>
 5   0  0.1439814E-01  0.5183469E+03  0.7818609E-02  0.1009098E+00
        1   -1    0    0  501    0  0.00000000000E+00  0.00000000000E+00  0.46432298892E+03  0.46432298894E+03  0.50400001928E-02 0. -1.
       -1   -1    0    0    0  501  0.00000000000E+00  0.00000000000E+00 -0.14466410271E+03  0.14466410280E+03  0.50400001928E-02 0.  1.
    10030    2    1    2    0    0  0.00000000000E+00  0.00000000000E+00  0.31965888621E+03  0.60898709174E+03  0.51834686685E+03 0.  0.
        4    1    3    3  502    0  0.15399455586E+03 -0.41240020838E+02 -0.80240426961E+02  0.17848025541E+03  0.12699999809E+01 0.  1.
       -4    1    3    3    0  502 -0.15399455586E+03  0.41240020838E+02  0.39989931317E+03  0.43050683633E+03  0.12699999809E+01 0. -1.
</event>
<event>
 5   0  0.1529146E-01  0.5066303E+03  0.7818609E-02  0.1012063E+00
       -1   -1    0    0    0  501  0.00000000000E+00  0.00000000000E+00  0.30879473751E+03  0.30879473755E+03  0.50400001928E-02 0. -1.
        1   -1    0    0  501    0  0.00000000000E+00  0.00000000000E+00 -0.20780327311E+03  0.20780327317E+03  0.50400001928E-02 0.  1.
    10030    2    1    2    0    0  0.00000000000E+00  0.00000000000E+00  0.10099146440E+03  0.51659801072E+03  0.50663026834E+03 0.  0.
        1    1    3    3  502    0 -0.91571312964E+02  0.10897441291E+03 -0.16316887040E+03  0.21652900111E+03  0.50400001928E-02 0.  1.
       -1    1    3    3    0  502  0.91571312964E+02 -0.10897441291E+03  0.26416033480E+03  0.30006900962E+03  0.50400001928E-02 0. -1.
</event>
<event>
 5   0  0.2511944E-01  0.4677370E+03  0.7818609E-02  0.1022561E+00
        2   -1    0    0  501    0  0.00000000000E+00  0.00000000000E+00  0.19728015348E+03  0.19728015350E+03  0.25500000920E-02 0.  1.
       -2   -1    0    0    0  501  0.00000000000E+00  0.00000000000E+00 -0.27724263932E+03  0.27724263934E+03  0.25500000920E-02 0. -1.
    10030    2    1    2    0    0  0.00000000000E+00  0.00000000000E+00 -0.79962485839E+02  0.47452279284E+03  0.46773697927E+03 0.  0.
        1    1    3    3  502    0 -0.15038665077E+03 -0.89006265409E+02 -0.19765876020E+03  0.26383185085E+03  0.50400001928E-02 0. -1.
       -1    1    3    3    0  502  0.15038665077E+03  0.89006265409E+02  0.11769627436E+03  0.21069094199E+03  0.50400001928E-02 0.  1.
</event>
<event>
 5   0  0.9868500E-02  0.5065814E+03  0.7818609E-02  0.1012075E+00
       -3   -1    0    0    0  501  0.00000000000E+00  0.00000000000E+00  0.60302431645E+02  0.60302516227E+02  0.10100000352E+00 0.  1.
        3   -1    0    0  501    0  0.00000000000E+00  0.00000000000E+00 -0.10639061941E+04  0.10639061989E+04  0.10100000352E+00 0. -1.
    10030    2    1    2    0    0  0.00000000000E+00  0.00000000000E+00 -0.10036037625E+04  0.11242087152E+04  0.50658140822E+03 0.  0.
        1    1    3    3  502    0 -0.16293835539E+03 -0.12693662635E+03 -0.17644498189E+03  0.27165170057E+03  0.50400001928E-02 0.  1.
       -1    1    3    3    0  502  0.16293835539E+03  0.12693662635E+03 -0.82715878061E+03  0.85255701459E+03  0.50400001928E-02 0. -1.
</event>
<event>
 5   0  0.2504064E-01  0.4942416E+03  0.7818609E-02  0.1015293E+00
        2   -1    0    0  501    0  0.00000000000E+00  0.00000000000E+00  0.23947978940E+03  0.23947978941E+03  0.25500000920E-02 0.  1.
       -2   -1    0    0    0  501  0.00000000000E+00  0.00000000000E+00 -0.25500563030E+03  0.25500563031E+03  0.25500000920E-02 0. -1.
    10030    2    1    2    0    0  0.00000000000E+00  0.00000000000E+00 -0.15525840898E+02  0.49448541972E+03  0.49424161964E+03 0.  0.
        5    1    3    3  502    0  0.19003276721E+03 -0.87385239732E+02 -0.13934955218E+03  0.25137426365E+03  0.46999998093E+01 0.  1.
       -5    1    3    3    0  502 -0.19003276721E+03  0.87385239732E+02  0.12382371128E+03  0.24311115608E+03  0.46999998093E+01 0. -1.
</event>
<event>
 5   0  0.1439814E-01  0.5103680E+03  0.7818609E-02  0.1011108E+00
        1   -1    0    0  501    0  0.00000000000E+00  0.00000000000E+00  0.17410843186E+03  0.17410843193E+03  0.50400001928E-02 0. -1.
       -1   -1    0    0    0  501  0.00000000000E+00  0.00000000000E+00 -0.37401329465E+03  0.37401329468E+03  0.50400001928E-02 0.  1.
    10030    2    1    2    0    0  0.00000000000E+00  0.00000000000E+00 -0.19990486279E+03  0.54812172661E+03  0.51036797805E+03 0.  0.
        4    1    3    3  502    0  0.51600724399E+02 -0.77510376849E+02 -0.35511273887E+03  0.36712009409E+03  0.12699999809E+01 0.  1.
       -4    1    3    3    0  502 -0.51600724399E+02  0.77510376849E+02  0.15520787608E+03  0.18100163252E+03  0.12699999809E+01 0. -1.
</event>
<event>
 5   0  0.2413301E-01  0.4973199E+03  0.7818609E-02  0.1014481E+00
       -2   -1    0    0    0  501  0.00000000000E+00  0.00000000000E+00  0.13071752163E+03  0.13071752165E+03  0.25500000920E-02 0. -1.
        2   -1    0    0  501    0  0.00000000000E+00  0.00000000000E+00 -0.47301814030E+03  0.47301814031E+03  0.25500000920E-02 0.  1.
    10030    2    1    2    0    0  0.00000000000E+00  0.00000000000E+00 -0.34230061867E+03  0.60373566196E+03  0.49731985279E+03 0.  0.
        4    1    3    3  502    0  0.71069738711E+02 -0.23800621439E+03 -0.18511265970E+03  0.30978407888E+03  0.12699999809E+01 0. -1.
       -4    1    3    3    0  502 -0.71069738711E+02  0.23800621439E+03 -0.15718795897E+03  0.29395158308E+03  0.12699999809E+01 0.  1.
</event>
<event>
 5   0  0.2488968E-01  0.4766176E+03  0.7818609E-02  0.1020069E+00
        2   -1    0    0  501    0  0.00000000000E+00  0.00000000000E+00  0.13658170711E+04  0.13658170711E+04  0.25500000920E-02 0. -1.
       -2   -1    0    0    0  501  0.00000000000E+00  0.00000000000E+00 -0.41580293993E+02  0.41580294071E+02  0.25500000920E-02 0.  1.
    10030    2    1    2    0    0  0.00000000000E+00  0.00000000000E+00  0.13242367771E+04  0.14073973652E+04  0.47661756332E+03 0.  0.
        2    1    3    3  502    0  0.12478501953E+03 -0.13012464667E+03  0.20192882738E+03  0.27070089786E+03  0.25500000920E-02 0.  1.
       -2    1    3    3    0  502 -0.12478501953E+03  0.13012464667E+03  0.11223079498E+04  0.11366964673E+04  0.25500000920E-02 0. -1.
</event>
<event>
 5   0  0.1529146E-01  0.4997983E+03  0.7818609E-02  0.1013832E+00
       -1   -1    0    0    0  501  0.00000000000E+00  0.00000000000E+00  0.32441420002E+03  0.32441420006E+03  0.50400001928E-02 0. -1.
        1   -1    0    0  501    0  0.00000000000E+00  0.00000000000E+00 -0.19249951424E+03  0.19249951431E+03  0.50400001928E-02 0.  1.
    10030    2    1    2    0    0  0.00000000000E+00  0.00000000000E+00  0.13191468577E+03  0.51691371437E+03  0.49979826308E+03 0.  0.
        1    1    3    3  502    0 -0.99878019130E+02  0.18730777381E+03 -0.70428736435E+02  0.22365157673E+03  0.50400001928E-02 0.  1.
       -1    1    3    3    0  502  0.99878019130E+02 -0.18730777381E+03  0.20234342221E+03  0.29326213764E+03  0.50400001928E-02 0. -1.
</event>
<event>
 5   0  0.2488968E-01  0.5014240E+03  0.7818609E-02  0.1013408E+00
        2   -1    0    0  501    0  0.00000000000E+00  0.00000000000E+00  0.32606908261E+03  0.32606908262E+03  0.25500000920E-02 0. -1.
       -2   -1    0    0    0  501  0.00000000000E+00  0.00000000000E+00 -0.19277049284E+03  0.19277049285E+03  0.25500000920E-02 0.  1.
    10030    2    1    2    0    0  0.00000000000E+00  0.00000000000E+00  0.13329858977E+03  0.51883957548E+03  0.50142396337E+03 0.  0.
        2    1    3    3  502    0  0.58967783236E+02  0.19065611345E+00 -0.18549282950E+03  0.19464024664E+03  0.25500000920E-02 0.  1.
       -2    1    3    3    0  502 -0.58967783236E+02 -0.19065611345E+00  0.31879141927E+03  0.32419932884E+03  0.25500000920E-02 0. -1.
</event>
<event>
 5   0  0.1453602E-01  0.5121314E+03  0.7818609E-02  0.1010660E+00
        1   -1    0    0  501    0  0.00000000000E+00  0.00000000000E+00  0.12048506842E+04  0.12048506842E+04  0.50400001928E-02 0. -1.
       -1   -1    0    0    0  501  0.00000000000E+00  0.00000000000E+00 -0.54421387699E+02  0.54421387933E+02  0.50400001928E-02 0.  1.
    10030    2    1    2    0    0  0.00000000000E+00  0.00000000000E+00  0.11504292965E+04  0.12592720721E+04  0.51213141422E+03 0.  0.
        2    1    3    3  502    0 -0.15620438160E+02  0.10057227264E+03 -0.25492961172E+01  0.10181001438E+03  0.25500000920E-02 0.  1.
       -2    1    3    3    0  502  0.15620438160E+02 -0.10057227264E+03  0.11529785926E+04  0.11574620577E+04  0.25500000920E-02 0. -1.
</event>
<event>
 5   0  0.1439814E-01  0.4978893E+03  0.7818609E-02  0.1014331E+00
        1   -1    0    0  501    0  0.00000000000E+00  0.00000000000E+00  0.10207922284E+04  0.10207922284E+04  0.50400001928E-02 0. -1.
       -1   -1    0    0    0  501  0.00000000000E+00  0.00000000000E+00 -0.60711118712E+02  0.60711118921E+02  0.50400001928E-02 0.  1.
    10030    2    1    2    0    0  0.00000000000E+00  0.00000000000E+00  0.96008110970E+03  0.10815033473E+04  0.49788929805E+03 0.  0.
        4    1    3    3  502    0  0.51012399881E+02  0.17601636249E+03  0.84602358570E+03  0.86564516129E+03  0.12699999809E+01 0. -1.
       -4    1    3    3    0  502 -0.51012399881E+02 -0.17601636249E+03  0.11405752400E+03  0.21585818605E+03  0.12699999809E+01 0.  1.
</event>
<event>
 5   0  0.2511944E-01  0.5037904E+03  0.7818609E-02  0.1012794E+00
        2   -1    0    0  501    0  0.00000000000E+00  0.00000000000E+00  0.12520672002E+04  0.12520672002E+04  0.25500000920E-02 0.  1.
       -2   -1    0    0    0  501  0.00000000000E+00  0.00000000000E+00 -0.50677152302E+02  0.50677152366E+02  0.25500000920E-02 0. -1.
    10030    2    1    2    0    0  0.00000000000E+00  0.00000000000E+00  0.12013900479E+04  0.13027443526E+04  0.50379043358E+03 0.  0.
        1    1    3    3  502    0  0.58993003175E+02  0.21905230148E+03  0.88381246137E+03  0.91246290451E+03  0.50400001928E-02 0.  1.
       -1    1    3    3    0  502 -0.58993003175E+02 -0.21905230148E+03  0.31757758653E+03  0.39028144806E+03  0.50400001928E-02 0. -1.
</event>
<event>
 5   0  0.2488968E-01  0.5001351E+03  0.7818609E-02  0.1013744E+00
       -2   -1    0    0    0  501  0.00000000000E+00  0.00000000000E+00  0.55015901698E+03  0.55015901699E+03  0.25500000920E-02 0.  1.
        2   -1    0    0  501    0  0.00000000000E+00  0.00000000000E+00 -0.11366491522E+03  0.11366491525E+03  0.25500000920E-02 0. -1.
    10030    2    1    2    0    0  0.00000000000E+00  0.00000000000E+00  0.43649410176E+03  0.66382393224E+03  0.50013509389E+03 0.  0.
        2    1    3    3  502    0  0.11952377412E+03  0.19187996460E+03  0.76345461644E+02  0.23860528685E+03  0.25500000920E-02 0. -1.
       -2    1    3    3    0  502 -0.11952377412E+03 -0.19187996460E+03  0.36014864012E+03  0.42521864538E+03  0.25500000920E-02 0.  1.
</event>
<event>
 5   0  0.1529146E-01  0.5102949E+03  0.7818609E-02  0.1011126E+00
        1   -1    0    0  501    0  0.00000000000E+00  0.00000000000E+00  0.12654224520E+04  0.12654224520E+04  0.50400001928E-02 0. -1.
       -1   -1    0    0    0  501  0.00000000000E+00  0.00000000000E+00 -0.51445445820E+02  0.51445446067E+02  0.50400001928E-02 0.  1.
    10030    2    1    2    0    0  0.00000000000E+00  0.00000000000E+00  0.12139770061E+04  0.13168678980E+04  0.51029490438E+03 0.  0.
        1    1    3    3  502    0  0.13559595468E+03  0.15672723309E+02  0.11632762434E+04  0.11712572372E+04  0.50400001928E-02 0. -1.
       -1    1    3    3    0  502 -0.13559595468E+03 -0.15672723309E+02  0.50700762724E+02  0.14561066083E+03  0.50400001928E-02 0.  1.
</event>
<event>
 5   0  0.1453602E-01  0.5029503E+03  0.7818609E-02  0.1013012E+00
        1   -1    0    0  501    0  0.00000000000E+00  0.00000000000E+00  0.66253667681E+02  0.66253667873E+02  0.50400001928E-02 0.  1.
       -1   -1    0    0    0  501  0.00000000000E+00  0.00000000000E+00 -0.95450959432E+03  0.95450959433E+03  0.50400001928E-02 0. -1.
    10030    2    1    2    0    0  0.00000000000E+00  0.00000000000E+00 -0.88825592664E+03  0.10207632622E+04  0.50295034174E+03 0.  0.
        2    1    3    3  502    0  0.24163239874E+03  0.69518649357E+02 -0.43489343396E+03  0.50234585460E+03  0.25500000920E-02 0.  1.
       -2    1    3    3    0  502 -0.24163239874E+03 -0.69518649357E+02 -0.45336249268E+03  0.51841740760E+03  0.25500000920E-02 0. -1.
</event>
<event>
 5   0  0.2511944E-01  0.4993222E+03  0.7818609E-02  0.1013956E+00
        2   -1    0    0  501    0  0.00000000000E+00  0.00000000000E+00  0.15679271561E+03  0.15679271563E+03  0.25500000920E-02 0.  1.
       -2   -1    0    0    0  501  0.00000000000E+00  0.00000000000E+00 -0.39753551238E+03  0.39753551239E+03  0.25500000920E-02 0. -1.
    10030    2    1    2    0    0  0.00000000000E+00  0.00000000000E+00 -0.24074279676E+03  0.55432822802E+03  0.49932223082E+03 0.  0.
        1    1    3    3  502    0  0.12930391293E+03  0.14244742052E+03  0.56280012910E+02  0.20044502835E+03  0.50400001928E-02 0.  1.
       -1    1    3    3    0  502 -0.12930391293E+03 -0.14244742052E+03 -0.29702280967E+03  0.35388319967E+03  0.50400001928E-02 0. -1.
</event>
<event>
 5   0  0.1453602E-01  0.4449452E+03  0.7818609E-02  0.1029240E+00
       -1   -1    0    0    0  501  0.00000000000E+00  0.00000000000E+00  0.43889038994E+02  0.43889039283E+02  0.50400001928E-02 0. -1.
        1   -1    0    0  501    0  0.00000000000E+00  0.00000000000E+00 -0.11277088851E+04  0.11277088851E+04  0.50400001928E-02 0.  1.
    10030    2    1    2    0    0  0.00000000000E+00  0.00000000000E+00 -0.10838198461E+04  0.11715979244E+04  0.44494520746E+03 0.  0.
        2    1    3    3  502    0  0.19660300268E+03 -0.82369103449E+02 -0.37420114098E+03  0.43065520290E+03  0.25500000920E-02 0. -1.
       -2    1    3    3    0  502 -0.19660300268E+03  0.82369103449E+02 -0.70961870516E+03  0.74094272153E+03  0.25500000920E-02 0.  1.
</event>
<event>
 5   0  0.1529146E-01  0.4944057E+03  0.7818609E-02  0.1015250E+00
        1   -1    0    0  501    0  0.00000000000E+00  0.00000000000E+00  0.33529896085E+03  0.33529896089E+03  0.50400001928E-02 0. -1.
       -1   -1    0    0    0  501  0.00000000000E+00  0.00000000000E+00 -0.18225301496E+03  0.18225301503E+03  0.50400001928E-02 0.  1.
    10030    2    1    2    0    0  0.00000000000E+00  0.00000000000E+00  0.15304594589E+03  0.51755197592E+03  0.49440568992E+03 0.  0.
        1    1    3    3  502    0  0.12064689267E+03 -0.65389432344E+02 -0.13871885912E+03  0.19512655502E+03  0.50400001928E-02 0.  1.
       -1    1    3    3    0  502 -0.12064689267E+03  0.65389432344E+02  0.29176480501E+03  0.32242542090E+03  0.50400001928E-02 0. -1.
</event>
<event>
 5   0  0.9868500E-02  0.5170561E+03  0.7818609E-02  0.1009420E+00
       -3   -1    0    0    0  501  0.00000000000E+00  0.00000000000E+00  0.11625005486E+03  0.11625009874E+03  0.10100000352E+00 0.  1.
        3   -1    0    0  501    0  0.00000000000E+00  0.00000000000E+00 -0.57493929745E+03  0.57493930632E+03  0.10100000352E+00 0. -1.
    10030    2    1    2    0    0  0.00000000000E+00  0.00000000000E+00 -0.45868924259E+03  0.69118940506E+03  0.51705606312E+03 0.  0.
        1    1    3    3  502    0  0.99909224363E+02  0.23697370511E+03 -0.26467082384E+03  0.36903798591E+03  0.50400001928E-02 0.  1.
       -1    1    3    3    0  502 -0.99909224363E+02 -0.23697370511E+03 -0.19401841875E+03  0.32215141916E+03  0.50400001928E-02 0. -1.
</event>
<event>
 5   0  0.2413301E-01  0.4989303E+03  0.7818609E-02  0.1014059E+00
       -2   -1    0    0    0  501  0.00000000000E+00  0.00000000000E+00  0.92086404014E+02  0.92086404049E+02  0.25500000920E-02 0. -1.
        2   -1    0    0  501    0  0.00000000000E+00  0.00000000000E+00 -0.67580939792E+03  0.67580939793E+03  0.25500000920E-02 0.  1.
    10030    2    1    2    0    0  0.00000000000E+00  0.00000000000E+00 -0.58372299391E+03  0.76789580198E+03  0.49893028479E+03 0.  0.
        4    1    3    3  502    0 -0.10891556884E+01 -0.20548252395E+03 -0.50955893078E+03  0.54943258982E+03  0.12699999809E+01 0.  1.
       -4    1    3    3    0  502  0.10891556884E+01  0.20548252395E+03 -0.74164063125E+02  0.21846321216E+03  0.12699999809E+01 0. -1.
</event>
<event>
 5   0  0.2413301E-01  0.4930842E+03  0.7818609E-02  0.1015600E+00
       -2   -1    0    0    0  501  0.00000000000E+00  0.00000000000E+00  0.71493018771E+02  0.71493018816E+02  0.25500000920E-02 0. -1.
        2   -1    0    0  501    0  0.00000000000E+00  0.00000000000E+00 -0.85019496326E+03  0.85019496326E+03  0.25500000920E-02 0.  1.
    10030    2    1    2    0    0  0.00000000000E+00  0.00000000000E+00 -0.77870194448E+03  0.92168798208E+03  0.49308418952E+03 0.  0.
        4    1    3    3  502    0  0.59866562992E+02  0.19383874226E+03 -0.12749901721E+03  0.23961443123E+03  0.12699999809E+01 0. -1.
       -4    1    3    3    0  502 -0.59866562992E+02 -0.19383874226E+03 -0.65120292727E+03  0.68207355084E+03  0.12699999809E+01 0.  1.
</event>
<event>
 5   0  0.2413301E-01  0.4865223E+03  0.7818609E-02  0.1017358E+00
       -2   -1    0    0    0  501  0.00000000000E+00  0.00000000000E+00  0.20720244443E+03  0.20720244445E+03  0.25500000920E-02 0.  1.
        2   -1    0    0  501    0  0.00000000000E+00  0.00000000000E+00 -0.28559506687E+03  0.28559506688E+03  0.25500000920E-02 0. -1.
    10030    2    1    2    0    0  0.00000000000E+00  0.00000000000E+00 -0.78392622435E+02  0.49279751133E+03  0.48652233650E+03 0.  0.
        4    1    3    3  502    0  0.55661844034E+01 -0.15481277117E+03 -0.22916912625E+03  0.27661901210E+03  0.12699999809E+01 0. -1.
       -4    1    3    3    0  502 -0.55661844034E+01  0.15481277117E+03  0.15077650382E+03  0.21617849923E+03  0.12699999809E+01 0.  1.
</event>
<event>
 5   0  0.2466034E-01  0.5111084E+03  0.7818609E-02  0.1010919E+00
        2   -1    0    0  501    0  0.00000000000E+00  0.00000000000E+00  0.73192321000E+03  0.73192321001E+03  0.25500000920E-02 0.  1.
       -2   -1    0    0    0  501  0.00000000000E+00  0.00000000000E+00 -0.89227880320E+02  0.89227880356E+02  0.25500000920E-02 0. -1.
    10030    2    1    2    0    0  0.00000000000E+00  0.00000000000E+00  0.64269532968E+03  0.82115109036E+03  0.51110842921E+03 0.  0.
        3    1    3    3  502    0 -0.13154410548E+03 -0.21175292651E+03  0.23096551368E+03  0.33983559596E+03  0.10100000352E+00 0.  1.
       -3    1    3    3    0  502  0.13154410548E+03  0.21175292651E+03  0.41172981600E+03  0.48131549440E+03  0.10100000352E+00 0. -1.
</event>
<event>
 5   0  0.1529146E-01  0.4928073E+03  0.7818609E-02  0.1015674E+00
        1   -1    0    0  501    0  0.00000000000E+00  0.00000000000E+00  0.33471637804E+03  0.33471637808E+03  0.50400001928E-02 0.  1.
       -1   -1    0    0    0  501  0.00000000000E+00  0.00000000000E+00 -0.18139166773E+03  0.18139166780E+03  0.50400001928E-02 0. -1.
    10030    2    1    2    0    0  0.00000000000E+00  0.00000000000E+00  0.15332471031E+03  0.51610804587E+03  0.49280731349E+03 0.  0.
        1    1    3    3  502    0  0.29370523564E+02  0.24380007957E+03  0.55362192093E+02  0.25172619806E+03  0.50400001928E-02 0.  1.
       -1    1    3    3    0  502 -0.29370523564E+02 -0.24380007957E+03  0.97962518217E+02  0.26438184781E+03  0.50400001928E-02 0. -1.
</event>
<event>
 5   0  0.2488968E-01  0.4879367E+03  0.7818609E-02  0.1016976E+00
       -2   -1    0    0    0  501  0.00000000000E+00  0.00000000000E+00  0.78920893189E+02  0.78920893230E+02  0.25500000920E-02 0.  1.
        2   -1    0    0  501    0  0.00000000000E+00  0.00000000000E+00 -0.75417981094E+03  0.75417981095E+03  0.25500000920E-02 0. -1.
    10030    2    1    2    0    0  0.00000000000E+00  0.00000000000E+00 -0.67525891776E+03  0.83310070418E+03  0.48793665295E+03 0.  0.
        2    1    3    3  502    0  0.24041822431E+02  0.13477595510E+03 -0.68241329482E+03  0.69601039665E+03  0.25500000920E-02 0. -1.
       -2    1    3    3    0  502 -0.24041822431E+02 -0.13477595510E+03  0.71543770630E+01  0.13709030752E+03  0.25500000920E-02 0.  1.
</event>
<event>
 5   0  0.2511944E-01  0.5075903E+03  0.7818609E-02  0.1011817E+00
       -2   -1    0    0    0  501  0.00000000000E+00  0.00000000000E+00  0.13027408841E+03  0.13027408843E+03  0.25500000920E-02 0.  1.
        2   -1    0    0  501    0  0.00000000000E+00  0.00000000000E+00 -0.49443433175E+03  0.49443433176E+03  0.25500000920E-02 0. -1.
    10030    2    1    2    0    0  0.00000000000E+00  0.00000000000E+00 -0.36416024334E+03  0.62470842019E+03  0.50759031455E+03 0.  0.
        1    1    3    3  502    0  0.16035998382E+03 -0.31534592168E+02  0.56892162396E+02  0.17305049286E+03  0.50400001928E-02 0.  1.
       -1    1    3    3    0  502 -0.16035998382E+03  0.31534592168E+02 -0.42105240574E+03  0.45165792733E+03  0.50400001928E-02 0. -1.
</event>
<event>
 5   0  0.1453602E-01  0.3301942E+03  0.7818609E-02  0.1071051E+00
        1   -1    0    0  501    0  0.00000000000E+00  0.00000000000E+00  0.13229415141E+04  0.13229415141E+04  0.50400001928E-02 0. -1.
       -1   -1    0    0    0  501  0.00000000000E+00  0.00000000000E+00 -0.20603365746E+02  0.20603366362E+02  0.50400001928E-02 0.  1.
    10030    2    1    2    0    0  0.00000000000E+00  0.00000000000E+00  0.13023381484E+04  0.13435448805E+04  0.33019417497E+03 0.  0.
        2    1    3    3  502    0  0.22346286228E+02  0.10190457601E+02 -0.13128575467E+02  0.27848903652E+02  0.25500000920E-02 0.  1.
       -2    1    3    3    0  502 -0.22346286228E+02 -0.10190457601E+02  0.13154667238E+04  0.13156959768E+04  0.25500000920E-02 0. -1.
</event>
<event>
 5   0  0.1453602E-01  0.4926323E+03  0.7818609E-02  0.1015720E+00
       -1   -1    0    0    0  501  0.00000000000E+00  0.00000000000E+00  0.46483882695E+02  0.46483882968E+02  0.50400001928E-02 0. -1.
        1   -1    0    0  501    0  0.00000000000E+00  0.00000000000E+00 -0.13052191968E+04  0.13052191968E+04  0.50400001928E-02 0.  1.
    10030    2    1    2    0    0  0.00000000000E+00  0.00000000000E+00 -0.12587353141E+04  0.13517030798E+04  0.49263234254E+03 0.  0.
        2    1    3    3  502    0  0.23339929850E+03 -0.76973860324E+02 -0.58416102940E+03  0.63375414475E+03  0.25500000920E-02 0.  1.
       -2    1    3    3    0  502 -0.23339929850E+03  0.76973860324E+02 -0.67457428473E+03  0.71794893505E+03  0.25500000920E-02 0. -1.
</event>
<event>
 5   0  0.2511944E-01  0.4973962E+03  0.7818609E-02  0.1014461E+00
       -2   -1    0    0    0  501  0.00000000000E+00  0.00000000000E+00  0.91304818425E+03  0.91304818426E+03  0.25500000920E-02 0. -1.
        2   -1    0    0  501    0  0.00000000000E+00  0.00000000000E+00 -0.67740955199E+02  0.67740955247E+02  0.25500000920E-02 0.  1.
    10030    2    1    2    0    0  0.00000000000E+00  0.00000000000E+00  0.84530722905E+03  0.98078913950E+03  0.49739624514E+03 0.  0.
        1    1    3    3  502    0  0.18025644438E+03 -0.16457243583E+03  0.51668990126E+03  0.57144109624E+03  0.50400001928E-02 0. -1.
       -1    1    3    3    0  502 -0.18025644438E+03  0.16457243583E+03  0.32861732779E+03  0.40934804326E+03  0.50400001928E-02 0.  1.
</event>
<event>
 5   0  0.2413301E-01  0.5038572E+03  0.7818609E-02  0.1012777E+00
        2   -1    0    0  501    0  0.00000000000E+00  0.00000000000E+00  0.80721836953E+03  0.80721836954E+03  0.25500000920E-02 0. -1.
       -2   -1    0    0    0  501  0.00000000000E+00  0.00000000000E+00 -0.78625596135E+02  0.78625596177E+02  0.25500000920E-02 0.  1.
    10030    2    1    2    0    0  0.00000000000E+00  0.00000000000E+00  0.72859277340E+03  0.88584396571E+03  0.50385722397E+03 0.  0.
        4    1    3    3  502    0  0.74748617394E+02 -0.20777873015E+03  0.15108390925E+03  0.26755806293E+03  0.12699999809E+01 0.  1.
       -4    1    3    3    0  502 -0.74748617394E+02  0.20777873015E+03  0.57750886415E+03  0.61828590278E+03  0.12699999809E+01 0. -1.
</event>
<event>
 5   0  0.2413301E-01  0.4933705E+03  0.7818609E-02  0.1015524E+00
        2   -1    0    0  501    0  0.00000000000E+00  0.00000000000E+00  0.49200508323E+03  0.49200508323E+03  0.25500000920E-02 0.  1.
       -2   -1    0    0    0  501  0.00000000000E+00  0.00000000000E+00 -0.12368491398E+03  0.12368491401E+03  0.25500000920E-02 0. -1.
    10030    2    1    2    0    0  0.00000000000E+00  0.00000000000E+00  0.36832016925E+03  0.61568999724E+03  0.49337047503E+03 0.  0.
        4    1    3    3  502    0  0.10054430541E+03  0.17988187892E+03  0.35336962387E+03  0.40907010608E+03  0.12699999809E+01 0.  1.
       -4    1    3    3    0  502 -0.10054430541E+03 -0.17988187892E+03  0.14950545374E+02  0.20661989116E+03  0.12699999809E+01 0. -1.
</event>
<event>
 5   0  0.1413361E-01  0.4932924E+03  0.7818609E-02  0.1015545E+00
       -1   -1    0    0    0  501  0.00000000000E+00  0.00000000000E+00  0.66737823838E+02  0.66737824028E+02  0.50400001928E-02 0.  1.
        1   -1    0    0  501    0  0.00000000000E+00  0.00000000000E+00 -0.91154242208E+03  0.91154242210E+03  0.50400001928E-02 0. -1.
    10030    2    1    2    0    0  0.00000000000E+00  0.00000000000E+00 -0.84480459825E+03  0.97828024612E+03  0.49329243937E+03 0.  0.
        3    1    3    3  502    0 -0.11902997555E+03 -0.49088152978E+02 -0.51990523098E+01  0.12885969963E+03  0.10100000352E+00 0.  1.
       -3    1    3    3    0  502  0.11902997555E+03  0.49088152978E+02 -0.83960554594E+03  0.84942054650E+03  0.10100000352E+00 0. -1.
</event>
<event>
 5   0  0.9868500E-02  0.5056926E+03  0.7818609E-02  0.1012304E+00
       -3   -1    0    0    0  501  0.00000000000E+00  0.00000000000E+00  0.18917104876E+03  0.18917107573E+03  0.10100000352E+00 0. -1.
        3   -1    0    0  501    0  0.00000000000E+00  0.00000000000E+00 -0.33795464766E+03  0.33795466275E+03  0.10100000352E+00 0.  1.
    10030    2    1    2    0    0  0.00000000000E+00  0.00000000000E+00 -0.14878359890E+03  0.52712573848E+03  0.50569257941E+03 0.  0.
        2    1    3    3  502    0 -0.84051400801E+02  0.22393642258E+03  0.11052436358E+02  0.23944585127E+03  0.25500000920E-02 0. -1.
       -2    1    3    3    0  502  0.84051400801E+02 -0.22393642258E+03 -0.15983603525E+03  0.28767988721E+03  0.25500000920E-02 0.  1.
</event>
<event>
 5   0  0.1413361E-01  0.5022140E+03  0.7818609E-02  0.1013203E+00
       -1   -1    0    0    0  501  0.00000000000E+00  0.00000000000E+00  0.11229682225E+03  0.11229682237E+03  0.50400001928E-02 0.  1.
        1   -1    0    0  501    0  0.00000000000E+00  0.00000000000E+00 -0.56150063810E+03  0.56150063812E+03  0.50400001928E-02 0. -1.
    10030    2    1    2    0    0  0.00000000000E+00  0.00000000000E+00 -0.44920381585E+03  0.67379746049E+03  0.50221404759E+03 0.  0.
        3    1    3    3  502    0 -0.24933686397E+03 -0.64669882716E+01 -0.26357998070E+03  0.36288443077E+03  0.10100000352E+00 0. -1.
       -3    1    3    3    0  502  0.24933686397E+03  0.64669882716E+01 -0.18562383515E+03  0.31091302972E+03  0.10100000352E+00 0.  1.
</event>
<event>
 5   0  0.2488968E-01  0.5252414E+03  0.7818609E-02  0.1007393E+00
       -2   -1    0    0    0  501  0.00000000000E+00  0.00000000000E+00  0.90095054967E+02  0.90095055003E+02  0.25500000920E-02 0. -1.
        2   -1    0    0  501    0  0.00000000000E+00  0.00000000000E+00 -0.76552079810E+03  0.76552079811E+03  0.25500000920E-02 0.  1.
    10030    2    1    2    0    0  0.00000000000E+00  0.00000000000E+00 -0.67542574314E+03  0.85561585311E+03  0.52524142411E+03 0.  0.
        2    1    3    3  502    0 -0.17221248828E+03 -0.40976505629E+01 -0.14794760483E+02  0.17289539267E+03  0.25500000920E-02 0. -1.
       -2    1    3    3    0  502  0.17221248828E+03  0.40976505629E+01 -0.66063098265E+03  0.68272046044E+03  0.25500000920E-02 0.  1.
</event>
<event>
 5   0  0.1453602E-01  0.4823557E+03  0.7818609E-02  0.1018490E+00
        1   -1    0    0  501    0  0.00000000000E+00  0.00000000000E+00  0.10381886015E+04  0.10381886015E+04  0.50400001928E-02 0.  1.
       -1   -1    0    0    0  501  0.00000000000E+00  0.00000000000E+00 -0.56027167102E+02  0.56027167329E+02  0.50400001928E-02 0. -1.
    10030    2    1    2    0    0  0.00000000000E+00  0.00000000000E+00  0.98216143442E+03  0.10942157689E+04  0.48235574586E+03 0.  0.
        2    1    3    3  502    0  0.21978891818E+03 -0.77033320128E+02  0.63320919049E+03  0.67468153961E+03  0.25500000920E-02 0.  1.
       -2    1    3    3    0  502 -0.21978891818E+03  0.77033320128E+02  0.34895224394E+03  0.41953422926E+03  0.25500000920E-02 0. -1.
</event>
<event>
 5   0  0.1453602E-01  0.5016522E+03  0.7818609E-02  0.1013349E+00
        1   -1    0    0  501    0  0.00000000000E+00  0.00000000000E+00  0.12431895647E+03  0.12431895657E+03  0.50400001928E-02 0.  1.
       -1   -1    0    0    0  501  0.00000000000E+00  0.00000000000E+00 -0.50606708565E+03  0.50606708567E+03  0.50400001928E-02 0. -1.
    10030    2    1    2    0    0  0.00000000000E+00  0.00000000000E+00 -0.38174812918E+03  0.63038604225E+03  0.50165219837E+03 0.  0.
        2    1    3    3  502    0 -0.10184507261E+03  0.49783225023E+02  0.90291454853E+02  0.14492527431E+03  0.25500000920E-02 0.  1.
       -2    1    3    3    0  502  0.10184507261E+03 -0.49783225023E+02 -0.47203958403E+03  0.48546076794E+03  0.25500000920E-02 0. -1.
</event>
<event>
 5   0  0.1529146E-01  0.4805044E+03  0.7818609E-02  0.1018997E+00
        1   -1    0    0  501    0  0.00000000000E+00  0.00000000000E+00  0.31024742192E+03  0.31024742196E+03  0.50400001928E-02 0.  1.
       -1   -1    0    0    0  501  0.00000000000E+00  0.00000000000E+00 -0.18604869438E+03  0.18604869445E+03  0.50400001928E-02 0. -1.
    10030    2    1    2    0    0  0.00000000000E+00  0.00000000000E+00  0.12419872753E+03  0.49629611641E+03  0.48050443416E+03 0.  0.
        1    1    3    3  502    0 -0.16313747500E+03 -0.17629645089E+03  0.67451700861E+02  0.24948748730E+03  0.50400001928E-02 0. -1.
       -1    1    3    3    0  502  0.16313747500E+03  0.17629645089E+03  0.56747026673E+02  0.24680862911E+03  0.50400001928E-02 0.  1.
</event>
<event>
 5   0  0.2488968E-01  0.4886781E+03  0.7818609E-02  0.1016777E+00
        2   -1    0    0  501    0  0.00000000000E+00  0.00000000000E+00  0.23829640171E+03  0.23829640173E+03  0.25500000920E-02 0.  1.
       -2   -1    0    0    0  501  0.00000000000E+00  0.00000000000E+00 -0.25053496811E+03  0.25053496812E+03  0.25500000920E-02 0. -1.
    10030    2    1    2    0    0  0.00000000000E+00  0.00000000000E+00 -0.12238566396E+02  0.48883136985E+03  0.48867814115E+03 0.  0.
        2    1    3    3  502    0  0.23068540264E+03 -0.76374314960E+02 -0.31677058260E+02  0.24505555901E+03  0.25500000920E-02 0.  1.
       -2    1    3    3    0  502 -0.23068540264E+03  0.76374314960E+02  0.19438491863E+02  0.24377581084E+03  0.25500000920E-02 0. -1.
</event>
<event>
 5   0  0.2413301E-01  0.4975090E+03  0.7818609E-02  0.1014431E+00
        2   -1    0    0  501    0  0.00000000000E+00  0.00000000000E+00  0.55707253387E+02  0.55707253446E+02  0.25500000920E-02 0. -1.
       -2   -1    0    0    0  501  0.00000000000E+00  0.00000000000E+00 -0.11107854761E+04  0.11107854761E+04  0.25500000920E-02 0.  1.
    10030    2    1    2    0    0  0.00000000000E+00  0.00000000000E+00 -0.10550782227E+04  0.11664927296E+04  0.49750902710E+03 0.  0.
        4    1    3    3  502    0 -0.22711248306E+03  0.68825119943E+02 -0.70237354914E+03  0.74138194780E+03  0.12699999809E+01 0.  1.
       -4    1    3    3    0  502  0.22711248306E+03 -0.68825119943E+02 -0.35270467358E+03  0.42511078175E+03  0.12699999809E+01 0. -1.
</event>
<event>
 5   0  0.1529146E-01  0.4964308E+03  0.7818609E-02  0.1014715E+00
       -1   -1    0    0    0  501  0.00000000000E+00  0.00000000000E+00  0.20451610887E+03  0.20451610893E+03  0.50400001928E-02 0. -1.
        1   -1    0    0  501    0  0.00000000000E+00  0.00000000000E+00 -0.30125193823E+03  0.30125193828E+03  0.50400001928E-02 0.  1.
    10030    2    1    2    0    0  0.00000000000E+00  0.00000000000E+00 -0.96735829366E+02  0.50576804721E+03  0.49643075740E+03 0.  0.
        1    1    3    3  502    0  0.52068915199E+02  0.22938994733E+03 -0.12910460646E+03  0.26832614353E+03  0.50400001928E-02 0.  1.
       -1    1    3    3    0  502 -0.52068915199E+02 -0.22938994733E+03  0.32368777093E+02  0.23744190368E+03  0.50400001928E-02 0. -1.
</event>
<event>
 5   0  0.2511944E-01  0.5175899E+03  0.7818609E-02  0.1009287E+00
        2   -1    0    0  501    0  0.00000000000E+00  0.00000000000E+00  0.13337557659E+04  0.13337557659E+04  0.25500000920E-02 0.  1.
       -2   -1    0    0    0  501  0.00000000000E+00  0.00000000000E+00 -0.50215214128E+02  0.50215214192E+02  0.25500000920E-02 0. -1.
    10030    2    1    2    0    0  0.00000000000E+00  0.00000000000E+00  0.12835405518E+04  0.13839709801E+04  0.51758992040E+03 0.  0.
        1    1    3    3  502    0 -0.10141836359E+02  0.24823790467E+03  0.44803112052E+03  0.51230537684E+03  0.50400001928E-02 0. -1.
       -1    1    3    3    0  502  0.10141836359E+02 -0.24823790467E+03  0.83550943125E+03  0.87166560326E+03  0.50400001928E-02 0.  1.
</event>
<event>
 5   0  0.1453602E-01  0.4958726E+03  0.7818609E-02  0.1014862E+00
       -1   -1    0    0    0  501  0.00000000000E+00  0.00000000000E+00  0.18193196770E+03  0.18193196777E+03  0.50400001928E-02 0.  1.
        1   -1    0    0  501    0  0.00000000000E+00  0.00000000000E+00 -0.33788680230E+03  0.33788680234E+03  0.50400001928E-02 0. -1.
    10030    2    1    2    0    0  0.00000000000E+00  0.00000000000E+00 -0.15595483460E+03  0.51981877011E+03  0.49587260796E+03 0.  0.
        2    1    3    3  502    0  0.90801369329E+02  0.12668835253E+03 -0.28010352718E+03  0.32055079673E+03  0.25500000920E-02 0. -1.
       -2    1    3    3    0  502 -0.90801369329E+02 -0.12668835253E+03  0.12414869258E+03  0.19926797338E+03  0.25500000920E-02 0.  1.
</event>
<event>
 5   0  0.1439814E-01  0.4780171E+03  0.7818609E-02  0.1019682E+00
        1   -1    0    0  501    0  0.00000000000E+00  0.00000000000E+00  0.54460426682E+03  0.54460426685E+03  0.50400001928E-02 0.  1.
       -1   -1    0    0    0  501  0.00000000000E+00  0.00000000000E+00 -0.10489285558E+03  0.10489285570E+03  0.50400001928E-02 0. -1.
    10030    2    1    2    0    0  0.00000000000E+00  0.00000000000E+00  0.43971141124E+03  0.64949712255E+03  0.47801714093E+03 0.  0.
        4    1    3    3  502    0  0.57902946873E+02  0.12148074572E+03  0.48822902109E+03  0.50643806410E+03  0.12699999809E+01 0.  1.
       -4    1    3    3    0  502 -0.57902946873E+02 -0.12148074572E+03 -0.48517609850E+02  0.14305905845E+03  0.12699999809E+01 0. -1.
</event>
<event>
 5   0  0.1529146E-01  0.4901664E+03  0.7818609E-02  0.1016378E+00
       -1   -1    0    0    0  501  0.00000000000E+00  0.00000000000E+00  0.12541101552E+03  0.12541101562E+03  0.50400001928E-02 0.  1.
        1   -1    0    0  501    0  0.00000000000E+00  0.00000000000E+00 -0.47895134170E+03  0.47895134173E+03  0.50400001928E-02 0. -1.
    10030    2    1    2    0    0  0.00000000000E+00  0.00000000000E+00 -0.35354032618E+03  0.60436235735E+03  0.49016639700E+03 0.  0.
        1    1    3    3  502    0  0.39165295357E+02 -0.18479668716E+02 -0.47419646897E+03  0.47616983286E+03  0.50400001928E-02 0. -1.
       -1    1    3    3    0  502 -0.39165295357E+02  0.18479668716E+02  0.12065614279E+03  0.12819252449E+03  0.50400001928E-02 0.  1.
</event>
<event>
 5   0  0.1529146E-01  0.5109587E+03  0.7818609E-02  0.1010957E+00
        1   -1    0    0  501    0  0.00000000000E+00  0.00000000000E+00  0.27619986558E+03  0.27619986562E+03  0.50400001928E-02 0. -1.
       -1   -1    0    0    0  501  0.00000000000E+00  0.00000000000E+00 -0.23631331088E+03  0.23631331093E+03  0.50400001928E-02 0.  1.
    10030    2    1    2    0    0  0.00000000000E+00  0.00000000000E+00  0.39886554698E+02  0.51251317656E+03  0.51095872524E+03 0.  0.
        1    1    3    3  502    0 -0.12894119340E+02  0.16544201327E+03  0.21478248453E+03  0.27142003197E+03  0.50400001928E-02 0. -1.
       -1    1    3    3    0  502  0.12894119340E+02 -0.16544201327E+03 -0.17489592983E+03  0.24109314459E+03  0.50400001928E-02 0.  1.
</event>
<event>
 5   0  0.1529146E-01  0.4997752E+03  0.7818609E-02  0.1013838E+00
        1   -1    0    0  501    0  0.00000000000E+00  0.00000000000E+00  0.83283521248E+03  0.83283521250E+03  0.50400001928E-02 0. -1.
       -1   -1    0    0    0  501  0.00000000000E+00  0.00000000000E+00 -0.74977402985E+02  0.74977403154E+02  0.50400001928E-02 0.  1.
    10030    2    1    2    0    0  0.00000000000E+00  0.00000000000E+00  0.75785780949E+03  0.90781261565E+03  0.49977523520E+03 0.  0.
        1    1    3    3  502    0  0.14945091110E+03 -0.14152104824E+03  0.63632607181E+03  0.66878595351E+03  0.50400001928E-02 0. -1.
       -1    1    3    3    0  502 -0.14945091110E+03  0.14152104824E+03  0.12153173769E+03  0.23902666214E+03  0.50400001928E-02 0.  1.
</event>
<event>
 5   0  0.9868500E-02  0.5165641E+03  0.7818609E-02  0.1009544E+00
        3   -1    0    0  501    0  0.00000000000E+00  0.00000000000E+00  0.38765963167E+03  0.38765964483E+03  0.10100000352E+00 0.  1.
       -3   -1    0    0    0  501  0.00000000000E+00  0.00000000000E+00 -0.17208293478E+03  0.17208296442E+03  0.10100000352E+00 0. -1.
    10030    2    1    2    0    0  0.00000000000E+00  0.00000000000E+00  0.21557669689E+03  0.55974260925E+03  0.51656410674E+03 0.  0.
        1    1    3    3  502    0 -0.78614676612E+02 -0.21340711371E+03 -0.24864919378E+02  0.22878183451E+03  0.50400001928E-02 0. -1.
       -1    1    3    3    0  502  0.78614676612E+02  0.21340711371E+03  0.24044161627E+03  0.33096077474E+03  0.50400001928E-02 0.  1.
</event>
<event>
 5   0  0.1453602E-01  0.4969128E+03  0.7818609E-02  0.1014588E+00
       -1   -1    0    0    0  501  0.00000000000E+00  0.00000000000E+00  0.56650261807E+02  0.56650262031E+02  0.50400001928E-02 0.  1.
        1   -1    0    0  501    0  0.00000000000E+00  0.00000000000E+00 -0.10896786212E+04  0.10896786212E+04  0.50400001928E-02 0. -1.
    10030    2    1    2    0    0  0.00000000000E+00  0.00000000000E+00 -0.10330283594E+04  0.11463288832E+04  0.49691278635E+03 0.  0.
        2    1    3    3  502    0  0.71213956481E+01  0.17023362161E+03 -0.93367686746E+03  0.94909572385E+03  0.25500000920E-02 0. -1.
       -2    1    3    3    0  502 -0.71213956481E+01 -0.17023362161E+03 -0.99351491914E+02  0.19723315937E+03  0.25500000920E-02 0.  1.
</event>
<event>
 5   0  0.1439814E-01  0.5233634E+03  0.7818609E-02  0.1007854E+00
       -1   -1    0    0    0  501  0.00000000000E+00  0.00000000000E+00  0.39157957715E+03  0.39157957719E+03  0.50400001928E-02 0.  1.
        1   -1    0    0  501    0  0.00000000000E+00  0.00000000000E+00 -0.17487457892E+03  0.17487457900E+03  0.50400001928E-02 0. -1.
    10030    2    1    2    0    0  0.00000000000E+00  0.00000000000E+00  0.21670499823E+03  0.56645415618E+03  0.52336340606E+03 0.  0.
        4    1    3    3  502    0  0.14899628558E+03 -0.12865615519E+03 -0.78247083429E+02  0.21184078537E+03  0.12699999809E+01 0. -1.
       -4    1    3    3    0  502 -0.14899628558E+03  0.12865615519E+03  0.29495208166E+03  0.35461337081E+03  0.12699999809E+01 0.  1.
</event>
<event>
 5   0  0.2488968E-01  0.4840212E+03  0.7818609E-02  0.1018036E+00
       -2   -1    0    0    0  501  0.00000000000E+00  0.00000000000E+00  0.48084132048E+03  0.48084132049E+03  0.25500000920E-02 0.  1.
        2   -1    0    0  501    0  0.00000000000E+00  0.00000000000E+00 -0.12180552235E+03  0.12180552237E+03  0.25500000920E-02 0. -1.
    10030    2    1    2    0    0  0.00000000000E+00  0.00000000000E+00  0.35903579814E+03  0.60264684286E+03  0.48402119051E+03 0.  0.
        2    1    3    3  502    0  0.18034913616E+03 -0.15638442153E+03  0.22912209816E+03  0.33087585902E+03  0.25500000920E-02 0.  1.
       -2    1    3    3    0  502 -0.18034913616E+03  0.15638442153E+03  0.12991369998E+03  0.27177098384E+03  0.25500000920E-02 0. -1.
</event>
<event>
 5   0  0.9868500E-02  0.4960826E+03  0.7818609E-02  0.1014806E+00
       -4   -1    0    0    0  501  0.00000000000E+00  0.00000000000E+00  0.11121660307E+03  0.11122385400E+03  0.12699999809E+01 0.  1.
        4   -1    0    0  501    0  0.00000000000E+00  0.00000000000E+00 -0.55316917327E+03  0.55317063114E+03  0.12699999809E+01 0. -1.
    10030    2    1    2    0    0  0.00000000000E+00  0.00000000000E+00 -0.44195257020E+03  0.66439448513E+03  0.49608261164E+03 0.  0.
        5    1    3    3  502    0  0.41247913105E+01 -0.20682753883E+03 -0.37794263656E+02  0.21034529015E+03  0.46999998093E+01 0.  1.
       -5    1    3    3    0  502 -0.41247913105E+01  0.20682753883E+03 -0.40415830654E+03  0.45404919499E+03  0.46999998093E+01 0. -1.
</event>
<event>
 5   0  0.1413361E-01  0.5044430E+03  0.7818609E-02  0.1012626E+00
       -1   -1    0    0    0  501  0.00000000000E+00  0.00000000000E+00  0.78309332662E+02  0.78309332824E+02  0.50400001928E-02 0. -1.
        1   -1    0    0  501    0  0.00000000000E+00  0.00000000000E+00 -0.81236400936E+03  0.81236400938E+03  0.50400001928E-02 0.  1.
    10030    2    1    2    0    0  0.00000000000E+00  0.00000000000E+00 -0.73405467670E+03  0.89067334220E+03  0.50444299393E+03 0.  0.
        3    1    3    3  502    0 -0.82319505468E+02  0.98307988702E+02 -0.75052346941E+03  0.76139769501E+03  0.10100000352E+00 0.  1.
       -3    1    3    3    0  502  0.82319505468E+02 -0.98307988702E+02  0.16468792712E+02  0.12927564719E+03  0.10100000352E+00 0. -1.
</event>
<event>
 5   0  0.2511944E-01  0.4672141E+03  0.7818609E-02  0.1022709E+00
       -2   -1    0    0    0  501  0.00000000000E+00  0.00000000000E+00  0.90633572447E+02  0.90633572483E+02  0.25500000920E-02 0. -1.
        2   -1    0    0  501    0  0.00000000000E+00  0.00000000000E+00 -0.60211971514E+03  0.60211971515E+03  0.25500000920E-02 0.  1.
    10030    2    1    2    0    0  0.00000000000E+00  0.00000000000E+00 -0.51148614269E+03  0.69275328763E+03  0.46721413009E+03 0.  0.
        1    1    3    3  502    0  0.22903358591E+02 -0.62448280394E+01 -0.60032657700E+03  0.60079577295E+03  0.50400001928E-02 0.  1.
       -1    1    3    3    0  502 -0.22903358591E+02  0.62448280394E+01  0.88840434310E+02  0.91957514678E+02  0.50400001928E-02 0. -1.
</event>
<event>
 5   0  0.2511944E-01  0.4794682E+03  0.7818609E-02  0.1019281E+00
       -2   -1    0    0    0  501  0.00000000000E+00  0.00000000000E+00  0.20340266591E+03  0.20340266592E+03  0.25500000920E-02 0.  1.
        2   -1    0    0  501    0  0.00000000000E+00  0.00000000000E+00 -0.28255494530E+03  0.28255494531E+03  0.25500000920E-02 0. -1.
    10030    2    1    2    0    0  0.00000000000E+00  0.00000000000E+00 -0.79152279390E+02  0.48595761123E+03  0.47946816013E+03 0.  0.
        1    1    3    3  502    0 -0.10705871233E+03  0.13446755546E+03  0.12980651503E+03  0.21538993181E+03  0.50400001928E-02 0.  1.
       -1    1    3    3    0  502  0.10705871233E+03 -0.13446755546E+03 -0.20895879442E+03  0.27056767942E+03  0.50400001928E-02 0. -1.
</event>
<event>
 5   0  0.2488968E-01  0.4805700E+03  0.7818609E-02  0.1018979E+00
       -2   -1    0    0    0  501  0.00000000000E+00  0.00000000000E+00  0.12710007644E+03  0.12710007646E+03  0.25500000920E-02 0. -1.
        2   -1    0    0  501    0  0.00000000000E+00  0.00000000000E+00 -0.45426313400E+03  0.45426313401E+03  0.25500000920E-02 0.  1.
    10030    2    1    2    0    0  0.00000000000E+00  0.00000000000E+00 -0.32716305756E+03  0.58136321047E+03  0.48056999101E+03 0.  0.
        2    1    3    3  502    0  0.76540807773E+02  0.22554803555E+03 -0.20196027359E+03  0.31227930401E+03  0.25500000920E-02 0. -1.
       -2    1    3    3    0  502 -0.76540807773E+02 -0.22554803555E+03 -0.12520278398E+03  0.26908390646E+03  0.25500000920E-02 0.  1.
</event>
<event>
 5   0  0.2504064E-01  0.4979625E+03  0.7818609E-02  0.1014312E+00
        2   -1    0    0  501    0  0.00000000000E+00  0.00000000000E+00  0.16259171723E+04  0.16259171723E+04  0.25500000920E-02 0. -1.
       -2   -1    0    0    0  501  0.00000000000E+00  0.00000000000E+00 -0.38127198706E+02  0.38127198791E+02  0.25500000920E-02 0.  1.
    10030    2    1    2    0    0  0.00000000000E+00  0.00000000000E+00  0.15877899736E+04  0.16640443711E+04  0.49796251739E+03 0.  0.
        5    1    3    3  502    0 -0.92359343251E+02  0.45140956590E+02  0.36265857010E+02  0.10911121221E+03  0.46999998093E+01 0.  1.
       -5    1    3    3    0  502  0.92359343251E+02 -0.45140956590E+02  0.15515241166E+04  0.15549331589E+04  0.46999998093E+01 0. -1.
</event>
<event>
 5   0  0.1453602E-01  0.4051968E+03  0.7818609E-02  0.1041995E+00
        1   -1    0    0  501    0  0.00000000000E+00  0.00000000000E+00  0.15659159282E+03  0.15659159290E+03  0.50400001928E-02 0. -1.
       -1   -1    0    0    0  501  0.00000000000E+00  0.00000000000E+00 -0.26212209506E+03  0.26212209511E+03  0.50400001928E-02 0.  1.
    10030    2    1    2    0    0  0.00000000000E+00  0.00000000000E+00 -0.10553050224E+03  0.41871368801E+03  0.40519682332E+03 0.  0.
        2    1    3    3  502    0  0.84024385000E+02 -0.17429594400E+03  0.92960345138E+01  0.19371522820E+03  0.25500000920E-02 0. -1.
       -2    1    3    3    0  502 -0.84024385000E+02  0.17429594400E+03 -0.11482653675E+03  0.22499845982E+03  0.25500000920E-02 0.  1.
</event>
<event>
 5   0  0.2511944E-01  0.5125025E+03  0.7818609E-02  0.1010566E+00
        2   -1    0    0  501    0  0.00000000000E+00  0.00000000000E+00  0.23743362474E+03  0.23743362476E+03  0.25500000920E-02 0.  1.
       -2   -1    0    0    0  501  0.00000000000E+00  0.00000000000E+00 -0.27656028701E+03  0.27656028702E+03  0.25500000920E-02 0. -1.
    10030    2    1    2    0    0  0.00000000000E+00  0.00000000000E+00 -0.39126662266E+02  0.51399391178E+03  0.51250253233E+03 0.  0.
        1    1    3    3  502    0  0.21926903077E+03  0.15243630586E+02 -0.15167910992E+03  0.26705398057E+03  0.50400001928E-02 0. -1.
       -1    1    3    3    0  502 -0.21926903077E+03 -0.15243630586E+02  0.11255244765E+03  0.24693993121E+03  0.50400001928E-02 0.  1.
</event>
<event>
 5   0  0.1439814E-01  0.4574480E+03  0.7818609E-02  0.1025524E+00
        1   -1    0    0  501    0  0.00000000000E+00  0.00000000000E+00  0.64392145102E+03  0.64392145104E+03  0.50400001928E-02 0.  1.
       -1   -1    0    0    0  501  0.00000000000E+00  0.00000000000E+00 -0.81243872548E+02  0.81243872705E+02  0.50400001928E-02 0. -1.
    10030    2    1    2    0    0  0.00000000000E+00  0.00000000000E+00  0.56267757848E+03  0.72516532375E+03  0.45744801830E+03 0.  0.
        4    1    3    3  502    0 -0.16353132821E+03  0.14824644484E+03  0.18630950211E+03  0.28884658072E+03  0.12699999809E+01 0.  1.
       -4    1    3    3    0  502  0.16353132821E+03 -0.14824644484E+03  0.37636807636E+03  0.43631874303E+03  0.12699999809E+01 0. -1.
</event>
<event>
 5   0  0.9868500E-02  0.5065829E+03  0.7818609E-02  0.1012075E+00
        4   -1    0    0  501    0  0.00000000000E+00  0.00000000000E+00  0.64224838549E+03  0.64224964115E+03  0.12699999809E+01 0.  1.
       -4   -1    0    0    0  501  0.00000000000E+00  0.00000000000E+00 -0.99888291325E+02  0.99896364517E+02  0.12699999809E+01 0. -1.
    10030    2    1    2    0    0  0.00000000000E+00  0.00000000000E+00  0.54236009416E+03  0.74214600567E+03  0.50658288758E+03 0.  0.
        3    1    3    3  502    0  0.18280126076E+03 -0.30605230820E+02  0.18266005670E+02  0.18624349184E+03  0.10100000352E+00 0. -1.
       -3    1    3    3    0  502 -0.18280126076E+03  0.30605230820E+02  0.52409408849E+03  0.55590251383E+03  0.10100000352E+00 0.  1.
</event>
<event>
 5   0  0.9868500E-02  0.5031258E+03  0.7818609E-02  0.1012966E+00
       -3   -1    0    0    0  501  0.00000000000E+00  0.00000000000E+00  0.19835342139E+04  0.19835342165E+04  0.10100000352E+00 0.  1.
        3   -1    0    0  501    0  0.00000000000E+00  0.00000000000E+00 -0.31904526133E+02  0.31904686001E+02  0.10100000352E+00 0. -1.
    10030    2    1    2    0    0  0.00000000000E+00  0.00000000000E+00  0.19516296878E+04  0.20154389025E+04  0.50312576105E+03 0.  0.
        3    1    3    3  502    0  0.21111541770E+03 -0.81364121886E+02  0.53528163516E+03  0.58113361549E+03  0.10100000352E+00 0. -1.
       -3    1    3    3    0  502 -0.21111541770E+03  0.81364121886E+02  0.14163480526E+04  0.14343052870E+04  0.10100000352E+00 0.  1.
</event>
<event>
 5   0  0.1529146E-01  0.4904208E+03  0.7818609E-02  0.1016310E+00
        1   -1    0    0  501    0  0.00000000000E+00  0.00000000000E+00  0.88660414119E+03  0.88660414121E+03  0.50400001928E-02 0. -1.
       -1   -1    0    0    0  501  0.00000000000E+00  0.00000000000E+00 -0.67818470347E+02  0.67818470534E+02  0.50400001928E-02 0.  1.
    10030    2    1    2    0    0  0.00000000000E+00  0.00000000000E+00  0.81878567085E+03  0.95442261174E+03  0.49042078567E+03 0.  0.
        1    1    3    3  502    0  0.54714528143E+02  0.12249738504E+02 -0.55175756429E+02  0.78664476139E+02  0.50400001928E-02 0.  1.
       -1    1    3    3    0  502 -0.54714528143E+02 -0.12249738504E+02  0.87396142727E+03  0.87575813560E+03  0.50400001928E-02 0. -1.
</event>
<event>
 5   0  0.1448458E-01  0.5245576E+03  0.7818609E-02  0.1007561E+00
        1   -1    0    0  501    0  0.00000000000E+00  0.00000000000E+00  0.44187743442E+03  0.44187743445E+03  0.50400001928E-02 0. -1.
       -1   -1    0    0    0  501  0.00000000000E+00  0.00000000000E+00 -0.15567705010E+03  0.15567705018E+03  0.50400001928E-02 0.  1.
    10030    2    1    2    0    0  0.00000000000E+00  0.00000000000E+00  0.28620038432E+03  0.59755448463E+03  0.52455762517E+03 0.  0.
        5    1    3    3  502    0 -0.11233811164E+03 -0.12461787936E+03  0.37268697319E+03  0.40873847038E+03  0.46999998093E+01 0. -1.
       -5    1    3    3    0  502  0.11233811164E+03  0.12461787936E+03 -0.86486588873E+02  0.18881601425E+03  0.46999998093E+01 0.  1.
</event>
<event>
 5   0  0.9868500E-02  0.5005999E+03  0.7818609E-02  0.1013622E+00
       -4   -1    0    0    0  501  0.00000000000E+00  0.00000000000E+00  0.11503572905E+03  0.11504273927E+03  0.12699999809E+01 0.  1.
        4   -1    0    0  501    0  0.00000000000E+00  0.00000000000E+00 -0.54458957373E+03  0.54459105457E+03  0.12699999809E+01 0. -1.
    10030    2    1    2    0    0  0.00000000000E+00  0.00000000000E+00 -0.42955384468E+03  0.65963379384E+03  0.50059987664E+03 0.  0.
        3    1    3    3  502    0  0.89652162787E+02  0.23369031525E+03 -0.21323169219E+03  0.32881064230E+03  0.10100000352E+00 0.  1.
       -3    1    3    3    0  502 -0.89652162787E+02 -0.23369031525E+03 -0.21632215249E+03  0.33082315154E+03  0.10100000352E+00 0. -1.
</event>
<event>
 5   0  0.2511944E-01  0.5004100E+03  0.7818609E-02  0.1013672E+00
        2   -1    0    0  501    0  0.00000000000E+00  0.00000000000E+00  0.14607508385E+04  0.14607508385E+04  0.25500000920E-02 0. -1.
       -2   -1    0    0    0  501  0.00000000000E+00  0.00000000000E+00 -0.42856415644E+02  0.42856415720E+02  0.25500000920E-02 0.  1.
    10030    2    1    2    0    0  0.00000000000E+00  0.00000000000E+00  0.14178944228E+04  0.15036072542E+04  0.50041001247E+03 0.  0.
        1    1    3    3  502    0  0.10616971683E+03  0.13342231369E+03  0.12591450350E+04  0.12706375336E+04  0.50400001928E-02 0. -1.
       -1    1    3    3    0  502 -0.10616971683E+03 -0.13342231369E+03  0.15874938783E+03  0.23296972061E+03  0.50400001928E-02 0.  1.
</event>
<event>
 5   0  0.2466034E-01  0.5056308E+03  0.7818609E-02  0.1012320E+00
       -2   -1    0    0    0  501  0.00000000000E+00  0.00000000000E+00  0.41609464136E+03  0.41609464136E+03  0.25500000920E-02 0.  1.
        2   -1    0    0  501    0  0.00000000000E+00  0.00000000000E+00 -0.15360838447E+03  0.15360838449E+03  0.25500000920E-02 0. -1.
    10030    2    1    2    0    0  0.00000000000E+00  0.00000000000E+00  0.26248625689E+03  0.56970302586E+03  0.50563079674E+03 0.  0.
        3    1    3    3  502    0  0.91899716296E+02  0.21354554116E+03  0.19315451983E+02  0.23328170287E+03  0.10100000352E+00 0. -1.
       -3    1    3    3    0  502 -0.91899716296E+02 -0.21354554116E+03  0.24317080490E+03  0.33642132299E+03  0.10100000352E+00 0.  1.
</event>
<event>
 5   0  0.1529146E-01  0.5152456E+03  0.7818609E-02  0.1009874E+00
       -1   -1    0    0    0  501  0.00000000000E+00  0.00000000000E+00  0.85721356177E+02  0.85721356325E+02  0.50400001928E-02 0.  1.
        1   -1    0    0  501    0  0.00000000000E+00  0.00000000000E+00 -0.77424715527E+03  0.77424715528E+03  0.50400001928E-02 0. -1.
    10030    2    1    2    0    0  0.00000000000E+00  0.00000000000E+00 -0.68852579909E+03  0.85996851161E+03  0.51524563554E+03 0.  0.
        1    1    3    3  502    0 -0.16863678244E+03 -0.10823783615E+03 -0.74023202948E+02  0.21361935345E+03  0.50400001928E-02 0.  1.
       -1    1    3    3    0  502  0.16863678244E+03  0.10823783615E+03 -0.61450259614E+03  0.64634915816E+03  0.50400001928E-02 0. -1.
</event>
<event>
 5   0  0.1453602E-01  0.3542588E+03  0.7818609E-02  0.1060881E+00
        1   -1    0    0  501    0  0.00000000000E+00  0.00000000000E+00  0.62100433683E+02  0.62100433887E+02  0.50400001928E-02 0.  1.
       -1   -1    0    0    0  501  0.00000000000E+00  0.00000000000E+00 -0.50522719215E+03  0.50522719217E+03  0.50400001928E-02 0. -1.
    10030    2    1    2    0    0  0.00000000000E+00  0.00000000000E+00 -0.44312675846E+03  0.56732762606E+03  0.35425881954E+03 0.  0.
        2    1    3    3  502    0 -0.42389958446E+02  0.37431088537E+02  0.47255241612E+02  0.73695677163E+02  0.25500000920E-02 0.  1.
       -2    1    3    3    0  502  0.42389958446E+02 -0.37431088537E+02 -0.49038200007E+03  0.49363194889E+03  0.25500000920E-02 0. -1.
</event>
<event>
 5   0  0.1448458E-01  0.5004277E+03  0.7818609E-02  0.1013667E+00
       -1   -1    0    0    0  501  0.00000000000E+00  0.00000000000E+00  0.50621601974E+02  0.50621602225E+02  0.50400001928E-02 0.  1.
        1   -1    0    0  501    0  0.00000000000E+00  0.00000000000E+00 -0.12367641247E+04  0.12367641247E+04  0.50400001928E-02 0. -1.
    10030    2    1    2    0    0  0.00000000000E+00  0.00000000000E+00 -0.11861425227E+04  0.12873857269E+04  0.50042774272E+03 0.  0.
        5    1    3    3  502    0 -0.23179878235E+03 -0.55229450019E+02 -0.78905866594E+03  0.82426733281E+03  0.46999998093E+01 0.  1.
       -5    1    3    3    0  502  0.23179878235E+03  0.55229450019E+02 -0.39708385674E+03  0.46311839408E+03  0.46999998093E+01 0. -1.
</event>
<event>
 5   0  0.1439814E-01  0.4864940E+03  0.7818609E-02  0.1017366E+00
       -1   -1    0    0    0  501  0.00000000000E+00  0.00000000000E+00  0.18014710049E+03  0.18014710056E+03  0.50400001928E-02 0. -1.
        1   -1    0    0  501    0  0.00000000000E+00  0.00000000000E+00 -0.32844878365E+03  0.32844878369E+03  0.50400001928E-02 0.  1.
    10030    2    1    2    0    0  0.00000000000E+00  0.00000000000E+00 -0.14830168316E+03  0.50859588424E+03  0.48649397144E+03 0.  0.
        4    1    3    3  502    0  0.17289978739E+03  0.16616159670E+03 -0.31512242705E+02  0.24186493553E+03  0.12699999809E+01 0. -1.
       -4    1    3    3    0  502 -0.17289978739E+03 -0.16616159670E+03 -0.11678944046E+03  0.26673094871E+03  0.12699999809E+01 0.  1.
</event>
<event>
 5   0  0.1453602E-01  0.5111201E+03  0.7818609E-02  0.1010916E+00
       -1   -1    0    0    0  501  0.00000000000E+00  0.00000000000E+00  0.47672727657E+02  0.47672727923E+02  0.50400001928E-02 0. -1.
        1   -1    0    0  501    0  0.00000000000E+00  0.00000000000E+00 -0.13699856263E+04  0.13699856263E+04  0.50400001928E-02 0.  1.
    10030    2    1    2    0    0  0.00000000000E+00  0.00000000000E+00 -0.13223128986E+04  0.14176583542E+04  0.51112014967E+03 0.  0.
        2    1    3    3  502    0 -0.16256476162E+03  0.18602495406E+03 -0.84257745763E+03  0.87804860763E+03  0.25500000920E-02 0.  1.
       -2    1    3    3    0  502  0.16256476162E+03 -0.18602495406E+03 -0.47973544100E+03  0.53960974659E+03  0.25500000920E-02 0. -1.
</event>
<event>
 5   0  0.1413361E-01  0.5121350E+03  0.7818609E-02  0.1010659E+00
        1   -1    0    0  501    0  0.00000000000E+00  0.00000000000E+00  0.31398617906E+03  0.31398617910E+03  0.50400001928E-02 0.  1.
       -1   -1    0    0    0  501  0.00000000000E+00  0.00000000000E+00 -0.20883268398E+03  0.20883268404E+03  0.50400001928E-02 0. -1.
    10030    2    1    2    0    0  0.00000000000E+00  0.00000000000E+00  0.10515349509E+03  0.52281886314E+03  0.51213504677E+03 0.  0.
        3    1    3    3  502    0  0.15483447706E+03  0.18558962239E+03  0.13891858361E+03  0.27877518953E+03  0.10100000352E+00 0.  1.
       -3    1    3    3    0  502 -0.15483447706E+03 -0.18558962239E+03 -0.33765088520E+02  0.24404367361E+03  0.10100000352E+00 0. -1.
</event>
<event>
 5   0  0.2511944E-01  0.4957223E+03  0.7818609E-02  0.1014902E+00
        2   -1    0    0  501    0  0.00000000000E+00  0.00000000000E+00  0.66343688569E+03  0.66343688569E+03  0.25500000920E-02 0. -1.
       -2   -1    0    0    0  501  0.00000000000E+00  0.00000000000E+00 -0.92601364115E+02  0.92601364150E+02  0.25500000920E-02 0.  1.
    10030    2    1    2    0    0  0.00000000000E+00  0.00000000000E+00  0.57083552157E+03  0.75603824984E+03  0.49572234420E+03 0.  0.
        1    1    3    3  502    0 -0.10321993544E+03 -0.15339484909E+03  0.53718261714E+03  0.56811046371E+03  0.50400001928E-02 0. -1.
       -1    1    3    3    0  502  0.10321993544E+03  0.15339484909E+03  0.33652904436E+02  0.18792778613E+03  0.50400001928E-02 0.  1.
</event>
<event>
 5   0  0.1448458E-01  0.5003764E+03  0.7818609E-02  0.1013681E+00
       -1   -1    0    0    0  501  0.00000000000E+00  0.00000000000E+00  0.70763218457E+02  0.70763218636E+02  0.50400001928E-02 0. -1.
        1   -1    0    0  501    0  0.00000000000E+00  0.00000000000E+00 -0.88455750669E+03  0.88455750670E+03  0.50400001928E-02 0.  1.
    10030    2    1    2    0    0  0.00000000000E+00  0.00000000000E+00 -0.81379428823E+03  0.95532072534E+03  0.50037640302E+03 0.  0.
        5    1    3    3  502    0 -0.13004440663E+03 -0.89257206413E+02 -0.36227967515E+02  0.16190414516E+03  0.46999998093E+01 0. -1.
       -5    1    3    3    0  502  0.13004440663E+03  0.89257206413E+02 -0.77756632072E+03  0.79341658018E+03  0.46999998093E+01 0.  1.
</event>
<event>
 5   0  0.2488968E-01  0.4960114E+03  0.7818609E-02  0.1014825E+00
        2   -1    0    0  501    0  0.00000000000E+00  0.00000000000E+00  0.76527794753E+03  0.76527794753E+03  0.25500000920E-02 0.  1.
       -2   -1    0    0    0  501  0.00000000000E+00  0.00000000000E+00 -0.80371888395E+02  0.80371888436E+02  0.25500000920E-02 0. -1.
    10030    2    1    2    0    0  0.00000000000E+00  0.00000000000E+00  0.68490605913E+03  0.84564983597E+03  0.49601142652E+03 0.  0.
        2    1    3    3  502    0  0.16666477796E+03  0.14591890341E+03  0.53258842689E+03  0.57681878181E+03  0.25500000920E-02 0.  1.
       -2    1    3    3    0  502 -0.16666477796E+03 -0.14591890341E+03  0.15231763224E+03  0.26883105416E+03  0.25500000920E-02 0. -1.
</event>
<event>
 5   0  0.1453602E-01  0.5102297E+03  0.7818609E-02  0.1011143E+00
       -1   -1    0    0    0  501  0.00000000000E+00  0.00000000000E+00  0.11362291702E+04  0.11362291702E+04  0.50400001928E-02 0. -1.
        1   -1    0    0  501    0  0.00000000000E+00  0.00000000000E+00 -0.57280332335E+02  0.57280332557E+02  0.50400001928E-02 0.  1.
    10030    2    1    2    0    0  0.00000000000E+00  0.00000000000E+00  0.10789488378E+04  0.11935095027E+04  0.51022969186E+03 0.  0.
        2    1    3    3  502    0 -0.59951846268E+02 -0.23311681256E+03  0.73721190042E+03  0.77551212647E+03  0.25500000920E-02 0.  1.
       -2    1    3    3    0  502  0.59951846268E+02  0.23311681256E+03  0.34173693740E+03  0.41799737626E+03  0.25500000920E-02 0. -1.
</event>
<event>
 5   0  0.2466034E-01  0.5001716E+03  0.7818609E-02  0.1013734E+00
        2   -1    0    0  501    0  0.00000000000E+00  0.00000000000E+00  0.37952549878E+03  0.37952549879E+03  0.25500000920E-02 0. -1.
       -2   -1    0    0    0  501  0.00000000000E+00  0.00000000000E+00 -0.16479234893E+03  0.16479234895E+03  0.25500000920E-02 0.  1.
    10030    2    1    2    0    0  0.00000000000E+00  0.00000000000E+00  0.21473314985E+03  0.54431784773E+03  0.50017156428E+03 0.  0.
        3    1    3    3  502    0 -0.57725584907E+02 -0.20437620224E+03  0.25108731020E+03  0.32885669028E+03  0.10100000352E+00 0. -1.
       -3    1    3    3    0  502  0.57725584907E+02  0.20437620224E+03 -0.36354160348E+02  0.21546115746E+03  0.10100000352E+00 0.  1.
</event>
<event>
 5   0  0.1439814E-01  0.5092862E+03  0.7818609E-02  0.1011383E+00
       -1   -1    0    0    0  501  0.00000000000E+00  0.00000000000E+00  0.55219818767E+02  0.55219818997E+02  0.50400001928E-02 0. -1.
        1   -1    0    0  501    0  0.00000000000E+00  0.00000000000E+00 -0.11742723526E+04  0.11742723527E+04  0.50400001928E-02 0.  1.
    10030    2    1    2    0    0  0.00000000000E+00  0.00000000000E+00 -0.11190525339E+04  0.12294921717E+04  0.50928619319E+03 0.  0.
        4    1    3    3  502    0  0.84596682608E+02 -0.15986248608E+02  0.19010226023E+02  0.88176870245E+02  0.12699999809E+01 0. -1.
       -4    1    3    3    0  502 -0.84596682608E+02  0.15986248608E+02 -0.11380627599E+04  0.11413153014E+04  0.12699999809E+01 0.  1.
</event>
<event>
 5   0  0.2466034E-01  0.4893560E+03  0.7818609E-02  0.1016595E+00
       -2   -1    0    0    0  501  0.00000000000E+00  0.00000000000E+00  0.33701861839E+03  0.33701861840E+03  0.25500000920E-02 0. -1.
        2   -1    0    0  501    0  0.00000000000E+00  0.00000000000E+00 -0.17763804209E+03  0.17763804211E+03  0.25500000920E-02 0.  1.
    10030    2    1    2    0    0  0.00000000000E+00  0.00000000000E+00  0.15938057631E+03  0.51465666051E+03  0.48935601571E+03 0.  0.
        3    1    3    3  502    0 -0.19184863754E+03 -0.88683556723E+02  0.20933849553E+03  0.29747821579E+03  0.10100000352E+00 0. -1.
       -3    1    3    3    0  502  0.19184863754E+03  0.88683556723E+02 -0.49957919222E+02  0.21717844472E+03  0.10100000352E+00 0.  1.
</event>
<event>
 5   0  0.1413361E-01  0.4989055E+03  0.7818609E-02  0.1014065E+00
        1   -1    0    0  501    0  0.00000000000E+00  0.00000000000E+00  0.14921265457E+04  0.14921265457E+04  0.50400001928E-02 0. -1.
       -1   -1    0    0    0  501  0.00000000000E+00  0.00000000000E+00 -0.41703351463E+02  0.41703351767E+02  0.50400001928E-02 0.  1.
    10030    2    1    2    0    0  0.00000000000E+00  0.00000000000E+00  0.14504231942E+04  0.15338298974E+04  0.49890551410E+03 0.  0.
        3    1    3    3  502    0  0.11071686719E+03 -0.19863393423E+03  0.40998540557E+03  0.46883014780E+03  0.10100000352E+00 0. -1.
       -3    1    3    3    0  502 -0.11071686719E+03  0.19863393423E+03  0.10404377886E+04  0.10649997496E+04  0.10100000352E+00 0.  1.
</event>
<event>
 5   0  0.1448458E-01  0.4921630E+03  0.7818609E-02  0.1015845E+00
       -1   -1    0    0    0  501  0.00000000000E+00  0.00000000000E+00  0.10702284677E+03  0.10702284689E+03  0.50400001928E-02 0.  1.
        1   -1    0    0  501    0  0.00000000000E+00  0.00000000000E+00 -0.56582399040E+03  0.56582399042E+03  0.50400001928E-02 0. -1.
    10030    2    1    2    0    0  0.00000000000E+00  0.00000000000E+00 -0.45880114363E+03  0.67284683731E+03  0.49216295785E+03 0.  0.
        5    1    3    3  502    0 -0.13665086747E+03  0.80304367862E+02  0.27864605821E+02  0.16099930849E+03  0.46999998093E+01 0.  1.
       -5    1    3    3    0  502  0.13665086747E+03 -0.80304367862E+02 -0.48666574945E+03  0.51184752882E+03  0.46999998093E+01 0. -1.
</event>
<event>
 5   0  0.1413361E-01  0.5035692E+03  0.7818609E-02  0.1012851E+00
       -1   -1    0    0    0  501  0.00000000000E+00  0.00000000000E+00  0.43416403866E+02  0.43416404158E+02  0.50400001928E-02 0. -1.
        1   -1    0    0  501    0  0.00000000000E+00  0.00000000000E+00 -0.14601735832E+04  0.14601735832E+04  0.50400001928E-02 0.  1.
    10030    2    1    2    0    0  0.00000000000E+00  0.00000000000E+00 -0.14167571793E+04  0.15035899874E+04  0.50356920569E+03 0.  0.
        3    1    3    3  502    0  0.19195734295E+03 -0.14857444047E+03 -0.90808568899E+03  0.93996894344E+03  0.10100000352E+00 0.  1.
       -3    1    3    3    0  502 -0.19195734295E+03  0.14857444047E+03 -0.50867149034E+03  0.56362104392E+03  0.10100000352E+00 0. -1.
</event>
<event>
 5   0  0.2504064E-01  0.5011621E+03  0.7818609E-02  0.1013476E+00
        2   -1    0    0  501    0  0.00000000000E+00  0.00000000000E+00  0.13534140312E+04  0.13534140312E+04  0.25500000920E-02 0.  1.
       -2   -1    0    0    0  501  0.00000000000E+00  0.00000000000E+00 -0.46394417772E+02  0.46394417842E+02  0.25500000920E-02 0. -1.
    10030    2    1    2    0    0  0.00000000000E+00  0.00000000000E+00  0.13070196134E+04  0.13998084490E+04  0.50116207371E+03 0.  0.
        5    1    3    3  502    0  0.20402239914E+03 -0.75121483905E+01  0.24790806349E+03  0.32118852667E+03  0.46999998093E+01 0. -1.
       -5    1    3    3    0  502 -0.20402239914E+03  0.75121483905E+01  0.10591115499E+04  0.10786199223E+04  0.46999998093E+01 0.  1.
</event>
<event>
 5   0  0.2511944E-01  0.5043043E+03  0.7818609E-02  0.1012661E+00
        2   -1    0    0  501    0  0.00000000000E+00  0.00000000000E+00  0.12938055731E+04  0.12938055731E+04  0.25500000920E-02 0.  1.
       -2   -1    0    0    0  501  0.00000000000E+00  0.00000000000E+00 -0.49142404829E+02  0.49142404895E+02  0.25500000920E-02 0. -1.
    10030    2    1    2    0    0  0.00000000000E+00  0.00000000000E+00  0.12446631683E+04  0.13429479780E+04  0.50430434181E+03 0.  0.
        1    1    3    3  502    0 -0.19587125655E+03 -0.82568432737E+02  0.98353124068E+03  0.10062389362E+04  0.50400001928E-02 0.  1.
       -1    1    3    3    0  502  0.19587125655E+03  0.82568432737E+02  0.26113192763E+03  0.33670904188E+03  0.50400001928E-02 0. -1.
</event>
<event>
 5   0  0.2511944E-01  0.4977147E+03  0.7818609E-02  0.1014377E+00
       -2   -1    0    0    0  501  0.00000000000E+00  0.00000000000E+00  0.37442106537E+03  0.37442106538E+03  0.25500000920E-02 0. -1.
        2   -1    0    0  501    0  0.00000000000E+00  0.00000000000E+00 -0.16540197196E+03  0.16540197198E+03  0.25500000920E-02 0.  1.
    10030    2    1    2    0    0  0.00000000000E+00  0.00000000000E+00  0.20901909341E+03  0.53982303736E+03  0.49771470770E+03 0.  0.
        1    1    3    3  502    0 -0.10505127220E+03 -0.22301479324E+02 -0.13897570767E+03  0.17563420259E+03  0.50400001928E-02 0.  1.
       -1    1    3    3    0  502  0.10505127220E+03  0.22301479324E+02  0.34799480108E+03  0.36418883477E+03  0.50400001928E-02 0. -1.
</event>
<event>
 5   0  0.1453602E-01  0.4914711E+03  0.7818609E-02  0.1016029E+00
        1   -1    0    0  501    0  0.00000000000E+00  0.00000000000E+00  0.56772236685E+03  0.56772236687E+03  0.50400001928E-02 0.  1.
       -1   -1    0    0    0  501  0.00000000000E+00  0.00000000000E+00 -0.10636528551E+03  0.10636528563E+03  0.50400001928E-02 0. -1.
    10030    2    1    2    0    0  0.00000000000E+00  0.00000000000E+00  0.46135708134E+03  0.67408765250E+03  0.49147106400E+03 0.  0.
        2    1    3    3  502    0  0.17113526297E+03  0.29551908253E+02  0.46913228524E+03  0.50024563424E+03  0.25500000920E-02 0.  1.
       -2    1    3    3    0  502 -0.17113526297E+03 -0.29551908253E+02 -0.77752038955E+01  0.17384201827E+03  0.25500000920E-02 0. -1.
</event>
<event>
 5   0  0.9868500E-02  0.4810109E+03  0.7818609E-02  0.1018858E+00
        4   -1    0    0  501    0  0.00000000000E+00  0.00000000000E+00  0.30980737107E+03  0.30980997413E+03  0.12699999809E+01 0. -1.
       -4   -1    0    0    0  501  0.00000000000E+00  0.00000000000E+00 -0.18670039964E+03  0.18670471908E+03  0.12699999809E+01 0.  1.
    10030    2    1    2    0    0  0.00000000000E+00  0.00000000000E+00  0.12310697143E+03  0.49651469321E+03  0.48101092935E+03 0.  0.
        4    1    3    3  502    0  0.33507632107E+02  0.17331083263E+03 -0.10705724374E+03  0.20645162255E+03  0.12699999809E+01 0.  1.
       -4    1    3    3    0  502 -0.33507632107E+02 -0.17331083263E+03  0.23016421517E+03  0.29006307066E+03  0.12699999809E+01 0. -1.
</event>
<event>
 5   0  0.2488968E-01  0.4894024E+03  0.7818609E-02  0.1016583E+00
        2   -1    0    0  501    0  0.00000000000E+00  0.00000000000E+00  0.94101715499E+03  0.94101715499E+03  0.25500000920E-02 0. -1.
       -2   -1    0    0    0  501  0.00000000000E+00  0.00000000000E+00 -0.63631856509E+02  0.63631856560E+02  0.25500000920E-02 0.  1.
    10030    2    1    2    0    0  0.00000000000E+00  0.00000000000E+00  0.87738529848E+03  0.10046490116E+04  0.48940236455E+03 0.  0.
        2    1    3    3  502    0  0.15366766987E+03 -0.19043343790E+03  0.43899412095E+03  0.50258778862E+03  0.25500000920E-02 0.  1.
       -2    1    3    3    0  502 -0.15366766987E+03  0.19043343790E+03  0.43839117752E+03  0.50206122293E+03  0.25500000920E-02 0. -1.
</event>
<event>
 5   0  0.1448458E-01  0.4987980E+03  0.7818609E-02  0.1014093E+00
        1   -1    0    0  501    0  0.00000000000E+00  0.00000000000E+00  0.57914590674E+03  0.57914590677E+03  0.50400001928E-02 0.  1.
       -1   -1    0    0    0  501  0.00000000000E+00  0.00000000000E+00 -0.10739928482E+03  0.10739928494E+03  0.50400001928E-02 0. -1.
    10030    2    1    2    0    0  0.00000000000E+00  0.00000000000E+00  0.47174662192E+03  0.68654519170E+03  0.49879798010E+03 0.  0.
        5    1    3    3  502    0 -0.18457329954E+02  0.12277640825E+03  0.53351642760E+03  0.54779246797E+03  0.46999998093E+01 0.  1.
       -5    1    3    3    0  502  0.18457329954E+02 -0.12277640825E+03 -0.61769805671E+02  0.13875272373E+03  0.46999998093E+01 0. -1.
</event>
<event>
 5   0  0.1439814E-01  0.4914293E+03  0.7818609E-02  0.1016041E+00
       -1   -1    0    0    0  501  0.00000000000E+00  0.00000000000E+00  0.10399614736E+03  0.10399614748E+03  0.50400001928E-02 0. -1.
        1   -1    0    0  501    0  0.00000000000E+00  0.00000000000E+00 -0.58055705433E+03  0.58055705436E+03  0.50400001928E-02 0.  1.
    10030    2    1    2    0    0  0.00000000000E+00  0.00000000000E+00 -0.47656090698E+03  0.68455320183E+03  0.49142933172E+03 0.  0.
        4    1    3    3  502    0 -0.25848765152E+02  0.18737930508E+03 -0.19822001479E+02  0.19019381502E+03  0.12699999809E+01 0. -1.
       -4    1    3    3    0  502  0.25848765152E+02 -0.18737930508E+03 -0.45673890550E+03  0.49435938681E+03  0.12699999809E+01 0.  1.
</event>
<event>
 5   0  0.1413361E-01  0.5075466E+03  0.7818609E-02  0.1011828E+00
       -1   -1    0    0    0  501  0.00000000000E+00  0.00000000000E+00  0.34402167583E+02  0.34402167952E+02  0.50400001928E-02 0. -1.
        1   -1    0    0  501    0  0.00000000000E+00  0.00000000000E+00 -0.18720006609E+04  0.18720006609E+04  0.50400001928E-02 0.  1.
    10030    2    1    2    0    0  0.00000000000E+00  0.00000000000E+00 -0.18375984933E+04  0.19064028289E+04  0.50754657249E+03 0.  0.
        3    1    3    3  502    0  0.43188037850E+02 -0.21819807836E+03 -0.13776799179E+04  0.13955205389E+04  0.10100000352E+00 0.  1.
       -3    1    3    3    0  502 -0.43188037850E+02  0.21819807836E+03 -0.45991857542E+03  0.51088229000E+03  0.10100000352E+00 0. -1.
</event>
<event>
 5   0  0.1413361E-01  0.5068713E+03  0.7818609E-02  0.1012001E+00
       -1   -1    0    0    0  501  0.00000000000E+00  0.00000000000E+00  0.25616725089E+03  0.25616725094E+03  0.50400001928E-02 0.  1.
        1   -1    0    0  501    0  0.00000000000E+00  0.00000000000E+00 -0.25073313570E+03  0.25073313575E+03  0.50400001928E-02 0. -1.
    10030    2    1    2    0    0  0.00000000000E+00  0.00000000000E+00  0.54341151899E+01  0.50690038670E+03  0.50687125824E+03 0.  0.
        3    1    3    3  502    0  0.11443338083E+03  0.19521426518E+03  0.11685511919E+03  0.25467378558E+03  0.10100000352E+00 0. -1.
       -3    1    3    3    0  502 -0.11443338083E+03 -0.19521426518E+03 -0.11142100400E+03  0.25222660112E+03  0.10100000352E+00 0.  1.
</event>
<event>
 5   0  0.2488968E-01  0.4821150E+03  0.7818609E-02  0.1018556E+00
        2   -1    0    0  501    0  0.00000000000E+00  0.00000000000E+00  0.93813973614E+02  0.93813973649E+02  0.25500000920E-02 0. -1.
       -2   -1    0    0    0  501  0.00000000000E+00  0.00000000000E+00 -0.61940364716E+03  0.61940364716E+03  0.25500000920E-02 0.  1.
    10030    2    1    2    0    0  0.00000000000E+00  0.00000000000E+00 -0.52558967354E+03  0.71321762081E+03  0.48211499634E+03 0.  0.
        2    1    3    3  502    0 -0.16415986777E+03 -0.13125280031E+03 -0.88175199319E+02  0.22792679868E+03  0.25500000920E-02 0. -1.
       -2    1    3    3    0  502  0.16415986777E+03  0.13125280031E+03 -0.43741447422E+03  0.48529082213E+03  0.25500000920E-02 0.  1.
</event>
<event>
 5   0  0.2488968E-01  0.5086860E+03  0.7818609E-02  0.1011536E+00
       -2   -1    0    0    0  501  0.00000000000E+00  0.00000000000E+00  0.14838716521E+03  0.14838716523E+03  0.25500000920E-02 0.  1.
        2   -1    0    0  501    0  0.00000000000E+00  0.00000000000E+00 -0.43595656316E+03  0.43595656317E+03  0.25500000920E-02 0. -1.
    10030    2    1    2    0    0  0.00000000000E+00  0.00000000000E+00 -0.28756939795E+03  0.58434372840E+03  0.50868598790E+03 0.  0.
        2    1    3    3  502    0  0.97149062688E+02 -0.22024925138E+03 -0.23811149049E+03  0.33859231389E+03  0.25500000920E-02 0. -1.
       -2    1    3    3    0  502 -0.97149062688E+02  0.22024925138E+03 -0.49457907463E+02  0.24575141451E+03  0.25500000920E-02 0.  1.
</event>
<event>
 5   0  0.1439814E-01  0.4989963E+03  0.7818609E-02  0.1014041E+00
        1   -1    0    0  501    0  0.00000000000E+00  0.00000000000E+00  0.10515584993E+03  0.10515585005E+03  0.50400001928E-02 0.  1.
       -1   -1    0    0    0  501  0.00000000000E+00  0.00000000000E+00 -0.59197218643E+03  0.59197218645E+03  0.50400001928E-02 0. -1.
    10030    2    1    2    0    0  0.00000000000E+00  0.00000000000E+00 -0.48681633650E+03  0.69712803651E+03  0.49899634648E+03 0.  0.
        4    1    3    3  502    0 -0.68796945102E+02  0.21559201146E+03 -0.96651707583E+02  0.24608149166E+03  0.12699999809E+01 0.  1.
       -4    1    3    3    0  502  0.68796945102E+02 -0.21559201146E+03 -0.39016462892E+03  0.45104654485E+03  0.12699999809E+01 0. -1.
</event>
<event>
 5   0  0.1529146E-01  0.4902382E+03  0.7818609E-02  0.1016359E+00
       -1   -1    0    0    0  501  0.00000000000E+00  0.00000000000E+00  0.31405180350E+03  0.31405180354E+03  0.50400001928E-02 0. -1.
        1   -1    0    0  501    0  0.00000000000E+00  0.00000000000E+00 -0.19131679514E+03  0.19131679520E+03  0.50400001928E-02 0.  1.
    10030    2    1    2    0    0  0.00000000000E+00  0.00000000000E+00  0.12273500836E+03  0.50536859875E+03  0.49023824649E+03 0.  0.
        1    1    3    3  502    0 -0.10831880942E+03 -0.81404874055E+02 -0.14920045898E+03  0.20154526782E+03  0.50400001928E-02 0.  1.
       -1    1    3    3    0  502  0.10831880942E+03  0.81404874055E+02  0.27193546734E+03  0.30382333093E+03  0.50400001928E-02 0. -1.
</event>
<event>
 5   0  0.9868500E-02  0.4914708E+03  0.7818609E-02  0.1016029E+00
        3   -1    0    0  501    0  0.00000000000E+00  0.00000000000E+00  0.57183629436E+03  0.57183630328E+03  0.10100000352E+00 0. -1.
       -3   -1    0    0    0  501  0.00000000000E+00  0.00000000000E+00 -0.10559992902E+03  0.10559997732E+03  0.10100000352E+00 0.  1.
    10030    2    1    2    0    0  0.00000000000E+00  0.00000000000E+00  0.46623636534E+03  0.67743628060E+03  0.49147081898E+03 0.  0.
        3    1    3    3  502    0 -0.32872557665E+00 -0.69810742266E+02 -0.91643711450E+02  0.11520515546E+03  0.10100000352E+00 0.  1.
       -3    1    3    3    0  502  0.32872557665E+00  0.69810742266E+02  0.55788007679E+03  0.56223112514E+03  0.10100000352E+00 0. -1.
</event>
<event>
 5   0  0.1439814E-01  0.5035625E+03  0.7818609E-02  0.1012853E+00
        1   -1    0    0  501    0  0.00000000000E+00  0.00000000000E+00  0.33880898678E+03  0.33880898681E+03  0.50400001928E-02 0. -1.
       -1   -1    0    0    0  501  0.00000000000E+00  0.00000000000E+00 -0.18710776653E+03  0.18710776660E+03  0.50400001928E-02 0.  1.
    10030    2    1    2    0    0  0.00000000000E+00  0.00000000000E+00  0.15170122025E+03  0.52591675341E+03  0.50356248003E+03 0.  0.
        4    1    3    3  502    0 -0.18627099622E+03 -0.15814321616E+03  0.13925837304E+03  0.28124841015E+03  0.12699999809E+01 0.  1.
       -4    1    3    3    0  502  0.18627099622E+03  0.15814321616E+03  0.12442847208E+02  0.24466834327E+03  0.12699999809E+01 0. -1.
</event>
<event>
 5   0  0.9868500E-02  0.5061379E+03  0.7818609E-02  0.1012189E+00
       -3   -1    0    0    0  501  0.00000000000E+00  0.00000000000E+00  0.83701583526E+03  0.83701584135E+03  0.10100000352E+00 0.  1.
        3   -1    0    0  501    0  0.00000000000E+00  0.00000000000E+00 -0.76514522535E+02  0.76514589195E+02  0.10100000352E+00 0. -1.
    10030    2    1    2    0    0  0.00000000000E+00  0.00000000000E+00  0.76050131272E+03  0.91353043055E+03  0.50613792674E+03 0.  0.
        4    1    3    3  502    0  0.56981271598E+02  0.19536038946E+03  0.65176571506E+03  0.68279770599E+03  0.12699999809E+01 0.  1.
       -4    1    3    3    0  502 -0.56981271598E+02 -0.19536038946E+03  0.10873559766E+03  0.23073272456E+03  0.12699999809E+01 0. -1.
</event>
<event>
 5   0  0.1448458E-01  0.4914628E+03  0.7818609E-02  0.1016032E+00
       -1   -1    0    0    0  501  0.00000000000E+00  0.00000000000E+00  0.55487718971E+02  0.55487719200E+02  0.50400001928E-02 0. -1.
        1   -1    0    0  501    0  0.00000000000E+00  0.00000000000E+00 -0.10882393402E+04  0.10882393403E+04  0.50400001928E-02 0.  1.
    10030    2    1    2    0    0  0.00000000000E+00  0.00000000000E+00 -0.10327516213E+04  0.11437270595E+04  0.49146279136E+03 0.  0.
        5    1    3    3  502    0 -0.60993046867E+02 -0.18115266977E+03 -0.15716306519E+03  0.24750507185E+03  0.46999998093E+01 0. -1.
       -5    1    3    3    0  502  0.60993046867E+02  0.18115266977E+03 -0.87558855608E+03  0.89622198761E+03  0.46999998093E+01 0.  1.
</event>
<event>
 5   0  0.1413361E-01  0.4971298E+03  0.7818609E-02  0.1014531E+00
        1   -1    0    0  501    0  0.00000000000E+00  0.00000000000E+00  0.13994017632E+04  0.13994017632E+04  0.50400001928E-02 0.  1.
       -1   -1    0    0    0  501  0.00000000000E+00  0.00000000000E+00 -0.44150661885E+02  0.44150662172E+02  0.50400001928E-02 0. -1.
    10030    2    1    2    0    0  0.00000000000E+00  0.00000000000E+00  0.13552511013E+04  0.14435524254E+04  0.49712981928E+03 0.  0.
        3    1    3    3  502    0 -0.13071481048E+03  0.18230072125E+03  0.36671031780E+03  0.42987949711E+03  0.10100000352E+00 0. -1.
       -3    1    3    3    0  502  0.13071481048E+03 -0.18230072125E+03  0.98854078354E+03  0.10136729283E+04  0.10100000352E+00 0.  1.
</event>
<event>
 5   0  0.2511944E-01  0.5042459E+03  0.7818609E-02  0.1012677E+00
        2   -1    0    0  501    0  0.00000000000E+00  0.00000000000E+00  0.68109456304E+03  0.68109456305E+03  0.25500000920E-02 0.  1.
       -2   -1    0    0    0  501  0.00000000000E+00  0.00000000000E+00 -0.93329166348E+02  0.93329166383E+02  0.25500000920E-02 0. -1.
    10030    2    1    2    0    0  0.00000000000E+00  0.00000000000E+00  0.58776539669E+03  0.77442372943E+03  0.50424592329E+03 0.  0.
        1    1    3    3  502    0  0.37481324231E+02 -0.10720144143E+02  0.67643772118E+03  0.67756015365E+03  0.50400001928E-02 0.  1.
       -1    1    3    3    0  502 -0.37481324231E+02  0.10720144143E+02 -0.88672324488E+02  0.96863575775E+02  0.50400001928E-02 0. -1.
</event>
<event>
 5   0  0.2466034E-01  0.4995154E+03  0.7818609E-02  0.1013905E+00
        2   -1    0    0  501    0  0.00000000000E+00  0.00000000000E+00  0.21737074667E+03  0.21737074668E+03  0.25500000920E-02 0.  1.
       -2   -1    0    0    0  501  0.00000000000E+00  0.00000000000E+00 -0.28697006548E+03  0.28697006549E+03  0.25500000920E-02 0. -1.
    10030    2    1    2    0    0  0.00000000000E+00  0.00000000000E+00 -0.69599318810E+02  0.50434081217E+03  0.49951535476E+03 0.  0.
        3    1    3    3  502    0 -0.11665194688E+03  0.31534094876E+02 -0.25549026758E+03  0.28262583548E+03  0.10100000352E+00 0. -1.
       -3    1    3    3    0  502  0.11665194688E+03 -0.31534094876E+02  0.18589094877E+03  0.22171497669E+03  0.10100000352E+00 0.  1.
</event>
<event>
 5   0  0.2511944E-01  0.5002812E+03  0.7818609E-02  0.1013706E+00
       -2   -1    0    0    0  501  0.00000000000E+00  0.00000000000E+00  0.54328455168E+02  0.54328455228E+02  0.25500000920E-02 0.  1.
        2   -1    0    0  501    0  0.00000000000E+00  0.00000000000E+00 -0.11517043228E+04  0.11517043228E+04  0.25500000920E-02 0. -1.
    10030    2    1    2    0    0  0.00000000000E+00  0.00000000000E+00 -0.10973758677E+04  0.12060327781E+04  0.50028118776E+03 0.  0.
        1    1    3    3  502    0 -0.82209341451E+02  0.22310856914E+03 -0.36141895372E+03  0.43261931254E+03  0.50400001928E-02 0. -1.
       -1    1    3    3    0  502  0.82209341451E+02 -0.22310856914E+03 -0.73595691395E+03  0.77341346553E+03  0.50400001928E-02 0.  1.
</event>
<event>
 5   0  0.9868500E-02  0.5533862E+03  0.7818609E-02  0.1000713E+00
        3   -1    0    0  501    0  0.00000000000E+00  0.00000000000E+00  0.85363347706E+03  0.85363348303E+03  0.10100000352E+00 0.  1.
       -3   -1    0    0    0  501  0.00000000000E+00  0.00000000000E+00 -0.89686094315E+02  0.89686151186E+02  0.10100000352E+00 0. -1.
    10030    2    1    2    0    0  0.00000000000E+00  0.00000000000E+00  0.76394738274E+03  0.94331963422E+03  0.55338623827E+03 0.  0.
        4    1    3    3  502    0 -0.42343315186E+02  0.28502609084E+02  0.84553354426E+03  0.84707375266E+03  0.12699999809E+01 0.  1.
       -4    1    3    3    0  502  0.42343315186E+02 -0.28502609084E+02 -0.81586161522E+02  0.96245881561E+02  0.12699999809E+01 0. -1.
</event>
<event>
 5   0  0.2466034E-01  0.4900997E+03  0.7818609E-02  0.1016396E+00
        2   -1    0    0  501    0  0.00000000000E+00  0.00000000000E+00  0.10843259818E+03  0.10843259821E+03  0.25500000920E-02 0.  1.
       -2   -1    0    0    0  501  0.00000000000E+00  0.00000000000E+00 -0.55379509373E+03  0.55379509374E+03  0.25500000920E-02 0. -1.
    10030    2    1    2    0    0  0.00000000000E+00  0.00000000000E+00 -0.44536249555E+03  0.66222769195E+03  0.49009974856E+03 0.  0.
        3    1    3    3  502    0  0.14047638000E+03  0.14208428816E+03 -0.41438110659E+03  0.46003616160E+03  0.10100000352E+00 0.  1.
       -3    1    3    3    0  502 -0.14047638000E+03 -0.14208428816E+03 -0.30981388955E+02  0.20219153034E+03  0.10100000352E+00 0. -1.
</event>
<event>
 5   0  0.2504064E-01  0.4915238E+03  0.7818609E-02  0.1016015E+00
       -2   -1    0    0    0  501  0.00000000000E+00  0.00000000000E+00  0.89061787276E+02  0.89061787313E+02  0.25500000920E-02 0.  1.
        2   -1    0    0  501    0  0.00000000000E+00  0.00000000000E+00 -0.67816858419E+03  0.67816858419E+03  0.25500000920E-02 0. -1.
    10030    2    1    2    0    0  0.00000000000E+00  0.00000000000E+00 -0.58910679691E+03  0.76723037150E+03  0.49152377846E+03 0.  0.
        5    1    3    3  502    0 -0.34213522481E+02 -0.24237974742E+03 -0.26113693365E+03  0.35795683426E+03  0.46999998093E+01 0.  1.
       -5    1    3    3    0  502  0.34213522481E+02  0.24237974742E+03 -0.32796986326E+03  0.40927353724E+03  0.46999998093E+01 0. -1.
</event>
<event>
 5   0  0.9868500E-02  0.5102400E+03  0.7818609E-02  0.1011140E+00
       -4   -1    0    0    0  501  0.00000000000E+00  0.00000000000E+00  0.22617917042E+03  0.22618273593E+03  0.12699999809E+01 0. -1.
        4   -1    0    0  501    0  0.00000000000E+00  0.00000000000E+00 -0.28775678331E+03  0.28775958584E+03  0.12699999809E+01 0.  1.
    10030    2    1    2    0    0  0.00000000000E+00  0.00000000000E+00 -0.61577612891E+02  0.51394232176E+03  0.51024004909E+03 0.  0.
        4    1    3    3  502    0 -0.15704654808E+03  0.65192646120E+01  0.17161324130E+03  0.23272051170E+03  0.12699999809E+01 0. -1.
       -4    1    3    3    0  502  0.15704654808E+03 -0.65192646120E+01 -0.23319085419E+03  0.28122181006E+03  0.12699999809E+01 0.  1.
</event>
<event>
 5   0  0.1529146E-01  0.4939207E+03  0.7818609E-02  0.1015378E+00
        1   -1    0    0  501    0  0.00000000000E+00  0.00000000000E+00  0.44370033868E+02  0.44370034155E+02  0.50400001928E-02 0.  1.
       -1   -1    0    0    0  501  0.00000000000E+00  0.00000000000E+00 -0.13745631591E+04  0.13745631591E+04  0.50400001928E-02 0. -1.
    10030    2    1    2    0    0  0.00000000000E+00  0.00000000000E+00 -0.13301931253E+04  0.14189331933E+04  0.49392069863E+03 0.  0.
        1    1    3    3  502    0 -0.14518342649E+03 -0.67792063569E+02 -0.12522938113E+03  0.20336270340E+03  0.50400001928E-02 0.  1.
       -1    1    3    3    0  502  0.14518342649E+03  0.67792063569E+02 -0.12049637441E+04  0.12155704899E+04  0.50400001928E-02 0. -1.
</event>
<event>
 5   0  0.2511944E-01  0.4895070E+03  0.7818609E-02  0.1016555E+00
       -2   -1    0    0    0  501  0.00000000000E+00  0.00000000000E+00  0.77088586969E+02  0.77088587011E+02  0.25500000920E-02 0.  1.
        2   -1    0    0  501    0  0.00000000000E+00  0.00000000000E+00 -0.77708348949E+03  0.77708348949E+03  0.25500000920E-02 0. -1.
    10030    2    1    2    0    0  0.00000000000E+00  0.00000000000E+00 -0.69999490252E+03  0.85417207650E+03  0.48950696903E+03 0.  0.
        1    1    3    3  502    0  0.94780623593E+02  0.70078477744E+02 -0.72429085678E+03  0.73381987224E+03  0.50400001928E-02 0. -1.
       -1    1    3    3    0  502 -0.94780623593E+02 -0.70078477744E+02  0.24295954264E+02  0.12035220426E+03  0.50400001928E-02 0.  1.
</event>
<event>
 5   0  0.1413361E-01  0.4783391E+03  0.7818609E-02  0.1019593E+00
       -1   -1    0    0    0  501  0.00000000000E+00  0.00000000000E+00  0.61572721740E+02  0.61572721946E+02  0.50400001928E-02 0.  1.
        1   -1    0    0  501    0  0.00000000000E+00  0.00000000000E+00 -0.92901661782E+03  0.92901661784E+03  0.50400001928E-02 0. -1.
    10030    2    1    2    0    0  0.00000000000E+00  0.00000000000E+00 -0.86744389608E+03  0.99058933978E+03  0.47833913413E+03 0.  0.
        3    1    3    3  502    0  0.96911439650E+02  0.22158422078E+02 -0.88420313407E+03  0.88977413724E+03  0.10100000352E+00 0. -1.
       -3    1    3    3    0  502 -0.96911439650E+02 -0.22158422078E+02  0.16759237988E+02  0.10081520254E+03  0.10100000352E+00 0.  1.
</event>
<event>
 5   0  0.9868500E-02  0.4959733E+03  0.7818609E-02  0.1014835E+00
        3   -1    0    0  501    0  0.00000000000E+00  0.00000000000E+00  0.34628982460E+03  0.34628983933E+03  0.10100000352E+00 0.  1.
       -3   -1    0    0    0  501  0.00000000000E+00  0.00000000000E+00 -0.17758929364E+03  0.17758932236E+03  0.10100000352E+00 0. -1.
    10030    2    1    2    0    0  0.00000000000E+00  0.00000000000E+00  0.16870053096E+03  0.52387916169E+03  0.49597329254E+03 0.  0.
        3    1    3    3  502    0  0.68036806902E+02  0.15692674487E+03  0.27401483889E+03  0.32301571553E+03  0.10100000352E+00 0.  1.
       -3    1    3    3    0  502 -0.68036806902E+02 -0.15692674487E+03 -0.10531430793E+03  0.20086344616E+03  0.10100000352E+00 0. -1.
</event>
<event>
 5   0  0.1453602E-01  0.5131812E+03  0.7818609E-02  0.1010395E+00
        1   -1    0    0  501    0  0.00000000000E+00  0.00000000000E+00  0.44429233504E+03  0.44429233507E+03  0.50400001928E-02 0. -1.
       -1   -1    0    0    0  501  0.00000000000E+00  0.00000000000E+00 -0.14818786275E+03  0.14818786284E+03  0.50400001928E-02 0.  1.
    10030    2    1    2    0    0  0.00000000000E+00  0.00000000000E+00  0.29610447229E+03  0.59248019791E+03  0.51318118282E+03 0.  0.
        2    1    3    3  502    0 -0.23869348263E+03 -0.67896189422E+02  0.72748738018E+02  0.25860558787E+03  0.25500000920E-02 0. -1.
       -2    1    3    3    0  502  0.23869348263E+03  0.67896189422E+02  0.22335573427E+03  0.33387461004E+03  0.25500000920E-02 0.  1.
</event>
<event>
 5   0  0.1439814E-01  0.5212480E+03  0.7818609E-02  0.1008377E+00
       -1   -1    0    0    0  501  0.00000000000E+00  0.00000000000E+00  0.39096926774E+02  0.39096927099E+02  0.50400001928E-02 0.  1.
        1   -1    0    0  501    0  0.00000000000E+00  0.00000000000E+00 -0.17373452709E+04  0.17373452709E+04  0.50400001928E-02 0. -1.
    10030    2    1    2    0    0  0.00000000000E+00  0.00000000000E+00 -0.16982483441E+04  0.17764421980E+04  0.52124796837E+03 0.  0.
        4    1    3    3  502    0 -0.29785101307E+02 -0.25240659365E+03 -0.10457015747E+04  0.10761457322E+04  0.12699999809E+01 0. -1.
       -4    1    3    3    0  502  0.29785101307E+02  0.25240659365E+03 -0.65254676939E+03  0.70029646573E+03  0.12699999809E+01 0.  1.
</event>
<event>
 5   0  0.2413301E-01  0.4666836E+03  0.7818609E-02  0.1022860E+00
        2   -1    0    0  501    0  0.00000000000E+00  0.00000000000E+00  0.59677165157E+03  0.59677165158E+03  0.25500000920E-02 0. -1.
       -2   -1    0    0    0  501  0.00000000000E+00  0.00000000000E+00 -0.91238223806E+02  0.91238223841E+02  0.25500000920E-02 0.  1.
    10030    2    1    2    0    0  0.00000000000E+00  0.00000000000E+00  0.50553342776E+03  0.68800987542E+03  0.46668355669E+03 0.  0.
        4    1    3    3  502    0 -0.56363520568E+02  0.19672561653E+03  0.41804728693E+03  0.46544920417E+03  0.12699999809E+01 0. -1.
       -4    1    3    3    0  502  0.56363520568E+02 -0.19672561653E+03  0.87486140833E+02  0.22256067125E+03  0.12699999809E+01 0.  1.
</event>
<event>
 5   0  0.1448458E-01  0.4992255E+03  0.7818609E-02  0.1013981E+00
        1   -1    0    0  501    0  0.00000000000E+00  0.00000000000E+00  0.48005300562E+03  0.48005300564E+03  0.50400001928E-02 0. -1.
       -1   -1    0    0    0  501  0.00000000000E+00  0.00000000000E+00 -0.12979092896E+03  0.12979092906E+03  0.50400001928E-02 0.  1.
    10030    2    1    2    0    0  0.00000000000E+00  0.00000000000E+00  0.35026207665E+03  0.60984393471E+03  0.49922550251E+03 0.  0.
        5    1    3    3  502    0 -0.15238389114E+03  0.42901478707E+02  0.41081385224E+03  0.44028570082E+03  0.46999998093E+01 0. -1.
       -5    1    3    3    0  502  0.15238389114E+03 -0.42901478707E+02 -0.60551775586E+02  0.16955823389E+03  0.46999998093E+01 0.  1.
</event>
<event>
 5   0  0.9868500E-02  0.5005755E+03  0.7818609E-02  0.1013629E+00
       -3   -1    0    0    0  501  0.00000000000E+00  0.00000000000E+00  0.18071144588E+03  0.18071147410E+03  0.10100000352E+00 0.  1.
        3   -1    0    0  501    0  0.00000000000E+00  0.00000000000E+00 -0.34665174029E+03  0.34665175500E+03  0.10100000352E+00 0. -1.
    10030    2    1    2    0    0  0.00000000000E+00  0.00000000000E+00 -0.16594029441E+03  0.52736322911E+03  0.50057546295E+03 0.  0.
        3    1    3    3  502    0  0.72121506868E+02  0.19598291356E+03 -0.22831355132E+03  0.30941541990E+03  0.10100000352E+00 0. -1.
       -3    1    3    3    0  502 -0.72121506868E+02 -0.19598291356E+03  0.62373256907E+02  0.21794780920E+03  0.10100000352E+00 0.  1.
</event>
<event>
 5   0  0.1413361E-01  0.4988026E+03  0.7818609E-02  0.1014092E+00
        1   -1    0    0  501    0  0.00000000000E+00  0.00000000000E+00  0.12021463225E+03  0.12021463235E+03  0.50400001928E-02 0. -1.
       -1   -1    0    0    0  501  0.00000000000E+00  0.00000000000E+00 -0.51741630967E+03  0.51741630969E+03  0.50400001928E-02 0.  1.
    10030    2    1    2    0    0  0.00000000000E+00  0.00000000000E+00 -0.39720167742E+03  0.63763094204E+03  0.49880261196E+03 0.  0.
        3    1    3    3  502    0 -0.24506434972E+03  0.38983559660E+02 -0.23055246969E+03  0.33871921248E+03  0.10100000352E+00 0. -1.
       -3    1    3    3    0  502  0.24506434972E+03 -0.38983559660E+02 -0.16664920773E+03  0.29891172956E+03  0.10100000352E+00 0.  1.
</event>
<event>
 5   0  0.1448458E-01  0.5344119E+03  0.7818609E-02  0.1005168E+00
        1   -1    0    0  501    0  0.00000000000E+00  0.00000000000E+00  0.92807252048E+02  0.92807252185E+02  0.50400001928E-02 0.  1.
       -1   -1    0    0    0  501  0.00000000000E+00  0.00000000000E+00 -0.76932589957E+03  0.76932589959E+03  0.50400001928E-02 0. -1.
    10030    2    1    2    0    0  0.00000000000E+00  0.00000000000E+00 -0.67651864752E+03  0.86213315177E+03  0.53441191130E+03 0.  0.
        5    1    3    3  502    0  0.51250200997E+02 -0.14487457701E+03 -0.69082346120E+03  0.70772478458E+03  0.46999998093E+01 0. -1.
       -5    1    3    3    0  502 -0.51250200997E+02  0.14487457701E+03  0.14304813681E+02  0.15440836719E+03  0.46999998093E+01 0.  1.
</event>
<event>
 5   0  0.2504064E-01  0.4913395E+03  0.7818609E-02  0.1016064E+00
       -2   -1    0    0    0  501  0.00000000000E+00  0.00000000000E+00  0.30421926221E+03  0.30421926223E+03  0.25500000920E-02 0. -1.
        2   -1    0    0  501    0  0.00000000000E+00  0.00000000000E+00 -0.19838854308E+03  0.19838854310E+03  0.25500000920E-02 0.  1.
    10030    2    1    2    0    0  0.00000000000E+00  0.00000000000E+00  0.10583071913E+03  0.50260780532E+03  0.49133945990E+03 0.  0.
        5    1    3    3  502    0 -0.77774948668E+02 -0.74552872824E+01  0.29112283316E+03  0.30146163592E+03  0.46999998093E+01 0. -1.
       -5    1    3    3    0  502  0.77774948668E+02  0.74552872824E+01 -0.18529211402E+03  0.20114616940E+03  0.46999998093E+01 0.  1.
</event>
<event>
 5   0  0.2511944E-01  0.4923117E+03  0.7818609E-02  0.1015805E+00
        2   -1    0    0  501    0  0.00000000000E+00  0.00000000000E+00  0.10128913783E+04  0.10128913783E+04  0.25500000920E-02 0.  1.
       -2   -1    0    0    0  501  0.00000000000E+00  0.00000000000E+00 -0.59821531372E+02  0.59821531426E+02  0.25500000920E-02 0. -1.
    10030    2    1    2    0    0  0.00000000000E+00  0.00000000000E+00  0.95306984696E+03  0.10727129098E+04  0.49231174431E+03 0.  0.
        1    1    3    3  502    0  0.47139965600E+02  0.17636197024E+03  0.11673428460E+03  0.21668551896E+03  0.50400001928E-02 0. -1.
       -1    1    3    3    0  502 -0.47139965600E+02 -0.17636197024E+03  0.83633556236E+03  0.85602739080E+03  0.50400001928E-02 0.  1.
</event>
<event>
 5   0  0.1453602E-01  0.5016141E+03  0.7818609E-02  0.1013358E+00
       -1   -1    0    0    0  501  0.00000000000E+00  0.00000000000E+00  0.76330692619E+02  0.76330692786E+02  0.50400001928E-02 0.  1.
        1   -1    0    0  501    0  0.00000000000E+00  0.00000000000E+00 -0.82410057533E+03  0.82410057534E+03  0.50400001928E-02 0. -1.
    10030    2    1    2    0    0  0.00000000000E+00  0.00000000000E+00 -0.74776988271E+03  0.90043126813E+03  0.50161406593E+03 0.  0.
        2    1    3    3  502    0  0.12703534233E+03  0.67953660369E+02 -0.53557707144E+01  0.14416782735E+03  0.25500000920E-02 0.  1.
       -2    1    3    3    0  502 -0.12703534233E+03 -0.67953660369E+02 -0.74241411199E+03  0.75626344077E+03  0.25500000920E-02 0. -1.
</event>
<event>
 5   0  0.9868500E-02  0.5041783E+03  0.7818609E-02  0.1012694E+00
       -4   -1    0    0    0  501  0.00000000000E+00  0.00000000000E+00  0.13126048639E+03  0.13126663013E+03  0.12699999809E+01 0. -1.
        4   -1    0    0  501    0  0.00000000000E+00  0.00000000000E+00 -0.48412531806E+03  0.48412698385E+03  0.12699999809E+01 0.  1.
    10030    2    1    2    0    0  0.00000000000E+00  0.00000000000E+00 -0.35286483167E+03  0.61539361398E+03  0.50417825290E+03 0.  0.
        4    1    3    3  502    0  0.44355264303E+02  0.47060286094E+02 -0.47382836193E+03  0.47822274043E+03  0.12699999809E+01 0.  1.
       -4    1    3    3    0  502 -0.44355264303E+02 -0.47060286094E+02  0.12096353025E+03  0.13717087355E+03  0.12699999809E+01 0. -1.
</event>
<event>
 5   0  0.2511944E-01  0.5089910E+03  0.7818609E-02  0.1011458E+00
        2   -1    0    0  501    0  0.00000000000E+00  0.00000000000E+00  0.66013323078E+03  0.66013323079E+03  0.25500000920E-02 0. -1.
       -2   -1    0    0    0  501  0.00000000000E+00  0.00000000000E+00 -0.98113458592E+02  0.98113458625E+02  0.25500000920E-02 0.  1.
    10030    2    1    2    0    0  0.00000000000E+00  0.00000000000E+00  0.56201977219E+03  0.75824668941E+03  0.50899097995E+03 0.  0.
        1    1    3    3  502    0  0.63631846979E+02  0.23440845867E+03  0.16783522915E+03  0.29523719551E+03  0.50400001928E-02 0.  1.
       -1    1    3    3    0  502 -0.63631846979E+02 -0.23440845867E+03  0.39418454304E+03  0.46300949390E+03  0.50400001928E-02 0. -1.
</event>
<event>
 5   0  0.1448458E-01  0.4965900E+03  0.7818609E-02  0.1014673E+00
       -1   -1    0    0    0  501  0.00000000000E+00  0.00000000000E+00  0.74786371107E+02  0.74786371277E+02  0.50400001928E-02 0.  1.
        1   -1    0    0  501    0  0.00000000000E+00  0.00000000000E+00 -0.82435356942E+03  0.82435356943E+03  0.50400001928E-02 0. -1.
    10030    2    1    2    0    0  0.00000000000E+00  0.00000000000E+00 -0.74956719831E+03  0.89913994071E+03  0.49659002023E+03 0.  0.
        5    1    3    3  502    0 -0.74451818612E+01  0.14171067382E+03 -0.59706769361E+01  0.14210941133E+03  0.46999998093E+01 0.  1.
       -5    1    3    3    0  502  0.74451818612E+01 -0.14171067382E+03 -0.74359652138E+03  0.75703052938E+03  0.46999998093E+01 0. -1.
</event>
<event>
 5   0  0.2511944E-01  0.4803411E+03  0.7818609E-02  0.1019041E+00
        2   -1    0    0  501    0  0.00000000000E+00  0.00000000000E+00  0.49370045243E+03  0.49370045244E+03  0.25500000920E-02 0. -1.
       -2   -1    0    0    0  501  0.00000000000E+00  0.00000000000E+00 -0.11683582032E+03  0.11683582035E+03  0.25500000920E-02 0.  1.
    10030    2    1    2    0    0  0.00000000000E+00  0.00000000000E+00  0.37686463211E+03  0.61053627278E+03  0.48034111780E+03 0.  0.
        1    1    3    3  502    0  0.39889690272E+01  0.90197823403E+02  0.47130913075E+03  0.47987900139E+03  0.50400001928E-02 0. -1.
       -1    1    3    3    0  502 -0.39889690272E+01 -0.90197823403E+02 -0.94444498638E+02  0.13065727140E+03  0.50400001928E-02 0.  1.
</event>
<event>
 5   0  0.2466034E-01  0.5263825E+03  0.7818609E-02  0.1007113E+00
        2   -1    0    0  501    0  0.00000000000E+00  0.00000000000E+00  0.20390910080E+03  0.20390910082E+03  0.25500000920E-02 0. -1.
       -2   -1    0    0    0  501  0.00000000000E+00  0.00000000000E+00 -0.33970841016E+03  0.33970841017E+03  0.25500000920E-02 0.  1.
    10030    2    1    2    0    0  0.00000000000E+00  0.00000000000E+00 -0.13579930936E+03  0.54361751098E+03  0.52638250904E+03 0.  0.
        3    1    3    3  502    0 -0.16236622066E+03 -0.14743121432E+03  0.82366571112E+02  0.23427124195E+03  0.10100000352E+00 0. -1.
       -3    1    3    3    0  502  0.16236622066E+03  0.14743121432E+03 -0.21816588047E+03  0.30934626904E+03  0.10100000352E+00 0.  1.
</event>
<event>
 5   0  0.1439814E-01  0.4752288E+03  0.7818609E-02  0.1020455E+00
        1   -1    0    0  501    0  0.00000000000E+00  0.00000000000E+00  0.19050834038E+03  0.19050834044E+03  0.50400001928E-02 0.  1.
       -1   -1    0    0    0  501  0.00000000000E+00  0.00000000000E+00 -0.29636813664E+03  0.29636813669E+03  0.50400001928E-02 0. -1.
    10030    2    1    2    0    0  0.00000000000E+00  0.00000000000E+00 -0.10585979627E+03  0.48687647713E+03  0.47522879491E+03 0.  0.
        4    1    3    3  502    0  0.23726046480E+03  0.46536886093E+01 -0.65258287206E+02  0.24611875573E+03  0.12699999809E+01 0.  1.
       -4    1    3    3    0  502 -0.23726046480E+03 -0.46536886093E+01 -0.40601509062E+02  0.24075772140E+03  0.12699999809E+01 0. -1.
</event>
<event>
 5   0  0.1439814E-01  0.5054471E+03  0.7818609E-02  0.1012367E+00
        1   -1    0    0  501    0  0.00000000000E+00  0.00000000000E+00  0.92936780560E+03  0.92936780562E+03  0.50400001928E-02 0. -1.
       -1   -1    0    0    0  501  0.00000000000E+00  0.00000000000E+00 -0.68723259559E+02  0.68723259744E+02  0.50400001928E-02 0.  1.
    10030    2    1    2    0    0  0.00000000000E+00  0.00000000000E+00  0.86064454604E+03  0.99809106536E+03  0.50544706955E+03 0.  0.
        4    1    3    3  502    0 -0.30767265230E+02 -0.11752867040E+01  0.92564396171E+03  0.92615677002E+03  0.12699999809E+01 0. -1.
       -4    1    3    3    0  502  0.30767265230E+02  0.11752867040E+01 -0.64999415667E+02  0.71934295337E+02  0.12699999809E+01 0.  1.
</event>
<event>
 5   0  0.1529146E-01  0.5010758E+03  0.7818609E-02  0.1013499E+00
       -1   -1    0    0    0  501  0.00000000000E+00  0.00000000000E+00  0.22432245620E+03  0.22432245625E+03  0.50400001928E-02 0.  1.
        1   -1    0    0  501    0  0.00000000000E+00  0.00000000000E+00 -0.27981697000E+03  0.27981697004E+03  0.50400001928E-02 0. -1.
    10030    2    1    2    0    0  0.00000000000E+00  0.00000000000E+00 -0.55494513801E+02  0.50413942630E+03  0.50107576282E+03 0.  0.
        1    1    3    3  502    0 -0.14624668630E+03  0.16910840327E+03  0.86008109675E+02  0.23954778284E+03  0.50400001928E-02 0.  1.
       -1    1    3    3    0  502  0.14624668630E+03 -0.16910840327E+03 -0.14150262348E+03  0.26459164345E+03  0.50400001928E-02 0. -1.
</event>
<event>
 5   0  0.2504064E-01  0.4907014E+03  0.7818609E-02  0.1016235E+00
       -2   -1    0    0    0  501  0.00000000000E+00  0.00000000000E+00  0.50138171158E+02  0.50138171223E+02  0.25500000920E-02 0. -1.
        2   -1    0    0  501    0  0.00000000000E+00  0.00000000000E+00 -0.12006212995E+04  0.12006212995E+04  0.25500000920E-02 0.  1.
    10030    2    1    2    0    0  0.00000000000E+00  0.00000000000E+00 -0.11504831283E+04  0.12507594707E+04  0.49070136031E+03 0.  0.
        5    1    3    3  502    0  0.48354118635E+02 -0.72942679974E+02  0.88794310878E+01  0.88089100605E+02  0.46999998093E+01 0. -1.
       -5    1    3    3    0  502 -0.48354118635E+02  0.72942679974E+02 -0.11593625594E+04  0.11626703701E+04  0.46999998093E+01 0.  1.
</event>
<event>
 5   0  0.1529146E-01  0.4901893E+03  0.7818609E-02  0.1016372E+00
        1   -1    0    0  501    0  0.00000000000E+00  0.00000000000E+00  0.14915956310E+04  0.14915956310E+04  0.50400001928E-02 0.  1.
       -1   -1    0    0    0  501  0.00000000000E+00  0.00000000000E+00 -0.40273233457E+02  0.40273233773E+02  0.50400001928E-02 0. -1.
    10030    2    1    2    0    0  0.00000000000E+00  0.00000000000E+00  0.14513223975E+04  0.15318688648E+04  0.49018926679E+03 0.  0.
        1    1    3    3  502    0 -0.24164497611E+03  0.34551197180E+02  0.65681772881E+03  0.70071078813E+03  0.50400001928E-02 0. -1.
       -1    1    3    3    0  502  0.24164497611E+03 -0.34551197180E+02  0.79450466874E+03  0.83115807665E+03  0.50400001928E-02 0.  1.
</event>
<event>
 5   0  0.1448458E-01  0.4925879E+03  0.7818609E-02  0.1015732E+00
       -1   -1    0    0    0  501  0.00000000000E+00  0.00000000000E+00  0.68032675601E+02  0.68032675788E+02  0.50400001928E-02 0.  1.
        1   -1    0    0  501    0  0.00000000000E+00  0.00000000000E+00 -0.89164063880E+03  0.89164063881E+03  0.50400001928E-02 0. -1.
    10030    2    1    2    0    0  0.00000000000E+00  0.00000000000E+00 -0.82360796320E+03  0.95967331460E+03  0.49258785380E+03 0.  0.
        5    1    3    3  502    0 -0.60650143677E+02 -0.60465082459E+02 -0.86160475689E+03  0.86586333403E+03  0.46999998093E+01 0. -1.
       -5    1    3    3    0  502  0.60650143677E+02  0.60465082459E+02  0.37996793695E+02  0.93809980568E+02  0.46999998093E+01 0.  1.
</event>
<event>
 5   0  0.9868500E-02  0.4957871E+03  0.7818609E-02  0.1014884E+00
        4   -1    0    0  501    0  0.00000000000E+00  0.00000000000E+00  0.13658226286E+03  0.13658816723E+03  0.12699999809E+01 0.  1.
       -4   -1    0    0    0  501  0.00000000000E+00  0.00000000000E+00 -0.44990439450E+03  0.44990618699E+03  0.12699999809E+01 0. -1.
    10030    2    1    2    0    0  0.00000000000E+00  0.00000000000E+00 -0.31332213164E+03  0.58649435422E+03  0.49578712100E+03 0.  0.
        2    1    3    3  502    0  0.15148438065E+03 -0.13912210698E+03  0.70351673147E+01  0.20579594703E+03  0.25500000920E-02 0.  1.
       -2    1    3    3    0  502 -0.15148438065E+03  0.13912210698E+03 -0.32035729896E+03  0.38069840718E+03  0.25500000920E-02 0. -1.
</event>
<event>
 5   0  0.2511944E-01  0.5087603E+03  0.7818609E-02  0.1011517E+00
        2   -1    0    0  501    0  0.00000000000E+00  0.00000000000E+00  0.11023523495E+04  0.11023523495E+04  0.25500000920E-02 0.  1.
       -2   -1    0    0    0  501  0.00000000000E+00  0.00000000000E+00 -0.58701063369E+02  0.58701063424E+02  0.25500000920E-02 0. -1.
    10030    2    1    2    0    0  0.00000000000E+00  0.00000000000E+00  0.10436512862E+04  0.11610534130E+04  0.50876027816E+03 0.  0.
        1    1    3    3  502    0  0.24919372437E+02 -0.75007324030E+01 -0.55655225904E+02  0.61438915233E+02  0.50400001928E-02 0. -1.
       -1    1    3    3    0  502 -0.24919372437E+02  0.75007324030E+01  0.10993065121E+04  0.10996144977E+04  0.50400001928E-02 0.  1.
</event>
<event>
 5   0  0.2413301E-01  0.4974050E+03  0.7818609E-02  0.1014458E+00
        2   -1    0    0  501    0  0.00000000000E+00  0.00000000000E+00  0.24869873022E+04  0.24869873022E+04  0.25500000920E-02 0.  1.
       -2   -1    0    0    0  501  0.00000000000E+00  0.00000000000E+00 -0.24870627430E+02  0.24870627561E+02  0.25500000920E-02 0. -1.
    10030    2    1    2    0    0  0.00000000000E+00  0.00000000000E+00  0.24621166747E+04  0.25118579297E+04  0.49740500513E+03 0.  0.
        4    1    3    3  502    0  0.11624963887E+03  0.14990677618E+03  0.20432222647E+04  0.20520099552E+04  0.12699999809E+01 0.  1.
       -4    1    3    3    0  502 -0.11624963887E+03 -0.14990677618E+03  0.41889441001E+03  0.45984797457E+03  0.12699999809E+01 0. -1.
</event>
<event>
 5   0  0.2504064E-01  0.3957463E+03  0.7818609E-02  0.1045263E+00
       -2   -1    0    0    0  501  0.00000000000E+00  0.00000000000E+00  0.33129371455E+02  0.33129371553E+02  0.25500000920E-02 0.  1.
        2   -1    0    0  501    0  0.00000000000E+00  0.00000000000E+00 -0.11818447920E+04  0.11818447920E+04  0.25500000920E-02 0. -1.
    10030    2    1    2    0    0  0.00000000000E+00  0.00000000000E+00 -0.11487154206E+04  0.12149741636E+04  0.39574625799E+03 0.  0.
        5    1    3    3  502    0  0.40169686798E+02 -0.19272300789E+03 -0.51483261982E+03  0.55120819836E+03  0.46999998093E+01 0.  1.
       -5    1    3    3    0  502 -0.40169686798E+02  0.19272300789E+03 -0.63388280076E+03  0.66376596523E+03  0.46999998093E+01 0. -1.
</event>
<event>
 5   0  0.1439814E-01  0.4942534E+03  0.7818609E-02  0.1015290E+00
       -1   -1    0    0    0  501  0.00000000000E+00  0.00000000000E+00  0.10369729681E+03  0.10369729694E+03  0.50400001928E-02 0. -1.
        1   -1    0    0  501    0  0.00000000000E+00  0.00000000000E+00 -0.58894107187E+03  0.58894107189E+03  0.50400001928E-02 0.  1.
    10030    2    1    2    0    0  0.00000000000E+00  0.00000000000E+00 -0.48524377506E+03  0.69263836883E+03  0.49425336493E+03 0.  0.
        4    1    3    3  502    0 -0.11909765661E+02 -0.13409781966E+03 -0.53303608829E+03  0.54977554700E+03  0.12699999809E+01 0.  1.
       -4    1    3    3    0  502  0.11909765661E+02  0.13409781966E+03  0.47792313239E+02  0.14286282183E+03  0.12699999809E+01 0. -1.
</event>
<event>
 5   0  0.2511944E-01  0.4974326E+03  0.7818609E-02  0.1014451E+00
       -2   -1    0    0    0  501  0.00000000000E+00  0.00000000000E+00  0.11430548841E+03  0.11430548844E+03  0.25500000920E-02 0.  1.
        2   -1    0    0  501    0  0.00000000000E+00  0.00000000000E+00 -0.54117950247E+03  0.54117950248E+03  0.25500000920E-02 0. -1.
    10030    2    1    2    0    0  0.00000000000E+00  0.00000000000E+00 -0.42687401406E+03  0.65548499092E+03  0.49743255768E+03 0.  0.
        1    1    3    3  502    0  0.10503549093E+03  0.21302928427E+02  0.82316352682E+02  0.13513789645E+03  0.50400001928E-02 0.  1.
       -1    1    3    3    0  502 -0.10503549093E+03 -0.21302928427E+02 -0.50919036674E+03  0.52034709447E+03  0.50400001928E-02 0. -1.
</event>
<event>
 5   0  0.9868500E-02  0.4337906E+03  0.7818609E-02  0.1032669E+00
        3   -1    0    0  501    0  0.00000000000E+00  0.00000000000E+00  0.15754185452E+03  0.15754188689E+03  0.10100000352E+00 0.  1.
       -3   -1    0    0    0  501  0.00000000000E+00  0.00000000000E+00 -0.29860992562E+03  0.29860994270E+03  0.10100000352E+00 0. -1.
    10030    2    1    2    0    0  0.00000000000E+00  0.00000000000E+00 -0.14106807110E+03  0.45615182959E+03  0.43379060727E+03 0.  0.
        5    1    3    3  502    0 -0.15224825899E+03 -0.15436054325E+03 -0.74575740177E+02  0.22932583958E+03  0.46999998093E+01 0. -1.
       -5    1    3    3    0  502  0.15224825899E+03  0.15436054325E+03 -0.66492330924E+02  0.22682599002E+03  0.46999998093E+01 0.  1.
</event>
<event>
 5   0  0.1439814E-01  0.5056725E+03  0.7818609E-02  0.1012309E+00
        1   -1    0    0  501    0  0.00000000000E+00  0.00000000000E+00  0.35000402643E+03  0.35000402647E+03  0.50400001928E-02 0. -1.
       -1   -1    0    0    0  501  0.00000000000E+00  0.00000000000E+00 -0.18264410141E+03  0.18264410148E+03  0.50400001928E-02 0.  1.
    10030    2    1    2    0    0  0.00000000000E+00  0.00000000000E+00  0.16735992502E+03  0.53264812795E+03  0.50567250637E+03 0.  0.
        4    1    3    3  502    0  0.15968906608E+03 -0.18117668819E+03  0.48620278189E+01  0.24155919023E+03  0.12699999809E+01 0. -1.
       -4    1    3    3    0  502 -0.15968906608E+03  0.18117668819E+03  0.16249789720E+03  0.29108893772E+03  0.12699999809E+01 0.  1.
</event>
<event>
 5   0  0.1453602E-01  0.5056025E+03  0.7818609E-02  0.1012327E+00
       -1   -1    0    0    0  501  0.00000000000E+00  0.00000000000E+00  0.10490654804E+03  0.10490654816E+03  0.50400001928E-02 0. -1.
        1   -1    0    0  501    0  0.00000000000E+00  0.00000000000E+00 -0.60919427667E+03  0.60919427669E+03  0.50400001928E-02 0.  1.
    10030    2    1    2    0    0  0.00000000000E+00  0.00000000000E+00 -0.50428772864E+03  0.71410082485E+03  0.50560248694E+03 0.  0.
        2    1    3    3  502    0  0.18426199605E+03  0.90702398645E+02 -0.46033910946E+03  0.50407489921E+03  0.25500000920E-02 0.  1.
       -2    1    3    3    0  502 -0.18426199605E+03 -0.90702398645E+02 -0.43948619175E+02  0.21002592564E+03  0.25500000920E-02 0. -1.
</event>
<event>
 5   0  0.9868500E-02  0.4716424E+03  0.7818609E-02  0.1021458E+00
       -4   -1    0    0    0  501  0.00000000000E+00  0.00000000000E+00  0.90188119847E+03  0.90188209266E+03  0.12699999809E+01 0.  1.
        4   -1    0    0  501    0  0.00000000000E+00  0.00000000000E+00 -0.61654367780E+02  0.61667446569E+02  0.12699999809E+01 0. -1.
    10030    2    1    2    0    0  0.00000000000E+00  0.00000000000E+00  0.84022683069E+03  0.96354953923E+03  0.47164243610E+03 0.  0.
        1    1    3    3  502    0  0.66715661411E+02  0.31599485439E+02 -0.37447796666E+02  0.82775868815E+02  0.50400001928E-02 0. -1.
       -1    1    3    3    0  502 -0.66715661411E+02 -0.31599485439E+02  0.87767462736E+03  0.88077367041E+03  0.50400001928E-02 0.  1.
</event>
<event>
 5   0  0.1439814E-01  0.4865746E+03  0.7818609E-02  0.1017344E+00
        1   -1    0    0  501    0  0.00000000000E+00  0.00000000000E+00  0.72653772525E+03  0.72653772527E+03  0.50400001928E-02 0. -1.
       -1   -1    0    0    0  501  0.00000000000E+00  0.00000000000E+00 -0.81466799159E+02  0.81466799315E+02  0.50400001928E-02 0.  1.
    10030    2    1    2    0    0  0.00000000000E+00  0.00000000000E+00  0.64507092609E+03  0.80800452458E+03  0.48657456988E+03 0.  0.
        4    1    3    3  502    0  0.17948511166E+03  0.13717316106E+03  0.47250230216E+03  0.52372838367E+03  0.12699999809E+01 0. -1.
       -4    1    3    3    0  502 -0.17948511166E+03 -0.13717316106E+03  0.17256862393E+03  0.28427614091E+03  0.12699999809E+01 0.  1.
</event>
<event>
 5   0  0.1439814E-01  0.4938737E+03  0.7818609E-02  0.1015390E+00
        1   -1    0    0  501    0  0.00000000000E+00  0.00000000000E+00  0.16284278050E+03  0.16284278057E+03  0.50400001928E-02 0. -1.
       -1   -1    0    0    0  501  0.00000000000E+00  0.00000000000E+00 -0.37445809969E+03  0.37445809972E+03  0.50400001928E-02 0.  1.
    10030    2    1    2    0    0  0.00000000000E+00  0.00000000000E+00 -0.21161531919E+03  0.53730088029E+03  0.49387366061E+03 0.  0.
        4    1    3    3  502    0 -0.24651912886E+03 -0.27762428432E+01 -0.90545684123E+02  0.26263952907E+03  0.12699999809E+01 0. -1.
       -4    1    3    3    0  502  0.24651912886E+03  0.27762428432E+01 -0.12106963507E+03  0.27466135122E+03  0.12699999809E+01 0.  1.
</event>
<event>
 5   0  0.2413301E-01  0.4325180E+03  0.7818609E-02  0.1033067E+00
        2   -1    0    0  501    0  0.00000000000E+00  0.00000000000E+00  0.36799708083E+03  0.36799708084E+03  0.25500000920E-02 0. -1.
       -2   -1    0    0    0  501  0.00000000000E+00  0.00000000000E+00 -0.12708784216E+03  0.12708784218E+03  0.25500000920E-02 0.  1.
    10030    2    1    2    0    0  0.00000000000E+00  0.00000000000E+00  0.24090923867E+03  0.49508492302E+03  0.43251799930E+03 0.  0.
        4    1    3    3  502    0 -0.46087213054E+02  0.10729390514E+03 -0.87892925956E+02  0.14616016085E+03  0.12699999809E+01 0.  1.
       -4    1    3    3    0  502  0.46087213054E+02 -0.10729390514E+03  0.32880216463E+03  0.34892476217E+03  0.12699999809E+01 0. -1.
</event>
<event>
 5   0  0.2413301E-01  0.4684805E+03  0.7818609E-02  0.1022350E+00
       -2   -1    0    0    0  501  0.00000000000E+00  0.00000000000E+00  0.21572088654E+03  0.21572088655E+03  0.25500000920E-02 0.  1.
        2   -1    0    0  501    0  0.00000000000E+00  0.00000000000E+00 -0.25434945080E+03  0.25434945082E+03  0.25500000920E-02 0. -1.
    10030    2    1    2    0    0  0.00000000000E+00  0.00000000000E+00 -0.38628564265E+02  0.47007033737E+03  0.46848047569E+03 0.  0.
        4    1    3    3  502    0 -0.12979640806E+03 -0.15145979113E+03  0.10390188790E+03  0.22490973986E+03  0.12699999809E+01 0.  1.
       -4    1    3    3    0  502  0.12979640806E+03  0.15145979113E+03 -0.14253045217E+03  0.24516059751E+03  0.12699999809E+01 0. -1.
</event>
<event>
 5   0  0.1413361E-01  0.4954246E+03  0.7818609E-02  0.1014980E+00
       -1   -1    0    0    0  501  0.00000000000E+00  0.00000000000E+00  0.19583093288E+03  0.19583093295E+03  0.50400001928E-02 0. -1.
        1   -1    0    0  501    0  0.00000000000E+00  0.00000000000E+00 -0.31333850266E+03  0.31333850270E+03  0.50400001928E-02 0.  1.
    10030    2    1    2    0    0  0.00000000000E+00  0.00000000000E+00 -0.11750756977E+03  0.50916943565E+03  0.49542455050E+03 0.  0.
        3    1    3    3  502    0  0.19302658396E+02  0.14682924918E+03 -0.26283257012E+03  0.30168260001E+03  0.10100000352E+00 0.  1.
       -3    1    3    3    0  502 -0.19302658396E+02 -0.14682924918E+03  0.14532500034E+03  0.20748683563E+03  0.10100000352E+00 0. -1.
</event>
<event>
 5   0  0.2488968E-01  0.5004104E+03  0.7818609E-02  0.1013672E+00
       -2   -1    0    0    0  501  0.00000000000E+00  0.00000000000E+00  0.98735831548E+02  0.98735831581E+02  0.25500000920E-02 0.  1.
        2   -1    0    0  501    0  0.00000000000E+00  0.00000000000E+00 -0.63404182627E+03  0.63404182628E+03  0.25500000920E-02 0. -1.
    10030    2    1    2    0    0  0.00000000000E+00  0.00000000000E+00 -0.53530599472E+03  0.73277765786E+03  0.50041041943E+03 0.  0.
        2    1    3    3  502    0  0.15035648191E+03 -0.14940359389E+03 -0.46233017375E+03  0.50860367192E+03  0.25500000920E-02 0. -1.
       -2    1    3    3    0  502 -0.15035648191E+03  0.14940359389E+03 -0.72975820971E+02  0.22417398594E+03  0.25500000920E-02 0.  1.
</event>
<event>
 5   0  0.1448458E-01  0.5054966E+03  0.7818609E-02  0.1012354E+00
       -1   -1    0    0    0  501  0.00000000000E+00  0.00000000000E+00  0.18249743405E+03  0.18249743412E+03  0.50400001928E-02 0. -1.
        1   -1    0    0  501    0  0.00000000000E+00  0.00000000000E+00 -0.35004166690E+03  0.35004166694E+03  0.50400001928E-02 0.  1.
    10030    2    1    2    0    0  0.00000000000E+00  0.00000000000E+00 -0.16754423285E+03  0.53253910106E+03  0.50549661146E+03 0.  0.
        5    1    3    3  502    0 -0.51173895083E+01 -0.23353723508E+03  0.17789507815E+02  0.23431684624E+03  0.46999998093E+01 0. -1.
       -5    1    3    3    0  502  0.51173895083E+01  0.23353723508E+03 -0.18533374067E+03  0.29822225482E+03  0.46999998093E+01 0.  1.
</event>
<event>
 5   0  0.2511944E-01  0.4901064E+03  0.7818609E-02  0.1016394E+00
        2   -1    0    0  501    0  0.00000000000E+00  0.00000000000E+00  0.62895313251E+03  0.62895313251E+03  0.25500000920E-02 0.  1.
       -2   -1    0    0    0  501  0.00000000000E+00  0.00000000000E+00 -0.95477833895E+02  0.95477833929E+02  0.25500000920E-02 0. -1.
    10030    2    1    2    0    0  0.00000000000E+00  0.00000000000E+00  0.53347529861E+03  0.72443096644E+03  0.49010644855E+03 0.  0.
        1    1    3    3  502    0  0.21489844190E+03 -0.26674055124E+02  0.97184662610E+02  0.23735564923E+03  0.50400001928E-02 0. -1.
       -1    1    3    3    0  502 -0.21489844190E+03  0.26674055124E+02  0.43629063600E+03  0.48707531721E+03  0.50400001928E-02 0.  1.
</event>
<event>
 5   0  0.2413301E-01  0.5066709E+03  0.7818609E-02  0.1012052E+00
        2   -1    0    0  501    0  0.00000000000E+00  0.00000000000E+00  0.67704893328E+03  0.67704893328E+03  0.25500000920E-02 0. -1.
       -2   -1    0    0    0  501  0.00000000000E+00  0.00000000000E+00 -0.94792055044E+02  0.94792055079E+02  0.25500000920E-02 0.  1.
    10030    2    1    2    0    0  0.00000000000E+00  0.00000000000E+00  0.58225687823E+03  0.77184098836E+03  0.50667093765E+03 0.  0.
        4    1    3    3  502    0  0.11337360947E+03 -0.11967753475E+03 -0.18990307765E+01  0.16486814994E+03  0.12699999809E+01 0.  1.
       -4    1    3    3    0  502 -0.11337360947E+03  0.11967753475E+03  0.58415590901E+03  0.60697283842E+03  0.12699999809E+01 0. -1.
</event>
<event>
 5   0  0.1413361E-01  0.5115022E+03  0.7818609E-02  0.1010820E+00
        1   -1    0    0  501    0  0.00000000000E+00  0.00000000000E+00  0.54352666019E+03  0.54352666021E+03  0.50400001928E-02 0.  1.
       -1   -1    0    0    0  501  0.00000000000E+00  0.00000000000E+00 -0.12034115759E+03  0.12034115770E+03  0.50400001928E-02 0. -1.
    10030    2    1    2    0    0  0.00000000000E+00  0.00000000000E+00  0.42318550259E+03  0.66386781791E+03  0.51150220923E+03 0.  0.
        3    1    3    3  502    0 -0.23734403676E+03  0.56897403261E+02  0.11241655021E+03  0.26871359706E+03  0.10100000352E+00 0. -1.
       -3    1    3    3    0  502  0.23734403676E+03 -0.56897403261E+02  0.31076895238E+03  0.39515422084E+03  0.10100000352E+00 0.  1.
</event>
<event>
 5   0  0.2413301E-01  0.5052391E+03  0.7818609E-02  0.1012420E+00
       -2   -1    0    0    0  501  0.00000000000E+00  0.00000000000E+00  0.72717771384E+02  0.72717771429E+02  0.25500000920E-02 0. -1.
        2   -1    0    0  501    0  0.00000000000E+00  0.00000000000E+00 -0.87759332999E+03  0.87759332999E+03  0.25500000920E-02 0.  1.
    10030    2    1    2    0    0  0.00000000000E+00  0.00000000000E+00 -0.80487555861E+03  0.95031110142E+03  0.50523907672E+03 0.  0.
        4    1    3    3  502    0  0.77869308813E+02  0.66478694235E+02  0.31935090318E+02  0.10725907391E+03  0.12699999809E+01 0. -1.
       -4    1    3    3    0  502 -0.77869308813E+02 -0.66478694235E+02 -0.83681064892E+03  0.84305202751E+03  0.12699999809E+01 0.  1.
</event>
<event>
 5   0  0.2504064E-01  0.5284447E+03  0.7818609E-02  0.1006610E+00
        2   -1    0    0  501    0  0.00000000000E+00  0.00000000000E+00  0.10780528220E+04  0.10780528220E+04  0.25500000920E-02 0.  1.
       -2   -1    0    0    0  501  0.00000000000E+00  0.00000000000E+00 -0.64758841311E+02  0.64758841361E+02  0.25500000920E-02 0. -1.
    10030    2    1    2    0    0  0.00000000000E+00  0.00000000000E+00  0.10132939807E+04  0.11428116633E+04  0.52844470535E+03 0.  0.
        5    1    3    3  502    0  0.13643516194E+03 -0.22539186735E+03  0.54854300487E+03  0.60855366688E+03  0.46999998093E+01 0.  1.
       -5    1    3    3    0  502 -0.13643516194E+03  0.22539186735E+03  0.46475097580E+03  0.53425799646E+03  0.46999998093E+01 0. -1.
</event>
<event>
 5   0  0.2511944E-01  0.5029056E+03  0.7818609E-02  0.1013023E+00
        2   -1    0    0  501    0  0.00000000000E+00  0.00000000000E+00  0.17388250474E+04  0.17388250474E+04  0.25500000920E-02 0. -1.
       -2   -1    0    0    0  501  0.00000000000E+00  0.00000000000E+00 -0.36362781707E+02  0.36362781796E+02  0.25500000920E-02 0.  1.
    10030    2    1    2    0    0  0.00000000000E+00  0.00000000000E+00  0.17024622657E+04  0.17751878292E+04  0.50290562019E+03 0.  0.
        1    1    3    3  502    0 -0.11565795260E+03 -0.14222162158E+02  0.64701315623E+02  0.13328650406E+03  0.50400001928E-02 0.  1.
       -1    1    3    3    0  502  0.11565795260E+03  0.14222162158E+02  0.16377609501E+04  0.16419013251E+04  0.50400001928E-02 0. -1.
</event>
<event>
 5   0  0.1439814E-01  0.4820518E+03  0.7818609E-02  0.1018573E+00
        1   -1    0    0  501    0  0.00000000000E+00  0.00000000000E+00  0.33427594973E+03  0.33427594977E+03  0.50400001928E-02 0.  1.
       -1   -1    0    0    0  501  0.00000000000E+00  0.00000000000E+00 -0.17378901959E+03  0.17378901967E+03  0.50400001928E-02 0. -1.
    10030    2    1    2    0    0  0.00000000000E+00  0.00000000000E+00  0.16048693014E+03  0.50806496944E+03  0.48205182130E+03 0.  0.
        4    1    3    3  502    0  0.51808880508E+02 -0.17300502732E+03  0.24847192622E+03  0.30717228163E+03  0.12699999809E+01 0.  1.
       -4    1    3    3    0  502 -0.51808880508E+02  0.17300502732E+03 -0.87984996086E+02  0.20089268781E+03  0.12699999809E+01 0. -1.
</event>
<event>
 5   0  0.2511944E-01  0.4935461E+03  0.7818609E-02  0.1015477E+00
       -2   -1    0    0    0  501  0.00000000000E+00  0.00000000000E+00  0.72805277089E+02  0.72805277134E+02  0.25500000920E-02 0. -1.
        2   -1    0    0  501    0  0.00000000000E+00  0.00000000000E+00 -0.83643564289E+03  0.83643564290E+03  0.25500000920E-02 0.  1.
    10030    2    1    2    0    0  0.00000000000E+00  0.00000000000E+00 -0.76363036580E+03  0.90924092003E+03  0.49354606176E+03 0.  0.
        1    1    3    3  502    0  0.13739436502E+03  0.19394429915E+03 -0.50409092569E+03  0.55731433150E+03  0.50400001928E-02 0.  1.
       -1    1    3    3    0  502 -0.13739436502E+03 -0.19394429915E+03 -0.25953944011E+03  0.35192658853E+03  0.50400001928E-02 0. -1.
</event>
<event>
 5   0  0.1453602E-01  0.4974156E+03  0.7818609E-02  0.1014456E+00
        1   -1    0    0  501    0  0.00000000000E+00  0.00000000000E+00  0.22701803484E+04  0.22701803484E+04  0.50400001928E-02 0.  1.
       -1   -1    0    0    0  501  0.00000000000E+00  0.00000000000E+00 -0.27246990029E+02  0.27246990495E+02  0.50400001928E-02 0. -1.
    10030    2    1    2    0    0  0.00000000000E+00  0.00000000000E+00  0.22429333584E+04  0.22974273389E+04  0.49741564856E+03 0.  0.
        2    1    3    3  502    0 -0.17148825591E+03  0.16062670975E+03  0.74492224434E+03  0.78110070537E+03  0.25500000920E-02 0. -1.
       -2    1    3    3    0  502  0.17148825591E+03 -0.16062670975E+03  0.14980111140E+04  0.15163266335E+04  0.25500000920E-02 0.  1.
</event>
<event>
 5   0  0.2466034E-01  0.4918187E+03  0.7818609E-02  0.1015937E+00
       -2   -1    0    0    0  501  0.00000000000E+00  0.00000000000E+00  0.70692168813E+02  0.70692168859E+02  0.25500000920E-02 0.  1.
        2   -1    0    0  501    0  0.00000000000E+00  0.00000000000E+00 -0.85541874922E+03  0.85541874923E+03  0.25500000920E-02 0. -1.
    10030    2    1    2    0    0  0.00000000000E+00  0.00000000000E+00 -0.78472658041E+03  0.92611091809E+03  0.49181869281E+03 0.  0.
        3    1    3    3  502    0  0.97851074150E+02  0.37283488383E+02 -0.81133925321E+03  0.81806863112E+03  0.10100000352E+00 0. -1.
       -3    1    3    3    0  502 -0.97851074150E+02 -0.37283488383E+02  0.26612672803E+02  0.10804228697E+03  0.10100000352E+00 0.  1.
</event>
<event>
 5   0  0.9868500E-02  0.4942187E+03  0.7818609E-02  0.1015299E+00
       -3   -1    0    0    0  501  0.00000000000E+00  0.00000000000E+00  0.37487376467E+03  0.37487377828E+03  0.10100000352E+00 0.  1.
        3   -1    0    0  501    0  0.00000000000E+00  0.00000000000E+00 -0.16288957819E+03  0.16288960950E+03  0.10100000352E+00 0. -1.
    10030    2    1    2    0    0  0.00000000000E+00  0.00000000000E+00  0.21198418648E+03  0.53776338778E+03  0.49421874299E+03 0.  0.
        5    1    3    3  502    0  0.11601145911E+03  0.13376718307E+03 -0.81493164460E+02  0.19497575173E+03  0.46999998093E+01 0. -1.
       -5    1    3    3    0  502 -0.11601145911E+03 -0.13376718307E+03  0.29347735094E+03  0.34278763605E+03  0.46999998093E+01 0.  1.
</event>
<event>
 5   0  0.1439814E-01  0.4993471E+03  0.7818609E-02  0.1013949E+00
        1   -1    0    0  501    0  0.00000000000E+00  0.00000000000E+00  0.74100442944E+03  0.74100442946E+03  0.50400001928E-02 0.  1.
       -1   -1    0    0    0  501  0.00000000000E+00  0.00000000000E+00 -0.84124841878E+02  0.84124842029E+02  0.50400001928E-02 0. -1.
    10030    2    1    2    0    0  0.00000000000E+00  0.00000000000E+00  0.65687958756E+03  0.82512927149E+03  0.49934709583E+03 0.  0.
        4    1    3    3  502    0  0.75870368628E+02 -0.13412064495E+03  0.38310061180E+01  0.15414587164E+03  0.12699999809E+01 0. -1.
       -4    1    3    3    0  502 -0.75870368628E+02  0.13412064495E+03  0.65304858145E+03  0.67098339984E+03  0.12699999809E+01 0.  1.
</event>
<event>
 5   0  0.1439814E-01  0.5101249E+03  0.7818609E-02  0.1011169E+00
       -1   -1    0    0    0  501  0.00000000000E+00  0.00000000000E+00  0.82351131230E+02  0.82351131384E+02  0.50400001928E-02 0. -1.
        1   -1    0    0  501    0  0.00000000000E+00  0.00000000000E+00 -0.78999341773E+03  0.78999341774E+03  0.50400001928E-02 0.  1.
    10030    2    1    2    0    0  0.00000000000E+00  0.00000000000E+00 -0.70764228650E+03  0.87234454913E+03  0.51012489329E+03 0.  0.
        4    1    3    3  502    0 -0.23945511350E+03  0.87818618212E+02 -0.35024319090E+03  0.43326985443E+03  0.12699999809E+01 0. -1.
       -4    1    3    3    0  502  0.23945511350E+03 -0.87818618212E+02 -0.35739909560E+03  0.43907469469E+03  0.12699999809E+01 0.  1.
</event>
<event>
 5   0  0.2466034E-01  0.5118661E+03  0.7818609E-02  0.1010727E+00
       -2   -1    0    0    0  501  0.00000000000E+00  0.00000000000E+00  0.56661295351E+02  0.56661295409E+02  0.25500000920E-02 0. -1.
        2   -1    0    0  501    0  0.00000000000E+00  0.00000000000E+00 -0.11560223207E+04  0.11560223207E+04  0.25500000920E-02 0.  1.
    10030    2    1    2    0    0  0.00000000000E+00  0.00000000000E+00 -0.10993610253E+04  0.12126836161E+04  0.51186608475E+03 0.  0.
        3    1    3    3  502    0 -0.18463937416E+03  0.12644329806E+03 -0.84389428269E+03  0.87306195466E+03  0.10100000352E+00 0.  1.
       -3    1    3    3    0  502  0.18463937416E+03 -0.12644329806E+03 -0.25546674262E+03  0.33962166141E+03  0.10100000352E+00 0. -1.
</event>
<event>
 5   0  0.2413301E-01  0.4848525E+03  0.7818609E-02  0.1017810E+00
        2   -1    0    0  501    0  0.00000000000E+00  0.00000000000E+00  0.58303652012E+03  0.58303652013E+03  0.25500000920E-02 0.  1.
       -2   -1    0    0    0  501  0.00000000000E+00  0.00000000000E+00 -0.10080070033E+03  0.10080070036E+03  0.25500000920E-02 0. -1.
    10030    2    1    2    0    0  0.00000000000E+00  0.00000000000E+00  0.48223581979E+03  0.68383722049E+03  0.48485251184E+03 0.  0.
        4    1    3    3  502    0 -0.23161291115E+03  0.64902096499E+02  0.28371239202E+03  0.37195585360E+03  0.12699999809E+01 0. -1.
       -4    1    3    3    0  502  0.23161291115E+03 -0.64902096499E+02  0.19852342778E+03  0.31188136690E+03  0.12699999809E+01 0.  1.
</event>
<event>
 5   0  0.1448458E-01  0.4946118E+03  0.7818609E-02  0.1015195E+00
       -1   -1    0    0    0  501  0.00000000000E+00  0.00000000000E+00  0.80592070855E+02  0.80592071013E+02  0.50400001928E-02 0.  1.
        1   -1    0    0  501    0  0.00000000000E+00  0.00000000000E+00 -0.75888608861E+03  0.75888608863E+03  0.50400001928E-02 0. -1.
    10030    2    1    2    0    0  0.00000000000E+00  0.00000000000E+00 -0.67829401776E+03  0.83947815964E+03  0.49461177300E+03 0.  0.
        5    1    3    3  502    0 -0.10771817999E+03 -0.61403817290E+02 -0.70223275623E+03  0.71311048863E+03  0.46999998093E+01 0. -1.
       -5    1    3    3    0  502  0.10771817999E+03  0.61403817290E+02  0.23938738473E+02  0.12636767101E+03  0.46999998093E+01 0.  1.
</event>
<event>
 5   0  0.2511944E-01  0.5109664E+03  0.7818609E-02  0.1010956E+00
       -2   -1    0    0    0  501  0.00000000000E+00  0.00000000000E+00  0.23937589222E+03  0.23937589224E+03  0.25500000920E-02 0.  1.
        2   -1    0    0  501    0  0.00000000000E+00  0.00000000000E+00 -0.27267433714E+03  0.27267433716E+03  0.25500000920E-02 0. -1.
    10030    2    1    2    0    0  0.00000000000E+00  0.00000000000E+00 -0.33298444921E+02  0.51205022939E+03  0.51096638929E+03 0.  0.
        1    1    3    3  502    0 -0.10610288812E+03  0.22110184184E+03 -0.88409882056E+02  0.26069168495E+03  0.50400001928E-02 0. -1.
       -1    1    3    3    0  502  0.10610288812E+03 -0.22110184184E+03  0.55111437134E+02  0.25135854444E+03  0.50400001928E-02 0.  1.
</event>
<event>
 5   0  0.2466034E-01  0.4771074E+03  0.7818609E-02  0.1019933E+00
        2   -1    0    0  501    0  0.00000000000E+00  0.00000000000E+00  0.19252761128E+04  0.19252761128E+04  0.25500000920E-02 0. -1.
       -2   -1    0    0    0  501  0.00000000000E+00  0.00000000000E+00 -0.29558282968E+02  0.29558283078E+02  0.25500000920E-02 0.  1.
    10030    2    1    2    0    0  0.00000000000E+00  0.00000000000E+00  0.18957178298E+04  0.19548343959E+04  0.47710735162E+03 0.  0.
        3    1    3    3  502    0  0.17658456479E+03 -0.96553789832E+02  0.42310356868E+03  0.46853109062E+03  0.10100000352E+00 0.  1.
       -3    1    3    3    0  502 -0.17658456479E+03  0.96553789832E+02  0.14726142611E+04  0.14863033052E+04  0.10100000352E+00 0. -1.
</event>
<event>
 5   0  0.1439814E-01  0.5110923E+03  0.7818609E-02  0.1010924E+00
       -1   -1    0    0    0  501  0.00000000000E+00  0.00000000000E+00  0.25265598595E+03  0.25265598600E+03  0.50400001928E-02 0.  1.
        1   -1    0    0  501    0  0.00000000000E+00  0.00000000000E+00 -0.25846941492E+03  0.25846941497E+03  0.50400001928E-02 0. -1.
    10030    2    1    2    0    0  0.00000000000E+00  0.00000000000E+00 -0.58134289643E+01  0.51112540097E+03  0.51109233956E+03 0.  0.
        4    1    3    3  502    0 -0.78550361177E+02  0.75749649451E+02 -0.23399321660E+03  0.25819102802E+03  0.12699999809E+01 0. -1.
       -4    1    3    3    0  502  0.78550361177E+02 -0.75749649451E+02  0.22817978764E+03  0.25293437295E+03  0.12699999809E+01 0.  1.
</event>
<event>
 5   0  0.1439814E-01  0.5060854E+03  0.7818609E-02  0.1012203E+00
        1   -1    0    0  501    0  0.00000000000E+00  0.00000000000E+00  0.49849820730E+03  0.49849820733E+03  0.50400001928E-02 0.  1.
       -1   -1    0    0    0  501  0.00000000000E+00  0.00000000000E+00 -0.12844702640E+03  0.12844702650E+03  0.50400001928E-02 0. -1.
    10030    2    1    2    0    0  0.00000000000E+00  0.00000000000E+00  0.37005118090E+03  0.62694523383E+03  0.50608541743E+03 0.  0.
        4    1    3    3  502    0 -0.24357382529E+03 -0.68440621932E+02  0.17996728177E+03  0.31048697639E+03  0.12699999809E+01 0. -1.
       -4    1    3    3    0  502  0.24357382529E+03  0.68440621932E+02  0.19008389912E+03  0.31645825744E+03  0.12699999809E+01 0.  1.
</event>
<event>
 5   0  0.1529146E-01  0.5036418E+03  0.7818609E-02  0.1012833E+00
        1   -1    0    0  501    0  0.00000000000E+00  0.00000000000E+00  0.17965385727E+03  0.17965385734E+03  0.50400001928E-02 0. -1.
       -1   -1    0    0    0  501  0.00000000000E+00  0.00000000000E+00 -0.35297743101E+03  0.35297743105E+03  0.50400001928E-02 0.  1.
    10030    2    1    2    0    0  0.00000000000E+00  0.00000000000E+00 -0.17332357374E+03  0.53263128839E+03  0.50364176570E+03 0.  0.
        1    1    3    3  502    0 -0.24610880821E+03 -0.49002203248E+02 -0.10892073566E+03  0.27355892982E+03  0.50400001928E-02 0. -1.
       -1    1    3    3    0  502  0.24610880821E+03  0.49002203248E+02 -0.64402838078E+02  0.25907235857E+03  0.50400001928E-02 0.  1.
</event>
<event>
 5   0  0.1413361E-01  0.5098607E+03  0.7818609E-02  0.1011237E+00
        1   -1    0    0  501    0  0.00000000000E+00  0.00000000000E+00  0.15078417277E+03  0.15078417286E+03  0.50400001928E-02 0. -1.
       -1   -1    0    0    0  501  0.00000000000E+00  0.00000000000E+00 -0.43100999361E+03  0.43100999364E+03  0.50400001928E-02 0.  1.
    10030    2    1    2    0    0  0.00000000000E+00  0.00000000000E+00 -0.28022582084E+03  0.58179416650E+03  0.50986070795E+03 0.  0.
        3    1    3    3  502    0  0.97477147296E+02  0.58371955747E+02  0.12029546934E+03  0.16546930110E+03  0.10100000352E+00 0. -1.
       -3    1    3    3    0  502 -0.97477147296E+02 -0.58371955747E+02 -0.40052129017E+03  0.41632486540E+03  0.10100000352E+00 0.  1.
</event>
<event>
 5   0  0.9868500E-02  0.3231691E+03  0.7818609E-02  0.1074200E+00
        3   -1    0    0  501    0  0.00000000000E+00  0.00000000000E+00  0.28530975930E+02  0.28531154700E+02  0.10100000352E+00 0.  1.
       -3   -1    0    0    0  501  0.00000000000E+00  0.00000000000E+00 -0.91512760429E+03  0.91512760987E+03  0.10100000352E+00 0. -1.
    10030    2    1    2    0    0  0.00000000000E+00  0.00000000000E+00 -0.88659662836E+03  0.94365876457E+03  0.32316912371E+03 0.  0.
        1    1    3    3  502    0 -0.41550115875E+02 -0.13491698102E+03 -0.21373670183E+03  0.25614913943E+03  0.50400001928E-02 0. -1.
       -1    1    3    3    0  502  0.41550115875E+02  0.13491698102E+03 -0.67285992654E+03  0.68750962514E+03  0.50400001928E-02 0.  1.
</event>
<event>
 5   0  0.9868500E-02  0.5011579E+03  0.7818609E-02  0.1013477E+00
       -3   -1    0    0    0  501  0.00000000000E+00  0.00000000000E+00  0.25623435988E+03  0.25623437979E+03  0.10100000352E+00 0. -1.
        3   -1    0    0  501    0  0.00000000000E+00  0.00000000000E+00 -0.24504827555E+03  0.24504829636E+03  0.10100000352E+00 0.  1.
    10030    2    1    2    0    0  0.00000000000E+00  0.00000000000E+00  0.11186084331E+02  0.50128267615E+03  0.50115785230E+03 0.  0.
        2    1    3    3  502    0 -0.20480971746E+03  0.12756290801E+03 -0.62029139020E+02  0.24913235431E+03  0.25500000920E-02 0.  1.
       -2    1    3    3    0  502  0.20480971746E+03 -0.12756290801E+03  0.73215223351E+02  0.25215032184E+03  0.25500000920E-02 0. -1.
</event>
<event>
 5   0  0.1413361E-01  0.4973517E+03  0.7818609E-02  0.1014472E+00
       -1   -1    0    0    0  501  0.00000000000E+00  0.00000000000E+00  0.58859061364E+03  0.58859061367E+03  0.50400001928E-02 0.  1.
        1   -1    0    0  501    0  0.00000000000E+00  0.00000000000E+00 -0.10506397656E+03  0.10506397668E+03  0.50400001928E-02 0. -1.
    10030    2    1    2    0    0  0.00000000000E+00  0.00000000000E+00  0.48352663708E+03  0.69365459035E+03  0.49735166828E+03 0.  0.
        3    1    3    3  502    0 -0.46713770451E+02  0.23619901534E+03  0.32849851308E+03  0.40728790124E+03  0.10100000352E+00 0.  1.
       -3    1    3    3    0  502  0.46713770451E+02 -0.23619901534E+03  0.15502812401E+03  0.28636668911E+03  0.10100000352E+00 0. -1.
</event>
<event>
 5   0  0.2413301E-01  0.5028956E+03  0.7818609E-02  0.1013026E+00
        2   -1    0    0  501    0  0.00000000000E+00  0.00000000000E+00  0.54579577980E+03  0.54579577981E+03  0.25500000920E-02 0.  1.
       -2   -1    0    0    0  501  0.00000000000E+00  0.00000000000E+00 -0.11584184208E+03  0.11584184211E+03  0.25500000920E-02 0. -1.
    10030    2    1    2    0    0  0.00000000000E+00  0.00000000000E+00  0.42995393773E+03  0.66163762192E+03  0.50289556984E+03 0.  0.
        4    1    3    3  502    0  0.91608014078E+01 -0.59146314792E+02 -0.10632922383E+03  0.12202345503E+03  0.12699999809E+01 0. -1.
       -4    1    3    3    0  502 -0.91608014078E+01  0.59146314792E+02  0.53628316156E+03  0.53961416689E+03  0.12699999809E+01 0.  1.
</event>
<event>
 5   0  0.2511944E-01  0.6580708E+03  0.7818609E-02  0.9791752E-01
       -2   -1    0    0    0  501  0.00000000000E+00  0.00000000000E+00  0.89111153295E+02  0.89111153331E+02  0.25500000920E-02 0. -1.
        2   -1    0    0  501    0  0.00000000000E+00  0.00000000000E+00 -0.12149355571E+04  0.12149355571E+04  0.25500000920E-02 0.  1.
    10030    2    1    2    0    0  0.00000000000E+00  0.00000000000E+00 -0.11258244038E+04  0.13040467104E+04  0.65807084329E+03 0.  0.
        1    1    3    3  502    0  0.22459324042E+03 -0.23235532393E+03 -0.44022462606E+03  0.54610332504E+03  0.50400001928E-02 0.  1.
       -1    1    3    3    0  502 -0.22459324042E+03  0.23235532393E+03 -0.68559977775E+03  0.75794338540E+03  0.50400001928E-02 0. -1.
</event>
<event>
 5   0  0.1453602E-01  0.5041649E+03  0.7818609E-02  0.1012697E+00
       -1   -1    0    0    0  501  0.00000000000E+00  0.00000000000E+00  0.25024286911E+03  0.25024286916E+03  0.50400001928E-02 0.  1.
        1   -1    0    0  501    0  0.00000000000E+00  0.00000000000E+00 -0.25393559166E+03  0.25393559171E+03  0.50400001928E-02 0. -1.
    10030    2    1    2    0    0  0.00000000000E+00  0.00000000000E+00 -0.36927225553E+01  0.50417846087E+03  0.50416493750E+03 0.  0.
        2    1    3    3  502    0 -0.90374610423E+02 -0.65807401170E+02  0.22409638665E+03  0.25043437219E+03  0.25500000920E-02 0.  1.
       -2    1    3    3    0  502  0.90374610423E+02  0.65807401170E+02 -0.22778910921E+03  0.25374408868E+03  0.25500000920E-02 0. -1.
</event>
<event>
 5   0  0.2504064E-01  0.5083525E+03  0.7818609E-02  0.1011621E+00
       -2   -1    0    0    0  501  0.00000000000E+00  0.00000000000E+00  0.72764934528E+02  0.72764934573E+02  0.25500000920E-02 0.  1.
        2   -1    0    0  501    0  0.00000000000E+00  0.00000000000E+00 -0.88786678914E+03  0.88786678914E+03  0.25500000920E-02 0. -1.
    10030    2    1    2    0    0  0.00000000000E+00  0.00000000000E+00 -0.81510185461E+03  0.96063172372E+03  0.50835251078E+03 0.  0.
        5    1    3    3  502    0  0.24587955100E+03 -0.77847299917E+01 -0.52804958736E+03  0.58255970709E+03  0.46999998093E+01 0.  1.
       -5    1    3    3    0  502 -0.24587955100E+03  0.77847299917E+01 -0.28705226725E+03  0.37807201662E+03  0.46999998093E+01 0. -1.
</event>
<event>
 5   0  0.9868500E-02  0.4665003E+03  0.7818609E-02  0.1022913E+00
        3   -1    0    0  501    0  0.00000000000E+00  0.00000000000E+00  0.50556725796E+03  0.50556726805E+03  0.10100000352E+00 0. -1.
       -3   -1    0    0    0  501  0.00000000000E+00  0.00000000000E+00 -0.10761301346E+03  0.10761306085E+03  0.10100000352E+00 0.  1.
    10030    2    1    2    0    0  0.00000000000E+00  0.00000000000E+00  0.39795424451E+03  0.61318032891E+03  0.46650030550E+03 0.  0.
        1    1    3    3  502    0 -0.14879953715E+03  0.63751105560E+02 -0.21753110618E+02  0.16333616735E+03  0.50400001928E-02 0.  1.
       -1    1    3    3    0  502  0.14879953715E+03 -0.63751105560E+02  0.41970735513E+03  0.44984416156E+03  0.50400001928E-02 0. -1.
</event>
<event>
 5   0  0.9868500E-02  0.4996636E+03  0.7818609E-02  0.1013867E+00
        3   -1    0    0  501    0  0.00000000000E+00  0.00000000000E+00  0.68752918906E+03  0.68752919648E+03  0.10100000352E+00 0.  1.
       -3   -1    0    0    0  501  0.00000000000E+00  0.00000000000E+00 -0.90782913950E+02  0.90782970134E+02  0.10100000352E+00 0. -1.
    10030    2    1    2    0    0  0.00000000000E+00  0.00000000000E+00  0.59674627511E+03  0.77831216662E+03  0.49966359867E+03 0.  0.
        1    1    3    3  502    0 -0.73724749636E+02 -0.72894959596E+02  0.65243762514E+03  0.66062384801E+03  0.50400001928E-02 0.  1.
       -1    1    3    3    0  502  0.73724749636E+02  0.72894959596E+02 -0.55691350022E+02  0.11768831860E+03  0.50400001928E-02 0. -1.
</event>
<event>
 5   0  0.1453602E-01  0.4887162E+03  0.7818609E-02  0.1016767E+00
        1   -1    0    0  501    0  0.00000000000E+00  0.00000000000E+00  0.31970122211E+03  0.31970122215E+03  0.50400001928E-02 0. -1.
       -1   -1    0    0    0  501  0.00000000000E+00  0.00000000000E+00 -0.18677091114E+03  0.18677091121E+03  0.50400001928E-02 0.  1.
    10030    2    1    2    0    0  0.00000000000E+00  0.00000000000E+00  0.13293031097E+03  0.50647213336E+03  0.48871623085E+03 0.  0.
        2    1    3    3  502    0  0.11810150543E+03  0.20152487510E+03  0.14084062407E+03  0.27275689224E+03  0.25500000920E-02 0.  1.
       -2    1    3    3    0  502 -0.11810150543E+03 -0.20152487510E+03 -0.79103130949E+01  0.23371524112E+03  0.25500000920E-02 0. -1.
</event>
<event>
 5   0  0.2488968E-01  0.5321231E+03  0.7818609E-02  0.1005719E+00
       -2   -1    0    0    0  501  0.00000000000E+00  0.00000000000E+00  0.45169502157E+02  0.45169502229E+02  0.25500000920E-02 0.  1.
        2   -1    0    0  501    0  0.00000000000E+00  0.00000000000E+00 -0.15671802131E+04  0.15671802131E+04  0.25500000920E-02 0. -1.
    10030    2    1    2    0    0  0.00000000000E+00  0.00000000000E+00 -0.15220107109E+04  0.16123497153E+04  0.53212310633E+03 0.  0.
        2    1    3    3  502    0  0.24340561220E+03  0.10627124982E+03 -0.80880687172E+03  0.85129808313E+03  0.25500000920E-02 0. -1.
       -2    1    3    3    0  502 -0.24340561220E+03 -0.10627124982E+03 -0.71320383919E+03  0.76105163217E+03  0.25500000920E-02 0.  1.
</event>
<event>
 5   0  0.2466034E-01  0.5029120E+03  0.7818609E-02  0.1013022E+00
        2   -1    0    0  501    0  0.00000000000E+00  0.00000000000E+00  0.10367150338E+03  0.10367150341E+03  0.25500000920E-02 0. -1.
       -2   -1    0    0    0  501  0.00000000000E+00  0.00000000000E+00 -0.60990849509E+03  0.60990849509E+03  0.25500000920E-02 0.  1.
    10030    2    1    2    0    0  0.00000000000E+00  0.00000000000E+00 -0.50623699171E+03  0.71357999850E+03  0.50291204250E+03 0.  0.
        3    1    3    3  502    0  0.71699866582E+02  0.43909240973E+02 -0.58937363555E+03  0.59534039405E+03  0.10100000352E+00 0.  1.
       -3    1    3    3    0  502 -0.71699866582E+02 -0.43909240973E+02  0.83136643840E+02  0.11823960445E+03  0.10100000352E+00 0. -1.
</event>
<event>
 5   0  0.1448458E-01  0.4977678E+03  0.7818609E-02  0.1014363E+00
       -1   -1    0    0    0  501  0.00000000000E+00  0.00000000000E+00  0.34097882951E+03  0.34097882955E+03  0.50400001928E-02 0. -1.
        1   -1    0    0  501    0  0.00000000000E+00  0.00000000000E+00 -0.18166286010E+03  0.18166286017E+03  0.50400001928E-02 0.  1.
    10030    2    1    2    0    0  0.00000000000E+00  0.00000000000E+00  0.15931596941E+03  0.52264168971E+03  0.49776777489E+03 0.  0.
        5    1    3    3  502    0 -0.22846546722E+03  0.61032131941E+02  0.16098640757E+03  0.28611204844E+03  0.46999998093E+01 0.  1.
       -5    1    3    3    0  502  0.22846546722E+03 -0.61032131941E+02 -0.16704381623E+01  0.23652964128E+03  0.46999998093E+01 0. -1.
</event>
<event>
 5   0  0.2511944E-01  0.4955603E+03  0.7818609E-02  0.1014944E+00
       -2   -1    0    0    0  501  0.00000000000E+00  0.00000000000E+00  0.23362332985E+03  0.23362332987E+03  0.25500000920E-02 0.  1.
        2   -1    0    0  501    0  0.00000000000E+00  0.00000000000E+00 -0.26279480089E+03  0.26279480091E+03  0.25500000920E-02 0. -1.
    10030    2    1    2    0    0  0.00000000000E+00  0.00000000000E+00 -0.29171471039E+02  0.49641813078E+03  0.49556027468E+03 0.  0.
        1    1    3    3  502    0  0.37504436261E+02  0.17610251044E+03  0.15593325811E+03  0.23818870236E+03  0.50400001928E-02 0.  1.
       -1    1    3    3    0  502 -0.37504436261E+02 -0.17610251044E+03 -0.18510472915E+03  0.25822942842E+03  0.50400001928E-02 0. -1.
</event>
<event>
 5   0  0.2413301E-01  0.5022969E+03  0.7818609E-02  0.1013181E+00
        2   -1    0    0  501    0  0.00000000000E+00  0.00000000000E+00  0.11140908249E+04  0.11140908249E+04  0.25500000920E-02 0. -1.
       -2   -1    0    0    0  501  0.00000000000E+00  0.00000000000E+00 -0.56616154023E+02  0.56616154080E+02  0.25500000920E-02 0.  1.
    10030    2    1    2    0    0  0.00000000000E+00  0.00000000000E+00  0.10574746709E+04  0.11707069790E+04  0.50229687546E+03 0.  0.
        4    1    3    3  502    0  0.15093390674E+03  0.65435925645E+02  0.97102562827E+03  0.98486308096E+03  0.12699999809E+01 0. -1.
       -4    1    3    3    0  502 -0.15093390674E+03 -0.65435925645E+02  0.86449042615E+02  0.18584389804E+03  0.12699999809E+01 0.  1.
</event>
<event>
 5   0  0.1448458E-01  0.4867042E+03  0.7818609E-02  0.1017309E+00
        1   -1    0    0  501    0  0.00000000000E+00  0.00000000000E+00  0.10726614594E+04  0.10726614594E+04  0.50400001928E-02 0.  1.
       -1   -1    0    0    0  501  0.00000000000E+00  0.00000000000E+00 -0.55208708933E+02  0.55208709163E+02  0.50400001928E-02 0. -1.
    10030    2    1    2    0    0  0.00000000000E+00  0.00000000000E+00  0.10174527505E+04  0.11278701686E+04  0.48670424051E+03 0.  0.
        5    1    3    3  502    0  0.12848896986E+03  0.82919854926E+02  0.70180920176E+02  0.16832281269E+03  0.46999998093E+01 0. -1.
       -5    1    3    3    0  502 -0.12848896986E+03 -0.82919854926E+02  0.94727183030E+03  0.95954735589E+03  0.46999998093E+01 0.  1.
</event>
<event>
 5   0  0.1453602E-01  0.5051273E+03  0.7818609E-02  0.1012449E+00
        1   -1    0    0  501    0  0.00000000000E+00  0.00000000000E+00  0.20878744959E+04  0.20878744959E+04  0.50400001928E-02 0.  1.
       -1   -1    0    0    0  501  0.00000000000E+00  0.00000000000E+00 -0.30551832974E+02  0.30551833390E+02  0.50400001928E-02 0. -1.
    10030    2    1    2    0    0  0.00000000000E+00  0.00000000000E+00  0.20573226629E+04  0.21184263293E+04  0.50512728422E+03 0.  0.
        2    1    3    3  502    0  0.99147746736E+02  0.21153003594E+03  0.62611406607E+03  0.66827693026E+03  0.25500000920E-02 0. -1.
       -2    1    3    3    0  502 -0.99147746736E+02 -0.21153003594E+03  0.14312085968E+04  0.14501493990E+04  0.25500000920E-02 0.  1.
</event>
<event>
 5   0  0.1448458E-01  0.5205674E+03  0.7818609E-02  0.1008546E+00
       -1   -1    0    0    0  501  0.00000000000E+00  0.00000000000E+00  0.14778506515E+03  0.14778506524E+03  0.50400001928E-02 0.  1.
        1   -1    0    0  501    0  0.00000000000E+00  0.00000000000E+00 -0.45841989171E+03  0.45841989173E+03  0.50400001928E-02 0. -1.
    10030    2    1    2    0    0  0.00000000000E+00  0.00000000000E+00 -0.31063482655E+03  0.60620495697E+03  0.52056743501E+03 0.  0.
        5    1    3    3  502    0 -0.92078189883E+02  0.15416699680E+03  0.64029869170E+02  0.19070335629E+03  0.46999998093E+01 0.  1.
       -5    1    3    3    0  502  0.92078189883E+02 -0.15416699680E+03 -0.37466469572E+03  0.41550160069E+03  0.46999998093E+01 0. -1.
</event>
<event>
 5   0  0.2466034E-01  0.5083512E+03  0.7818609E-02  0.1011622E+00
        2   -1    0    0  501    0  0.00000000000E+00  0.00000000000E+00  0.78731666570E+03  0.78731666571E+03  0.25500000920E-02 0. -1.
       -2   -1    0    0    0  501  0.00000000000E+00  0.00000000000E+00 -0.82057497629E+02  0.82057497668E+02  0.25500000920E-02 0.  1.
    10030    2    1    2    0    0  0.00000000000E+00  0.00000000000E+00  0.70525916807E+03  0.86937416337E+03  0.50835119926E+03 0.  0.
        3    1    3    3  502    0 -0.11909991910E+03  0.11286997314E+03  0.68460273109E+03  0.70399242268E+03  0.10100000352E+00 0. -1.
       -3    1    3    3    0  502  0.11909991910E+03 -0.11286997314E+03  0.20656436980E+02  0.16538174070E+03  0.10100000352E+00 0.  1.
</event>
<event>
 5   0  0.2488968E-01  0.4930761E+03  0.7818609E-02  0.1015602E+00
       -2   -1    0    0    0  501  0.00000000000E+00  0.00000000000E+00  0.35039372520E+02  0.35039372613E+02  0.25500000920E-02 0. -1.
        2   -1    0    0  501    0  0.00000000000E+00  0.00000000000E+00 -0.17346486633E+04  0.17346486633E+04  0.25500000920E-02 0.  1.
    10030    2    1    2    0    0  0.00000000000E+00  0.00000000000E+00 -0.16996092908E+04  0.17696880359E+04  0.49307606224E+03 0.  0.
        2    1    3    3  502    0 -0.23525631089E+03  0.41583428124E+02 -0.10683051009E+04  0.10946919667E+04  0.25500000920E-02 0.  1.
       -2    1    3    3    0  502  0.23525631089E+03 -0.41583428124E+02 -0.63130418987E+03  0.67499606922E+03  0.25500000920E-02 0. -1.
</event>
<event>
 5   0  0.2504064E-01  0.4877807E+03  0.7818609E-02  0.1017018E+00
        2   -1    0    0  501    0  0.00000000000E+00  0.00000000000E+00  0.90759559888E+02  0.90759559924E+02  0.25500000920E-02 0.  1.
       -2   -1    0    0    0  501  0.00000000000E+00  0.00000000000E+00 -0.65538544186E+03  0.65538544187E+03  0.25500000920E-02 0. -1.
    10030    2    1    2    0    0  0.00000000000E+00  0.00000000000E+00 -0.56462588198E+03  0.74614500179E+03  0.48778066496E+03 0.  0.
        5    1    3    3  502    0 -0.12085102784E+03  0.14172057618E+03 -0.41562054753E+02  0.19089051060E+03  0.46999998093E+01 0.  1.
       -5    1    3    3    0  502  0.12085102784E+03 -0.14172057618E+03 -0.52306382722E+03  0.55525449119E+03  0.46999998093E+01 0. -1.
</event>
<event>
 5   0  0.9868500E-02  0.5044752E+03  0.7818609E-02  0.1012617E+00
       -3   -1    0    0    0  501  0.00000000000E+00  0.00000000000E+00  0.10238157500E+03  0.10238162481E+03  0.10100000352E+00 0. -1.
        3   -1    0    0  501    0  0.00000000000E+00  0.00000000000E+00 -0.62143793099E+03  0.62143793920E+03  0.10100000352E+00 0.  1.
    10030    2    1    2    0    0  0.00000000000E+00  0.00000000000E+00 -0.51905635600E+03  0.72381956401E+03  0.50447523284E+03 0.  0.
        3    1    3    3  502    0 -0.16650417506E+03 -0.16125214557E+03 -0.40227361089E+03  0.46427358635E+03  0.10100000352E+00 0.  1.
       -3    1    3    3    0  502  0.16650417506E+03  0.16125214557E+03 -0.11678274510E+03  0.25954597766E+03  0.10100000352E+00 0. -1.
</event>
<event>
 5   0  0.1439814E-01  0.4991941E+03  0.7818609E-02  0.1013989E+00
       -1   -1    0    0    0  501  0.00000000000E+00  0.00000000000E+00  0.73427759635E+02  0.73427759808E+02  0.50400001928E-02 0.  1.
        1   -1    0    0  501    0  0.00000000000E+00  0.00000000000E+00 -0.84843522671E+03  0.84843522672E+03  0.50400001928E-02 0. -1.
    10030    2    1    2    0    0  0.00000000000E+00  0.00000000000E+00 -0.77500746707E+03  0.92186298653E+03  0.49919414251E+03 0.  0.
        4    1    3    3  502    0  0.10692494059E+03  0.13924971227E+03 -0.59883647227E+02  0.18550226250E+03  0.12699999809E+01 0.  1.
       -4    1    3    3    0  502 -0.10692494059E+03 -0.13924971227E+03 -0.71512381985E+03  0.73636072403E+03  0.12699999809E+01 0. -1.
</event>
<event>
 5   0  0.1529146E-01  0.4996727E+03  0.7818609E-02  0.1013864E+00
        1   -1    0    0  501    0  0.00000000000E+00  0.00000000000E+00  0.18874530945E+03  0.18874530951E+03  0.50400001928E-02 0. -1.
       -1   -1    0    0    0  501  0.00000000000E+00  0.00000000000E+00 -0.33070062141E+03  0.33070062145E+03  0.50400001928E-02 0.  1.
    10030    2    1    2    0    0  0.00000000000E+00  0.00000000000E+00 -0.14195531196E+03  0.51944593096E+03  0.49967265744E+03 0.  0.
        1    1    3    3  502    0 -0.17738813026E+03  0.11019831604E+03 -0.21354687340E+03  0.29868459080E+03  0.50400001928E-02 0.  1.
       -1    1    3    3    0  502  0.17738813026E+03 -0.11019831604E+03  0.71591561445E+02  0.22076134016E+03  0.50400001928E-02 0. -1.
</event>
<event>
 5   0  0.2488968E-01  0.5280746E+03  0.7818609E-02  0.1006700E+00
       -2   -1    0    0    0  501  0.00000000000E+00  0.00000000000E+00  0.69110571556E+02  0.69110571603E+02  0.25500000920E-02 0.  1.
        2   -1    0    0  501    0  0.00000000000E+00  0.00000000000E+00 -0.10087559232E+04  0.10087559232E+04  0.25500000920E-02 0. -1.
    10030    2    1    2    0    0  0.00000000000E+00  0.00000000000E+00 -0.93964535162E+03  0.10778664948E+04  0.52807461002E+03 0.  0.
        2    1    3    3  502    0 -0.35391332537E+02  0.87375954648E+02 -0.97323469039E+03  0.97778978643E+03  0.25500000920E-02 0. -1.
       -2    1    3    3    0  502  0.35391332537E+02 -0.87375954648E+02  0.33589338765E+02  0.10007670835E+03  0.25500000920E-02 0.  1.
</event>
<event>
 5   0  0.1448458E-01  0.5048814E+03  0.7818609E-02  0.1012513E+00
       -1   -1    0    0    0  501  0.00000000000E+00  0.00000000000E+00  0.16022994129E+03  0.16022994137E+03  0.50400001928E-02 0.  1.
        1   -1    0    0  501    0  0.00000000000E+00  0.00000000000E+00 -0.39771778920E+03  0.39771778923E+03  0.50400001928E-02 0. -1.
    10030    2    1    2    0    0  0.00000000000E+00  0.00000000000E+00 -0.23748784790E+03  0.55794773060E+03  0.50488136446E+03 0.  0.
        5    1    3    3  502    0  0.10463130608E+03 -0.31348860384E+02  0.13271032139E+03  0.17194353917E+03  0.46999998093E+01 0.  1.
       -5    1    3    3    0  502 -0.10463130608E+03  0.31348860384E+02 -0.37019816929E+03  0.38600419143E+03  0.46999998093E+01 0. -1.
</event>
<event>
 5   0  0.1439814E-01  0.5064980E+03  0.7818609E-02  0.1012097E+00
       -1   -1    0    0    0  501  0.00000000000E+00  0.00000000000E+00  0.91244743879E+02  0.91244744019E+02  0.50400001928E-02 0. -1.
        1   -1    0    0  501    0  0.00000000000E+00  0.00000000000E+00 -0.70289049894E+03  0.70289049896E+03  0.50400001928E-02 0.  1.
    10030    2    1    2    0    0  0.00000000000E+00  0.00000000000E+00 -0.61164575506E+03  0.79413524298E+03  0.50649803006E+03 0.  0.
        4    1    3    3  502    0  0.24879765731E+03  0.38814515118E+02 -0.26355919369E+03  0.36451598366E+03  0.12699999809E+01 0.  1.
       -4    1    3    3    0  502 -0.24879765731E+03 -0.38814515118E+02 -0.34808656138E+03  0.42961925932E+03  0.12699999809E+01 0. -1.
</event>
<event>
 5   0  0.2413301E-01  0.5031074E+03  0.7818609E-02  0.1012971E+00
       -2   -1    0    0    0  501  0.00000000000E+00  0.00000000000E+00  0.22538858497E+03  0.22538858498E+03  0.25500000920E-02 0. -1.
        2   -1    0    0  501    0  0.00000000000E+00  0.00000000000E+00 -0.28075628206E+03  0.28075628207E+03  0.25500000920E-02 0.  1.
    10030    2    1    2    0    0  0.00000000000E+00  0.00000000000E+00 -0.55367697096E+02  0.50614486705E+03  0.50310738870E+03 0.  0.
        4    1    3    3  502    0 -0.13936745958E+03  0.17048777536E+02 -0.23766316322E+03  0.27604228237E+03  0.12699999809E+01 0.  1.
       -4    1    3    3    0  502  0.13936745958E+03 -0.17048777536E+02  0.18229546613E+03  0.23010258468E+03  0.12699999809E+01 0. -1.
</event>
<event>
 5   0  0.1448458E-01  0.5003401E+03  0.7818609E-02  0.1013690E+00
       -1   -1    0    0    0  501  0.00000000000E+00  0.00000000000E+00  0.46046893050E+02  0.46046893326E+02  0.50400001928E-02 0.  1.
        1   -1    0    0  501    0  0.00000000000E+00  0.00000000000E+00 -0.13591591064E+04  0.13591591064E+04  0.50400001928E-02 0. -1.
    10030    2    1    2    0    0  0.00000000000E+00  0.00000000000E+00 -0.13131122134E+04  0.14052059998E+04  0.50034010118E+03 0.  0.
        5    1    3    3  502    0 -0.17065794771E+03 -0.18261182267E+03 -0.62965433762E+03  0.67746430738E+03  0.46999998093E+01 0.  1.
       -5    1    3    3    0  502  0.17065794771E+03  0.18261182267E+03 -0.68345787576E+03  0.72774169239E+03  0.46999998093E+01 0. -1.
</event>
<event>
 5   0  0.2504064E-01  0.4698649E+03  0.7818609E-02  0.1021958E+00
        2   -1    0    0  501    0  0.00000000000E+00  0.00000000000E+00  0.46795760772E+03  0.46795760772E+03  0.25500000920E-02 0.  1.
       -2   -1    0    0    0  501  0.00000000000E+00  0.00000000000E+00 -0.11794500934E+03  0.11794500937E+03  0.25500000920E-02 0. -1.
    10030    2    1    2    0    0  0.00000000000E+00  0.00000000000E+00  0.35001259837E+03  0.58590261709E+03  0.46986493559E+03 0.  0.
        5    1    3    3  502    0 -0.19152699871E+03  0.11114979956E+03  0.27267043086E+03  0.35129492316E+03  0.46999998093E+01 0.  1.
       -5    1    3    3    0  502  0.19152699871E+03 -0.11114979956E+03  0.77342167514E+02  0.23460769393E+03  0.46999998093E+01 0. -1.
</event>
<event>
 5   0  0.2511944E-01  0.4936156E+03  0.7818609E-02  0.1015459E+00
        2   -1    0    0  501    0  0.00000000000E+00  0.00000000000E+00  0.32653233019E+03  0.32653233020E+03  0.25500000920E-02 0.  1.
       -2   -1    0    0    0  501  0.00000000000E+00  0.00000000000E+00 -0.18654845156E+03  0.18654845158E+03  0.25500000920E-02 0. -1.
    10030    2    1    2    0    0  0.00000000000E+00  0.00000000000E+00  0.13998387863E+03  0.51308078178E+03  0.49361564234E+03 0.  0.
        1    1    3    3  502    0  0.22968511014E+03 -0.48823525510E+02  0.14898284961E+03  0.27809148848E+03  0.50400001928E-02 0.  1.
       -1    1    3    3    0  502 -0.22968511014E+03  0.48823525510E+02 -0.89989709765E+01  0.23498929330E+03  0.50400001928E-02 0. -1.
</event>
<event>
 5   0  0.1529146E-01  0.4541546E+03  0.7818609E-02  0.1026490E+00
       -1   -1    0    0    0  501  0.00000000000E+00  0.00000000000E+00  0.10950224828E+04  0.10950224828E+04  0.50400001928E-02 0.  1.
        1   -1    0    0  501    0  0.00000000000E+00  0.00000000000E+00 -0.47089528241E+02  0.47089528511E+02  0.50400001928E-02 0. -1.
    10030    2    1    2    0    0  0.00000000000E+00  0.00000000000E+00  0.10479329546E+04  0.11421120113E+04  0.45415456527E+03 0.  0.
        1    1    3    3  502    0  0.53122732298E+02  0.58591585408E+02  0.10592670430E+04  0.10622154522E+04  0.50400001928E-02 0.  1.
       -1    1    3    3    0  502 -0.53122732298E+02 -0.58591585408E+02 -0.11334088439E+02  0.79896559084E+02  0.50400001928E-02 0. -1.
</event>
<event>
 5   0  0.9868500E-02  0.4969620E+03  0.7818609E-02  0.1014575E+00
        3   -1    0    0  501    0  0.00000000000E+00  0.00000000000E+00  0.14911255437E+03  0.14911258858E+03  0.10100000352E+00 0.  1.
       -3   -1    0    0    0  501  0.00000000000E+00  0.00000000000E+00 -0.41406833584E+03  0.41406834816E+03  0.10100000352E+00 0. -1.
    10030    2    1    2    0    0  0.00000000000E+00  0.00000000000E+00 -0.26495578147E+03  0.56318093674E+03  0.49696197175E+03 0.  0.
        2    1    3    3  502    0  0.24759690376E+03 -0.16190642363E+01 -0.15613949756E+03  0.29272237841E+03  0.25500000920E-02 0. -1.
       -2    1    3    3    0  502 -0.24759690376E+03  0.16190642363E+01 -0.10881628391E+03  0.27045855832E+03  0.25500000920E-02 0.  1.
</event>
<event>
 5   0  0.1453602E-01  0.5130863E+03  0.7818609E-02  0.1010419E+00
        1   -1    0    0  501    0  0.00000000000E+00  0.00000000000E+00  0.69627425444E+03  0.69627425446E+03  0.50400001928E-02 0.  1.
       -1   -1    0    0    0  501  0.00000000000E+00  0.00000000000E+00 -0.94523655366E+02  0.94523655500E+02  0.50400001928E-02 0. -1.
    10030    2    1    2    0    0  0.00000000000E+00  0.00000000000E+00  0.60175059907E+03  0.79079790996E+03  0.51308629967E+03 0.  0.
        2    1    3    3  502    0  0.16759968662E+03  0.18198501727E+03  0.40547870939E+03  0.47499598445E+03  0.25500000920E-02 0.  1.
       -2    1    3    3    0  502 -0.16759968662E+03 -0.18198501727E+03  0.19627188968E+03  0.31580192551E+03  0.25500000920E-02 0. -1.
</event>
<event>
 5   0  0.1439814E-01  0.4984995E+03  0.7818609E-02  0.1014171E+00
        1   -1    0    0  501    0  0.00000000000E+00  0.00000000000E+00  0.77594079877E+03  0.77594079879E+03  0.50400001928E-02 0.  1.
       -1   -1    0    0    0  501  0.00000000000E+00  0.00000000000E+00 -0.80064646858E+02  0.80064647016E+02  0.50400001928E-02 0. -1.
    10030    2    1    2    0    0  0.00000000000E+00  0.00000000000E+00  0.69587615191E+03  0.85600544580E+03  0.49849945280E+03 0.  0.
        4    1    3    3  502    0 -0.13901580211E+03 -0.68107968019E+02  0.68337777360E+03  0.70069314460E+03  0.12699999809E+01 0.  1.
       -4    1    3    3    0  502  0.13901580211E+03  0.68107968019E+02  0.12498378315E+02  0.15531230120E+03  0.12699999809E+01 0. -1.
</event>
<event>
 5   0  0.1439814E-01  0.5005894E+03  0.7818609E-02  0.1013625E+00
        1   -1    0    0  501    0  0.00000000000E+00  0.00000000000E+00  0.13470201194E+03  0.13470201203E+03  0.50400001928E-02 0.  1.
       -1   -1    0    0    0  501  0.00000000000E+00  0.00000000000E+00 -0.46508159873E+03  0.46508159875E+03  0.50400001928E-02 0. -1.
    10030    2    1    2    0    0  0.00000000000E+00  0.00000000000E+00 -0.33037958679E+03  0.59978361079E+03  0.50058936105E+03 0.  0.
        4    1    3    3  502    0 -0.16033534927E+03  0.36579325938E+02  0.60878715343E+02  0.17536619456E+03  0.12699999809E+01 0.  1.
       -4    1    3    3    0  502  0.16033534927E+03 -0.36579325938E+02 -0.39125830213E+03  0.42441741623E+03  0.12699999809E+01 0. -1.
</event>
<event>
 5   0  0.1529146E-01  0.4971059E+03  0.7818609E-02  0.1014537E+00
        1   -1    0    0  501    0  0.00000000000E+00  0.00000000000E+00  0.19900845750E+03  0.19900845757E+03  0.50400001928E-02 0. -1.
       -1   -1    0    0    0  501  0.00000000000E+00  0.00000000000E+00 -0.31043187314E+03  0.31043187318E+03  0.50400001928E-02 0.  1.
    10030    2    1    2    0    0  0.00000000000E+00  0.00000000000E+00 -0.11142341564E+03  0.50944033075E+03  0.49710589721E+03 0.  0.
        1    1    3    3  502    0  0.14179701582E+02 -0.14865872954E+03  0.14790924025E+03  0.21018474060E+03  0.50400001928E-02 0. -1.
       -1    1    3    3    0  502 -0.14179701582E+02  0.14865872954E+03 -0.25933265588E+03  0.29925559015E+03  0.50400001928E-02 0.  1.
</event>
<event>
 5   0  0.2504064E-01  0.5004976E+03  0.7818609E-02  0.1013649E+00
        2   -1    0    0  501    0  0.00000000000E+00  0.00000000000E+00  0.10640254128E+03  0.10640254132E+03  0.25500000920E-02 0.  1.
       -2   -1    0    0    0  501  0.00000000000E+00  0.00000000000E+00 -0.58856175907E+03  0.58856175908E+03  0.25500000920E-02 0. -1.
    10030    2    1    2    0    0  0.00000000000E+00  0.00000000000E+00 -0.48215921779E+03  0.69496430039E+03  0.50049761990E+03 0.  0.
        5    1    3    3  502    0 -0.38908843891E+02  0.20929993243E+03 -0.58539757012E+02  0.22083784322E+03  0.46999998093E+01 0. -1.
       -5    1    3    3    0  502  0.38908843891E+02 -0.20929993243E+03 -0.42361946077E+03  0.47412645717E+03  0.46999998093E+01 0.  1.
</event>
<event>
 5   0  0.2488968E-01  0.4986143E+03  0.7818609E-02  0.1014141E+00
       -2   -1    0    0    0  501  0.00000000000E+00  0.00000000000E+00  0.23995385781E+03  0.23995385782E+03  0.25500000920E-02 0.  1.
        2   -1    0    0  501    0  0.00000000000E+00  0.00000000000E+00 -0.25902505894E+03  0.25902505895E+03  0.25500000920E-02 0. -1.
    10030    2    1    2    0    0  0.00000000000E+00  0.00000000000E+00 -0.19071201134E+02  0.49897891677E+03  0.49861432859E+03 0.  0.
        2    1    3    3  502    0  0.23659128765E+03 -0.44120525680E+02 -0.74637022608E+02  0.25197766435E+03  0.25500000920E-02 0.  1.
       -2    1    3    3    0  502 -0.23659128765E+03  0.44120525680E+02  0.55565821474E+02  0.24700125243E+03  0.25500000920E-02 0. -1.
</event>
<event>
 5   0  0.1453602E-01  0.4573675E+03  0.7818609E-02  0.1025547E+00
       -1   -1    0    0    0  501  0.00000000000E+00  0.00000000000E+00  0.13638812717E+03  0.13638812727E+03  0.50400001928E-02 0. -1.
        1   -1    0    0  501    0  0.00000000000E+00  0.00000000000E+00 -0.38343699995E+03  0.38343699998E+03  0.50400001928E-02 0.  1.
    10030    2    1    2    0    0  0.00000000000E+00  0.00000000000E+00 -0.24704887277E+03  0.51982512725E+03  0.45736748614E+03 0.  0.
        2    1    3    3  502    0 -0.13177609764E+03 -0.96734500182E+02 -0.30528062043E+03  0.34629288276E+03  0.25500000920E-02 0.  1.
       -2    1    3    3    0  502  0.13177609764E+03  0.96734500182E+02  0.58231747657E+02  0.17353224449E+03  0.25500000920E-02 0. -1.
</event>
<event>
 5   0  0.1439814E-01  0.4885982E+03  0.7818609E-02  0.1016799E+00
       -1   -1    0    0    0  501  0.00000000000E+00  0.00000000000E+00  0.10111586561E+04  0.10111586561E+04  0.50400001928E-02 0. -1.
        1   -1    0    0  501    0  0.00000000000E+00  0.00000000000E+00 -0.59023439999E+02  0.59023440214E+02  0.50400001928E-02 0.  1.
    10030    2    1    2    0    0  0.00000000000E+00  0.00000000000E+00  0.95213521612E+03  0.10701820963E+04  0.48859824965E+03 0.  0.
        4    1    3    3  502    0  0.21398713459E+03  0.48024040836E+02  0.24033023718E+03  0.32535678581E+03  0.12699999809E+01 0.  1.
       -4    1    3    3    0  502 -0.21398713459E+03 -0.48024040836E+02  0.71180497894E+03  0.74482531054E+03  0.12699999809E+01 0. -1.
</event>
<event>
 5   0  0.1529146E-01  0.5131001E+03  0.7818609E-02  0.1010415E+00
        1   -1    0    0  501    0  0.00000000000E+00  0.00000000000E+00  0.60937021186E+03  0.60937021188E+03  0.50400001928E-02 0. -1.
       -1   -1    0    0    0  501  0.00000000000E+00  0.00000000000E+00 -0.10800977272E+03  0.10800977284E+03  0.50400001928E-02 0.  1.
    10030    2    1    2    0    0  0.00000000000E+00  0.00000000000E+00  0.50136043914E+03  0.71737998472E+03  0.51310013890E+03 0.  0.
        1    1    3    3  502    0  0.14990816677E+03  0.14479615233E+03  0.45983742765E+03  0.50486517417E+03  0.50400001928E-02 0. -1.
       -1    1    3    3    0  502 -0.14990816677E+03 -0.14479615233E+03  0.41523011496E+02  0.21251481055E+03  0.50400001928E-02 0.  1.
</event>
<event>
 5   0  0.1529146E-01  0.5001989E+03  0.7818609E-02  0.1013727E+00
       -1   -1    0    0    0  501  0.00000000000E+00  0.00000000000E+00  0.71538295205E+03  0.71538295207E+03  0.50400001928E-02 0. -1.
        1   -1    0    0  501    0  0.00000000000E+00  0.00000000000E+00 -0.87435326375E+02  0.87435326520E+02  0.50400001928E-02 0.  1.
    10030    2    1    2    0    0  0.00000000000E+00  0.00000000000E+00  0.62794762568E+03  0.80281827859E+03  0.50019892827E+03 0.  0.
        1    1    3    3  502    0 -0.22965989610E+03  0.96459423136E+02  0.34992196115E+03  0.42952702722E+03  0.50400001928E-02 0. -1.
       -1    1    3    3    0  502  0.22965989610E+03 -0.96459423136E+02  0.27802566452E+03  0.37329125137E+03  0.50400001928E-02 0.  1.
</event>
<event>
 5   0  0.9868500E-02  0.4984094E+03  0.7818609E-02  0.1014195E+00
        3   -1    0    0  501    0  0.00000000000E+00  0.00000000000E+00  0.11936429079E+03  0.11936433352E+03  0.10100000352E+00 0. -1.
       -3   -1    0    0    0  501  0.00000000000E+00  0.00000000000E+00 -0.52028084482E+03  0.52028085462E+03  0.10100000352E+00 0.  1.
    10030    2    1    2    0    0  0.00000000000E+00  0.00000000000E+00 -0.40091655402E+03  0.63964518814E+03  0.49840935327E+03 0.  0.
        1    1    3    3  502    0 -0.55063212753E+01  0.20246479325E+03 -0.38679353644E+03  0.43661373311E+03  0.50400001928E-02 0.  1.
       -1    1    3    3    0  502  0.55063212753E+01 -0.20246479325E+03 -0.14123017580E+02  0.20303145503E+03  0.50400001928E-02 0. -1.
</event>
<event>
 5   0  0.1453602E-01  0.5076307E+03  0.7818609E-02  0.1011806E+00
        1   -1    0    0  501    0  0.00000000000E+00  0.00000000000E+00  0.72495132570E+03  0.72495132572E+03  0.50400001928E-02 0.  1.
       -1   -1    0    0    0  501  0.00000000000E+00  0.00000000000E+00 -0.88864221578E+02  0.88864221721E+02  0.50400001928E-02 0. -1.
    10030    2    1    2    0    0  0.00000000000E+00  0.00000000000E+00  0.63608710412E+03  0.81381554744E+03  0.50763071344E+03 0.  0.
        2    1    3    3  502    0  0.62484323258E+02 -0.52685740096E+02  0.70327753885E+03  0.70801085762E+03  0.25500000920E-02 0.  1.
       -2    1    3    3    0  502 -0.62484323258E+02  0.52685740096E+02 -0.67190434722E+02  0.10580468982E+03  0.25500000920E-02 0. -1.
</event>
<event>
 5   0  0.1439814E-01  0.5000832E+03  0.7818609E-02  0.1013757E+00
       -1   -1    0    0    0  501  0.00000000000E+00  0.00000000000E+00  0.18254858778E+03  0.18254858785E+03  0.50400001928E-02 0.  1.
        1   -1    0    0  501    0  0.00000000000E+00  0.00000000000E+00 -0.34248855000E+03  0.34248855004E+03  0.50400001928E-02 0. -1.
    10030    2    1    2    0    0  0.00000000000E+00  0.00000000000E+00 -0.15993996222E+03  0.52503713789E+03  0.50008319772E+03 0.  0.
        4    1    3    3  502    0  0.33855992923E+02 -0.17574887654E+03 -0.26328284537E+03  0.31836043320E+03  0.12699999809E+01 0. -1.
       -4    1    3    3    0  502 -0.33855992923E+02  0.17574887654E+03  0.10334288315E+03  0.20667670468E+03  0.12699999809E+01 0.  1.
</event>
<event>
 5   0  0.1413361E-01  0.4995482E+03  0.7818609E-02  0.1013897E+00
       -1   -1    0    0    0  501  0.00000000000E+00  0.00000000000E+00  0.11896249595E+03  0.11896249606E+03  0.50400001928E-02 0.  1.
        1   -1    0    0  501    0  0.00000000000E+00  0.00000000000E+00 -0.52442656477E+03  0.52442656479E+03  0.50400001928E-02 0. -1.
    10030    2    1    2    0    0  0.00000000000E+00  0.00000000000E+00 -0.40546406882E+03  0.64338906085E+03  0.49954816836E+03 0.  0.
        3    1    3    3  502    0  0.24046020491E+03 -0.27500875801E+02 -0.28222711310E+03  0.37179236394E+03  0.10100000352E+00 0.  1.
       -3    1    3    3    0  502 -0.24046020491E+03  0.27500875801E+02 -0.12323695572E+03  0.27159669691E+03  0.10100000352E+00 0. -1.
</event>
<event>
 5   0  0.2488968E-01  0.5003798E+03  0.7818609E-02  0.1013680E+00
       -2   -1    0    0    0  501  0.00000000000E+00  0.00000000000E+00  0.14718705990E+03  0.14718705992E+03  0.25500000920E-02 0. -1.
        2   -1    0    0  501    0  0.00000000000E+00  0.00000000000E+00 -0.42527503032E+03  0.42527503033E+03  0.25500000920E-02 0.  1.
    10030    2    1    2    0    0  0.00000000000E+00  0.00000000000E+00 -0.27808797042E+03  0.57246209025E+03  0.50037978125E+03 0.  0.
        2    1    3    3  502    0 -0.94057728680E+02 -0.23120664323E+03 -0.15858065532E+03  0.29572147783E+03  0.25500000920E-02 0. -1.
       -2    1    3    3    0  502  0.94057728680E+02  0.23120664323E+03 -0.11950731510E+03  0.27674061243E+03  0.25500000920E-02 0.  1.
</event>
<event>
 5   0  0.1448458E-01  0.5105038E+03  0.7818609E-02  0.1011073E+00
       -1   -1    0    0    0  501  0.00000000000E+00  0.00000000000E+00  0.19541590527E+03  0.19541590533E+03  0.50400001928E-02 0.  1.
        1   -1    0    0  501    0  0.00000000000E+00  0.00000000000E+00 -0.33340959168E+03  0.33340959172E+03  0.50400001928E-02 0. -1.
    10030    2    1    2    0    0  0.00000000000E+00  0.00000000000E+00 -0.13799368642E+03  0.52882549706E+03  0.51050381864E+03 0.  0.
        5    1    3    3  502    0 -0.25034642191E+03  0.58515135480E+01 -0.11999665744E+03  0.27772082919E+03  0.46999998093E+01 0.  1.
       -5    1    3    3    0  502  0.25034642191E+03 -0.58515135480E+01 -0.17997028973E+02  0.25110466786E+03  0.46999998093E+01 0. -1.
</event>
<event>
 5   0  0.2511944E-01  0.4901764E+03  0.7818609E-02  0.1016375E+00
       -2   -1    0    0    0  501  0.00000000000E+00  0.00000000000E+00  0.16387744819E+03  0.16387744821E+03  0.25500000920E-02 0.  1.
        2   -1    0    0  501    0  0.00000000000E+00  0.00000000000E+00 -0.36654364735E+03  0.36654364736E+03  0.25500000920E-02 0. -1.
    10030    2    1    2    0    0  0.00000000000E+00  0.00000000000E+00 -0.20266619916E+03  0.53042109557E+03  0.49017644818E+03 0.  0.
        1    1    3    3  502    0 -0.43405271695E+01 -0.63065757482E+02 -0.35757006824E+03  0.36311497307E+03  0.50400001928E-02 0. -1.
       -1    1    3    3    0  502  0.43405271695E+01  0.63065757482E+02  0.15490386908E+03  0.16730612250E+03  0.50400001928E-02 0.  1.
</event>
<event>
 5   0  0.1413361E-01  0.4978883E+03  0.7818609E-02  0.1014332E+00
        1   -1    0    0  501    0  0.00000000000E+00  0.00000000000E+00  0.46328993141E+03  0.46328993144E+03  0.50400001928E-02 0. -1.
       -1   -1    0    0    0  501  0.00000000000E+00  0.00000000000E+00 -0.13376760521E+03  0.13376760530E+03  0.50400001928E-02 0.  1.
    10030    2    1    2    0    0  0.00000000000E+00  0.00000000000E+00  0.32952232620E+03  0.59705753674E+03  0.49788827935E+03 0.  0.
        3    1    3    3  502    0  0.52873410453E+02  0.23167419449E+03  0.75790070789E+02  0.24942468794E+03  0.10100000352E+00 0.  1.
       -3    1    3    3    0  502 -0.52873410453E+02 -0.23167419449E+03  0.25373225542E+03  0.34763284880E+03  0.10100000352E+00 0. -1.
</event>
<event>
 5   0  0.2511944E-01  0.4909712E+03  0.7818609E-02  0.1016163E+00
       -2   -1    0    0    0  501  0.00000000000E+00  0.00000000000E+00  0.55831381997E+03  0.55831381998E+03  0.25500000920E-02 0. -1.
        2   -1    0    0  501    0  0.00000000000E+00  0.00000000000E+00 -0.10793782077E+03  0.10793782080E+03  0.25500000920E-02 0.  1.
    10030    2    1    2    0    0  0.00000000000E+00  0.00000000000E+00  0.45037599920E+03  0.66625164078E+03  0.49097118876E+03 0.  0.
        1    1    3    3  502    0 -0.16607352322E+03  0.17855620903E+03  0.18679542361E+03  0.30717302161E+03  0.50400001928E-02 0.  1.
       -1    1    3    3    0  502  0.16607352322E+03 -0.17855620903E+03  0.26358057559E+03  0.35907861917E+03  0.50400001928E-02 0. -1.
</event>
<event>
 5   0  0.1529146E-01  0.5035712E+03  0.7818609E-02  0.1012851E+00
       -1   -1    0    0    0  501  0.00000000000E+00  0.00000000000E+00  0.47209627685E+03  0.47209627688E+03  0.50400001928E-02 0. -1.
        1   -1    0    0  501    0  0.00000000000E+00  0.00000000000E+00 -0.13428616461E+03  0.13428616470E+03  0.50400001928E-02 0.  1.
    10030    2    1    2    0    0  0.00000000000E+00  0.00000000000E+00  0.33781011224E+03  0.60638244158E+03  0.50357123977E+03 0.  0.
        1    1    3    3  502    0  0.19315976381E+03  0.99101442171E+02  0.32247356272E+03  0.38874283128E+03  0.50400001928E-02 0. -1.
       -1    1    3    3    0  502 -0.19315976381E+03 -0.99101442171E+02  0.15336549521E+02  0.21763961030E+03  0.50400001928E-02 0.  1.
</event>
<event>
 5   0  0.2504064E-01  0.4896574E+03  0.7818609E-02  0.1016514E+00
        2   -1    0    0  501    0  0.00000000000E+00  0.00000000000E+00  0.62678877418E+03  0.62678877419E+03  0.25500000920E-02 0. -1.
       -2   -1    0    0    0  501  0.00000000000E+00  0.00000000000E+00 -0.95632058600E+02  0.95632058634E+02  0.25500000920E-02 0.  1.
    10030    2    1    2    0    0  0.00000000000E+00  0.00000000000E+00  0.53115671558E+03  0.72242083282E+03  0.48965743453E+03 0.  0.
        5    1    3    3  502    0 -0.10389531280E+03  0.21911946134E+03  0.21639250291E+03  0.32504673460E+03  0.46999998093E+01 0.  1.
       -5    1    3    3    0  502  0.10389531280E+03 -0.21911946134E+03  0.31476421267E+03  0.39737409822E+03  0.46999998093E+01 0. -1.
</event>
<event>
 5   0  0.1453602E-01  0.4597823E+03  0.7818609E-02  0.1024844E+00
        1   -1    0    0  501    0  0.00000000000E+00  0.00000000000E+00  0.30006207593E+03  0.30006207597E+03  0.50400001928E-02 0. -1.
       -1   -1    0    0    0  501  0.00000000000E+00  0.00000000000E+00 -0.17612999211E+03  0.17612999219E+03  0.50400001928E-02 0.  1.
    10030    2    1    2    0    0  0.00000000000E+00  0.00000000000E+00  0.12393208381E+03  0.47619206815E+03  0.45978225757E+03 0.  0.
        2    1    3    3  502    0 -0.11719817201E+03  0.11122540815E+03 -0.10740473802E+03  0.19401618668E+03  0.25500000920E-02 0.  1.
       -2    1    3    3    0  502  0.11719817201E+03 -0.11122540815E+03  0.23133682184E+03  0.28217588147E+03  0.25500000920E-02 0. -1.
</event>
<event>
 5   0  0.2466034E-01  0.5015647E+03  0.7818609E-02  0.1013371E+00
        2   -1    0    0  501    0  0.00000000000E+00  0.00000000000E+00  0.48635394781E+03  0.48635394782E+03  0.25500000920E-02 0.  1.
       -2   -1    0    0    0  501  0.00000000000E+00  0.00000000000E+00 -0.12931278809E+03  0.12931278811E+03  0.25500000920E-02 0. -1.
    10030    2    1    2    0    0  0.00000000000E+00  0.00000000000E+00  0.35704115972E+03  0.61566673593E+03  0.50156469173E+03 0.  0.
        3    1    3    3  502    0 -0.19045647967E+03  0.11372303513E+03  0.34924058940E+02  0.22455800912E+03  0.10100000352E+00 0. -1.
       -3    1    3    3    0  502  0.19045647967E+03 -0.11372303513E+03  0.32211710078E+03  0.39110872681E+03  0.10100000352E+00 0.  1.
</event>
<event>
 5   0  0.2488968E-01  0.5068392E+03  0.7818609E-02  0.1012009E+00
        2   -1    0    0  501    0  0.00000000000E+00  0.00000000000E+00  0.87673873991E+02  0.87673874028E+02  0.25500000920E-02 0.  1.
       -2   -1    0    0    0  501  0.00000000000E+00  0.00000000000E+00 -0.73250443744E+03  0.73250443745E+03  0.25500000920E-02 0. -1.
    10030    2    1    2    0    0  0.00000000000E+00  0.00000000000E+00 -0.64483056345E+03  0.82017831147E+03  0.50683923196E+03 0.  0.
        2    1    3    3  502    0 -0.16998483026E+03 -0.80243253627E+02 -0.59745434805E+03  0.62632700747E+03  0.25500000920E-02 0. -1.
       -2    1    3    3    0  502  0.16998483026E+03  0.80243253627E+02 -0.47376215399E+02  0.19385130401E+03  0.25500000920E-02 0.  1.
</event>
<event>
 5   0  0.9868500E-02  0.5135480E+03  0.7818609E-02  0.1010302E+00
        4   -1    0    0  501    0  0.00000000000E+00  0.00000000000E+00  0.18903268985E+03  0.18903695599E+03  0.12699999809E+01 0. -1.
       -4   -1    0    0    0  501  0.00000000000E+00  0.00000000000E+00 -0.34878161438E+03  0.34878392657E+03  0.12699999809E+01 0.  1.
    10030    2    1    2    0    0  0.00000000000E+00  0.00000000000E+00 -0.15974892454E+03  0.53782088256E+03  0.51354803361E+03 0.  0.
        1    1    3    3  502    0  0.92441953798E+02 -0.23854940158E+03 -0.10285623551E+03  0.27573671686E+03  0.50400001928E-02 0. -1.
       -1    1    3    3    0  502 -0.92441953798E+02  0.23854940158E+03 -0.56892689027E+02  0.26208416570E+03  0.50400001928E-02 0.  1.
</event>
<event>
 5   0  0.9868500E-02  0.5098851E+03  0.7818609E-02  0.1011230E+00
       -4   -1    0    0    0  501  0.00000000000E+00  0.00000000000E+00  0.80310524346E+03  0.80310624763E+03  0.12699999809E+01 0.  1.
        4   -1    0    0  501    0  0.00000000000E+00  0.00000000000E+00 -0.80924442724E+02  0.80934407579E+02  0.12699999809E+01 0. -1.
    10030    2    1    2    0    0  0.00000000000E+00  0.00000000000E+00  0.72218080074E+03  0.88404065521E+03  0.50988505675E+03 0.  0.
        2    1    3    3  502    0 -0.32042226731E+02  0.20225967080E+03  0.97803205622E+02  0.22693863876E+03  0.25500000920E-02 0. -1.
       -2    1    3    3    0  502  0.32042226731E+02 -0.20225967080E+03  0.62437759512E+03  0.65710201645E+03  0.25500000920E-02 0.  1.
</event>
<event>
 5   0  0.2504064E-01  0.5288475E+03  0.7818609E-02  0.1006512E+00
       -2   -1    0    0    0  501  0.00000000000E+00  0.00000000000E+00  0.54256517284E+03  0.54256517285E+03  0.25500000920E-02 0. -1.
        2   -1    0    0  501    0  0.00000000000E+00  0.00000000000E+00 -0.12886918606E+03  0.12886918609E+03  0.25500000920E-02 0.  1.
    10030    2    1    2    0    0  0.00000000000E+00  0.00000000000E+00  0.41369598678E+03  0.67143435894E+03  0.52884754787E+03 0.  0.
        5    1    3    3  502    0 -0.22162050805E+03 -0.51923872525E+02  0.36103943027E+02  0.23051534185E+03  0.46999998093E+01 0.  1.
       -5    1    3    3    0  502  0.22162050805E+03  0.51923872525E+02  0.37759204375E+03  0.44091901709E+03  0.46999998093E+01 0. -1.
</event>
<event>
 5   0  0.2466034E-01  0.5001521E+03  0.7818609E-02  0.1013739E+00
       -2   -1    0    0    0  501  0.00000000000E+00  0.00000000000E+00  0.98550973148E+02  0.98550973181E+02  0.25500000920E-02 0. -1.
        2   -1    0    0  501    0  0.00000000000E+00  0.00000000000E+00 -0.63457556803E+03  0.63457556803E+03  0.25500000920E-02 0.  1.
    10030    2    1    2    0    0  0.00000000000E+00  0.00000000000E+00 -0.53602459488E+03  0.73312654121E+03  0.50015213597E+03 0.  0.
        3    1    3    3  502    0 -0.13398731525E+03 -0.20973656425E+03 -0.23222730971E+03  0.34039911957E+03  0.10100000352E+00 0. -1.
       -3    1    3    3    0  502  0.13398731525E+03  0.20973656425E+03 -0.30379728517E+03  0.39272742164E+03  0.10100000352E+00 0.  1.
</event>
<event>
 5   0  0.2511944E-01  0.5017636E+03  0.7818609E-02  0.1013320E+00
       -2   -1    0    0    0  501  0.00000000000E+00  0.00000000000E+00  0.98164532949E+02  0.98164532982E+02  0.25500000920E-02 0. -1.
        2   -1    0    0  501    0  0.00000000000E+00  0.00000000000E+00 -0.64118558510E+03  0.64118558511E+03  0.25500000920E-02 0.  1.
    10030    2    1    2    0    0  0.00000000000E+00  0.00000000000E+00 -0.54302105216E+03  0.73935011809E+03  0.50176362367E+03 0.  0.
        1    1    3    3  502    0  0.29526934887E+02  0.44880460869E+02  0.89589637043E+02  0.10446242742E+03  0.50400001928E-02 0. -1.
       -1    1    3    3    0  502 -0.29526934887E+02 -0.44880460869E+02 -0.63261068920E+03  0.63488769067E+03  0.50400001928E-02 0.  1.
</event>
<event>
 5   0  0.1448458E-01  0.4930598E+03  0.7818609E-02  0.1015606E+00
        1   -1    0    0  501    0  0.00000000000E+00  0.00000000000E+00  0.47167970262E+03  0.47167970264E+03  0.50400001928E-02 0.  1.
       -1   -1    0    0    0  501  0.00000000000E+00  0.00000000000E+00 -0.12885227424E+03  0.12885227434E+03  0.50400001928E-02 0. -1.
    10030    2    1    2    0    0  0.00000000000E+00  0.00000000000E+00  0.34282742838E+03  0.60053197698E+03  0.49305984397E+03 0.  0.
        5    1    3    3  502    0 -0.29019591858E+02  0.11991227982E+03  0.43131208133E+03  0.44863492181E+03  0.46999998093E+01 0.  1.
       -5    1    3    3    0  502  0.29019591858E+02 -0.11991227982E+03 -0.88484652956E+02  0.15189705517E+03  0.46999998093E+01 0. -1.
</event>
<event>
 5   0  0.1529146E-01  0.4943739E+03  0.7818609E-02  0.1015258E+00
        1   -1    0    0  501    0  0.00000000000E+00  0.00000000000E+00  0.33283286213E+03  0.33283286217E+03  0.50400001928E-02 0.  1.
       -1   -1    0    0    0  501  0.00000000000E+00  0.00000000000E+00 -0.18357981641E+03  0.18357981648E+03  0.50400001928E-02 0. -1.
    10030    2    1    2    0    0  0.00000000000E+00  0.00000000000E+00  0.14925304572E+03  0.51641267865E+03  0.49437393036E+03 0.  0.
        1    1    3    3  502    0 -0.14524266111E+03  0.11366267954E+03 -0.97290890479E+02  0.20851895051E+03  0.50400001928E-02 0. -1.
       -1    1    3    3    0  502  0.14524266111E+03 -0.11366267954E+03  0.24654393620E+03  0.30789372814E+03  0.50400001928E-02 0.  1.
</event>
<event>
 5   0  0.1448458E-01  0.4276267E+03  0.7818609E-02  0.1034612E+00
        1   -1    0    0  501    0  0.00000000000E+00  0.00000000000E+00  0.26132872009E+03  0.26132872014E+03  0.50400001928E-02 0. -1.
       -1   -1    0    0    0  501  0.00000000000E+00  0.00000000000E+00 -0.17493734507E+03  0.17493734514E+03  0.50400001928E-02 0.  1.
    10030    2    1    2    0    0  0.00000000000E+00  0.00000000000E+00  0.86391375020E+02  0.43626606528E+03  0.42762671811E+03 0.  0.
        5    1    3    3  502    0  0.14807540732E+03 -0.70411838770E+02 -0.96724362155E+02  0.19042543298E+03  0.46999998093E+01 0.  1.
       -5    1    3    3    0  502 -0.14807540732E+03  0.70411838770E+02  0.18311573718E+03  0.24584063230E+03  0.46999998093E+01 0. -1.
</event>
<event>
 5   0  0.2488968E-01  0.5295886E+03  0.7818609E-02  0.1006332E+00
        2   -1    0    0  501    0  0.00000000000E+00  0.00000000000E+00  0.38948216198E+03  0.38948216198E+03  0.25500000920E-02 0. -1.
       -2   -1    0    0    0  501  0.00000000000E+00  0.00000000000E+00 -0.18002367202E+03  0.18002367204E+03  0.25500000920E-02 0.  1.
    10030    2    1    2    0    0  0.00000000000E+00  0.00000000000E+00  0.20945848996E+03  0.56950583402E+03  0.52958855348E+03 0.  0.
        2    1    3    3  502    0  0.11184412917E+03 -0.23979931396E+03  0.93805392516E+02  0.28073523448E+03  0.25500000920E-02 0. -1.
       -2    1    3    3    0  502 -0.11184412917E+03  0.23979931396E+03  0.11565309744E+03  0.28877059954E+03  0.25500000920E-02 0.  1.
</event>
<event>
 5   0  0.1453602E-01  0.4938413E+03  0.7818609E-02  0.1015399E+00
       -1   -1    0    0    0  501  0.00000000000E+00  0.00000000000E+00  0.17962684825E+03  0.17962684832E+03  0.50400001928E-02 0.  1.
        1   -1    0    0  501    0  0.00000000000E+00  0.00000000000E+00 -0.33942474487E+03  0.33942474491E+03  0.50400001928E-02 0. -1.
    10030    2    1    2    0    0  0.00000000000E+00  0.00000000000E+00 -0.15979789662E+03  0.51905159323E+03  0.49384125857E+03 0.  0.
        2    1    3    3  502    0 -0.17074130615E+03  0.97373196933E+02 -0.23697956300E+03  0.30788544362E+03  0.25500000920E-02 0. -1.
       -2    1    3    3    0  502  0.17074130615E+03 -0.97373196933E+02  0.77181666383E+02  0.21116614961E+03  0.25500000920E-02 0.  1.
</event>
<event>
 5   0  0.2466034E-01  0.4988496E+03  0.7818609E-02  0.1014080E+00
       -2   -1    0    0    0  501  0.00000000000E+00  0.00000000000E+00  0.83807778311E+02  0.83807778350E+02  0.25500000920E-02 0.  1.
        2   -1    0    0  501    0  0.00000000000E+00  0.00000000000E+00 -0.74232640609E+03  0.74232640610E+03  0.25500000920E-02 0. -1.
    10030    2    1    2    0    0  0.00000000000E+00  0.00000000000E+00 -0.65851862778E+03  0.82613418445E+03  0.49884958412E+03 0.  0.
        3    1    3    3  502    0 -0.86233513064E+02  0.10038723264E+03  0.20870750344E+02  0.13397542190E+03  0.10100000352E+00 0.  1.
       -3    1    3    3    0  502  0.86233513064E+02 -0.10038723264E+03 -0.67938937813E+03  0.69215876254E+03  0.10100000352E+00 0. -1.
</event>
<event>
 5   0  0.2504064E-01  0.5039292E+03  0.7818609E-02  0.1012758E+00
       -2   -1    0    0    0  501  0.00000000000E+00  0.00000000000E+00  0.71116635462E+02  0.71116635508E+02  0.25500000920E-02 0. -1.
        2   -1    0    0  501    0  0.00000000000E+00  0.00000000000E+00 -0.89270460341E+03  0.89270460341E+03  0.25500000920E-02 0.  1.
    10030    2    1    2    0    0  0.00000000000E+00  0.00000000000E+00 -0.82158796795E+03  0.96382123892E+03  0.50392915327E+03 0.  0.
        5    1    3    3  502    0  0.10276634278E+03  0.16984152109E+03 -0.70744626483E+03  0.73478525511E+03  0.46999998093E+01 0.  1.
       -5    1    3    3    0  502 -0.10276634278E+03 -0.16984152109E+03 -0.11414170311E+03  0.22903598382E+03  0.46999998093E+01 0. -1.
</event>
<event>
 5   0  0.9868500E-02  0.5017989E+03  0.7818609E-02  0.1013310E+00
       -3   -1    0    0    0  501  0.00000000000E+00  0.00000000000E+00  0.99500765067E+02  0.99500816328E+02  0.10100000352E+00 0.  1.
        3   -1    0    0  501    0  0.00000000000E+00  0.00000000000E+00 -0.63266367808E+03  0.63266368614E+03  0.10100000352E+00 0. -1.
    10030    2    1    2    0    0  0.00000000000E+00  0.00000000000E+00 -0.53316291301E+03  0.73216450247E+03  0.50179893071E+03 0.  0.
        2    1    3    3  502    0 -0.32695989240E+02  0.23875413645E+03 -0.36848722811E+03  0.44029013465E+03  0.25500000920E-02 0.  1.
       -2    1    3    3    0  502  0.32695989240E+02 -0.23875413645E+03 -0.16467568490E+03  0.29187436782E+03  0.25500000920E-02 0. -1.
</event>
<event>
 5   0  0.1413361E-01  0.4973570E+03  0.7818609E-02  0.1014471E+00
        1   -1    0    0  501    0  0.00000000000E+00  0.00000000000E+00  0.38445086573E+03  0.38445086577E+03  0.50400001928E-02 0.  1.
       -1   -1    0    0    0  501  0.00000000000E+00  0.00000000000E+00 -0.16085539713E+03  0.16085539721E+03  0.50400001928E-02 0. -1.
    10030    2    1    2    0    0  0.00000000000E+00  0.00000000000E+00  0.22359546860E+03  0.54530626298E+03  0.49735700142E+03 0.  0.
        3    1    3    3  502    0  0.16953695493E+03 -0.16950605221E+03  0.39352566125E+02  0.24294796867E+03  0.10100000352E+00 0. -1.
       -3    1    3    3    0  502 -0.16953695493E+03  0.16950605221E+03  0.18424290248E+03  0.30235829430E+03  0.10100000352E+00 0.  1.
</event>
<event>
 5   0  0.1448458E-01  0.5005119E+03  0.7818609E-02  0.1013645E+00
        1   -1    0    0  501    0  0.00000000000E+00  0.00000000000E+00  0.41573635409E+03  0.41573635412E+03  0.50400001928E-02 0.  1.
       -1   -1    0    0    0  501  0.00000000000E+00  0.00000000000E+00 -0.15064363438E+03  0.15064363446E+03  0.50400001928E-02 0. -1.
    10030    2    1    2    0    0  0.00000000000E+00  0.00000000000E+00  0.26509271971E+03  0.56637998858E+03  0.50051187940E+03 0.  0.
        5    1    3    3  502    0  0.13853761197E+03 -0.20545901895E+03  0.93348707392E+02  0.26484363229E+03  0.46999998093E+01 0.  1.
       -5    1    3    3    0  502 -0.13853761197E+03  0.20545901895E+03  0.17174401232E+03  0.30153635629E+03  0.46999998093E+01 0. -1.
</event>
<event>
 5   0  0.2511944E-01  0.5047739E+03  0.7818609E-02  0.1012540E+00
        2   -1    0    0  501    0  0.00000000000E+00  0.00000000000E+00  0.37119356485E+03  0.37119356486E+03  0.25500000920E-02 0. -1.
       -2   -1    0    0    0  501  0.00000000000E+00  0.00000000000E+00 -0.17160637211E+03  0.17160637213E+03  0.25500000920E-02 0.  1.
    10030    2    1    2    0    0  0.00000000000E+00  0.00000000000E+00  0.19958719274E+03  0.54279993699E+03  0.50477393365E+03 0.  0.
        1    1    3    3  502    0 -0.23500067316E+03 -0.61385638519E+02  0.26028059085E+02  0.24427642720E+03  0.50400001928E-02 0.  1.
       -1    1    3    3    0  502  0.23500067316E+03  0.61385638519E+02  0.17355913365E+03  0.29852350979E+03  0.50400001928E-02 0. -1.
</event>
<event>
 5   0  0.2413301E-01  0.4956873E+03  0.7818609E-02  0.1014911E+00
       -2   -1    0    0    0  501  0.00000000000E+00  0.00000000000E+00  0.79827855638E+03  0.79827855638E+03  0.25500000920E-02 0. -1.
        2   -1    0    0  501    0  0.00000000000E+00  0.00000000000E+00 -0.76948672005E+02  0.76948672047E+02  0.25500000920E-02 0.  1.
    10030    2    1    2    0    0  0.00000000000E+00  0.00000000000E+00  0.72132988437E+03  0.87522722843E+03  0.49568729991E+03 0.  0.
        4    1    3    3  502    0 -0.10983003140E+03 -0.82925413612E+01  0.75268445022E+03  0.76070158179E+03  0.12699999809E+01 0. -1.
       -4    1    3    3    0  502  0.10983003140E+03  0.82925413612E+01 -0.31354565840E+02  0.11452564664E+03  0.12699999809E+01 0.  1.
</event>
<event>
 5   0  0.9868500E-02  0.4934183E+03  0.7818609E-02  0.1015511E+00
       -4   -1    0    0    0  501  0.00000000000E+00  0.00000000000E+00  0.68579907576E+02  0.68591665842E+02  0.12699999809E+01 0.  1.
        4   -1    0    0  501    0  0.00000000000E+00  0.00000000000E+00 -0.88742262588E+03  0.88742353464E+03  0.12699999809E+01 0. -1.
    10030    2    1    2    0    0  0.00000000000E+00  0.00000000000E+00 -0.81884271831E+03  0.95601520048E+03  0.49341834808E+03 0.  0.
        1    1    3    3  502    0  0.10385170297E+03 -0.90092595724E+02 -0.12517164927E+02  0.13805264017E+03  0.50400001928E-02 0.  1.
       -1    1    3    3    0  502 -0.10385170297E+03  0.90092595724E+02 -0.80632555338E+03  0.81796256031E+03  0.50400001928E-02 0. -1.
</event>
<event>
 5   0  0.1453602E-01  0.5032757E+03  0.7818609E-02  0.1012927E+00
        1   -1    0    0  501    0  0.00000000000E+00  0.00000000000E+00  0.93646848071E+03  0.93646848072E+03  0.50400001928E-02 0.  1.
       -1   -1    0    0    0  501  0.00000000000E+00  0.00000000000E+00 -0.67617451740E+02  0.67617451928E+02  0.50400001928E-02 0. -1.
    10030    2    1    2    0    0  0.00000000000E+00  0.00000000000E+00  0.86885102897E+03  0.10040859326E+04  0.50327571927E+03 0.  0.
        2    1    3    3  502    0 -0.21550170446E+03  0.12992510675E+03  0.43381251392E+03  0.50151252749E+03  0.25500000920E-02 0. -1.
       -2    1    3    3    0  502  0.21550170446E+03 -0.12992510675E+03  0.43503851505E+03  0.50257340516E+03  0.25500000920E-02 0.  1.
</event>
<event>
 5   0  0.2504064E-01  0.5192058E+03  0.7818609E-02  0.1008884E+00
        2   -1    0    0  501    0  0.00000000000E+00  0.00000000000E+00  0.61364088105E+03  0.61364088105E+03  0.25500000920E-02 0. -1.
       -2   -1    0    0    0  501  0.00000000000E+00  0.00000000000E+00 -0.10982589245E+03  0.10982589248E+03  0.25500000920E-02 0.  1.
    10030    2    1    2    0    0  0.00000000000E+00  0.00000000000E+00  0.50381498860E+03  0.72346677353E+03  0.51920576814E+03 0.  0.
        5    1    3    3  502    0 -0.22531182868E+03  0.82743522893E+02  0.11425111189E+03  0.26587086582E+03  0.46999998093E+01 0.  1.
       -5    1    3    3    0  502  0.22531182868E+03 -0.82743522893E+02  0.38956387671E+03  0.45759590772E+03  0.46999998093E+01 0. -1.
</event>
<event>
 5   0  0.1439814E-01  0.4916009E+03  0.7818609E-02  0.1015995E+00
       -1   -1    0    0    0  501  0.00000000000E+00  0.00000000000E+00  0.22775789322E+03  0.22775789327E+03  0.50400001928E-02 0. -1.
        1   -1    0    0  501    0  0.00000000000E+00  0.00000000000E+00 -0.26527228280E+03  0.26527228285E+03  0.50400001928E-02 0.  1.
    10030    2    1    2    0    0  0.00000000000E+00  0.00000000000E+00 -0.37514389583E+02  0.49303017612E+03  0.49160087992E+03 0.  0.
        4    1    3    3  502    0 -0.20481412478E+02 -0.12006017489E+03  0.19536368180E+03  0.23022275065E+03  0.12699999809E+01 0. -1.
       -4    1    3    3    0  502  0.20481412478E+02  0.12006017489E+03 -0.23287807138E+03  0.26280742547E+03  0.12699999809E+01 0.  1.
</event>
<event>
 5   0  0.2504064E-01  0.5005077E+03  0.7818609E-02  0.1013646E+00
       -2   -1    0    0    0  501  0.00000000000E+00  0.00000000000E+00  0.71420006560E+02  0.71420006605E+02  0.25500000920E-02 0. -1.
        2   -1    0    0  501    0  0.00000000000E+00  0.00000000000E+00 -0.87688285333E+03  0.87688285333E+03  0.25500000920E-02 0.  1.
    10030    2    1    2    0    0  0.00000000000E+00  0.00000000000E+00 -0.80546284677E+03  0.94830285994E+03  0.50050765892E+03 0.  0.
        5    1    3    3  502    0  0.68191811747E+02 -0.12875969589E+03 -0.17333788626E+02  0.14680508404E+03  0.46999998093E+01 0. -1.
       -5    1    3    3    0  502 -0.68191811747E+02  0.12875969589E+03 -0.78812905814E+03  0.80149777589E+03  0.46999998093E+01 0.  1.
</event>
<event>
 5   0  0.1453602E-01  0.5081173E+03  0.7818609E-02  0.1011682E+00
       -1   -1    0    0    0  501  0.00000000000E+00  0.00000000000E+00  0.37626238061E+03  0.37626238065E+03  0.50400001928E-02 0.  1.
        1   -1    0    0  501    0  0.00000000000E+00  0.00000000000E+00 -0.17154464993E+03  0.17154465000E+03  0.50400001928E-02 0. -1.
    10030    2    1    2    0    0  0.00000000000E+00  0.00000000000E+00  0.20471773069E+03  0.54780703065E+03  0.50811730296E+03 0.  0.
        2    1    3    3  502    0 -0.11372223877E+03  0.17906511453E+03  0.25309693638E+03  0.33023494976E+03  0.25500000920E-02 0.  1.
       -2    1    3    3    0  502  0.11372223877E+03 -0.17906511453E+03 -0.48379205690E+02  0.21757208089E+03  0.25500000920E-02 0. -1.
</event>
<event>
 5   0  0.2511944E-01  0.4971270E+03  0.7818609E-02  0.1014532E+00
       -2   -1    0    0    0  501  0.00000000000E+00  0.00000000000E+00  0.61936118903E+02  0.61936118956E+02  0.25500000920E-02 0. -1.
        2   -1    0    0  501    0  0.00000000000E+00  0.00000000000E+00 -0.99754102923E+03  0.99754102924E+03  0.25500000920E-02 0.  1.
    10030    2    1    2    0    0  0.00000000000E+00  0.00000000000E+00 -0.93560491033E+03  0.10594771482E+04  0.49712702532E+03 0.  0.
        1    1    3    3  502    0  0.60916490562E+02  0.18222163908E+03 -0.80388584824E+03  0.82652767746E+03  0.50400001928E-02 0.  1.
       -1    1    3    3    0  502 -0.60916490562E+02 -0.18222163908E+03 -0.13171906209E+03  0.23294947073E+03  0.50400001928E-02 0. -1.
</event>
<event>
 5   0  0.2488968E-01  0.4942129E+03  0.7818609E-02  0.1015301E+00
       -2   -1    0    0    0  501  0.00000000000E+00  0.00000000000E+00  0.82462115265E+02  0.82462115304E+02  0.25500000920E-02 0.  1.
        2   -1    0    0  501    0  0.00000000000E+00  0.00000000000E+00 -0.74048075507E+03  0.74048075507E+03  0.25500000920E-02 0. -1.
    10030    2    1    2    0    0  0.00000000000E+00  0.00000000000E+00 -0.65801863980E+03  0.82294287037E+03  0.49421294760E+03 0.  0.
        2    1    3    3  502    0  0.11809558108E+03  0.20246437249E+03 -0.45930965566E+03  0.51565855775E+03  0.25500000920E-02 0. -1.
       -2    1    3    3    0  502 -0.11809558108E+03 -0.20246437249E+03 -0.19870898415E+03  0.30728431262E+03  0.25500000920E-02 0.  1.
</event>
<event>
 5   0  0.9868500E-02  0.4350252E+03  0.7818609E-02  0.1032284E+00
       -3   -1    0    0    0  501  0.00000000000E+00  0.00000000000E+00  0.16369134572E+04  0.16369134603E+04  0.10100000352E+00 0.  1.
        3   -1    0    0  501    0  0.00000000000E+00  0.00000000000E+00 -0.28902920788E+02  0.28903097258E+02  0.10100000352E+00 0. -1.
    10030    2    1    2    0    0  0.00000000000E+00  0.00000000000E+00  0.16080105364E+04  0.16658165575E+04  0.43502519268E+03 0.  0.
        5    1    3    3  502    0 -0.18871455811E+03  0.10379924988E+03  0.68898955905E+03  0.72188376571E+03  0.46999998093E+01 0. -1.
       -5    1    3    3    0  502  0.18871455811E+03 -0.10379924988E+03  0.91902097732E+03  0.94393279182E+03  0.46999998093E+01 0.  1.
</event>
<event>
 5   0  0.1448458E-01  0.4974442E+03  0.7818609E-02  0.1014448E+00
        1   -1    0    0  501    0  0.00000000000E+00  0.00000000000E+00  0.47825387295E+03  0.47825387298E+03  0.50400001928E-02 0.  1.
       -1   -1    0    0    0  501  0.00000000000E+00  0.00000000000E+00 -0.12935111743E+03  0.12935111753E+03  0.50400001928E-02 0. -1.
    10030    2    1    2    0    0  0.00000000000E+00  0.00000000000E+00  0.34890275552E+03  0.60760499050E+03  0.49744415935E+03 0.  0.
        5    1    3    3  502    0 -0.89108068329E+02 -0.41429697600E+02 -0.10457504175E+03  0.14357819138E+03  0.46999998093E+01 0. -1.
       -5    1    3    3    0  502  0.89108068329E+02  0.41429697600E+02  0.45347779727E+03  0.46402679912E+03  0.46999998093E+01 0.  1.
</event>
<event>
 5   0  0.1439814E-01  0.4862633E+03  0.7818609E-02  0.1017428E+00
        1   -1    0    0  501    0  0.00000000000E+00  0.00000000000E+00  0.10916379630E+03  0.10916379642E+03  0.50400001928E-02 0. -1.
       -1   -1    0    0    0  501  0.00000000000E+00  0.00000000000E+00 -0.54150735248E+03  0.54150735250E+03  0.50400001928E-02 0.  1.
    10030    2    1    2    0    0  0.00000000000E+00  0.00000000000E+00 -0.43234355617E+03  0.65067114892E+03  0.48626329644E+03 0.  0.
        4    1    3    3  502    0  0.18284912659E+03  0.74023985125E+02 -0.26000647518E+02  0.19897487288E+03  0.12699999809E+01 0. -1.
       -4    1    3    3    0  502 -0.18284912659E+03 -0.74023985125E+02 -0.40634290866E+03  0.45169627603E+03  0.12699999809E+01 0.  1.
</event>
<event>
 5   0  0.1448458E-01  0.4820748E+03  0.7818609E-02  0.1018567E+00
        1   -1    0    0  501    0  0.00000000000E+00  0.00000000000E+00  0.12856439461E+04  0.12856439461E+04  0.50400001928E-02 0.  1.
       -1   -1    0    0    0  501  0.00000000000E+00  0.00000000000E+00 -0.45190610852E+02  0.45190611133E+02  0.50400001928E-02 0. -1.
    10030    2    1    2    0    0  0.00000000000E+00  0.00000000000E+00  0.12404533353E+04  0.13308345573E+04  0.48207483011E+03 0.  0.
        5    1    3    3  502    0 -0.14363783108E+03 -0.13254312128E+03  0.10094419081E+04  0.10281996700E+04  0.46999998093E+01 0.  1.
       -5    1    3    3    0  502  0.14363783108E+03  0.13254312128E+03  0.23101142712E+03  0.30263488724E+03  0.46999998093E+01 0. -1.
</event>
<event>
 5   0  0.2413301E-01  0.5110538E+03  0.7818609E-02  0.1010933E+00
       -2   -1    0    0    0  501  0.00000000000E+00  0.00000000000E+00  0.60507816144E+03  0.60507816145E+03  0.25500000920E-02 0. -1.
        2   -1    0    0  501    0  0.00000000000E+00  0.00000000000E+00 -0.10791001700E+03  0.10791001703E+03  0.25500000920E-02 0.  1.
    10030    2    1    2    0    0  0.00000000000E+00  0.00000000000E+00  0.49716814444E+03  0.71298817847E+03  0.51105379247E+03 0.  0.
        4    1    3    3  502    0  0.14289275279E+03 -0.13503759445E+03  0.47628971070E+03  0.51527370604E+03  0.12699999809E+01 0. -1.
       -4    1    3    3    0  502 -0.14289275279E+03  0.13503759445E+03  0.20878433745E+02  0.19771447244E+03  0.12699999809E+01 0.  1.
</event>
<event>
 5   0  0.2504064E-01  0.6676625E+03  0.7818609E-02  0.9774190E-01
        2   -1    0    0  501    0  0.00000000000E+00  0.00000000000E+00  0.75988344634E+03  0.75988344634E+03  0.25500000920E-02 0. -1.
       -2   -1    0    0    0  501  0.00000000000E+00  0.00000000000E+00 -0.14665842270E+03  0.14665842273E+03  0.25500000920E-02 0.  1.
    10030    2    1    2    0    0  0.00000000000E+00  0.00000000000E+00  0.61322502363E+03  0.90654186907E+03  0.66766251262E+03 0.  0.
        5    1    3    3  502    0  0.12067718020E+03 -0.24360805545E+03  0.43631854889E+02  0.27537918451E+03  0.46999998093E+01 0.  1.
       -5    1    3    3    0  502 -0.12067718020E+03  0.24360805545E+03  0.56959316874E+03  0.63116268456E+03  0.46999998093E+01 0. -1.
</event>
<event>
 5   0  0.1439814E-01  0.5003605E+03  0.7818609E-02  0.1013685E+00
        1   -1    0    0  501    0  0.00000000000E+00  0.00000000000E+00  0.15548142633E+03  0.15548142641E+03  0.50400001928E-02 0. -1.
       -1   -1    0    0    0  501  0.00000000000E+00  0.00000000000E+00 -0.40255707971E+03  0.40255707974E+03  0.50400001928E-02 0.  1.
    10030    2    1    2    0    0  0.00000000000E+00  0.00000000000E+00 -0.24707565338E+03  0.55803850615E+03  0.50036046591E+03 0.  0.
        4    1    3    3  502    0 -0.48273368251E+01  0.15883725870E+03  0.91960960151E+02  0.18360558005E+03  0.12699999809E+01 0. -1.
       -4    1    3    3    0  502  0.48273368251E+01 -0.15883725870E+03 -0.33903661353E+03  0.37443292610E+03  0.12699999809E+01 0.  1.
</event>
<event>
 5   0  0.2413301E-01  0.5043387E+03  0.7818609E-02  0.1012653E+00
        2   -1    0    0  501    0  0.00000000000E+00  0.00000000000E+00  0.70187306861E+03  0.70187306861E+03  0.25500000920E-02 0.  1.
       -2   -1    0    0    0  501  0.00000000000E+00  0.00000000000E+00 -0.90599560119E+02  0.90599560155E+02  0.25500000920E-02 0. -1.
    10030    2    1    2    0    0  0.00000000000E+00  0.00000000000E+00  0.61127350849E+03  0.79247262877E+03  0.50433874050E+03 0.  0.
        4    1    3    3  502    0 -0.99576928408E+02  0.90294113641E+02  0.64087934539E+03  0.65482557973E+03  0.12699999809E+01 0.  1.
       -4    1    3    3    0  502  0.99576928408E+02 -0.90294113641E+02 -0.29605836898E+02  0.13764704903E+03  0.12699999809E+01 0. -1.
</event>
<event>
 5   0  0.1448458E-01  0.4956240E+03  0.7818609E-02  0.1014927E+00
       -1   -1    0    0    0  501  0.00000000000E+00  0.00000000000E+00  0.25608479054E+03  0.25608479059E+03  0.50400001928E-02 0.  1.
        1   -1    0    0  501    0  0.00000000000E+00  0.00000000000E+00 -0.23980645783E+03  0.23980645788E+03  0.50400001928E-02 0. -1.
    10030    2    1    2    0    0  0.00000000000E+00  0.00000000000E+00  0.16278332717E+02  0.49589124848E+03  0.49562399679E+03 0.  0.
        5    1    3    3  502    0  0.12879082534E+03 -0.18982899142E+03  0.10181963762E+03  0.25102081842E+03  0.46999998093E+01 0.  1.
       -5    1    3    3    0  502 -0.12879082534E+03  0.18982899142E+03 -0.85541304902E+02  0.24487043006E+03  0.46999998093E+01 0. -1.
</event>
<event>
 5   0  0.1413361E-01  0.4762239E+03  0.7818609E-02  0.1020178E+00
       -1   -1    0    0    0  501  0.00000000000E+00  0.00000000000E+00  0.14769265992E+03  0.14769266000E+03  0.50400001928E-02 0. -1.
        1   -1    0    0  501    0  0.00000000000E+00  0.00000000000E+00 -0.38388712691E+03  0.38388712694E+03  0.50400001928E-02 0.  1.
    10030    2    1    2    0    0  0.00000000000E+00  0.00000000000E+00 -0.23619446699E+03  0.53157978694E+03  0.47622394275E+03 0.  0.
        3    1    3    3  502    0 -0.15120784003E+03  0.10680238615E+03  0.49065824706E+02  0.19151508016E+03  0.10100000352E+00 0. -1.
       -3    1    3    3    0  502  0.15120784003E+03 -0.10680238615E+03 -0.28526029170E+03  0.34006470678E+03  0.10100000352E+00 0.  1.
</event>
<event>
 5   0  0.1453602E-01  0.5111675E+03  0.7818609E-02  0.1010904E+00
       -1   -1    0    0    0  501  0.00000000000E+00  0.00000000000E+00  0.55815814100E+02  0.55815814327E+02  0.50400001928E-02 0.  1.
        1   -1    0    0  501    0  0.00000000000E+00  0.00000000000E+00 -0.11703323872E+04  0.11703323872E+04  0.50400001928E-02 0. -1.
    10030    2    1    2    0    0  0.00000000000E+00  0.00000000000E+00 -0.11145165731E+04  0.12261482015E+04  0.51116750720E+03 0.  0.
        2    1    3    3  502    0 -0.81827289659E+02 -0.22845902917E+03 -0.74966234928E+03  0.78796121179E+03  0.25500000920E-02 0. -1.
       -2    1    3    3    0  502  0.81827289659E+02  0.22845902917E+03 -0.36485422379E+03  0.43818698972E+03  0.25500000920E-02 0.  1.
</event>
<event>
 5   0  0.1453602E-01  0.4814013E+03  0.7818609E-02  0.1018751E+00
        1   -1    0    0  501    0  0.00000000000E+00  0.00000000000E+00  0.52778649302E+03  0.52778649304E+03  0.50400001928E-02 0. -1.
       -1   -1    0    0    0  501  0.00000000000E+00  0.00000000000E+00 -0.10977316169E+03  0.10977316181E+03  0.50400001928E-02 0.  1.
    10030    2    1    2    0    0  0.00000000000E+00  0.00000000000E+00  0.41801333133E+03  0.63755965485E+03  0.48140125501E+03 0.  0.
        2    1    3    3  502    0  0.16843624009E+03  0.39647733120E+02 -0.12581583832E+02  0.17349641488E+03  0.25500000920E-02 0.  1.
       -2    1    3    3    0  502 -0.16843624009E+03 -0.39647733120E+02  0.43059491516E+03  0.46406323997E+03  0.25500000920E-02 0. -1.
</event>
<event>
 5   0  0.1529146E-01  0.3250236E+03  0.7818609E-02  0.1073360E+00
       -1   -1    0    0    0  501  0.00000000000E+00  0.00000000000E+00  0.72601682807E+02  0.72601682982E+02  0.50400001928E-02 0. -1.
        1   -1    0    0  501    0  0.00000000000E+00  0.00000000000E+00 -0.36376681141E+03  0.36376681144E+03  0.50400001928E-02 0.  1.
    10030    2    1    2    0    0  0.00000000000E+00  0.00000000000E+00 -0.29116512860E+03  0.43636849443E+03  0.32502358501E+03 0.  0.
        1    1    3    3  502    0  0.43086285857E+02 -0.15448517157E+03 -0.18079762506E+03  0.24168135534E+03  0.50400001928E-02 0.  1.
       -1    1    3    3    0  502 -0.43086285857E+02  0.15448517157E+03 -0.11036750354E+03  0.19468713909E+03  0.50400001928E-02 0. -1.
</event>
<event>
 5   0  0.1448458E-01  0.4978736E+03  0.7818609E-02  0.1014335E+00
        1   -1    0    0  501    0  0.00000000000E+00  0.00000000000E+00  0.27859072919E+03  0.27859072924E+03  0.50400001928E-02 0. -1.
       -1   -1    0    0    0  501  0.00000000000E+00  0.00000000000E+00 -0.22243928222E+03  0.22243928228E+03  0.50400001928E-02 0.  1.
    10030    2    1    2    0    0  0.00000000000E+00  0.00000000000E+00  0.56151446970E+02  0.50103001151E+03  0.49787356572E+03 0.  0.
        5    1    3    3  502    0 -0.14312576262E+03 -0.24199588993E+02  0.23153770292E+03  0.27331740139E+03  0.46999998093E+01 0. -1.
       -5    1    3    3    0  502  0.14312576262E+03  0.24199588993E+02 -0.17538625595E+03  0.22771261012E+03  0.46999998093E+01 0.  1.
</event>
<event>
 5   0  0.1453602E-01  0.3687417E+03  0.7818609E-02  0.1055175E+00
       -1   -1    0    0    0  501  0.00000000000E+00  0.00000000000E+00  0.33969413836E+02  0.33969414210E+02  0.50400001928E-02 0.  1.
        1   -1    0    0  501    0  0.00000000000E+00  0.00000000000E+00 -0.10006830453E+04  0.10006830453E+04  0.50400001928E-02 0. -1.
    10030    2    1    2    0    0  0.00000000000E+00  0.00000000000E+00 -0.96671363146E+03  0.10346524595E+04  0.36874173446E+03 0.  0.
        2    1    3    3  502    0  0.12740743865E+03  0.91103159635E+02 -0.75626829177E+03  0.77231740253E+03  0.25500000920E-02 0. -1.
       -2    1    3    3    0  502 -0.12740743865E+03 -0.91103159635E+02 -0.21044533970E+03  0.26233505699E+03  0.25500000920E-02 0.  1.
</event>
<event>
 5   0  0.2413301E-01  0.5038552E+03  0.7818609E-02  0.1012778E+00
       -2   -1    0    0    0  501  0.00000000000E+00  0.00000000000E+00  0.12891290055E+03  0.12891290057E+03  0.25500000920E-02 0. -1.
        2   -1    0    0  501    0  0.00000000000E+00  0.00000000000E+00 -0.49232858623E+03  0.49232858624E+03  0.25500000920E-02 0.  1.
    10030    2    1    2    0    0  0.00000000000E+00  0.00000000000E+00 -0.36341568568E+03  0.62124148681E+03  0.50385516206E+03 0.  0.
        4    1    3    3  502    0  0.15918170103E+03 -0.70071525772E+02 -0.40642453684E+03  0.44207618089E+03  0.12699999809E+01 0.  1.
       -4    1    3    3    0  502 -0.15918170103E+03  0.70071525772E+02  0.43008851155E+02  0.17916530592E+03  0.12699999809E+01 0. -1.
</event>
<event>
 5   0  0.2413301E-01  0.3718905E+03  0.7818609E-02  0.1053972E+00
        2   -1    0    0  501    0  0.00000000000E+00  0.00000000000E+00  0.20907604694E+04  0.20907604694E+04  0.25500000920E-02 0. -1.
       -2   -1    0    0    0  501  0.00000000000E+00  0.00000000000E+00 -0.16537349992E+02  0.16537350189E+02  0.25500000920E-02 0.  1.
    10030    2    1    2    0    0  0.00000000000E+00  0.00000000000E+00  0.20742231194E+04  0.21072978196E+04  0.37189050992E+03 0.  0.
        4    1    3    3  502    0 -0.13108466491E+03 -0.10041978740E+03  0.15214751788E+04  0.15304102899E+04  0.12699999809E+01 0. -1.
       -4    1    3    3    0  502  0.13108466491E+03  0.10041978740E+03  0.55274794068E+03  0.57688752968E+03  0.12699999809E+01 0.  1.
</event>
<event>
 5   0  0.2511944E-01  0.4920415E+03  0.7818609E-02  0.1015877E+00
        2   -1    0    0  501    0  0.00000000000E+00  0.00000000000E+00  0.44835174470E+03  0.44835174471E+03  0.25500000920E-02 0. -1.
       -2   -1    0    0    0  501  0.00000000000E+00  0.00000000000E+00 -0.13499713891E+03  0.13499713893E+03  0.25500000920E-02 0.  1.
    10030    2    1    2    0    0  0.00000000000E+00  0.00000000000E+00  0.31335460580E+03  0.58334888364E+03  0.49204147292E+03 0.  0.
        1    1    3    3  502    0 -0.16619865925E+03  0.12001451352E+03  0.31793521576E+03  0.37829654933E+03  0.50400001928E-02 0. -1.
       -1    1    3    3    0  502  0.16619865925E+03 -0.12001451352E+03 -0.45806099648E+01  0.20505233431E+03  0.50400001928E-02 0.  1.
</event>
<event>
 5   0  0.1439814E-01  0.4196148E+03  0.7818609E-02  0.1037192E+00
        1   -1    0    0  501    0  0.00000000000E+00  0.00000000000E+00  0.12434844897E+04  0.12434844897E+04  0.50400001928E-02 0.  1.
       -1   -1    0    0    0  501  0.00000000000E+00  0.00000000000E+00 -0.35399834892E+02  0.35399835250E+02  0.50400001928E-02 0. -1.
    10030    2    1    2    0    0  0.00000000000E+00  0.00000000000E+00  0.12080846548E+04  0.12788843249E+04  0.41961480365E+03 0.  0.
        4    1    3    3  502    0 -0.16316136126E+03  0.13189191319E+03  0.60603246521E+03  0.64132212527E+03  0.12699999809E+01 0. -1.
       -4    1    3    3    0  502  0.16316136126E+03 -0.13189191319E+03  0.60205218959E+03  0.63756219968E+03  0.12699999809E+01 0.  1.
</event>
<event>
 5   0  0.1439814E-01  0.5076364E+03  0.7818609E-02  0.1011805E+00
       -1   -1    0    0    0  501  0.00000000000E+00  0.00000000000E+00  0.64886499180E+02  0.64886499376E+02  0.50400001928E-02 0.  1.
        1   -1    0    0  501    0  0.00000000000E+00  0.00000000000E+00 -0.99286738052E+03  0.99286738053E+03  0.50400001928E-02 0. -1.
    10030    2    1    2    0    0  0.00000000000E+00  0.00000000000E+00 -0.92798088134E+03  0.10577538799E+04  0.50763643913E+03 0.  0.
        4    1    3    3  502    0 -0.19880883762E+03  0.15490300503E+03 -0.52657664705E+03  0.58378461182E+03  0.12699999809E+01 0.  1.
       -4    1    3    3    0  502  0.19880883762E+03 -0.15490300503E+03 -0.40140423429E+03  0.47396926808E+03  0.12699999809E+01 0. -1.
</event>
<event>
 5   0  0.2504064E-01  0.4910473E+03  0.7818609E-02  0.1016142E+00
        2   -1    0    0  501    0  0.00000000000E+00  0.00000000000E+00  0.28370316432E+04  0.28370316432E+04  0.25500000920E-02 0.  1.
       -2   -1    0    0    0  501  0.00000000000E+00  0.00000000000E+00 -0.21248214335E+02  0.21248214488E+02  0.25500000920E-02 0. -1.
    10030    2    1    2    0    0  0.00000000000E+00  0.00000000000E+00  0.28157834289E+04  0.28582798577E+04  0.49104727532E+03 0.  0.
        5    1    3    3  502    0 -0.15138415946E+03 -0.18939440684E+03  0.11845403135E+04  0.12091092794E+04  0.46999998093E+01 0. -1.
       -5    1    3    3    0  502  0.15138415946E+03  0.18939440684E+03  0.16312431153E+04  0.16491705783E+04  0.46999998093E+01 0.  1.
</event>
<event>
 5   0  0.1448458E-01  0.5039756E+03  0.7818609E-02  0.1012746E+00
        1   -1    0    0  501    0  0.00000000000E+00  0.00000000000E+00  0.47435151738E+03  0.47435151741E+03  0.50400001928E-02 0.  1.
       -1   -1    0    0    0  501  0.00000000000E+00  0.00000000000E+00 -0.13386245036E+03  0.13386245046E+03  0.50400001928E-02 0. -1.
    10030    2    1    2    0    0  0.00000000000E+00  0.00000000000E+00  0.34048906702E+03  0.60821396787E+03  0.50397562039E+03 0.  0.
        5    1    3    3  502    0  0.32323247175E+02  0.22886242630E+02 -0.13002925375E+03  0.13600834254E+03  0.46999998093E+01 0. -1.
       -5    1    3    3    0  502 -0.32323247175E+02 -0.22886242630E+02  0.47051832077E+03  0.47220562533E+03  0.46999998093E+01 0.  1.
</event>
<event>
 5   0  0.1448458E-01  0.5100916E+03  0.7818609E-02  0.1011178E+00
       -1   -1    0    0    0  501  0.00000000000E+00  0.00000000000E+00  0.40846296995E+03  0.40846296998E+03  0.50400001928E-02 0. -1.
        1   -1    0    0  501    0  0.00000000000E+00  0.00000000000E+00 -0.15925155166E+03  0.15925155174E+03  0.50400001928E-02 0.  1.
    10030    2    1    2    0    0  0.00000000000E+00  0.00000000000E+00  0.24921141829E+03  0.56771452172E+03  0.51009160664E+03 0.  0.
        5    1    3    3  502    0  0.16574362794E+03 -0.19320716289E+03  0.14134886586E+03  0.29120705670E+03  0.46999998093E+01 0. -1.
       -5    1    3    3    0  502 -0.16574362794E+03  0.19320716289E+03  0.10786255243E+03  0.27650746501E+03  0.46999998093E+01 0.  1.
</event>
<event>
 5   0  0.2488968E-01  0.4953573E+03  0.7818609E-02  0.1014998E+00
        2   -1    0    0  501    0  0.00000000000E+00  0.00000000000E+00  0.81169946921E+03  0.81169946921E+03  0.25500000920E-02 0.  1.
       -2   -1    0    0    0  501  0.00000000000E+00  0.00000000000E+00 -0.75575657480E+02  0.75575657523E+02  0.25500000920E-02 0. -1.
    10030    2    1    2    0    0  0.00000000000E+00  0.00000000000E+00  0.73612381173E+03  0.88727512674E+03  0.49535732994E+03 0.  0.
        2    1    3    3  502    0 -0.16273552343E+03  0.83121296714E+02  0.68592987218E+02  0.19518452412E+03  0.25500000920E-02 0. -1.
       -2    1    3    3    0  502  0.16273552343E+03 -0.83121296714E+02  0.66753082451E+03  0.69209060262E+03  0.25500000920E-02 0.  1.
</event>
<event>
 5   0  0.1413361E-01  0.5114519E+03  0.7818609E-02  0.1010832E+00
        1   -1    0    0  501    0  0.00000000000E+00  0.00000000000E+00  0.10886973111E+04  0.10886973111E+04  0.50400001928E-02 0.  1.
       -1   -1    0    0    0  501  0.00000000000E+00  0.00000000000E+00 -0.60067899971E+02  0.60067900182E+02  0.50400001928E-02 0. -1.
    10030    2    1    2    0    0  0.00000000000E+00  0.00000000000E+00  0.10286294111E+04  0.11487652113E+04  0.51145189924E+03 0.  0.
        3    1    3    3  502    0  0.34645764266E+02 -0.13159483610E+03  0.10006234083E+04  0.10098340187E+04  0.10100000352E+00 0.  1.
       -3    1    3    3    0  502 -0.34645764266E+02  0.13159483610E+03  0.28006002776E+02  0.13893119255E+03  0.10100000352E+00 0. -1.
</event>
<event>
 5   0  0.2466034E-01  0.4970420E+03  0.7818609E-02  0.1014554E+00
        2   -1    0    0  501    0  0.00000000000E+00  0.00000000000E+00  0.38354277568E+03  0.38354277569E+03  0.25500000920E-02 0.  1.
       -2   -1    0    0    0  501  0.00000000000E+00  0.00000000000E+00 -0.16103210212E+03  0.16103210214E+03  0.25500000920E-02 0. -1.
    10030    2    1    2    0    0  0.00000000000E+00  0.00000000000E+00  0.22251067356E+03  0.54457487783E+03  0.49704204824E+03 0.  0.
        3    1    3    3  502    0 -0.37321813790E+02  0.32296250704E+02  0.37811913000E+03  0.38132670017E+03  0.10100000352E+00 0.  1.
       -3    1    3    3    0  502  0.37321813790E+02 -0.32296250704E+02 -0.15560845644E+03  0.16324817766E+03  0.10100000352E+00 0. -1.
</event>
<event>
 5   0  0.1448458E-01  0.4964838E+03  0.7818609E-02  0.1014701E+00
       -1   -1    0    0    0  501  0.00000000000E+00  0.00000000000E+00  0.44210137408E+03  0.44210137411E+03  0.50400001928E-02 0.  1.
        1   -1    0    0  501    0  0.00000000000E+00  0.00000000000E+00 -0.13938891480E+03  0.13938891490E+03  0.50400001928E-02 0. -1.
    10030    2    1    2    0    0  0.00000000000E+00  0.00000000000E+00  0.30271245928E+03  0.58149028901E+03  0.49648375926E+03 0.  0.
        5    1    3    3  502    0 -0.18448232997E+03  0.16484047283E+03  0.17465813113E+03  0.30287565818E+03  0.46999998093E+01 0.  1.
       -5    1    3    3    0  502  0.18448232997E+03 -0.16484047283E+03  0.12805432815E+03  0.27861463082E+03  0.46999998093E+01 0. -1.
</event>
<event>
 5   0  0.2413301E-01  0.4753314E+03  0.7818609E-02  0.1020426E+00
       -2   -1    0    0    0  501  0.00000000000E+00  0.00000000000E+00  0.93847387216E+03  0.93847387217E+03  0.25500000920E-02 0. -1.
        2   -1    0    0  501    0  0.00000000000E+00  0.00000000000E+00 -0.60188132807E+02  0.60188132861E+02  0.25500000920E-02 0.  1.
    10030    2    1    2    0    0  0.00000000000E+00  0.00000000000E+00  0.87828573935E+03  0.99866200503E+03  0.47533142157E+03 0.  0.
        4    1    3    3  502    0  0.10638152215E+03  0.30492540612E+02  0.88103131606E+03  0.88795530071E+03  0.12699999809E+01 0. -1.
       -4    1    3    3    0  502 -0.10638152215E+03 -0.30492540612E+02 -0.27455767022E+01  0.11070670431E+03  0.12699999809E+01 0.  1.
</event>
<event>
 5   0  0.2413301E-01  0.5064515E+03  0.7818609E-02  0.1012109E+00
       -2   -1    0    0    0  501  0.00000000000E+00  0.00000000000E+00  0.14542279100E+03  0.14542279102E+03  0.25500000920E-02 0.  1.
        2   -1    0    0  501    0  0.00000000000E+00  0.00000000000E+00 -0.44094374441E+03  0.44094374442E+03  0.25500000920E-02 0. -1.
    10030    2    1    2    0    0  0.00000000000E+00  0.00000000000E+00 -0.29552095341E+03  0.58636653544E+03  0.50645145866E+03 0.  0.
        4    1    3    3  502    0 -0.42247194236E+02 -0.55490012014E+02 -0.42960117754E+03  0.43522724122E+03  0.12699999809E+01 0. -1.
       -4    1    3    3    0  502  0.42247194236E+02  0.55490012014E+02  0.13408022413E+03  0.15113929422E+03  0.12699999809E+01 0.  1.
</event>
<event>
 5   0  0.1453602E-01  0.4931109E+03  0.7818609E-02  0.1015593E+00
        1   -1    0    0  501    0  0.00000000000E+00  0.00000000000E+00  0.11630006438E+03  0.11630006448E+03  0.50400001928E-02 0.  1.
       -1   -1    0    0    0  501  0.00000000000E+00  0.00000000000E+00 -0.52269618738E+03  0.52269618740E+03  0.50400001928E-02 0. -1.
    10030    2    1    2    0    0  0.00000000000E+00  0.00000000000E+00 -0.40639612300E+03  0.63899625189E+03  0.49311094202E+03 0.  0.
        2    1    3    3  502    0  0.13923889356E+03 -0.87381028106E+02  0.34923046959E+02  0.16805514800E+03  0.25500000920E-02 0.  1.
       -2    1    3    3    0  502 -0.13923889356E+03  0.87381028106E+02 -0.44131916996E+03  0.47094110389E+03  0.25500000920E-02 0. -1.
</event>
<event>
 5   0  0.2511944E-01  0.5061280E+03  0.7818609E-02  0.1012192E+00
       -2   -1    0    0    0  501  0.00000000000E+00  0.00000000000E+00  0.15832962133E+03  0.15832962135E+03  0.25500000920E-02 0.  1.
        2   -1    0    0  501    0  0.00000000000E+00  0.00000000000E+00 -0.40448144005E+03  0.40448144006E+03  0.25500000920E-02 0. -1.
    10030    2    1    2    0    0  0.00000000000E+00  0.00000000000E+00 -0.24615181872E+03  0.56281106141E+03  0.50612802035E+03 0.  0.
        1    1    3    3  502    0 -0.14547376223E+03 -0.13029269299E+03 -0.30204327868E+03  0.35967894513E+03  0.50400001928E-02 0. -1.
       -1    1    3    3    0  502  0.14547376223E+03  0.13029269299E+03  0.55891459958E+02  0.20313211628E+03  0.50400001928E-02 0.  1.
</event>
<event>
 5   0  0.9868500E-02  0.4843584E+03  0.7818609E-02  0.1017944E+00
        3   -1    0    0  501    0  0.00000000000E+00  0.00000000000E+00  0.39763363641E+02  0.39763491912E+02  0.10100000352E+00 0. -1.
       -3   -1    0    0    0  501  0.00000000000E+00  0.00000000000E+00 -0.14749926710E+04  0.14749926745E+04  0.10100000352E+00 0.  1.
    10030    2    1    2    0    0  0.00000000000E+00  0.00000000000E+00 -0.14352293074E+04  0.15147561664E+04  0.48435841983E+03 0.  0.
        5    1    3    3  502    0  0.22413873686E+03  0.13163701584E+02 -0.43412421217E+03  0.48877129415E+03  0.46999998093E+01 0. -1.
       -5    1    3    3    0  502 -0.22413873686E+03 -0.13163701584E+02 -0.10011050952E+04  0.10259848722E+04  0.46999998093E+01 0.  1.
</event>
<event>
 5   0  0.1529146E-01  0.5262309E+03  0.7818609E-02  0.1007150E+00
       -1   -1    0    0    0  501  0.00000000000E+00  0.00000000000E+00  0.19198297620E+03  0.19198297627E+03  0.50400001928E-02 0. -1.
        1   -1    0    0  501    0  0.00000000000E+00  0.00000000000E+00 -0.36060354222E+03  0.36060354225E+03  0.50400001928E-02 0.  1.
    10030    2    1    2    0    0  0.00000000000E+00  0.00000000000E+00 -0.16862056602E+03  0.55258651852E+03  0.52623090480E+03 0.  0.
        1    1    3    3  502    0 -0.14120842935E+01  0.23239143955E+03 -0.21386681392E+03  0.31582715095E+03  0.50400001928E-02 0.  1.
       -1    1    3    3    0  502  0.14120842935E+01 -0.23239143955E+03  0.45246247908E+02  0.23675936757E+03  0.50400001928E-02 0. -1.
</event>
<event>
 5   0  0.1448458E-01  0.5013488E+03  0.7818609E-02  0.1013427E+00
        1   -1    0    0  501    0  0.00000000000E+00  0.00000000000E+00  0.10264710177E+04  0.10264710177E+04  0.50400001928E-02 0. -1.
       -1   -1    0    0    0  501  0.00000000000E+00  0.00000000000E+00 -0.61217177869E+02  0.61217178077E+02  0.50400001928E-02 0.  1.
    10030    2    1    2    0    0  0.00000000000E+00  0.00000000000E+00  0.96525383984E+03  0.10876881958E+04  0.50134881665E+03 0.  0.
        5    1    3    3  502    0 -0.37965769430E+02  0.48155630599E+02 -0.44595063164E+02  0.75968243784E+02  0.46999998093E+01 0.  1.
       -5    1    3    3    0  502  0.37965769430E+02 -0.48155630599E+02  0.10098489030E+04  0.10117199520E+04  0.46999998093E+01 0. -1.
</event>
<event>
 5   0  0.2511944E-01  0.5039942E+03  0.7818609E-02  0.1012742E+00
       -2   -1    0    0    0  501  0.00000000000E+00  0.00000000000E+00  0.19044912046E+03  0.19044912048E+03  0.25500000920E-02 0.  1.
        2   -1    0    0  501    0  0.00000000000E+00  0.00000000000E+00 -0.33343574538E+03  0.33343574539E+03  0.25500000920E-02 0. -1.
    10030    2    1    2    0    0  0.00000000000E+00  0.00000000000E+00 -0.14298662491E+03  0.52388486587E+03  0.50399422396E+03 0.  0.
        1    1    3    3  502    0  0.83508872722E+02 -0.22721462376E+03  0.12865862804E+01  0.24207823612E+03  0.50400001928E-02 0.  1.
       -1    1    3    3    0  502 -0.83508872722E+02  0.22721462376E+03 -0.14427321119E+03  0.28180662975E+03  0.50400001928E-02 0. -1.
</event>
<event>
 5   0  0.1448458E-01  0.5075164E+03  0.7818609E-02  0.1011835E+00
        1   -1    0    0  501    0  0.00000000000E+00  0.00000000000E+00  0.41255942601E+03  0.41255942604E+03  0.50400001928E-02 0. -1.
       -1   -1    0    0    0  501  0.00000000000E+00  0.00000000000E+00 -0.15608231568E+03  0.15608231576E+03  0.50400001928E-02 0.  1.
    10030    2    1    2    0    0  0.00000000000E+00  0.00000000000E+00  0.25647711033E+03  0.56864174181E+03  0.50751642575E+03 0.  0.
        5    1    3    3  502    0  0.14883259561E+03  0.20450732600E+03  0.10592089921E+03  0.27425483549E+03  0.46999998093E+01 0.  1.
       -5    1    3    3    0  502 -0.14883259561E+03 -0.20450732600E+03  0.15055621112E+03  0.29438690631E+03  0.46999998093E+01 0. -1.
</event>
<event>
 5   0  0.1413361E-01  0.4967735E+03  0.7818609E-02  0.1014625E+00
        1   -1    0    0  501    0  0.00000000000E+00  0.00000000000E+00  0.70764489902E+03  0.70764489904E+03  0.50400001928E-02 0. -1.
       -1   -1    0    0    0  501  0.00000000000E+00  0.00000000000E+00 -0.87184938364E+02  0.87184938509E+02  0.50400001928E-02 0.  1.
    10030    2    1    2    0    0  0.00000000000E+00  0.00000000000E+00  0.62045996066E+03  0.79482983755E+03  0.49677349756E+03 0.  0.
        3    1    3    3  502    0 -0.17388660821E+03  0.10539901228E+03  0.81984132930E+02  0.21924167614E+03  0.10100000352E+00 0.  1.
       -3    1    3    3    0  502  0.17388660821E+03 -0.10539901228E+03  0.53847582773E+03  0.57558816141E+03  0.10100000352E+00 0. -1.
</event>
<event>
 5   0  0.1439814E-01  0.5110983E+03  0.7818609E-02  0.1010922E+00
       -1   -1    0    0    0  501  0.00000000000E+00  0.00000000000E+00  0.84475585470E+03  0.84475585471E+03  0.50400001928E-02 0. -1.
        1   -1    0    0  501    0  0.00000000000E+00  0.00000000000E+00 -0.77306782173E+02  0.77306782338E+02  0.50400001928E-02 0.  1.
    10030    2    1    2    0    0  0.00000000000E+00  0.00000000000E+00  0.76744907252E+03  0.92206263705E+03  0.51109825643E+03 0.  0.
        4    1    3    3  502    0 -0.13465602924E+02 -0.19190825363E+03  0.68718384588E+03  0.71360587947E+03  0.12699999809E+01 0. -1.
       -4    1    3    3    0  502  0.13465602924E+02  0.19190825363E+03  0.80265226643E+02  0.20845675758E+03  0.12699999809E+01 0.  1.
</event>
<event>
 5   0  0.2504064E-01  0.4960681E+03  0.7818609E-02  0.1014810E+00
       -2   -1    0    0    0  501  0.00000000000E+00  0.00000000000E+00  0.10202362999E+03  0.10202363002E+03  0.25500000920E-02 0.  1.
        2   -1    0    0  501    0  0.00000000000E+00  0.00000000000E+00 -0.60300621849E+03  0.60300621849E+03  0.25500000920E-02 0. -1.
    10030    2    1    2    0    0  0.00000000000E+00  0.00000000000E+00 -0.50098258850E+03  0.70502984851E+03  0.49606807327E+03 0.  0.
        5    1    3    3  502    0  0.71970952437E+02  0.64245572026E+02 -0.57517914672E+03  0.58323276000E+03  0.46999998093E+01 0. -1.
       -5    1    3    3    0  502 -0.71970952437E+02 -0.64245572026E+02  0.74196558224E+02  0.12179708851E+03  0.46999998093E+01 0.  1.
</event>
<event>
 5   0  0.2511944E-01  0.4975278E+03  0.7818609E-02  0.1014426E+00
       -2   -1    0    0    0  501  0.00000000000E+00  0.00000000000E+00  0.94743088346E+02  0.94743088380E+02  0.25500000920E-02 0. -1.
        2   -1    0    0  501    0  0.00000000000E+00  0.00000000000E+00 -0.65317150969E+03  0.65317150969E+03  0.25500000920E-02 0.  1.
    10030    2    1    2    0    0  0.00000000000E+00  0.00000000000E+00 -0.55842842134E+03  0.74791459807E+03  0.49752783264E+03 0.  0.
        1    1    3    3  502    0  0.33669132235E+02  0.40677976419E+02 -0.64464964044E+03  0.64680867896E+03  0.50400001928E-02 0.  1.
       -1    1    3    3    0  502 -0.33669132235E+02 -0.40677976419E+02  0.86221219100E+02  0.10110591911E+03  0.50400001928E-02 0. -1.
</event>
<event>
 5   0  0.1453602E-01  0.4905379E+03  0.7818609E-02  0.1016279E+00
        1   -1    0    0  501    0  0.00000000000E+00  0.00000000000E+00  0.13981952363E+03  0.13981952372E+03  0.50400001928E-02 0.  1.
       -1   -1    0    0    0  501  0.00000000000E+00  0.00000000000E+00 -0.43024647410E+03  0.43024647413E+03  0.50400001928E-02 0. -1.
    10030    2    1    2    0    0  0.00000000000E+00  0.00000000000E+00 -0.29042695048E+03  0.57006599785E+03  0.49053789695E+03 0.  0.
        2    1    3    3  502    0 -0.13104302556E+03  0.13632258151E+03 -0.32674582900E+03  0.37751683082E+03  0.25500000920E-02 0. -1.
       -2    1    3    3    0  502  0.13104302556E+03 -0.13632258151E+03  0.36318878525E+02  0.19254916703E+03  0.25500000920E-02 0.  1.
</event>
<event>
 5   0  0.1448458E-01  0.5168356E+03  0.7818609E-02  0.1009476E+00
        1   -1    0    0  501    0  0.00000000000E+00  0.00000000000E+00  0.19433388055E+03  0.19433388061E+03  0.50400001928E-02 0. -1.
       -1   -1    0    0    0  501  0.00000000000E+00  0.00000000000E+00 -0.34363420152E+03  0.34363420156E+03  0.50400001928E-02 0.  1.
    10030    2    1    2    0    0  0.00000000000E+00  0.00000000000E+00 -0.14930032097E+03  0.53796808217E+03  0.51683563305E+03 0.  0.
        5    1    3    3  502    0  0.14813842481E+03  0.13879047459E+03  0.91728863180E+02  0.22280947709E+03  0.46999998093E+01 0. -1.
       -5    1    3    3    0  502 -0.14813842481E+03 -0.13879047459E+03 -0.24102918415E+03  0.31515860508E+03  0.46999998093E+01 0.  1.
</event>
<event>
 5   0  0.2466034E-01  0.5193775E+03  0.7818609E-02  0.1008841E+00
        2   -1    0    0  501    0  0.00000000000E+00  0.00000000000E+00  0.69557912880E+03  0.69557912880E+03  0.25500000920E-02 0. -1.
       -2   -1    0    0    0  501  0.00000000000E+00  0.00000000000E+00 -0.96952673463E+02  0.96952673496E+02  0.25500000920E-02 0.  1.
    10030    2    1    2    0    0  0.00000000000E+00  0.00000000000E+00  0.59862645533E+03  0.79253180230E+03  0.51937753574E+03 0.  0.
        3    1    3    3  502    0 -0.11831387455E+03  0.77962365567E+01  0.65186259565E+03  0.66255853177E+03  0.10100000352E+00 0. -1.
       -3    1    3    3    0  502  0.11831387455E+03 -0.77962365567E+01 -0.53236140316E+02  0.12997327053E+03  0.10100000352E+00 0.  1.
</event>
<event>
 5   0  0.2511944E-01  0.4862494E+03  0.7818609E-02  0.1017432E+00
        2   -1    0    0  501    0  0.00000000000E+00  0.00000000000E+00  0.12677439045E+04  0.12677439045E+04  0.25500000920E-02 0. -1.
       -2   -1    0    0    0  501  0.00000000000E+00  0.00000000000E+00 -0.46625832468E+02  0.46625832538E+02  0.25500000920E-02 0.  1.
    10030    2    1    2    0    0  0.00000000000E+00  0.00000000000E+00  0.12211180720E+04  0.13143697370E+04  0.48624938026E+03 0.  0.
        1    1    3    3  502    0  0.93246874431E+02  0.16475623622E+03  0.19821772303E+03  0.27409827200E+03  0.50400001928E-02 0.  1.
       -1    1    3    3    0  502 -0.93246874431E+02 -0.16475623622E+03  0.10229003490E+04  0.10402714650E+04  0.50400001928E-02 0. -1.
</event>
<event>
 5   0  0.9868500E-02  0.3242186E+03  0.7818609E-02  0.1073724E+00
       -3   -1    0    0    0  501  0.00000000000E+00  0.00000000000E+00  0.50496799962E+03  0.50496800972E+03  0.10100000352E+00 0. -1.
        3   -1    0    0  501    0  0.00000000000E+00  0.00000000000E+00 -0.52041689126E+02  0.52041787134E+02  0.10100000352E+00 0.  1.
    10030    2    1    2    0    0  0.00000000000E+00  0.00000000000E+00  0.45292631049E+03  0.55700979686E+03  0.32421855446E+03 0.  0.
        2    1    3    3  502    0 -0.12896992898E+03 -0.27222436983E+02  0.64340124894E+02  0.14667636256E+03  0.25500000920E-02 0.  1.
       -2    1    3    3    0  502  0.12896992898E+03  0.27222436983E+02  0.38858618560E+03  0.41033343430E+03  0.25500000920E-02 0. -1.
</event>
<event>
 5   0  0.1448458E-01  0.5130682E+03  0.7818609E-02  0.1010423E+00
        1   -1    0    0  501    0  0.00000000000E+00  0.00000000000E+00  0.10604757187E+04  0.10604757187E+04  0.50400001928E-02 0.  1.
       -1   -1    0    0    0  501  0.00000000000E+00  0.00000000000E+00 -0.62056813171E+02  0.62056813376E+02  0.50400001928E-02 0. -1.
    10030    2    1    2    0    0  0.00000000000E+00  0.00000000000E+00  0.99841890553E+03  0.11225325321E+04  0.51306819691E+03 0.  0.
        5    1    3    3  502    0 -0.66331008308E+02 -0.16454915306E+03  0.90447831079E+03  0.92172627777E+03  0.46999998093E+01 0.  1.
       -5    1    3    3    0  502  0.66331008308E+02  0.16454915306E+03  0.93940594743E+02  0.20080625433E+03  0.46999998093E+01 0. -1.
</event>
<event>
 5   0  0.1453602E-01  0.5186337E+03  0.7818609E-02  0.1009027E+00
       -1   -1    0    0    0  501  0.00000000000E+00  0.00000000000E+00  0.28393469036E+03  0.28393469041E+03  0.50400001928E-02 0. -1.
        1   -1    0    0  501    0  0.00000000000E+00  0.00000000000E+00 -0.23683346532E+03  0.23683346537E+03  0.50400001928E-02 0.  1.
    10030    2    1    2    0    0  0.00000000000E+00  0.00000000000E+00  0.47101225041E+02  0.52076815578E+03  0.51863373075E+03 0.  0.
        2    1    3    3  502    0 -0.67050487415E+02  0.13619045852E+03 -0.18755646456E+03  0.24129035675E+03  0.25500000920E-02 0.  1.
       -2    1    3    3    0  502  0.67050487415E+02 -0.13619045852E+03  0.23465768960E+03  0.27947779903E+03  0.25500000920E-02 0. -1.
</event>
<event>
 5   0  0.1448458E-01  0.4909438E+03  0.7818609E-02  0.1016170E+00
       -1   -1    0    0    0  501  0.00000000000E+00  0.00000000000E+00  0.10054356006E+03  0.10054356019E+03  0.50400001928E-02 0.  1.
        1   -1    0    0  501    0  0.00000000000E+00  0.00000000000E+00 -0.59930689559E+03  0.59930689561E+03  0.50400001928E-02 0. -1.
    10030    2    1    2    0    0  0.00000000000E+00  0.00000000000E+00 -0.49876333553E+03  0.69985045580E+03  0.49094378050E+03 0.  0.
        5    1    3    3  502    0 -0.18813452700E+03  0.13786378051E+03 -0.35825763061E+03  0.42751800210E+03  0.46999998093E+01 0. -1.
       -5    1    3    3    0  502  0.18813452700E+03 -0.13786378051E+03 -0.14050570492E+03  0.27233245370E+03  0.46999998093E+01 0.  1.
</event>
<event>
 5   0  0.1453602E-01  0.4798950E+03  0.7818609E-02  0.1019164E+00
        1   -1    0    0  501    0  0.00000000000E+00  0.00000000000E+00  0.97361912928E+03  0.97361912929E+03  0.50400001928E-02 0.  1.
       -1   -1    0    0    0  501  0.00000000000E+00  0.00000000000E+00 -0.59134842381E+02  0.59134842596E+02  0.50400001928E-02 0. -1.
    10030    2    1    2    0    0  0.00000000000E+00  0.00000000000E+00  0.91448428690E+03  0.10327539719E+04  0.47989504630E+03 0.  0.
        2    1    3    3  502    0  0.87865694551E+02 -0.15484868599E+03  0.11106224434E+03  0.20984117316E+03  0.25500000920E-02 0. -1.
       -2    1    3    3    0  502 -0.87865694551E+02  0.15484868599E+03  0.80342204256E+03  0.82291279873E+03  0.25500000920E-02 0.  1.
</event>
<event>
 5   0  0.1448458E-01  0.5102816E+03  0.7818609E-02  0.1011130E+00
       -1   -1    0    0    0  501  0.00000000000E+00  0.00000000000E+00  0.16784047484E+03  0.16784047492E+03  0.50400001928E-02 0. -1.
        1   -1    0    0  501    0  0.00000000000E+00  0.00000000000E+00 -0.38784938774E+03  0.38784938777E+03  0.50400001928E-02 0.  1.
    10030    2    1    2    0    0  0.00000000000E+00  0.00000000000E+00 -0.22000891290E+03  0.55568986269E+03  0.51028159064E+03 0.  0.
        5    1    3    3  502    0  0.18876073382E+03 -0.86593960957E+02  0.51318573268E+02  0.21397386445E+03  0.46999998093E+01 0. -1.
       -5    1    3    3    0  502 -0.18876073382E+03  0.86593960957E+02 -0.27132748617E+03  0.34171599824E+03  0.46999998093E+01 0.  1.
</event>
<event>
 5   0  0.9868500E-02  0.5010995E+03  0.7818609E-02  0.1013492E+00
        4   -1    0    0  501    0  0.00000000000E+00  0.00000000000E+00  0.17651635597E+03  0.17652092461E+03  0.12699999809E+01 0. -1.
       -4   -1    0    0    0  501  0.00000000000E+00  0.00000000000E+00 -0.35562346667E+03  0.35562573437E+03  0.12699999809E+01 0.  1.
    10030    2    1    2    0    0  0.00000000000E+00  0.00000000000E+00 -0.17910711069E+03  0.53214665898E+03  0.50109950066E+03 0.  0.
        3    1    3    3  502    0 -0.23383734005E+02  0.44370944997E+02  0.17113408846E+03  0.17833245977E+03  0.10100000352E+00 0. -1.
       -3    1    3    3    0  502  0.23383734005E+02 -0.44370944997E+02 -0.35024119915E+03  0.35381419921E+03  0.10100000352E+00 0.  1.
</event>
<event>
 5   0  0.2466034E-01  0.4965503E+03  0.7818609E-02  0.1014683E+00
       -2   -1    0    0    0  501  0.00000000000E+00  0.00000000000E+00  0.80292540087E+02  0.80292540127E+02  0.25500000920E-02 0. -1.
        2   -1    0    0  501    0  0.00000000000E+00  0.00000000000E+00 -0.76769967953E+03  0.76769967953E+03  0.25500000920E-02 0.  1.
    10030    2    1    2    0    0  0.00000000000E+00  0.00000000000E+00 -0.68740713944E+03  0.84799221966E+03  0.49655032902E+03 0.  0.
        3    1    3    3  502    0 -0.40374947712E+02 -0.16521580163E+01 -0.76204609707E+03  0.76311672128E+03  0.10100000352E+00 0.  1.
       -3    1    3    3    0  502  0.40374947712E+02  0.16521580163E+01  0.74638957630E+02  0.84875498384E+02  0.10100000352E+00 0. -1.
</event>
<event>
 5   0  0.2488968E-01  0.4719240E+03  0.7818609E-02  0.1021379E+00
        2   -1    0    0  501    0  0.00000000000E+00  0.00000000000E+00  0.36225212881E+03  0.36225212882E+03  0.25500000920E-02 0.  1.
       -2   -1    0    0    0  501  0.00000000000E+00  0.00000000000E+00 -0.15369977540E+03  0.15369977542E+03  0.25500000920E-02 0. -1.
    10030    2    1    2    0    0  0.00000000000E+00  0.00000000000E+00  0.20855235341E+03  0.51595190424E+03  0.47192402288E+03 0.  0.
        2    1    3    3  502    0 -0.66026817624E+02  0.17184015673E+02 -0.14268071484E+03  0.15815377780E+03  0.25500000920E-02 0. -1.
       -2    1    3    3    0  502  0.66026817624E+02 -0.17184015673E+02  0.35123306825E+03  0.35779812643E+03  0.25500000920E-02 0.  1.
</event>
<event>
 5   0  0.2511944E-01  0.4996507E+03  0.7818609E-02  0.1013870E+00
       -2   -1    0    0    0  501  0.00000000000E+00  0.00000000000E+00  0.20868794781E+03  0.20868794782E+03  0.25500000920E-02 0.  1.
        2   -1    0    0  501    0  0.00000000000E+00  0.00000000000E+00 -0.29907194360E+03  0.29907194361E+03  0.25500000920E-02 0. -1.
    10030    2    1    2    0    0  0.00000000000E+00  0.00000000000E+00 -0.90383995786E+02  0.50775989143E+03  0.49965071865E+03 0.  0.
        1    1    3    3  502    0 -0.22661722887E+03 -0.90744643265E+02 -0.99183846124E+02  0.26349078553E+03  0.50400001928E-02 0.  1.
       -1    1    3    3    0  502  0.22661722887E+03  0.90744643265E+02  0.87998503385E+01  0.24426910590E+03  0.50400001928E-02 0. -1.
</event>
<event>
 5   0  0.1453602E-01  0.5017687E+03  0.7818609E-02  0.1013318E+00
        1   -1    0    0  501    0  0.00000000000E+00  0.00000000000E+00  0.71060303929E+03  0.71060303931E+03  0.50400001928E-02 0.  1.
       -1   -1    0    0    0  501  0.00000000000E+00  0.00000000000E+00 -0.88576834479E+02  0.88576834622E+02  0.50400001928E-02 0. -1.
    10030    2    1    2    0    0  0.00000000000E+00  0.00000000000E+00  0.62202620481E+03  0.79917987393E+03  0.50176874297E+03 0.  0.
        2    1    3    3  502    0  0.15201542841E+03  0.18558666389E+03  0.42796588048E+03  0.49061787080E+03  0.25500000920E-02 0.  1.
       -2    1    3    3    0  502 -0.15201542841E+03 -0.18558666389E+03  0.19406032433E+03  0.30856200313E+03  0.25500000920E-02 0. -1.
</event>
<event>
 5   0  0.2413301E-01  0.4803177E+03  0.7818609E-02  0.1019048E+00
        2   -1    0    0  501    0  0.00000000000E+00  0.00000000000E+00  0.85365557185E+03  0.85365557186E+03  0.25500000920E-02 0.  1.
       -2   -1    0    0    0  501  0.00000000000E+00  0.00000000000E+00 -0.67563875550E+02  0.67563875598E+02  0.25500000920E-02 0. -1.
    10030    2    1    2    0    0  0.00000000000E+00  0.00000000000E+00  0.78609169630E+03  0.92121944745E+03  0.48031772336E+03 0.  0.
        4    1    3    3  502    0  0.18674936140E+03 -0.95535525970E+02  0.16878401991E+03  0.26924341957E+03  0.12699999809E+01 0. -1.
       -4    1    3    3    0  502 -0.18674936140E+03  0.95535525970E+02  0.61730767639E+03  0.65197602788E+03  0.12699999809E+01 0.  1.
</event>
<event>
 5   0  0.1439814E-01  0.5229998E+03  0.7818609E-02  0.1007944E+00
       -1   -1    0    0    0  501  0.00000000000E+00  0.00000000000E+00  0.36296333510E+02  0.36296333860E+02  0.50400001928E-02 0. -1.
        1   -1    0    0  501    0  0.00000000000E+00  0.00000000000E+00 -0.18839975184E+04  0.18839975184E+04  0.50400001928E-02 0.  1.
    10030    2    1    2    0    0  0.00000000000E+00  0.00000000000E+00 -0.18477011849E+04  0.19202938523E+04  0.52299981875E+03 0.  0.
        4    1    3    3  502    0  0.14787304144E+03 -0.17127037382E+03 -0.44258426918E+03  0.49707386328E+03  0.12699999809E+01 0. -1.
       -4    1    3    3    0  502 -0.14787304144E+03  0.17127037382E+03 -0.14051169157E+04  0.14232199890E+04  0.12699999809E+01 0.  1.
</event>
<event>
 5   0  0.1453602E-01  0.5032178E+03  0.7818609E-02  0.1012942E+00
        1   -1    0    0  501    0  0.00000000000E+00  0.00000000000E+00  0.36740014187E+03  0.36740014191E+03  0.50400001928E-02 0. -1.
       -1   -1    0    0    0  501  0.00000000000E+00  0.00000000000E+00 -0.17231086599E+03  0.17231086607E+03  0.50400001928E-02 0.  1.
    10030    2    1    2    0    0  0.00000000000E+00  0.00000000000E+00  0.19508927588E+03  0.53971100798E+03  0.50321779238E+03 0.  0.
        2    1    3    3  502    0  0.15057132329E+03  0.13650203764E+03  0.25663408463E+03  0.32736154796E+03  0.25500000920E-02 0. -1.
       -2    1    3    3    0  502 -0.15057132329E+03 -0.13650203764E+03 -0.61544808753E+02  0.21234946002E+03  0.25500000920E-02 0.  1.
</event>
<event>
 5   0  0.2466034E-01  0.4791415E+03  0.7818609E-02  0.1019371E+00
        2   -1    0    0  501    0  0.00000000000E+00  0.00000000000E+00  0.58429552022E+03  0.58429552023E+03  0.25500000920E-02 0.  1.
       -2   -1    0    0    0  501  0.00000000000E+00  0.00000000000E+00 -0.98227949435E+02  0.98227949468E+02  0.25500000920E-02 0. -1.
    10030    2    1    2    0    0  0.00000000000E+00  0.00000000000E+00  0.48606757079E+03  0.68252346970E+03  0.47914152744E+03 0.  0.
        3    1    3    3  502    0 -0.17390790993E+03 -0.65405349156E+02  0.27602444716E+02  0.18783962838E+03  0.10100000352E+00 0. -1.
       -3    1    3    3    0  502  0.17390790993E+03  0.65405349156E+02  0.45846512607E+03  0.49468384132E+03  0.10100000352E+00 0.  1.
</event>
<event>
 5   0  0.1413361E-01  0.5034075E+03  0.7818609E-02  0.1012893E+00
       -1   -1    0    0    0  501  0.00000000000E+00  0.00000000000E+00  0.78818942501E+02  0.78818942662E+02  0.50400001928E-02 0.  1.
        1   -1    0    0  501    0  0.00000000000E+00  0.00000000000E+00 -0.80380131402E+03  0.80380131404E+03  0.50400001928E-02 0. -1.
    10030    2    1    2    0    0  0.00000000000E+00  0.00000000000E+00 -0.72498237152E+03  0.88262025670E+03  0.50340746768E+03 0.  0.
        3    1    3    3  502    0  0.99323799102E+02  0.22628212975E+03 -0.44631871415E+03  0.51016587902E+03  0.10100000352E+00 0. -1.
       -3    1    3    3    0  502 -0.99323799102E+02 -0.22628212975E+03 -0.27866365738E+03  0.37245437768E+03  0.10100000352E+00 0.  1.
</event>
<event>
 5   0  0.2466034E-01  0.5026497E+03  0.7818609E-02  0.1013090E+00
       -2   -1    0    0    0  501  0.00000000000E+00  0.00000000000E+00  0.95315115292E+02  0.95315115326E+02  0.25500000920E-02 0.  1.
        2   -1    0    0  501    0  0.00000000000E+00  0.00000000000E+00 -0.66268801894E+03  0.66268801894E+03  0.25500000920E-02 0. -1.
    10030    2    1    2    0    0  0.00000000000E+00  0.00000000000E+00 -0.56737290364E+03  0.75800313427E+03  0.50264971876E+03 0.  0.
        3    1    3    3  502    0 -0.49124152831E+02 -0.16527239512E+03 -0.55943478510E+03  0.58540194393E+03  0.10100000352E+00 0. -1.
       -3    1    3    3    0  502  0.49124152831E+02  0.16527239512E+03 -0.79381185461E+01  0.17260119034E+03  0.10100000352E+00 0.  1.
</event>
<event>
 5   0  0.9868500E-02  0.4980486E+03  0.7818609E-02  0.1014290E+00
        3   -1    0    0  501    0  0.00000000000E+00  0.00000000000E+00  0.11906218249E+03  0.11906222533E+03  0.10100000352E+00 0. -1.
       -3   -1    0    0    0  501  0.00000000000E+00  0.00000000000E+00 -0.52084628719E+03  0.52084629698E+03  0.10100000352E+00 0.  1.
    10030    2    1    2    0    0  0.00000000000E+00  0.00000000000E+00 -0.40178410469E+03  0.63990852231E+03  0.49804864235E+03 0.  0.
        4    1    3    3  502    0  0.20995441199E+03 -0.12910877625E+02 -0.37213628374E+03  0.42747464539E+03  0.12699999809E+01 0. -1.
       -4    1    3    3    0  502 -0.20995441199E+03  0.12910877625E+02 -0.29647820953E+02  0.21243387692E+03  0.12699999809E+01 0.  1.
</event>
<event>
 5   0  0.1439814E-01  0.5102962E+03  0.7818609E-02  0.1011126E+00
       -1   -1    0    0    0  501  0.00000000000E+00  0.00000000000E+00  0.48504596922E+03  0.48504596925E+03  0.50400001928E-02 0. -1.
        1   -1    0    0  501    0  0.00000000000E+00  0.00000000000E+00 -0.13421524584E+03  0.13421524593E+03  0.50400001928E-02 0.  1.
    10030    2    1    2    0    0  0.00000000000E+00  0.00000000000E+00  0.35083072338E+03  0.61926121518E+03  0.51029624353E+03 0.  0.
        4    1    3    3  502    0 -0.16948947070E+03 -0.77139365602E+02  0.38707784266E+03  0.42954398096E+03  0.12699999809E+01 0. -1.
       -4    1    3    3    0  502  0.16948947070E+03  0.77139365602E+02 -0.36247119271E+02  0.18971723422E+03  0.12699999809E+01 0.  1.
</event>
<event>
 5   0  0.1448458E-01  0.4935098E+03  0.7818609E-02  0.1015487E+00
       -1   -1    0    0    0  501  0.00000000000E+00  0.00000000000E+00  0.97742321890E+02  0.97742322020E+02  0.50400001928E-02 0. -1.
        1   -1    0    0  501    0  0.00000000000E+00  0.00000000000E+00 -0.62294394711E+03  0.62294394713E+03  0.50400001928E-02 0.  1.
    10030    2    1    2    0    0  0.00000000000E+00  0.00000000000E+00 -0.52520162522E+03  0.72068626915E+03  0.49350982909E+03 0.  0.
        5    1    3    3  502    0 -0.16167676507E+03 -0.18624535127E+03 -0.25345880652E+03  0.35368087853E+03  0.46999998093E+01 0. -1.
       -5    1    3    3    0  502  0.16167676507E+03  0.18624535127E+03 -0.27174281870E+03  0.36700539062E+03  0.46999998093E+01 0.  1.
</event>
<event>
 5   0  0.2504064E-01  0.4897148E+03  0.7818609E-02  0.1016499E+00
       -2   -1    0    0    0  501  0.00000000000E+00  0.00000000000E+00  0.12727042655E+03  0.12727042658E+03  0.25500000920E-02 0. -1.
        2   -1    0    0  501    0  0.00000000000E+00  0.00000000000E+00 -0.47108459145E+03  0.47108459145E+03  0.25500000920E-02 0.  1.
    10030    2    1    2    0    0  0.00000000000E+00  0.00000000000E+00 -0.34381416490E+03  0.59835501803E+03  0.48971476149E+03 0.  0.
        5    1    3    3  502    0  0.57744056100E+02 -0.16607314667E+03 -0.38004553936E+03  0.41877364775E+03  0.46999998093E+01 0.  1.
       -5    1    3    3    0  502 -0.57744056100E+02  0.16607314667E+03  0.36231374468E+02  0.17958137028E+03  0.46999998093E+01 0. -1.
</event>
<event>
 5   0  0.1529146E-01  0.4978312E+03  0.7818609E-02  0.1014347E+00
        1   -1    0    0  501    0  0.00000000000E+00  0.00000000000E+00  0.85243930561E+03  0.85243930563E+03  0.50400001928E-02 0.  1.
       -1   -1    0    0    0  501  0.00000000000E+00  0.00000000000E+00 -0.72684313468E+02  0.72684313643E+02  0.50400001928E-02 0. -1.
    10030    2    1    2    0    0  0.00000000000E+00  0.00000000000E+00  0.77975499214E+03  0.92512361927E+03  0.49783115929E+03 0.  0.
        1    1    3    3  502    0 -0.18178031624E+03  0.85640438123E+02  0.66286918682E+03  0.69265714959E+03  0.50400001928E-02 0.  1.
       -1    1    3    3    0  502  0.18178031624E+03 -0.85640438123E+02  0.11688580532E+03  0.23246646968E+03  0.50400001928E-02 0. -1.
</event>
<event>
 5   0  0.2504064E-01  0.4913351E+03  0.7818609E-02  0.1016066E+00
        2   -1    0    0  501    0  0.00000000000E+00  0.00000000000E+00  0.16119103701E+03  0.16119103703E+03  0.25500000920E-02 0. -1.
       -2   -1    0    0    0  501  0.00000000000E+00  0.00000000000E+00 -0.37441623843E+03  0.37441623844E+03  0.25500000920E-02 0.  1.
    10030    2    1    2    0    0  0.00000000000E+00  0.00000000000E+00 -0.21322520142E+03  0.53560727547E+03  0.49133508628E+03 0.  0.
        5    1    3    3  502    0 -0.98891787865E+02  0.18652403101E+03 -0.24346171776E+03  0.32228325719E+03  0.46999998093E+01 0.  1.
       -5    1    3    3    0  502  0.98891787865E+02 -0.18652403101E+03  0.30236516344E+02  0.21332401827E+03  0.46999998093E+01 0. -1.
</event>
<event>
 5   0  0.1453602E-01  0.5011190E+03  0.7818609E-02  0.1013487E+00
        1   -1    0    0  501    0  0.00000000000E+00  0.00000000000E+00  0.59174884956E+03  0.59174884958E+03  0.50400001928E-02 0.  1.
       -1   -1    0    0    0  501  0.00000000000E+00  0.00000000000E+00 -0.10609239195E+03  0.10609239207E+03  0.50400001928E-02 0. -1.
    10030    2    1    2    0    0  0.00000000000E+00  0.00000000000E+00  0.48565645761E+03  0.69784124165E+03  0.50111895168E+03 0.  0.
        2    1    3    3  502    0 -0.21104083270E+03 -0.52953068782E+02  0.41585303614E+03  0.46933570952E+03  0.25500000920E-02 0.  1.
       -2    1    3    3    0  502  0.21104083270E+03  0.52953068782E+02  0.69803421471E+02  0.22850553213E+03  0.25500000920E-02 0. -1.
</event>
<event>
 5   0  0.1529146E-01  0.4982936E+03  0.7818609E-02  0.1014225E+00
       -1   -1    0    0    0  501  0.00000000000E+00  0.00000000000E+00  0.18992231254E+03  0.18992231261E+03  0.50400001928E-02 0. -1.
        1   -1    0    0  501    0  0.00000000000E+00  0.00000000000E+00 -0.32683951550E+03  0.32683951554E+03  0.50400001928E-02 0.  1.
    10030    2    1    2    0    0  0.00000000000E+00  0.00000000000E+00 -0.13691720295E+03  0.51676182815E+03  0.49829355461E+03 0.  0.
        1    1    3    3  502    0 -0.27471713016E+02 -0.97122866443E+02 -0.30468729018E+03  0.32097023386E+03  0.50400001928E-02 0.  1.
       -1    1    3    3    0  502  0.27471713016E+02  0.97122866443E+02  0.16777008722E+03  0.19579159429E+03  0.50400001928E-02 0. -1.
</event>
<event>
 5   0  0.9868500E-02  0.5053655E+03  0.7818609E-02  0.1012388E+00
       -3   -1    0    0    0  501  0.00000000000E+00  0.00000000000E+00  0.11801994998E+03  0.11801999320E+03  0.10100000352E+00 0.  1.
        3   -1    0    0  501    0  0.00000000000E+00  0.00000000000E+00 -0.54099792956E+03  0.54099793899E+03  0.10100000352E+00 0. -1.
    10030    2    1    2    0    0  0.00000000000E+00  0.00000000000E+00 -0.42297797958E+03  0.65901793218E+03  0.50536547540E+03 0.  0.
        2    1    3    3  502    0 -0.20664249115E+03 -0.10436818675E+03 -0.79434326142E+02  0.24475222110E+03  0.25500000920E-02 0.  1.
       -2    1    3    3    0  502  0.20664249115E+03  0.10436818675E+03 -0.34354365344E+03  0.41426571109E+03  0.25500000920E-02 0. -1.
</event>
<event>
 5   0  0.1413361E-01  0.4899662E+03  0.7818609E-02  0.1016432E+00
        1   -1    0    0  501    0  0.00000000000E+00  0.00000000000E+00  0.50012720370E+03  0.50012720373E+03  0.50400001928E-02 0. -1.
       -1   -1    0    0    0  501  0.00000000000E+00  0.00000000000E+00 -0.12000290800E+03  0.12000290810E+03  0.50400001928E-02 0.  1.
    10030    2    1    2    0    0  0.00000000000E+00  0.00000000000E+00  0.38012429570E+03  0.62013011183E+03  0.48996619824E+03 0.  0.
        3    1    3    3  502    0  0.72332520102E+02  0.20036033663E+02 -0.10509232499E+03  0.12914272369E+03  0.10100000352E+00 0.  1.
       -3    1    3    3    0  502 -0.72332520102E+02 -0.20036033663E+02  0.48521662070E+03  0.49098738814E+03  0.10100000352E+00 0. -1.
</event>
<event>
 5   0  0.2488968E-01  0.5059314E+03  0.7818609E-02  0.1012242E+00
       -2   -1    0    0    0  501  0.00000000000E+00  0.00000000000E+00  0.17401279831E+03  0.17401279833E+03  0.25500000920E-02 0.  1.
        2   -1    0    0  501    0  0.00000000000E+00  0.00000000000E+00 -0.36774098714E+03  0.36774098715E+03  0.25500000920E-02 0. -1.
    10030    2    1    2    0    0  0.00000000000E+00  0.00000000000E+00 -0.19372818883E+03  0.54175378547E+03  0.50593137175E+03 0.  0.
        2    1    3    3  502    0 -0.22612299739E+03 -0.77047235688E+02 -0.18596478878E+03  0.30273881342E+03  0.25500000920E-02 0.  1.
       -2    1    3    3    0  502  0.22612299739E+03  0.77047235688E+02 -0.77634000475E+01  0.23901497205E+03  0.25500000920E-02 0. -1.
</event>
<event>
 5   0  0.2511944E-01  0.5291107E+03  0.7818609E-02  0.1006448E+00
        2   -1    0    0  501    0  0.00000000000E+00  0.00000000000E+00  0.47214472837E+02  0.47214472906E+02  0.25500000920E-02 0.  1.
       -2   -1    0    0    0  501  0.00000000000E+00  0.00000000000E+00 -0.14823745274E+04  0.14823745274E+04  0.25500000920E-02 0. -1.
    10030    2    1    2    0    0  0.00000000000E+00  0.00000000000E+00 -0.14351600546E+04  0.15295890003E+04  0.52911069508E+03 0.  0.
        1    1    3    3  502    0 -0.18193846832E+03  0.10252273667E+03 -0.24807415623E+03  0.32427350309E+03  0.50400001928E-02 0.  1.
       -1    1    3    3    0  502  0.18193846832E+03 -0.10252273667E+03 -0.11870858983E+04  0.12053154972E+04  0.50400001928E-02 0. -1.
</event>
<event>
 5   0  0.1439814E-01  0.5052952E+03  0.7818609E-02  0.1012406E+00
        1   -1    0    0  501    0  0.00000000000E+00  0.00000000000E+00  0.92266565023E+03  0.92266565024E+03  0.50400001928E-02 0.  1.
       -1   -1    0    0    0  501  0.00000000000E+00  0.00000000000E+00 -0.69180859856E+02  0.69180860040E+02  0.50400001928E-02 0. -1.
    10030    2    1    2    0    0  0.00000000000E+00  0.00000000000E+00  0.85348479037E+03  0.99184651028E+03  0.50529517370E+03 0.  0.
        4    1    3    3  502    0  0.46423950818E+02  0.66886944505E+02 -0.42716831877E+02  0.91953179283E+02  0.12699999809E+01 0. -1.
       -4    1    3    3    0  502 -0.46423950818E+02 -0.66886944505E+02  0.89620162225E+03  0.89989333100E+03  0.12699999809E+01 0.  1.
</event>
<event>
 5   0  0.1413361E-01  0.4995046E+03  0.7818609E-02  0.1013908E+00
        1   -1    0    0  501    0  0.00000000000E+00  0.00000000000E+00  0.14905445556E+04  0.14905445556E+04  0.50400001928E-02 0.  1.
       -1   -1    0    0    0  501  0.00000000000E+00  0.00000000000E+00 -0.41847931513E+02  0.41847931816E+02  0.50400001928E-02 0. -1.
    10030    2    1    2    0    0  0.00000000000E+00  0.00000000000E+00  0.14486966240E+04  0.15323924874E+04  0.49950458143E+03 0.  0.
        3    1    3    3  502    0 -0.14456223730E+03  0.15668083861E+03  0.11235083910E+04  0.11435550885E+04  0.10100000352E+00 0.  1.
       -3    1    3    3    0  502  0.14456223730E+03 -0.15668083861E+03  0.32518823306E+03  0.38883739887E+03  0.10100000352E+00 0. -1.
</event>
<event>
 5   0  0.1529146E-01  0.4919987E+03  0.7818609E-02  0.1015889E+00
       -1   -1    0    0    0  501  0.00000000000E+00  0.00000000000E+00  0.11179440690E+03  0.11179440701E+03  0.50400001928E-02 0. -1.
        1   -1    0    0  501    0  0.00000000000E+00  0.00000000000E+00 -0.54131231666E+03  0.54131231668E+03  0.50400001928E-02 0.  1.
    10030    2    1    2    0    0  0.00000000000E+00  0.00000000000E+00 -0.42951790976E+03  0.65310672369E+03  0.49199873753E+03 0.  0.
        1    1    3    3  502    0  0.86852386054E+02  0.11669442760E+03 -0.47810015910E+03  0.49974062127E+03  0.50400001928E-02 0.  1.
       -1    1    3    3    0  502 -0.86852386054E+02 -0.11669442760E+03  0.48582249338E+02  0.15336610242E+03  0.50400001928E-02 0. -1.
</event>
<event>
 5   0  0.1453602E-01  0.5084492E+03  0.7818609E-02  0.1011597E+00
        1   -1    0    0  501    0  0.00000000000E+00  0.00000000000E+00  0.16050602936E+03  0.16050602944E+03  0.50400001928E-02 0.  1.
       -1   -1    0    0    0  501  0.00000000000E+00  0.00000000000E+00 -0.40266495384E+03  0.40266495387E+03  0.50400001928E-02 0. -1.
    10030    2    1    2    0    0  0.00000000000E+00  0.00000000000E+00 -0.24215892449E+03  0.56317098331E+03  0.50844922237E+03 0.  0.
        2    1    3    3  502    0  0.18714712338E+03  0.16020617206E+03 -0.19060521988E+03  0.31148099975E+03  0.25500000920E-02 0.  1.
       -2    1    3    3    0  502 -0.18714712338E+03 -0.16020617206E+03 -0.51553704606E+02  0.25168998355E+03  0.25500000920E-02 0. -1.
</event>
<event>
 5   0  0.2511944E-01  0.5113058E+03  0.7818609E-02  0.1010869E+00
        2   -1    0    0  501    0  0.00000000000E+00  0.00000000000E+00  0.15637525596E+03  0.15637525598E+03  0.25500000920E-02 0. -1.
       -2   -1    0    0    0  501  0.00000000000E+00  0.00000000000E+00 -0.41795866101E+03  0.41795866102E+03  0.25500000920E-02 0.  1.
    10030    2    1    2    0    0  0.00000000000E+00  0.00000000000E+00 -0.26158340505E+03  0.57433391700E+03  0.51130575042E+03 0.  0.
        1    1    3    3  502    0  0.37330993812E+02  0.24062979172E+03 -0.21824880359E+03  0.32699975544E+03  0.50400001928E-02 0. -1.
       -1    1    3    3    0  502 -0.37330993812E+02 -0.24062979172E+03 -0.43334601461E+02  0.24733416156E+03  0.50400001928E-02 0.  1.
</event>
<event>
 5   0  0.2466034E-01  0.5451049E+03  0.7818609E-02  0.1002633E+00
       -2   -1    0    0    0  501  0.00000000000E+00  0.00000000000E+00  0.23777176095E+03  0.23777176096E+03  0.25500000920E-02 0.  1.
        2   -1    0    0  501    0  0.00000000000E+00  0.00000000000E+00 -0.31242074267E+03  0.31242074268E+03  0.25500000920E-02 0. -1.
    10030    2    1    2    0    0  0.00000000000E+00  0.00000000000E+00 -0.74648981718E+02  0.55019250364E+03  0.54510487119E+03 0.  0.
        3    1    3    3  502    0  0.54145469300E+02  0.25804160887E+03 -0.10701686332E+03  0.28455196887E+03  0.10100000352E+00 0.  1.
       -3    1    3    3    0  502 -0.54145469300E+02 -0.25804160887E+03  0.32367881599E+02  0.26564053477E+03  0.10100000352E+00 0. -1.
</event>
<event>
 5   0  0.1413361E-01  0.5186212E+03  0.7818609E-02  0.1009030E+00
       -1   -1    0    0    0  501  0.00000000000E+00  0.00000000000E+00  0.78089752270E+02  0.78089752432E+02  0.50400001928E-02 0.  1.
        1   -1    0    0  501    0  0.00000000000E+00  0.00000000000E+00 -0.86108599636E+03  0.86108599637E+03  0.50400001928E-02 0. -1.
    10030    2    1    2    0    0  0.00000000000E+00  0.00000000000E+00 -0.78299624409E+03  0.93917574880E+03  0.51862121909E+03 0.  0.
        3    1    3    3  502    0 -0.67705516215E+02 -0.10447195233E+03 -0.80342935812E+03  0.81301732419E+03  0.10100000352E+00 0. -1.
       -3    1    3    3    0  502  0.67705516215E+02  0.10447195233E+03  0.20433114033E+02  0.12615842461E+03  0.10100000352E+00 0.  1.
</event>
<event>
 5   0  0.2413301E-01  0.4939154E+03  0.7818609E-02  0.1015379E+00
        2   -1    0    0  501    0  0.00000000000E+00  0.00000000000E+00  0.11226038027E+04  0.11226038027E+04  0.25500000920E-02 0. -1.
       -2   -1    0    0    0  501  0.00000000000E+00  0.00000000000E+00 -0.54327370518E+02  0.54327370578E+02  0.25500000920E-02 0.  1.
    10030    2    1    2    0    0  0.00000000000E+00  0.00000000000E+00  0.10682764322E+04  0.11769311733E+04  0.49391542909E+03 0.  0.
        4    1    3    3  502    0  0.87245851585E+02 -0.10889759237E+03  0.10196570678E+04  0.10291611502E+04  0.12699999809E+01 0. -1.
       -4    1    3    3    0  502 -0.87245851585E+02  0.10889759237E+03  0.48619364432E+02  0.14777002314E+03  0.12699999809E+01 0.  1.
</event>
<event>
 5   0  0.1413361E-01  0.5058642E+03  0.7818609E-02  0.1012260E+00
        1   -1    0    0  501    0  0.00000000000E+00  0.00000000000E+00  0.14274722594E+04  0.14274722595E+04  0.50400001928E-02 0.  1.
       -1   -1    0    0    0  501  0.00000000000E+00  0.00000000000E+00 -0.44816730485E+02  0.44816730769E+02  0.50400001928E-02 0. -1.
    10030    2    1    2    0    0  0.00000000000E+00  0.00000000000E+00  0.13826555290E+04  0.14722889902E+04  0.50586417047E+03 0.  0.
        3    1    3    3  502    0 -0.91328502437E+02  0.21294983337E+03  0.98650616246E+03  0.10133523305E+04  0.10100000352E+00 0.  1.
       -3    1    3    3    0  502  0.91328502437E+02 -0.21294983337E+03  0.39614936650E+03  0.45893665976E+03  0.10100000352E+00 0. -1.
</event>
<event>
 5   0  0.1413361E-01  0.5063200E+03  0.7818609E-02  0.1012142E+00
        1   -1    0    0  501    0  0.00000000000E+00  0.00000000000E+00  0.13080854559E+03  0.13080854568E+03  0.50400001928E-02 0. -1.
       -1   -1    0    0    0  501  0.00000000000E+00  0.00000000000E+00 -0.48995254955E+03  0.48995254957E+03  0.50400001928E-02 0.  1.
    10030    2    1    2    0    0  0.00000000000E+00  0.00000000000E+00 -0.35914400396E+03  0.62076109526E+03  0.50631997966E+03 0.  0.
        3    1    3    3  502    0  0.10146394339E+03 -0.70324186160E+02 -0.45054729657E+03  0.46715447083E+03  0.10100000352E+00 0.  1.
       -3    1    3    3    0  502 -0.10146394339E+03  0.70324186160E+02  0.91403292607E+02  0.15360662443E+03  0.10100000352E+00 0. -1.
</event>
<event>
 5   0  0.2504064E-01  0.4995409E+03  0.7818609E-02  0.1013899E+00
       -2   -1    0    0    0  501  0.00000000000E+00  0.00000000000E+00  0.96368212841E+02  0.96368212874E+02  0.25500000920E-02 0. -1.
        2   -1    0    0  501    0  0.00000000000E+00  0.00000000000E+00 -0.64736360472E+03  0.64736360472E+03  0.25500000920E-02 0.  1.
    10030    2    1    2    0    0  0.00000000000E+00  0.00000000000E+00 -0.55099539188E+03  0.74373181760E+03  0.49954088385E+03 0.  0.
        5    1    3    3  502    0  0.17867322015E+03 -0.15396417105E+03 -0.39767345412E+03  0.46238009438E+03  0.46999998093E+01 0.  1.
       -5    1    3    3    0  502 -0.17867322015E+03  0.15396417105E+03 -0.15332193776E+03  0.28135172322E+03  0.46999998093E+01 0. -1.
</event>
<event>
 5   0  0.1439814E-01  0.5058103E+03  0.7818609E-02  0.1012273E+00
       -1   -1    0    0    0  501  0.00000000000E+00  0.00000000000E+00  0.28203332010E+03  0.28203332015E+03  0.50400001928E-02 0. -1.
        1   -1    0    0  501    0  0.00000000000E+00  0.00000000000E+00 -0.22678531164E+03  0.22678531170E+03  0.50400001928E-02 0.  1.
    10030    2    1    2    0    0  0.00000000000E+00  0.00000000000E+00  0.55248008462E+02  0.50881863185E+03  0.50581029811E+03 0.  0.
        4    1    3    3  502    0  0.20692665416E+03 -0.39666438307E+01 -0.11858495161E+03  0.23853380916E+03  0.12699999809E+01 0.  1.
       -4    1    3    3    0  502 -0.20692665416E+03  0.39666438307E+01  0.17383296008E+03  0.27028482268E+03  0.12699999809E+01 0. -1.
</event>
<event>
 5   0  0.1413361E-01  0.5088486E+03  0.7818609E-02  0.1011495E+00
        1   -1    0    0  501    0  0.00000000000E+00  0.00000000000E+00  0.32511471099E+03  0.32511471103E+03  0.50400001928E-02 0.  1.
       -1   -1    0    0    0  501  0.00000000000E+00  0.00000000000E+00 -0.19910426964E+03  0.19910426970E+03  0.50400001928E-02 0. -1.
    10030    2    1    2    0    0  0.00000000000E+00  0.00000000000E+00  0.12601044135E+03  0.52421898073E+03  0.50884861052E+03 0.  0.
        3    1    3    3  502    0  0.22297536621E+03  0.33597031251E+02 -0.58388491147E+02  0.23292917495E+03  0.10100000352E+00 0. -1.
       -3    1    3    3    0  502 -0.22297536621E+03 -0.33597031251E+02  0.18439893249E+03  0.29128980578E+03  0.10100000352E+00 0.  1.
</event>
<event>
 5   0  0.2488968E-01  0.5065823E+03  0.7818609E-02  0.1012075E+00
        2   -1    0    0  501    0  0.00000000000E+00  0.00000000000E+00  0.27298058712E+03  0.27298058713E+03  0.25500000920E-02 0. -1.
       -2   -1    0    0    0  501  0.00000000000E+00  0.00000000000E+00 -0.23502190687E+03  0.23502190688E+03  0.25500000920E-02 0.  1.
    10030    2    1    2    0    0  0.00000000000E+00  0.00000000000E+00  0.37958680245E+02  0.50800249401E+03  0.50658234525E+03 0.  0.
        2    1    3    3  502    0  0.11800588621E+03 -0.11261147396E+03 -0.17534130451E+03  0.23948132771E+03  0.25500000920E-02 0.  1.
       -2    1    3    3    0  502 -0.11800588621E+03  0.11261147396E+03  0.21329998476E+03  0.26852116630E+03  0.25500000920E-02 0. -1.
</event>
<event>
 5   0  0.1439814E-01  0.5177258E+03  0.7818609E-02  0.1009253E+00
       -1   -1    0    0    0  501  0.00000000000E+00  0.00000000000E+00  0.26176756349E+03  0.26176756354E+03  0.50400001928E-02 0. -1.
        1   -1    0    0  501    0  0.00000000000E+00  0.00000000000E+00 -0.25599046267E+03  0.25599046272E+03  0.50400001928E-02 0.  1.
    10030    2    1    2    0    0  0.00000000000E+00  0.00000000000E+00  0.57771008210E+01  0.51775802625E+03  0.51772579505E+03 0.  0.
        4    1    3    3  502    0 -0.17950405980E+03  0.18636665379E+03 -0.44705545391E+01  0.25879690085E+03  0.12699999809E+01 0.  1.
       -4    1    3    3    0  502  0.17950405980E+03 -0.18636665379E+03  0.10247655360E+02  0.25896112540E+03  0.12699999809E+01 0. -1.
</event>
<event>
 5   0  0.2511944E-01  0.4576983E+03  0.7818609E-02  0.1025451E+00
        2   -1    0    0  501    0  0.00000000000E+00  0.00000000000E+00  0.10393875856E+04  0.10393875856E+04  0.25500000920E-02 0.  1.
       -2   -1    0    0    0  501  0.00000000000E+00  0.00000000000E+00 -0.50387301947E+02  0.50387302012E+02  0.25500000920E-02 0. -1.
    10030    2    1    2    0    0  0.00000000000E+00  0.00000000000E+00  0.98900028361E+03  0.10897748876E+04  0.45769831178E+03 0.  0.
        1    1    3    3  502    0 -0.14460748914E+02 -0.32250027548E+02  0.10328500280E+04  0.10334545747E+04  0.50400001928E-02 0.  1.
       -1    1    3    3    0  502  0.14460748914E+02  0.32250027548E+02 -0.43849744396E+02  0.56320312899E+02  0.50400001928E-02 0. -1.
</event>
<event>
 5   0  0.9868500E-02  0.4866848E+03  0.7818609E-02  0.1017314E+00
        4   -1    0    0  501    0  0.00000000000E+00  0.00000000000E+00  0.34643064863E+03  0.34643297651E+03  0.12699999809E+01 0.  1.
       -4   -1    0    0    0  501  0.00000000000E+00  0.00000000000E+00 -0.17092510812E+03  0.17092982620E+03  0.12699999809E+01 0. -1.
    10030    2    1    2    0    0  0.00000000000E+00  0.00000000000E+00  0.17550554052E+03  0.51736280270E+03  0.48668477978E+03 0.  0.
        3    1    3    3  502    0  0.87066076062E+02 -0.19313495758E+03 -0.39518256141E+02  0.21550711406E+03  0.10100000352E+00 0. -1.
       -3    1    3    3    0  502 -0.87066076062E+02  0.19313495758E+03  0.21502379666E+03  0.30185568865E+03  0.10100000352E+00 0.  1.
</event>
<event>
 5   0  0.1439814E-01  0.5008907E+03  0.7818609E-02  0.1013547E+00
       -1   -1    0    0    0  501  0.00000000000E+00  0.00000000000E+00  0.63131338637E+02  0.63131338839E+02  0.50400001928E-02 0.  1.
        1   -1    0    0  501    0  0.00000000000E+00  0.00000000000E+00 -0.99352981532E+03  0.99352981534E+03  0.50400001928E-02 0. -1.
    10030    2    1    2    0    0  0.00000000000E+00  0.00000000000E+00 -0.93039847669E+03  0.10566611542E+04  0.50089067602E+03 0.  0.
        4    1    3    3  502    0  0.61443854208E+02 -0.21393672759E+03 -0.70735834196E+03  0.74155357694E+03  0.12699999809E+01 0. -1.
       -4    1    3    3    0  502 -0.61443854208E+02  0.21393672759E+03 -0.22304013473E+03  0.31510757724E+03  0.12699999809E+01 0.  1.
</event>
<event>
 5   0  0.2466034E-01  0.5024088E+03  0.7818609E-02  0.1013152E+00
       -2   -1    0    0    0  501  0.00000000000E+00  0.00000000000E+00  0.14808154011E+03  0.14808154014E+03  0.25500000920E-02 0.  1.
        2   -1    0    0  501    0  0.00000000000E+00  0.00000000000E+00 -0.42614127612E+03  0.42614127613E+03  0.25500000920E-02 0. -1.
    10030    2    1    2    0    0  0.00000000000E+00  0.00000000000E+00 -0.27805973600E+03  0.57422281626E+03  0.50240882350E+03 0.  0.
        3    1    3    3  502    0 -0.70067937434E+02 -0.82341202822E+01 -0.41458571912E+03  0.42054565185E+03  0.10100000352E+00 0. -1.
       -3    1    3    3    0  502  0.70067937434E+02  0.82341202822E+01  0.13652598312E+03  0.15367716441E+03  0.10100000352E+00 0.  1.
</event>
<event>
 5   0  0.1413361E-01  0.4931219E+03  0.7818609E-02  0.1015590E+00
       -1   -1    0    0    0  501  0.00000000000E+00  0.00000000000E+00  0.14204869980E+03  0.14204869989E+03  0.50400001928E-02 0. -1.
        1   -1    0    0  501    0  0.00000000000E+00  0.00000000000E+00 -0.42796804911E+03  0.42796804914E+03  0.50400001928E-02 0.  1.
    10030    2    1    2    0    0  0.00000000000E+00  0.00000000000E+00 -0.28591934931E+03  0.57001674903E+03  0.49312191176E+03 0.  0.
        3    1    3    3  502    0 -0.14465031335E+03 -0.19690642950E+03 -0.18123559826E+03  0.30420750715E+03  0.10100000352E+00 0. -1.
       -3    1    3    3    0  502  0.14465031335E+03  0.19690642950E+03 -0.10468375105E+03  0.26580924187E+03  0.10100000352E+00 0.  1.
</event>
<event>
 5   0  0.2488968E-01  0.4909875E+03  0.7818609E-02  0.1016158E+00
       -2   -1    0    0    0  501  0.00000000000E+00  0.00000000000E+00  0.87395379434E+02  0.87395379471E+02  0.25500000920E-02 0.  1.
        2   -1    0    0  501    0  0.00000000000E+00  0.00000000000E+00 -0.68959239027E+03  0.68959239028E+03  0.25500000920E-02 0. -1.
    10030    2    1    2    0    0  0.00000000000E+00  0.00000000000E+00 -0.60219701084E+03  0.77698776975E+03  0.49098752986E+03 0.  0.
        2    1    3    3  502    0  0.22500950442E+03  0.42400195270E+02 -0.16097677548E+03  0.27989386540E+03  0.25500000920E-02 0.  1.
       -2    1    3    3    0  502 -0.22500950442E+03 -0.42400195270E+02 -0.44122023536E+03  0.49709390434E+03  0.25500000920E-02 0. -1.
</event>
<event>
 5   0  0.2466034E-01  0.5010064E+03  0.7818609E-02  0.1013517E+00
       -2   -1    0    0    0  501  0.00000000000E+00  0.00000000000E+00  0.64681568652E+02  0.64681568702E+02  0.25500000920E-02 0.  1.
        2   -1    0    0  501    0  0.00000000000E+00  0.00000000000E+00 -0.97016595428E+03  0.97016595429E+03  0.25500000920E-02 0. -1.
    10030    2    1    2    0    0  0.00000000000E+00  0.00000000000E+00 -0.90548438563E+03  0.10348475230E+04  0.50100641035E+03 0.  0.
        3    1    3    3  502    0  0.22198644843E+03 -0.68466999187E+02 -0.25913033515E+03  0.34801473253E+03  0.10100000352E+00 0.  1.
       -3    1    3    3    0  502 -0.22198644843E+03  0.68466999187E+02 -0.64635405049E+03  0.68683279046E+03  0.10100000352E+00 0. -1.
</event>
<event>
 5   0  0.2488968E-01  0.4539050E+03  0.7818609E-02  0.1026564E+00
       -2   -1    0    0    0  501  0.00000000000E+00  0.00000000000E+00  0.10271558053E+03  0.10271558056E+03  0.25500000920E-02 0. -1.
        2   -1    0    0  501    0  0.00000000000E+00  0.00000000000E+00 -0.50145697082E+03  0.50145697083E+03  0.25500000920E-02 0.  1.
    10030    2    1    2    0    0  0.00000000000E+00  0.00000000000E+00 -0.39874139030E+03  0.60417255139E+03  0.45390502918E+03 0.  0.
        2    1    3    3  502    0 -0.17150538229E+03 -0.77537032574E+02 -0.36816482266E+03  0.41348690937E+03  0.25500000920E-02 0.  1.
       -2    1    3    3    0  502  0.17150538229E+03  0.77537032574E+02 -0.30576567640E+02  0.19068564202E+03  0.25500000920E-02 0. -1.
</event>
<event>
 5   0  0.2413301E-01  0.5076409E+03  0.7818609E-02  0.1011804E+00
       -2   -1    0    0    0  501  0.00000000000E+00  0.00000000000E+00  0.45884559844E+03  0.45884559844E+03  0.25500000920E-02 0.  1.
        2   -1    0    0  501    0  0.00000000000E+00  0.00000000000E+00 -0.14040632397E+03  0.14040632400E+03  0.25500000920E-02 0. -1.
    10030    2    1    2    0    0  0.00000000000E+00  0.00000000000E+00  0.31843927446E+03  0.59925192244E+03  0.50764091150E+03 0.  0.
        4    1    3    3  502    0 -0.72760349538E+02  0.71508953543E+02  0.43357437925E+03  0.44541660739E+03  0.12699999809E+01 0.  1.
       -4    1    3    3    0  502  0.72760349538E+02 -0.71508953543E+02 -0.11513510479E+03  0.15383531505E+03  0.12699999809E+01 0. -1.
</event>
<event>
 5   0  0.1448458E-01  0.5020878E+03  0.7818609E-02  0.1013235E+00
        1   -1    0    0  501    0  0.00000000000E+00  0.00000000000E+00  0.86909708800E+03  0.86909708802E+03  0.50400001928E-02 0. -1.
       -1   -1    0    0    0  501  0.00000000000E+00  0.00000000000E+00 -0.72515528078E+02  0.72515528253E+02  0.50400001928E-02 0.  1.
    10030    2    1    2    0    0  0.00000000000E+00  0.00000000000E+00  0.79658155993E+03  0.94161261627E+03  0.50208777869E+03 0.  0.
        5    1    3    3  502    0  0.92901559728E+02 -0.16132210325E+03  0.71403404390E+03  0.73791749311E+03  0.46999998093E+01 0. -1.
       -5    1    3    3    0  502 -0.92901559728E+02  0.16132210325E+03  0.82547516028E+02  0.20369512316E+03  0.46999998093E+01 0.  1.
</event>
<event>
 5   0  0.1439814E-01  0.5059330E+03  0.7818609E-02  0.1012242E+00
        1   -1    0    0  501    0  0.00000000000E+00  0.00000000000E+00  0.74657386195E+03  0.74657386197E+03  0.50400001928E-02 0. -1.
       -1   -1    0    0    0  501  0.00000000000E+00  0.00000000000E+00 -0.85714279571E+02  0.85714279719E+02  0.50400001928E-02 0.  1.
    10030    2    1    2    0    0  0.00000000000E+00  0.00000000000E+00  0.66085958238E+03  0.83228814169E+03  0.50593296312E+03 0.  0.
        4    1    3    3  502    0  0.90577649747E+02  0.74976729416E+02  0.69888053652E+03  0.70870405517E+03  0.12699999809E+01 0. -1.
       -4    1    3    3    0  502 -0.90577649747E+02 -0.74976729416E+02 -0.38020954137E+02  0.12358408652E+03  0.12699999809E+01 0.  1.
</event>
<event>
 5   0  0.2488968E-01  0.4985751E+03  0.7818609E-02  0.1014152E+00
        2   -1    0    0  501    0  0.00000000000E+00  0.00000000000E+00  0.16746369853E+03  0.16746369855E+03  0.25500000920E-02 0. -1.
       -2   -1    0    0    0  501  0.00000000000E+00  0.00000000000E+00 -0.37109100239E+03  0.37109100240E+03  0.25500000920E-02 0.  1.
    10030    2    1    2    0    0  0.00000000000E+00  0.00000000000E+00 -0.20362730386E+03  0.53855470095E+03  0.49857505658E+03 0.  0.
        2    1    3    3  502    0  0.15662381840E+03 -0.11657560997E+03 -0.26923711280E+03  0.33258008997E+03  0.25500000920E-02 0.  1.
       -2    1    3    3    0  502 -0.15662381840E+03  0.11657560997E+03  0.65609808946E+02  0.20597461098E+03  0.25500000920E-02 0. -1.
</event>
<event>
 5   0  0.2488968E-01  0.5004407E+03  0.7818609E-02  0.1013664E+00
       -2   -1    0    0    0  501  0.00000000000E+00  0.00000000000E+00  0.23891658415E+03  0.23891658417E+03  0.25500000920E-02 0. -1.
        2   -1    0    0  501    0  0.00000000000E+00  0.00000000000E+00 -0.26205887635E+03  0.26205887636E+03  0.25500000920E-02 0.  1.
    10030    2    1    2    0    0  0.00000000000E+00  0.00000000000E+00 -0.23142292196E+02  0.50097546053E+03  0.50044065219E+03 0.  0.
        2    1    3    3  502    0  0.23764917530E+03  0.68074414426E+02 -0.50328863634E+02  0.25227812220E+03  0.25500000920E-02 0.  1.
       -2    1    3    3    0  502 -0.23764917530E+03 -0.68074414426E+02  0.27186571438E+02  0.24869733833E+03  0.25500000920E-02 0. -1.
</event>
<event>
 5   0  0.1448458E-01  0.4719166E+03  0.7818609E-02  0.1021381E+00
       -1   -1    0    0    0  501  0.00000000000E+00  0.00000000000E+00  0.74514637513E+03  0.74514637515E+03  0.50400001928E-02 0. -1.
        1   -1    0    0  501    0  0.00000000000E+00  0.00000000000E+00 -0.74718648884E+02  0.74718649054E+02  0.50400001928E-02 0.  1.
    10030    2    1    2    0    0  0.00000000000E+00  0.00000000000E+00  0.67042772625E+03  0.81986502420E+03  0.47191664708E+03 0.  0.
        5    1    3    3  502    0  0.15737143602E+03 -0.17361409218E+03  0.28774307342E+03  0.37111425219E+03  0.46999998093E+01 0. -1.
       -5    1    3    3    0  502 -0.15737143602E+03  0.17361409218E+03  0.38268465283E+03  0.44875077202E+03  0.46999998093E+01 0.  1.
</event>
<event>
 5   0  0.2466034E-01  0.4700998E+03  0.7818609E-02  0.1021892E+00
       -2   -1    0    0    0  501  0.00000000000E+00  0.00000000000E+00  0.15134502668E+03  0.15134502671E+03  0.25500000920E-02 0. -1.
        2   -1    0    0  501    0  0.00000000000E+00  0.00000000000E+00 -0.36504967423E+03  0.36504967424E+03  0.25500000920E-02 0.  1.
    10030    2    1    2    0    0  0.00000000000E+00  0.00000000000E+00 -0.21370464754E+03  0.51639470094E+03  0.47009978811E+03 0.  0.
        3    1    3    3  502    0 -0.21648597391E+03 -0.58172871350E+02 -0.18451239459E+03  0.29033617380E+03  0.10100000352E+00 0. -1.
       -3    1    3    3    0  502  0.21648597391E+03  0.58172871350E+02 -0.29192252953E+02  0.22605852714E+03  0.10100000352E+00 0.  1.
</event>
<event>
 5   0  0.9868500E-02  0.5186641E+03  0.7818609E-02  0.1009019E+00
       -4   -1    0    0    0  501  0.00000000000E+00  0.00000000000E+00  0.44467279423E+03  0.44467460781E+03  0.12699999809E+01 0. -1.
        4   -1    0    0  501    0  0.00000000000E+00  0.00000000000E+00 -0.15123702435E+03  0.15124235661E+03  0.12699999809E+01 0.  1.
    10030    2    1    2    0    0  0.00000000000E+00  0.00000000000E+00  0.29343576988E+03  0.59591696442E+03  0.51866412778E+03 0.  0.
        1    1    3    3  502    0  0.15141869569E+03  0.16652053734E+03  0.29473318022E+03  0.37084276764E+03  0.50400001928E-02 0. -1.
       -1    1    3    3    0  502 -0.15141869569E+03 -0.16652053734E+03 -0.12974103367E+01  0.22507419679E+03  0.50400001928E-02 0.  1.
</event>
<event>
 5   0  0.1439814E-01  0.4838426E+03  0.7818609E-02  0.1018084E+00
        1   -1    0    0  501    0  0.00000000000E+00  0.00000000000E+00  0.20017872371E+03  0.20017872378E+03  0.50400001928E-02 0.  1.
       -1   -1    0    0    0  501  0.00000000000E+00  0.00000000000E+00 -0.29236833298E+03  0.29236833302E+03  0.50400001928E-02 0. -1.
    10030    2    1    2    0    0  0.00000000000E+00  0.00000000000E+00 -0.92189609267E+02  0.49254705680E+03  0.48384261811E+03 0.  0.
        4    1    3    3  502    0  0.22962892420E+03  0.50369307725E+02 -0.10419874838E+03  0.25714879361E+03  0.12699999809E+01 0. -1.
       -4    1    3    3    0  502 -0.22962892420E+03 -0.50369307725E+02  0.12009139113E+02  0.23539826319E+03  0.12699999809E+01 0.  1.
</event>
<event>
 5   0  0.2488968E-01  0.4296138E+03  0.7818609E-02  0.1033982E+00
        2   -1    0    0  501    0  0.00000000000E+00  0.00000000000E+00  0.18851699624E+03  0.18851699626E+03  0.25500000920E-02 0.  1.
       -2   -1    0    0    0  501  0.00000000000E+00  0.00000000000E+00 -0.24476309388E+03  0.24476309389E+03  0.25500000920E-02 0. -1.
    10030    2    1    2    0    0  0.00000000000E+00  0.00000000000E+00 -0.56246097642E+02  0.43328009015E+03  0.42961379519E+03 0.  0.
        2    1    3    3  502    0  0.14795114509E+03  0.14641893087E+03 -0.81622504881E+02  0.22358505755E+03  0.25500000920E-02 0. -1.
       -2    1    3    3    0  502 -0.14795114509E+03 -0.14641893087E+03  0.25376407239E+02  0.20969503260E+03  0.25500000920E-02 0.  1.
</event>
<event>
 5   0  0.2504064E-01  0.5087792E+03  0.7818609E-02  0.1011512E+00
       -2   -1    0    0    0  501  0.00000000000E+00  0.00000000000E+00  0.12563926551E+03  0.12563926554E+03  0.25500000920E-02 0.  1.
        2   -1    0    0  501    0  0.00000000000E+00  0.00000000000E+00 -0.51507831490E+03  0.51507831491E+03  0.25500000920E-02 0. -1.
    10030    2    1    2    0    0  0.00000000000E+00  0.00000000000E+00 -0.38943904939E+03  0.64071758045E+03  0.50877917086E+03 0.  0.
        5    1    3    3  502    0 -0.97954445266E+02 -0.83142164264E+02  0.81713545272E+02  0.15233806584E+03  0.46999998093E+01 0.  1.
       -5    1    3    3    0  502  0.97954445266E+02  0.83142164264E+02 -0.47115259467E+03  0.48837951460E+03  0.46999998093E+01 0. -1.
</event>
<event>
 5   0  0.9868500E-02  0.5050246E+03  0.7818609E-02  0.1012476E+00
        4   -1    0    0  501    0  0.00000000000E+00  0.00000000000E+00  0.26103696349E+03  0.26104005288E+03  0.12699999809E+01 0. -1.
       -4   -1    0    0    0  501  0.00000000000E+00  0.00000000000E+00 -0.24425987658E+03  0.24426317817E+03  0.12699999809E+01 0.  1.
    10030    2    1    2    0    0  0.00000000000E+00  0.00000000000E+00  0.16777086909E+02  0.50530323105E+03  0.50502463768E+03 0.  0.
        1    1    3    3  502    0  0.23359744578E+03 -0.80610218379E+02  0.60346923012E+02  0.25437673857E+03  0.50400001928E-02 0. -1.
       -1    1    3    3    0  502 -0.23359744578E+03  0.80610218379E+02 -0.43569836103E+02  0.25092649248E+03  0.50400001928E-02 0.  1.
</event>
<event>
 5   0  0.1448458E-01  0.5030201E+03  0.7818609E-02  0.1012994E+00
       -1   -1    0    0    0  501  0.00000000000E+00  0.00000000000E+00  0.37063678969E+03  0.37063678972E+03  0.50400001928E-02 0. -1.
        1   -1    0    0  501    0  0.00000000000E+00  0.00000000000E+00 -0.17067194419E+03  0.17067194427E+03  0.50400001928E-02 0.  1.
    10030    2    1    2    0    0  0.00000000000E+00  0.00000000000E+00  0.19996484550E+03  0.54130873399E+03  0.50302008514E+03 0.  0.
        5    1    3    3  502    0 -0.21970686852E+03 -0.66420947897E+02 -0.10561413147E+02  0.22981837142E+03  0.46999998093E+01 0. -1.
       -5    1    3    3    0  502  0.21970686852E+03  0.66420947897E+02  0.21052625864E+03  0.31149036257E+03  0.46999998093E+01 0.  1.
</event>
<event>
 5   0  0.2413301E-01  0.4949628E+03  0.7818609E-02  0.1015102E+00
       -2   -1    0    0    0  501  0.00000000000E+00  0.00000000000E+00  0.23023036669E+02  0.23023036811E+02  0.25500000920E-02 0.  1.
        2   -1    0    0  501    0  0.00000000000E+00  0.00000000000E+00 -0.26602500247E+04  0.26602500247E+04  0.25500000920E-02 0. -1.
    10030    2    1    2    0    0  0.00000000000E+00  0.00000000000E+00 -0.26372269881E+04  0.26832730615E+04  0.49496276248E+03 0.  0.
        4    1    3    3  502    0  0.21655764960E+03 -0.21961795321E+02 -0.68025279388E+03  0.71423036377E+03  0.12699999809E+01 0.  1.
       -4    1    3    3    0  502 -0.21655764960E+03  0.21961795321E+02 -0.19569741942E+04  0.19690426978E+04  0.12699999809E+01 0. -1.
</event>
<event>
 5   0  0.1413361E-01  0.5004507E+03  0.7818609E-02  0.1013661E+00
       -1   -1    0    0    0  501  0.00000000000E+00  0.00000000000E+00  0.85052411619E+02  0.85052411768E+02  0.50400001928E-02 0.  1.
        1   -1    0    0  501    0  0.00000000000E+00  0.00000000000E+00 -0.73616641022E+03  0.73616641024E+03  0.50400001928E-02 0. -1.
    10030    2    1    2    0    0  0.00000000000E+00  0.00000000000E+00 -0.65111399860E+03  0.82121882200E+03  0.50045071130E+03 0.  0.
        3    1    3    3  502    0 -0.22850439011E+03 -0.20080968010E+02 -0.16150040420E+03  0.28053501089E+03  0.10100000352E+00 0.  1.
       -3    1    3    3    0  502  0.22850439011E+03  0.20080968010E+02 -0.48961359440E+03  0.54068381112E+03  0.10100000352E+00 0. -1.
</event>
<event>
 5   0  0.1453602E-01  0.4949333E+03  0.7818609E-02  0.1015110E+00
       -1   -1    0    0    0  501  0.00000000000E+00  0.00000000000E+00  0.26324051136E+03  0.26324051141E+03  0.50400001928E-02 0.  1.
        1   -1    0    0  501    0  0.00000000000E+00  0.00000000000E+00 -0.23263799784E+03  0.23263799789E+03  0.50400001928E-02 0. -1.
    10030    2    1    2    0    0  0.00000000000E+00  0.00000000000E+00  0.30602513519E+02  0.49587850930E+03  0.49493331081E+03 0.  0.
        2    1    3    3  502    0  0.12899107656E+03  0.16671207623E+03 -0.11459251241E+03  0.23992302537E+03  0.25500000920E-02 0. -1.
       -2    1    3    3    0  502 -0.12899107656E+03 -0.16671207623E+03  0.14519502593E+03  0.25595548393E+03  0.25500000920E-02 0.  1.
</event>
<event>
 5   0  0.2488968E-01  0.4992111E+03  0.7818609E-02  0.1013985E+00
        2   -1    0    0  501    0  0.00000000000E+00  0.00000000000E+00  0.13193229572E+04  0.13193229572E+04  0.25500000920E-02 0.  1.
       -2   -1    0    0    0  501  0.00000000000E+00  0.00000000000E+00 -0.47223409064E+02  0.47223409133E+02  0.25500000920E-02 0. -1.
    10030    2    1    2    0    0  0.00000000000E+00  0.00000000000E+00  0.12720995482E+04  0.13665463664E+04  0.49921108860E+03 0.  0.
        2    1    3    3  502    0 -0.56710170313E+02  0.12237843500E+03  0.61125479642E+02  0.14808392566E+03  0.25500000920E-02 0. -1.
       -2    1    3    3    0  502  0.56710170313E+02 -0.12237843500E+03  0.12109740685E+04  0.12184624407E+04  0.25500000920E-02 0.  1.
</event>
<event>
 5   0  0.2504064E-01  0.4966958E+03  0.7818609E-02  0.1014645E+00
        2   -1    0    0  501    0  0.00000000000E+00  0.00000000000E+00  0.21532695117E+03  0.21532695119E+03  0.25500000920E-02 0. -1.
       -2   -1    0    0    0  501  0.00000000000E+00  0.00000000000E+00 -0.28643273688E+03  0.28643273689E+03  0.25500000920E-02 0.  1.
    10030    2    1    2    0    0  0.00000000000E+00  0.00000000000E+00 -0.71105785707E+02  0.50175968808E+03  0.49669583431E+03 0.  0.
        5    1    3    3  502    0 -0.20654328197E+03 -0.41584397768E+02  0.97183851864E+02  0.23206934422E+03  0.46999998093E+01 0. -1.
       -5    1    3    3    0  502  0.20654328197E+03  0.41584397768E+02 -0.16828963757E+03  0.26969034387E+03  0.46999998093E+01 0.  1.
</event>
<event>
 5   0  0.1439814E-01  0.4885035E+03  0.7818609E-02  0.1016824E+00
       -1   -1    0    0    0  501  0.00000000000E+00  0.00000000000E+00  0.22279947013E+03  0.22279947018E+03  0.50400001928E-02 0.  1.
        1   -1    0    0  501    0  0.00000000000E+00  0.00000000000E+00 -0.26776953645E+03  0.26776953649E+03  0.50400001928E-02 0. -1.
    10030    2    1    2    0    0  0.00000000000E+00  0.00000000000E+00 -0.44970066318E+02  0.49056900668E+03  0.48850347332E+03 0.  0.
        4    1    3    3  502    0 -0.19383715786E+03  0.14005420157E+03 -0.72386942669E+02  0.24985897125E+03  0.12699999809E+01 0.  1.
       -4    1    3    3    0  502  0.19383715786E+03 -0.14005420157E+03  0.27416876351E+02  0.24071003543E+03  0.12699999809E+01 0. -1.
</event>
<event>
 5   0  0.2504064E-01  0.5011280E+03  0.7818609E-02  0.1013485E+00
       -2   -1    0    0    0  501  0.00000000000E+00  0.00000000000E+00  0.59902084073E+02  0.59902084127E+02  0.25500000920E-02 0. -1.
        2   -1    0    0  501    0  0.00000000000E+00  0.00000000000E+00 -0.10480822371E+04  0.10480822371E+04  0.25500000920E-02 0.  1.
    10030    2    1    2    0    0  0.00000000000E+00  0.00000000000E+00 -0.98818015306E+03  0.11079843213E+04  0.50112796895E+03 0.  0.
        5    1    3    3  502    0 -0.12214989421E+03 -0.21835363314E+03 -0.52217167009E+03  0.57903734664E+03  0.46999998093E+01 0. -1.
       -5    1    3    3    0  502  0.12214989421E+03  0.21835363314E+03 -0.46600848297E+03  0.52894697463E+03  0.46999998093E+01 0.  1.
</event>
<event>
 5   0  0.9868500E-02  0.4941341E+03  0.7818609E-02  0.1015321E+00
        3   -1    0    0  501    0  0.00000000000E+00  0.00000000000E+00  0.10991024798E+03  0.10991029438E+03  0.10100000352E+00 0. -1.
       -3   -1    0    0    0  501  0.00000000000E+00  0.00000000000E+00 -0.55538137575E+03  0.55538138493E+03  0.10100000352E+00 0.  1.
    10030    2    1    2    0    0  0.00000000000E+00  0.00000000000E+00 -0.44547112777E+03  0.66529167932E+03  0.49413408392E+03 0.  0.
        4    1    3    3  502    0  0.82700574690E+02 -0.21642512245E+03 -0.33825213590E+03  0.40999431584E+03  0.12699999809E+01 0.  1.
       -4    1    3    3    0  502 -0.82700574690E+02  0.21642512245E+03 -0.10721899188E+03  0.25529736348E+03  0.12699999809E+01 0. -1.
</event>
<event>
 5   0  0.1529146E-01  0.4680827E+03  0.7818609E-02  0.1022463E+00
        1   -1    0    0  501    0  0.00000000000E+00  0.00000000000E+00  0.51308325277E+03  0.51308325279E+03  0.50400001928E-02 0. -1.
       -1   -1    0    0    0  501  0.00000000000E+00  0.00000000000E+00 -0.10675724105E+03  0.10675724117E+03  0.50400001928E-02 0.  1.
    10030    2    1    2    0    0  0.00000000000E+00  0.00000000000E+00  0.40632601172E+03  0.61984049396E+03  0.46808269584E+03 0.  0.
        1    1    3    3  502    0 -0.12233740584E+03  0.18869073908E+03  0.28902989421E+03  0.36620884158E+03  0.50400001928E-02 0.  1.
       -1    1    3    3    0  502  0.12233740584E+03 -0.18869073908E+03  0.11729611751E+03  0.25363165238E+03  0.50400001928E-02 0. -1.
</event>
<event>
 5   0  0.2488968E-01  0.4987021E+03  0.7818609E-02  0.1014118E+00
       -2   -1    0    0    0  501  0.00000000000E+00  0.00000000000E+00  0.42223818263E+02  0.42223818340E+02  0.25500000920E-02 0. -1.
        2   -1    0    0  501    0  0.00000000000E+00  0.00000000000E+00 -0.14725322889E+04  0.14725322889E+04  0.25500000920E-02 0.  1.
    10030    2    1    2    0    0  0.00000000000E+00  0.00000000000E+00 -0.14303084706E+04  0.15147561072E+04  0.49870205859E+03 0.  0.
        2    1    3    3  502    0 -0.90570255734E+00  0.85176719697E+02 -0.14269689824E+04  0.14295091362E+04  0.25500000920E-02 0.  1.
       -2    1    3    3    0  502  0.90570255734E+00 -0.85176719697E+02 -0.33394882364E+01  0.85246970994E+02  0.25500000920E-02 0. -1.
</event>
<event>
 5   0  0.2466034E-01  0.4967644E+03  0.7818609E-02  0.1014627E+00
        2   -1    0    0  501    0  0.00000000000E+00  0.00000000000E+00  0.13620199406E+04  0.13620199406E+04  0.25500000920E-02 0. -1.
       -2   -1    0    0    0  501  0.00000000000E+00  0.00000000000E+00 -0.45295753146E+02  0.45295753218E+02  0.25500000920E-02 0.  1.
    10030    2    1    2    0    0  0.00000000000E+00  0.00000000000E+00  0.13167241874E+04  0.14073156938E+04  0.49676440718E+03 0.  0.
        3    1    3    3  502    0 -0.24883360477E+02 -0.19324798233E+03  0.22195923084E+03  0.29534704105E+03  0.10100000352E+00 0.  1.
       -3    1    3    3    0  502  0.24883360477E+02  0.19324798233E+03  0.10947649566E+04  0.11119686527E+04  0.10100000352E+00 0. -1.
</event>
<event>
 5   0  0.2511944E-01  0.5005101E+03  0.7818609E-02  0.1013646E+00
        2   -1    0    0  501    0  0.00000000000E+00  0.00000000000E+00  0.46508829082E+03  0.46508829083E+03  0.25500000920E-02 0.  1.
       -2   -1    0    0    0  501  0.00000000000E+00  0.00000000000E+00 -0.13465743076E+03  0.13465743078E+03  0.25500000920E-02 0. -1.
    10030    2    1    2    0    0  0.00000000000E+00  0.00000000000E+00  0.33043086006E+03  0.59974572161E+03  0.50051011709E+03 0.  0.
        1    1    3    3  502    0 -0.23700783725E+03 -0.76045121335E+02  0.13415231228E+03  0.28275858663E+03  0.50400001928E-02 0. -1.
       -1    1    3    3    0  502  0.23700783725E+03  0.76045121335E+02  0.19627854778E+03  0.31698713498E+03  0.50400001928E-02 0.  1.
</event>
<event>
 5   0  0.1439814E-01  0.6079407E+03  0.7818609E-02  0.9889067E-01
        1   -1    0    0  501    0  0.00000000000E+00  0.00000000000E+00  0.46039852925E+03  0.46039852928E+03  0.50400001928E-02 0.  1.
       -1   -1    0    0    0  501  0.00000000000E+00  0.00000000000E+00 -0.20069125906E+03  0.20069125912E+03  0.50400001928E-02 0. -1.
    10030    2    1    2    0    0  0.00000000000E+00  0.00000000000E+00  0.25970727019E+03  0.66108978841E+03  0.60794065676E+03 0.  0.
        4    1    3    3  502    0  0.23824542616E+02  0.20582808958E+02 -0.19891050676E+03  0.20139082267E+03  0.12699999809E+01 0. -1.
       -4    1    3    3    0  502 -0.23824542616E+02 -0.20582808958E+02  0.45861777696E+03  0.45969896573E+03  0.12699999809E+01 0.  1.
</event>
<event>
 5   0  0.2466034E-01  0.4949778E+03  0.7818609E-02  0.1015098E+00
        2   -1    0    0  501    0  0.00000000000E+00  0.00000000000E+00  0.37022874050E+03  0.37022874051E+03  0.25500000920E-02 0. -1.
       -2   -1    0    0    0  501  0.00000000000E+00  0.00000000000E+00 -0.16544032300E+03  0.16544032302E+03  0.25500000920E-02 0.  1.
    10030    2    1    2    0    0  0.00000000000E+00  0.00000000000E+00  0.20478841750E+03  0.53566906353E+03  0.49497782746E+03 0.  0.
        3    1    3    3  502    0  0.11889834876E+03 -0.21388399170E+03  0.62373380229E+02  0.25253440955E+03  0.10100000352E+00 0.  1.
       -3    1    3    3    0  502 -0.11889834876E+03  0.21388399170E+03  0.14241503727E+03  0.28313465398E+03  0.10100000352E+00 0. -1.
</event>
<event>
 5   0  0.1439814E-01  0.4964284E+03  0.7818609E-02  0.1014715E+00
       -1   -1    0    0    0  501  0.00000000000E+00  0.00000000000E+00  0.18391040978E+03  0.18391040985E+03  0.50400001928E-02 0. -1.
        1   -1    0    0  501    0  0.00000000000E+00  0.00000000000E+00 -0.33500168746E+03  0.33500168749E+03  0.50400001928E-02 0.  1.
    10030    2    1    2    0    0  0.00000000000E+00  0.00000000000E+00 -0.15109127767E+03  0.51891209735E+03  0.49642843450E+03 0.  0.
        4    1    3    3  502    0  0.22455627081E+03 -0.83158410755E+02 -0.14383317612E+03  0.27933928383E+03  0.12699999809E+01 0. -1.
       -4    1    3    3    0  502 -0.22455627081E+03  0.83158410755E+02 -0.72581015493E+01  0.23957281352E+03  0.12699999809E+01 0.  1.
</event>
<event>
 5   0  0.2504064E-01  0.4793758E+03  0.7818609E-02  0.1019307E+00
        2   -1    0    0  501    0  0.00000000000E+00  0.00000000000E+00  0.61627281947E+03  0.61627281948E+03  0.25500000920E-02 0.  1.
       -2   -1    0    0    0  501  0.00000000000E+00  0.00000000000E+00 -0.93222154119E+02  0.93222154154E+02  0.25500000920E-02 0. -1.
    10030    2    1    2    0    0  0.00000000000E+00  0.00000000000E+00  0.52305066535E+03  0.70949497363E+03  0.47937575980E+03 0.  0.
        5    1    3    3  502    0  0.79846398229E+02  0.22336011955E+03  0.31199878478E+03  0.39195729617E+03  0.46999998093E+01 0. -1.
       -5    1    3    3    0  502 -0.79846398229E+02 -0.22336011955E+03  0.21105188057E+03  0.31753767746E+03  0.46999998093E+01 0.  1.
</event>
<event>
 5   0  0.1439814E-01  0.4971851E+03  0.7818609E-02  0.1014516E+00
       -1   -1    0    0    0  501  0.00000000000E+00  0.00000000000E+00  0.79843289503E+02  0.79843289662E+02  0.50400001928E-02 0.  1.
        1   -1    0    0  501    0  0.00000000000E+00  0.00000000000E+00 -0.77399440287E+03  0.77399440288E+03  0.50400001928E-02 0. -1.
    10030    2    1    2    0    0  0.00000000000E+00  0.00000000000E+00 -0.69415111336E+03  0.85383769254E+03  0.49718511344E+03 0.  0.
        4    1    3    3  502    0 -0.96866143525E+02 -0.18776908131E+03 -0.57201721449E+03  0.60979142682E+03  0.12699999809E+01 0. -1.
       -4    1    3    3    0  502  0.96866143525E+02  0.18776908131E+03 -0.12213389888E+03  0.24404626572E+03  0.12699999809E+01 0.  1.
</event>
<event>
 5   0  0.1413361E-01  0.5004404E+03  0.7818609E-02  0.1013664E+00
       -1   -1    0    0    0  501  0.00000000000E+00  0.00000000000E+00  0.15190544818E+03  0.15190544826E+03  0.50400001928E-02 0.  1.
        1   -1    0    0  501    0  0.00000000000E+00  0.00000000000E+00 -0.41216527171E+03  0.41216527174E+03  0.50400001928E-02 0. -1.
    10030    2    1    2    0    0  0.00000000000E+00  0.00000000000E+00 -0.26025982353E+03  0.56407072000E+03  0.50044040746E+03 0.  0.
        3    1    3    3  502    0 -0.47787893925E+02 -0.23036334895E+03 -0.34095890566E+02  0.23772567236E+03  0.10100000352E+00 0.  1.
       -3    1    3    3    0  502  0.47787893925E+02  0.23036334895E+03 -0.22616393297E+03  0.32634504764E+03  0.10100000352E+00 0. -1.
</event>
<event>
 5   0  0.2511944E-01  0.5176418E+03  0.7818609E-02  0.1009274E+00
        2   -1    0    0  501    0  0.00000000000E+00  0.00000000000E+00  0.42593665654E+03  0.42593665655E+03  0.25500000920E-02 0.  1.
       -2   -1    0    0    0  501  0.00000000000E+00  0.00000000000E+00 -0.15727278993E+03  0.15727278995E+03  0.25500000920E-02 0. -1.
    10030    2    1    2    0    0  0.00000000000E+00  0.00000000000E+00  0.26866386661E+03  0.58320944649E+03  0.51764175378E+03 0.  0.
        1    1    3    3  502    0  0.13932371298E+03 -0.11193088805E+03 -0.76594372255E+02  0.19443846992E+03  0.50400001928E-02 0. -1.
       -1    1    3    3    0  502 -0.13932371298E+03  0.11193088805E+03  0.34525823887E+03  0.38877097658E+03  0.50400001928E-02 0.  1.
</event>
<event>
 5   0  0.2413301E-01  0.5146867E+03  0.7818609E-02  0.1010015E+00
        2   -1    0    0  501    0  0.00000000000E+00  0.00000000000E+00  0.24226424436E+03  0.24226424437E+03  0.25500000920E-02 0. -1.
       -2   -1    0    0    0  501  0.00000000000E+00  0.00000000000E+00 -0.27336097413E+03  0.27336097415E+03  0.25500000920E-02 0.  1.
    10030    2    1    2    0    0  0.00000000000E+00  0.00000000000E+00 -0.31096729778E+02  0.51562521851E+03  0.51468666134E+03 0.  0.
        4    1    3    3  502    0 -0.15775722946E+03 -0.13903583433E+03 -0.16416195898E+03  0.26677531436E+03  0.12699999809E+01 0.  1.
       -4    1    3    3    0  502  0.15775722946E+03  0.13903583433E+03  0.13306522921E+03  0.24884990416E+03  0.12699999809E+01 0. -1.
</event>
<event>
 5   0  0.2466034E-01  0.4934154E+03  0.7818609E-02  0.1015512E+00
       -2   -1    0    0    0  501  0.00000000000E+00  0.00000000000E+00  0.61822389526E+02  0.61822389578E+02  0.25500000920E-02 0. -1.
        2   -1    0    0  501    0  0.00000000000E+00  0.00000000000E+00 -0.98450894182E+03  0.98450894182E+03  0.25500000920E-02 0.  1.
    10030    2    1    2    0    0  0.00000000000E+00  0.00000000000E+00 -0.92268655230E+03  0.10463313314E+04  0.49341542466E+03 0.  0.
        3    1    3    3  502    0 -0.60728237169E+01  0.24258543451E+03 -0.55570622070E+03  0.60637775862E+03  0.10100000352E+00 0.  1.
       -3    1    3    3    0  502  0.60728237169E+01 -0.24258543451E+03 -0.36698033160E+03  0.43995357279E+03  0.10100000352E+00 0. -1.
</event>
<event>
 5   0  0.1453602E-01  0.5005771E+03  0.7818609E-02  0.1013628E+00
       -1   -1    0    0    0  501  0.00000000000E+00  0.00000000000E+00  0.14267824372E+04  0.14267824372E+04  0.50400001928E-02 0.  1.
        1   -1    0    0  501    0  0.00000000000E+00  0.00000000000E+00 -0.43906038789E+02  0.43906039078E+02  0.50400001928E-02 0. -1.
    10030    2    1    2    0    0  0.00000000000E+00  0.00000000000E+00  0.13828763984E+04  0.14706884763E+04  0.50057712792E+03 0.  0.
        2    1    3    3  502    0 -0.20779244520E+02  0.10446743679E+03  0.13568718232E+04  0.13610460561E+04  0.25500000920E-02 0.  1.
       -2    1    3    3    0  502  0.20779244520E+02 -0.10446743679E+03  0.26004575197E+02  0.10964242013E+03  0.25500000920E-02 0. -1.
</event>
<event>
 5   0  0.1453602E-01  0.4956380E+03  0.7818609E-02  0.1014924E+00
       -1   -1    0    0    0  501  0.00000000000E+00  0.00000000000E+00  0.68845001241E+02  0.68845001425E+02  0.50400001928E-02 0.  1.
        1   -1    0    0  501    0  0.00000000000E+00  0.00000000000E+00 -0.89206575830E+03  0.89206575832E+03  0.50400001928E-02 0. -1.
    10030    2    1    2    0    0  0.00000000000E+00  0.00000000000E+00 -0.82322075706E+03  0.96091075974E+03  0.49563804669E+03 0.  0.
        2    1    3    3  502    0  0.80388216746E+02 -0.21687009796E+02 -0.86413649795E+03  0.86813851365E+03  0.25500000920E-02 0. -1.
       -2    1    3    3    0  502 -0.80388216746E+02  0.21687009796E+02  0.40915740890E+02  0.92772246090E+02  0.25500000920E-02 0.  1.
</event>
<event>
 5   0  0.2504064E-01  0.4936998E+03  0.7818609E-02  0.1015437E+00
       -2   -1    0    0    0  501  0.00000000000E+00  0.00000000000E+00  0.10672928593E+03  0.10672928596E+03  0.25500000920E-02 0. -1.
        2   -1    0    0  501    0  0.00000000000E+00  0.00000000000E+00 -0.57092932434E+03  0.57092932434E+03  0.25500000920E-02 0.  1.
    10030    2    1    2    0    0  0.00000000000E+00  0.00000000000E+00 -0.46420003841E+03  0.67765861030E+03  0.49369982424E+03 0.  0.
        5    1    3    3  502    0  0.11634122005E+03  0.21645832539E+03 -0.26349965433E+03  0.36033823548E+03  0.46999998093E+01 0. -1.
       -5    1    3    3    0  502 -0.11634122005E+03 -0.21645832539E+03 -0.20070038408E+03  0.31732037483E+03  0.46999998093E+01 0.  1.
</event>
<event>
 5   0  0.1529146E-01  0.5024150E+03  0.7818609E-02  0.1013150E+00
       -1   -1    0    0    0  501  0.00000000000E+00  0.00000000000E+00  0.11106520620E+03  0.11106520631E+03  0.50400001928E-02 0. -1.
        1   -1    0    0  501    0  0.00000000000E+00  0.00000000000E+00 -0.56818156597E+03  0.56818156599E+03  0.50400001928E-02 0.  1.
    10030    2    1    2    0    0  0.00000000000E+00  0.00000000000E+00 -0.45711635977E+03  0.67924677230E+03  0.50241497918E+03 0.  0.
        1    1    3    3  502    0  0.47518384559E+02 -0.17616722054E+03 -0.46199150949E+03  0.49671827159E+03  0.50400001928E-02 0.  1.
       -1    1    3    3    0  502 -0.47518384559E+02  0.17616722054E+03  0.48751497173E+01  0.18252850071E+03  0.50400001928E-02 0. -1.
</event>
<event>
 5   0  0.2466034E-01  0.5014818E+03  0.7818609E-02  0.1013393E+00
        2   -1    0    0  501    0  0.00000000000E+00  0.00000000000E+00  0.23771660966E+03  0.23771660968E+03  0.25500000920E-02 0. -1.
       -2   -1    0    0    0  501  0.00000000000E+00  0.00000000000E+00 -0.26447883096E+03  0.26447883097E+03  0.25500000920E-02 0.  1.
    10030    2    1    2    0    0  0.00000000000E+00  0.00000000000E+00 -0.26762221298E+02  0.50219544065E+03  0.50148184824E+03 0.  0.
        3    1    3    3  502    0  0.11051398438E+02  0.21984545169E+03 -0.13362213272E+03  0.25750541857E+03  0.10100000352E+00 0.  1.
       -3    1    3    3    0  502 -0.11051398438E+02 -0.21984545169E+03  0.10685991142E+03  0.24469002208E+03  0.10100000352E+00 0. -1.
</event>
<event>
 5   0  0.9868500E-02  0.5019904E+03  0.7818609E-02  0.1013261E+00
       -4   -1    0    0    0  501  0.00000000000E+00  0.00000000000E+00  0.24284728832E+03  0.24285060911E+03  0.12699999809E+01 0.  1.
        4   -1    0    0  501    0  0.00000000000E+00  0.00000000000E+00 -0.25940982703E+03  0.25941293580E+03  0.12699999809E+01 0. -1.
    10030    2    1    2    0    0  0.00000000000E+00  0.00000000000E+00 -0.16562538712E+02  0.50226354491E+03  0.50199038921E+03 0.  0.
        3    1    3    3  502    0  0.22265310971E+03 -0.10569080565E+03 -0.55779449501E+02  0.25269806261E+03  0.10100000352E+00 0. -1.
       -3    1    3    3    0  502 -0.22265310971E+03  0.10569080565E+03  0.39216910789E+02  0.24956548230E+03  0.10100000352E+00 0.  1.
</event>
<event>
 5   0  0.1439814E-01  0.5048579E+03  0.7818609E-02  0.1012519E+00
       -1   -1    0    0    0  501  0.00000000000E+00  0.00000000000E+00  0.61544494738E+02  0.61544494944E+02  0.50400001928E-02 0. -1.
        1   -1    0    0  501    0  0.00000000000E+00  0.00000000000E+00 -0.10353547791E+04  0.10353547791E+04  0.50400001928E-02 0.  1.
    10030    2    1    2    0    0  0.00000000000E+00  0.00000000000E+00 -0.97381028432E+03  0.10968992740E+04  0.50485794783E+03 0.  0.
        4    1    3    3  502    0  0.57843346991E+02  0.10402772771E+03 -0.97054761595E+03  0.97781997762E+03  0.12699999809E+01 0.  1.
       -4    1    3    3    0  502 -0.57843346991E+02 -0.10402772771E+03 -0.32626683699E+01  0.11907929639E+03  0.12699999809E+01 0. -1.
</event>
<event>
 5   0  0.1448458E-01  0.5018100E+03  0.7818609E-02  0.1013308E+00
       -1   -1    0    0    0  501  0.00000000000E+00  0.00000000000E+00  0.35119769771E+03  0.35119769774E+03  0.50400001928E-02 0. -1.
        1   -1    0    0  501    0  0.00000000000E+00  0.00000000000E+00 -0.17925325223E+03  0.17925325230E+03  0.50400001928E-02 0.  1.
    10030    2    1    2    0    0  0.00000000000E+00  0.00000000000E+00  0.17194444548E+03  0.53045095004E+03  0.50181004182E+03 0.  0.
        5    1    3    3  502    0  0.15172565032E+03 -0.19895838016E+03  0.10506200336E+03  0.27141338314E+03  0.46999998093E+01 0. -1.
       -5    1    3    3    0  502 -0.15172565032E+03  0.19895838016E+03  0.66882442118E+02  0.25903756690E+03  0.46999998093E+01 0.  1.
</event>
<event>
 5   0  0.2413301E-01  0.4085437E+03  0.7818609E-02  0.1040861E+00
        2   -1    0    0  501    0  0.00000000000E+00  0.00000000000E+00  0.11717322296E+03  0.11717322299E+03  0.25500000920E-02 0.  1.
       -2   -1    0    0    0  501  0.00000000000E+00  0.00000000000E+00 -0.35611368646E+03  0.35611368647E+03  0.25500000920E-02 0. -1.
    10030    2    1    2    0    0  0.00000000000E+00  0.00000000000E+00 -0.23894046351E+03  0.47328690946E+03  0.40854369848E+03 0.  0.
        4    1    3    3  502    0  0.18392140222E+03 -0.27562610916E+02 -0.21734987365E+03  0.28605831607E+03  0.12699999809E+01 0. -1.
       -4    1    3    3    0  502 -0.18392140222E+03  0.27562610916E+02 -0.21590589855E+02  0.18722859339E+03  0.12699999809E+01 0.  1.
</event>
<event>
 5   0  0.1448458E-01  0.4970394E+03  0.7818609E-02  0.1014555E+00
       -1   -1    0    0    0  501  0.00000000000E+00  0.00000000000E+00  0.73050748755E+02  0.73050748929E+02  0.50400001928E-02 0. -1.
        1   -1    0    0  501    0  0.00000000000E+00  0.00000000000E+00 -0.84546750023E+03  0.84546750024E+03  0.50400001928E-02 0.  1.
    10030    2    1    2    0    0  0.00000000000E+00  0.00000000000E+00 -0.77241675147E+03  0.91851824917E+03  0.49703937078E+03 0.  0.
        5    1    3    3  502    0 -0.24591563446E+03  0.81111915054E+01 -0.32220175772E+03  0.40543353755E+03  0.46999998093E+01 0. -1.
       -5    1    3    3    0  502  0.24591563446E+03 -0.81111915054E+01 -0.45021499375E+03  0.51308471162E+03  0.46999998093E+01 0.  1.
</event>
<event>
 5   0  0.2488968E-01  0.5056599E+03  0.7818609E-02  0.1012312E+00
       -2   -1    0    0    0  501  0.00000000000E+00  0.00000000000E+00  0.83773628205E+02  0.83773628244E+02  0.25500000920E-02 0. -1.
        2   -1    0    0  501    0  0.00000000000E+00  0.00000000000E+00 -0.76304418621E+03  0.76304418621E+03  0.25500000920E-02 0.  1.
    10030    2    1    2    0    0  0.00000000000E+00  0.00000000000E+00 -0.67927055800E+03  0.84681781446E+03  0.50565988561E+03 0.  0.
        2    1    3    3  502    0 -0.69348772544E+02 -0.24112908446E+03 -0.39180608429E+03  0.46525745058E+03  0.25500000920E-02 0.  1.
       -2    1    3    3    0  502  0.69348772544E+02  0.24112908446E+03 -0.28746447371E+03  0.38156036388E+03  0.25500000920E-02 0. -1.
</event>
<event>
 5   0  0.1453602E-01  0.4921076E+03  0.7818609E-02  0.1015860E+00
        1   -1    0    0  501    0  0.00000000000E+00  0.00000000000E+00  0.28719589129E+03  0.28719589133E+03  0.50400001928E-02 0. -1.
       -1   -1    0    0    0  501  0.00000000000E+00  0.00000000000E+00 -0.21080547065E+03  0.21080547071E+03  0.50400001928E-02 0.  1.
    10030    2    1    2    0    0  0.00000000000E+00  0.00000000000E+00  0.76390420637E+02  0.49800136204E+03  0.49210756978E+03 0.  0.
        2    1    3    3  502    0  0.94332230293E+02 -0.21558921065E+03 -0.34534781073E+02  0.23784433677E+03  0.25500000920E-02 0.  1.
       -2    1    3    3    0  502 -0.94332230293E+02  0.21558921065E+03  0.11092520171E+03  0.26015702528E+03  0.25500000920E-02 0. -1.
</event>
<event>
 5   0  0.1439814E-01  0.5072802E+03  0.7818609E-02  0.1011896E+00
       -1   -1    0    0    0  501  0.00000000000E+00  0.00000000000E+00  0.18498318871E+03  0.18498318877E+03  0.50400001928E-02 0.  1.
        1   -1    0    0  501    0  0.00000000000E+00  0.00000000000E+00 -0.34777922349E+03  0.34777922353E+03  0.50400001928E-02 0. -1.
    10030    2    1    2    0    0  0.00000000000E+00  0.00000000000E+00 -0.16279603479E+03  0.53276241231E+03  0.50728023717E+03 0.  0.
        4    1    3    3  502    0  0.28467688622E+01  0.13827636868E+03 -0.30468860117E+03  0.33461203627E+03  0.12699999809E+01 0. -1.
       -4    1    3    3    0  502 -0.28467688622E+01 -0.13827636868E+03  0.14189256638E+03  0.19815037604E+03  0.12699999809E+01 0.  1.
</event>
<event>
 5   0  0.2488968E-01  0.4947530E+03  0.7818609E-02  0.1015158E+00
       -2   -1    0    0    0  501  0.00000000000E+00  0.00000000000E+00  0.27370174404E+03  0.27370174405E+03  0.25500000920E-02 0.  1.
        2   -1    0    0  501    0  0.00000000000E+00  0.00000000000E+00 -0.22358324945E+03  0.22358324946E+03  0.25500000920E-02 0. -1.
    10030    2    1    2    0    0  0.00000000000E+00  0.00000000000E+00  0.50118494594E+02  0.49728499351E+03  0.49475296995E+03 0.  0.
        2    1    3    3  502    0 -0.19931267143E+03  0.43384926438E+02 -0.11561175810E+03  0.23446507513E+03  0.25500000920E-02 0. -1.
       -2    1    3    3    0  502  0.19931267143E+03 -0.43384926438E+02  0.16573025270E+03  0.26281991839E+03  0.25500000920E-02 0.  1.
</event>
<event>
 5   0  0.2511944E-01  0.5492627E+03  0.7818609E-02  0.1001665E+00
        2   -1    0    0  501    0  0.00000000000E+00  0.00000000000E+00  0.18657771446E+03  0.18657771447E+03  0.25500000920E-02 0. -1.
       -2   -1    0    0    0  501  0.00000000000E+00  0.00000000000E+00 -0.40424111005E+03  0.40424111005E+03  0.25500000920E-02 0.  1.
    10030    2    1    2    0    0  0.00000000000E+00  0.00000000000E+00 -0.21766339559E+03  0.59081882453E+03  0.54926271459E+03 0.  0.
        1    1    3    3  502    0  0.99220886893E+02 -0.10131462391E+02  0.16640845980E+03  0.19400826386E+03  0.50400001928E-02 0. -1.
       -1    1    3    3    0  502 -0.99220886893E+02  0.10131462391E+02 -0.38407185539E+03  0.39681056067E+03  0.50400001928E-02 0.  1.
</event>
<event>
 5   0  0.9868500E-02  0.4513902E+03  0.7818609E-02  0.1027308E+00
       -3   -1    0    0    0  501  0.00000000000E+00  0.00000000000E+00  0.13366959629E+04  0.13366959667E+04  0.10100000352E+00 0. -1.
        3   -1    0    0  501    0  0.00000000000E+00  0.00000000000E+00 -0.38107539544E+02  0.38107673388E+02  0.10100000352E+00 0.  1.
    10030    2    1    2    0    0  0.00000000000E+00  0.00000000000E+00  0.12985884234E+04  0.13748036401E+04  0.45139024753E+03 0.  0.
        1    1    3    3  502    0 -0.62366331508E+02  0.37449857751E+02 -0.14210541591E+01  0.72760364016E+02  0.50400001928E-02 0.  1.
       -1    1    3    3    0  502  0.62366331508E+02 -0.37449857751E+02  0.13000094775E+04  0.13020432761E+04  0.50400001928E-02 0. -1.
</event>
<event>
 5   0  0.1453602E-01  0.4994114E+03  0.7818609E-02  0.1013933E+00
       -1   -1    0    0    0  501  0.00000000000E+00  0.00000000000E+00  0.25180996719E+03  0.25180996724E+03  0.50400001928E-02 0.  1.
        1   -1    0    0  501    0  0.00000000000E+00  0.00000000000E+00 -0.24761898838E+03  0.24761898843E+03  0.50400001928E-02 0. -1.
    10030    2    1    2    0    0  0.00000000000E+00  0.00000000000E+00  0.41909788072E+01  0.49942895568E+03  0.49941137098E+03 0.  0.
        2    1    3    3  502    0 -0.15417649581E+03  0.10849054482E+03 -0.16165501407E+03  0.24834035869E+03  0.25500000920E-02 0. -1.
       -2    1    3    3    0  502  0.15417649581E+03 -0.10849054482E+03  0.16584599287E+03  0.25108859698E+03  0.25500000920E-02 0.  1.
</event>
<event>
 5   0  0.1529146E-01  0.5118004E+03  0.7818609E-02  0.1010744E+00
        1   -1    0    0  501    0  0.00000000000E+00  0.00000000000E+00  0.52988491186E+03  0.52988491189E+03  0.50400001928E-02 0.  1.
       -1   -1    0    0    0  501  0.00000000000E+00  0.00000000000E+00 -0.12358329154E+03  0.12358329164E+03  0.50400001928E-02 0. -1.
    10030    2    1    2    0    0  0.00000000000E+00  0.00000000000E+00  0.40630162033E+03  0.65346820353E+03  0.51180043605E+03 0.  0.
        1    1    3    3  502    0 -0.23723200460E+02 -0.13048402256E+03 -0.76279596976E+02  0.15299492581E+03  0.50400001928E-02 0. -1.
       -1    1    3    3    0  502  0.23723200460E+02  0.13048402256E+03  0.48258121730E+03  0.50047327771E+03  0.50400001928E-02 0.  1.
</event>
<event>
 5   0  0.1439814E-01  0.5000912E+03  0.7818609E-02  0.1013755E+00
        1   -1    0    0  501    0  0.00000000000E+00  0.00000000000E+00  0.36667466479E+03  0.36667466483E+03  0.50400001928E-02 0.  1.
       -1   -1    0    0    0  501  0.00000000000E+00  0.00000000000E+00 -0.17051302577E+03  0.17051302585E+03  0.50400001928E-02 0. -1.
    10030    2    1    2    0    0  0.00000000000E+00  0.00000000000E+00  0.19616163902E+03  0.53718769067E+03  0.50009121807E+03 0.  0.
        4    1    3    3  502    0 -0.90232864006E+02 -0.15347761407E+03 -0.90509865077E+02  0.19972730495E+03  0.12699999809E+01 0. -1.
       -4    1    3    3    0  502  0.90232864006E+02  0.15347761407E+03  0.28667150410E+03  0.33746038572E+03  0.12699999809E+01 0.  1.
</event>
<event>
 5   0  0.2413301E-01  0.4952206E+03  0.7818609E-02  0.1015034E+00
       -2   -1    0    0    0  501  0.00000000000E+00  0.00000000000E+00  0.40653828830E+02  0.40653828910E+02  0.25500000920E-02 0.  1.
        2   -1    0    0  501    0  0.00000000000E+00  0.00000000000E+00 -0.15081203975E+04  0.15081203975E+04  0.25500000920E-02 0. -1.
    10030    2    1    2    0    0  0.00000000000E+00  0.00000000000E+00 -0.14674665687E+04  0.15487742264E+04  0.49522063188E+03 0.  0.
        4    1    3    3  502    0 -0.15641901570E+02  0.37300743206E+02 -0.14977083709E+04  0.14982549822E+04  0.12699999809E+01 0. -1.
       -4    1    3    3    0  502  0.15641901570E+02 -0.37300743206E+02  0.30241802261E+02  0.50519244179E+02  0.12699999809E+01 0.  1.
</event>
<event>
 5   0  0.1413361E-01  0.4999482E+03  0.7818609E-02  0.1013792E+00
       -1   -1    0    0    0  501  0.00000000000E+00  0.00000000000E+00  0.10913997392E+03  0.10913997404E+03  0.50400001928E-02 0.  1.
        1   -1    0    0  501    0  0.00000000000E+00  0.00000000000E+00 -0.57254047310E+03  0.57254047313E+03  0.50400001928E-02 0. -1.
    10030    2    1    2    0    0  0.00000000000E+00  0.00000000000E+00 -0.46340049918E+03  0.68168044716E+03  0.49994820672E+03 0.  0.
        3    1    3    3  502    0  0.12398303235E+03  0.20042924070E+03 -0.11808386772E+03  0.26360478534E+03  0.10100000352E+00 0.  1.
       -3    1    3    3    0  502 -0.12398303235E+03 -0.20042924070E+03 -0.34531663146E+03  0.41807566182E+03  0.10100000352E+00 0. -1.
</event>
<event>
 5   0  0.1529146E-01  0.4805065E+03  0.7818609E-02  0.1018996E+00
        1   -1    0    0  501    0  0.00000000000E+00  0.00000000000E+00  0.75074777637E+02  0.75074777806E+02  0.50400001928E-02 0.  1.
       -1   -1    0    0    0  501  0.00000000000E+00  0.00000000000E+00 -0.76885511808E+03  0.76885511809E+03  0.50400001928E-02 0. -1.
    10030    2    1    2    0    0  0.00000000000E+00  0.00000000000E+00 -0.69378034044E+03  0.84392989590E+03  0.48050651235E+03 0.  0.
        1    1    3    3  502    0 -0.17897948640E+03  0.51148979943E+02 -0.61366655612E+03  0.64127725426E+03  0.50400001928E-02 0. -1.
       -1    1    3    3    0  502  0.17897948640E+03 -0.51148979943E+02 -0.80113784316E+02  0.20265264164E+03  0.50400001928E-02 0.  1.
</event>
<event>
 5   0  0.1529146E-01  0.5445872E+03  0.7818609E-02  0.1002755E+00
        1   -1    0    0  501    0  0.00000000000E+00  0.00000000000E+00  0.70824724522E+03  0.70824724523E+03  0.50400001928E-02 0.  1.
       -1   -1    0    0    0  501  0.00000000000E+00  0.00000000000E+00 -0.10468634589E+03  0.10468634601E+03  0.50400001928E-02 0. -1.
    10030    2    1    2    0    0  0.00000000000E+00  0.00000000000E+00  0.60356089932E+03  0.81293359125E+03  0.54458724240E+03 0.  0.
        1    1    3    3  502    0  0.24330021128E+03 -0.69769830336E+02  0.15190196754E+03  0.29518981995E+03  0.50400001928E-02 0.  1.
       -1    1    3    3    0  502 -0.24330021128E+03  0.69769830336E+02  0.45165893179E+03  0.51774377130E+03  0.50400001928E-02 0. -1.
</event>
<event>
 5   0  0.2413301E-01  0.4994569E+03  0.7818609E-02  0.1013921E+00
        2   -1    0    0  501    0  0.00000000000E+00  0.00000000000E+00  0.77653455210E+03  0.77653455211E+03  0.25500000920E-02 0. -1.
       -2   -1    0    0    0  501  0.00000000000E+00  0.00000000000E+00 -0.80311053851E+02  0.80311053892E+02  0.25500000920E-02 0.  1.
    10030    2    1    2    0    0  0.00000000000E+00  0.00000000000E+00  0.69622349825E+03  0.85684560600E+03  0.49945693808E+03 0.  0.
        4    1    3    3  502    0 -0.27789721528E+02  0.61047845085E+02  0.76078583790E+03  0.76373805199E+03  0.12699999809E+01 0. -1.
       -4    1    3    3    0  502  0.27789721528E+02 -0.61047845085E+02 -0.64562339649E+02  0.93107554006E+02  0.12699999809E+01 0.  1.
</event>
<event>
 5   0  0.2466034E-01  0.5031709E+03  0.7818609E-02  0.1012955E+00
       -2   -1    0    0    0  501  0.00000000000E+00  0.00000000000E+00  0.24453608053E+03  0.24453608054E+03  0.25500000920E-02 0. -1.
        2   -1    0    0  501    0  0.00000000000E+00  0.00000000000E+00 -0.25883805576E+03  0.25883805577E+03  0.25500000920E-02 0.  1.
    10030    2    1    2    0    0  0.00000000000E+00  0.00000000000E+00 -0.14301975231E+02  0.50337413631E+03  0.50317091987E+03 0.  0.
        3    1    3    3  502    0  0.18148315713E+03 -0.77461499684E+02 -0.16328712319E+03  0.25612324193E+03  0.10100000352E+00 0.  1.
       -3    1    3    3    0  502 -0.18148315713E+03  0.77461499684E+02  0.14898514796E+03  0.24725089438E+03  0.10100000352E+00 0. -1.
</event>
<event>
 5   0  0.9868500E-02  0.5121776E+03  0.7818609E-02  0.1010648E+00
        3   -1    0    0  501    0  0.00000000000E+00  0.00000000000E+00  0.47143388895E+03  0.47143389977E+03  0.10100000352E+00 0. -1.
       -3   -1    0    0    0  501  0.00000000000E+00  0.00000000000E+00 -0.13911060254E+03  0.13911063921E+03  0.10100000352E+00 0.  1.
    10030    2    1    2    0    0  0.00000000000E+00  0.00000000000E+00  0.33232328641E+03  0.61054453898E+03  0.51217757408E+03 0.  0.
        4    1    3    3  502    0 -0.12718720610E+03 -0.13073349223E+03 -0.48116988245E+02  0.18863904380E+03  0.12699999809E+01 0.  1.
       -4    1    3    3    0  502  0.12718720610E+03  0.13073349223E+03  0.38044027466E+03  0.42190549519E+03  0.12699999809E+01 0. -1.
</event>
<event>
 5   0  0.2504064E-01  0.5129855E+03  0.7818609E-02  0.1010444E+00
       -2   -1    0    0    0  501  0.00000000000E+00  0.00000000000E+00  0.90610068733E+02  0.90610068769E+02  0.25500000920E-02 0. -1.
        2   -1    0    0  501    0  0.00000000000E+00  0.00000000000E+00 -0.72606214349E+03  0.72606214349E+03  0.25500000920E-02 0.  1.
    10030    2    1    2    0    0  0.00000000000E+00  0.00000000000E+00 -0.63545207475E+03  0.81667221226E+03  0.51298553875E+03 0.  0.
        5    1    3    3  502    0 -0.19741759841E+03  0.15866771891E+03 -0.38174927343E+03  0.45815254114E+03  0.46999998093E+01 0. -1.
       -5    1    3    3    0  502  0.19741759841E+03 -0.15866771891E+03 -0.25370280132E+03  0.35851967112E+03  0.46999998093E+01 0.  1.
</event>
<event>
 5   0  0.2466034E-01  0.5143241E+03  0.7818609E-02  0.1010106E+00
       -2   -1    0    0    0  501  0.00000000000E+00  0.00000000000E+00  0.15890183395E+03  0.15890183397E+03  0.25500000920E-02 0.  1.
        2   -1    0    0  501    0  0.00000000000E+00  0.00000000000E+00 -0.41618341159E+03  0.41618341159E+03  0.25500000920E-02 0. -1.
    10030    2    1    2    0    0  0.00000000000E+00  0.00000000000E+00 -0.25728157763E+03  0.57508524557E+03  0.51432405104E+03 0.  0.
        3    1    3    3  502    0  0.25090177781E+03  0.18672508897E+02 -0.69138066078E+02  0.26092230084E+03  0.10100000352E+00 0.  1.
       -3    1    3    3    0  502 -0.25090177781E+03 -0.18672508897E+02 -0.18814351155E+03  0.31416294472E+03  0.10100000352E+00 0. -1.
</event>
<event>
 5   0  0.1413361E-01  0.4149038E+03  0.7818609E-02  0.1038738E+00
        1   -1    0    0  501    0  0.00000000000E+00  0.00000000000E+00  0.56924230801E+03  0.56924230803E+03  0.50400001928E-02 0.  1.
       -1   -1    0    0    0  501  0.00000000000E+00  0.00000000000E+00 -0.75602768291E+02  0.75602768459E+02  0.50400001928E-02 0. -1.
    10030    2    1    2    0    0  0.00000000000E+00  0.00000000000E+00  0.49363953972E+03  0.64484507649E+03  0.41490381717E+03 0.  0.
        3    1    3    3  502    0  0.91614759128E+01  0.10731784974E+03 -0.28740298331E+02  0.11147676199E+03  0.10100000352E+00 0. -1.
       -3    1    3    3    0  502 -0.91614759128E+01 -0.10731784974E+03  0.52237983805E+03  0.53336831450E+03  0.10100000352E+00 0.  1.
</event>
<event>
 5   0  0.2504064E-01  0.4986473E+03  0.7818609E-02  0.1014133E+00
       -2   -1    0    0    0  501  0.00000000000E+00  0.00000000000E+00  0.67349796221E+02  0.67349796269E+02  0.25500000920E-02 0. -1.
        2   -1    0    0  501    0  0.00000000000E+00  0.00000000000E+00 -0.92297672391E+03  0.92297672391E+03  0.25500000920E-02 0.  1.
    10030    2    1    2    0    0  0.00000000000E+00  0.00000000000E+00 -0.85562692769E+03  0.99032652018E+03  0.49864734752E+03 0.  0.
        5    1    3    3  502    0 -0.29426214664E+02  0.20577003428E+03 -0.15454182692E+03  0.25906075616E+03  0.46999998093E+01 0. -1.
       -5    1    3    3    0  502  0.29426214664E+02 -0.20577003428E+03 -0.70108510077E+03  0.73126576402E+03  0.46999998093E+01 0.  1.
</event>
<event>
 5   0  0.2488968E-01  0.4675016E+03  0.7818609E-02  0.1022628E+00
        2   -1    0    0  501    0  0.00000000000E+00  0.00000000000E+00  0.44806371889E+03  0.44806371889E+03  0.25500000920E-02 0. -1.
       -2   -1    0    0    0  501  0.00000000000E+00  0.00000000000E+00 -0.12194567730E+03  0.12194567732E+03  0.25500000920E-02 0.  1.
    10030    2    1    2    0    0  0.00000000000E+00  0.00000000000E+00  0.32611804159E+03  0.57000939622E+03  0.46750158794E+03 0.  0.
        2    1    3    3  502    0 -0.52785674613E+02 -0.32509837266E+02  0.43785767919E+03  0.44222456308E+03  0.25500000920E-02 0. -1.
       -2    1    3    3    0  502  0.52785674613E+02  0.32509837266E+02 -0.11173963760E+03  0.12778483314E+03  0.25500000920E-02 0.  1.
</event>
<event>
 5   0  0.2504064E-01  0.4785974E+03  0.7818609E-02  0.1019521E+00
       -2   -1    0    0    0  501  0.00000000000E+00  0.00000000000E+00  0.42026130557E+03  0.42026130558E+03  0.25500000920E-02 0.  1.
        2   -1    0    0  501    0  0.00000000000E+00  0.00000000000E+00 -0.13625775179E+03  0.13625775182E+03  0.25500000920E-02 0. -1.
    10030    2    1    2    0    0  0.00000000000E+00  0.00000000000E+00  0.28400355378E+03  0.55651905740E+03  0.47859737012E+03 0.  0.
        5    1    3    3  502    0 -0.14828892849E+03  0.18203613567E+03  0.88524915302E+02  0.25096914478E+03  0.46999998093E+01 0. -1.
       -5    1    3    3    0  502  0.14828892849E+03 -0.18203613567E+03  0.19547863848E+03  0.30554991262E+03  0.46999998093E+01 0.  1.
</event>
<event>
 5   0  0.1439814E-01  0.4714149E+03  0.7818609E-02  0.1021522E+00
       -1   -1    0    0    0  501  0.00000000000E+00  0.00000000000E+00  0.45176493028E+03  0.45176493030E+03  0.50400001928E-02 0. -1.
        1   -1    0    0  501    0  0.00000000000E+00  0.00000000000E+00 -0.12297987376E+03  0.12297987386E+03  0.50400001928E-02 0.  1.
    10030    2    1    2    0    0  0.00000000000E+00  0.00000000000E+00  0.32878505652E+03  0.57474480417E+03  0.47141486668E+03 0.  0.
        4    1    3    3  502    0 -0.15945840873E+03 -0.16570507220E+03  0.22740508616E+03  0.32341898704E+03  0.12699999809E+01 0. -1.
       -4    1    3    3    0  502  0.15945840873E+03  0.16570507220E+03  0.10137997036E+03  0.25132581713E+03  0.12699999809E+01 0.  1.
</event>
<event>
 5   0  0.9868500E-02  0.5093972E+03  0.7818609E-02  0.1011355E+00
       -3   -1    0    0    0  501  0.00000000000E+00  0.00000000000E+00  0.60192614357E+03  0.60192615204E+03  0.10100000352E+00 0.  1.
        3   -1    0    0  501    0  0.00000000000E+00  0.00000000000E+00 -0.10777295682E+03  0.10777300415E+03  0.10100000352E+00 0. -1.
    10030    2    1    2    0    0  0.00000000000E+00  0.00000000000E+00  0.49415318674E+03  0.70969915619E+03  0.50939721271E+03 0.  0.
        4    1    3    3  502    0  0.57213158026E+02 -0.17374272702E+03  0.49399354597E+03  0.52677425621E+03  0.12699999809E+01 0.  1.
       -4    1    3    3    0  502 -0.57213158026E+02  0.17374272702E+03  0.15964077186E+00  0.18292489997E+03  0.12699999809E+01 0. -1.
</event>
<event>
 5   0  0.2488968E-01  0.4966097E+03  0.7818609E-02  0.1014668E+00
        2   -1    0    0  501    0  0.00000000000E+00  0.00000000000E+00  0.88103179253E+03  0.88103179254E+03  0.25500000920E-02 0.  1.
       -2   -1    0    0    0  501  0.00000000000E+00  0.00000000000E+00 -0.69980792601E+02  0.69980792648E+02  0.25500000920E-02 0. -1.
    10030    2    1    2    0    0  0.00000000000E+00  0.00000000000E+00  0.81105099993E+03  0.95101258518E+03  0.49660971868E+03 0.  0.
        2    1    3    3  502    0 -0.18586934873E+02  0.23717752786E+03  0.26934890620E+03  0.35937096036E+03  0.25500000920E-02 0. -1.
       -2    1    3    3    0  502  0.18586934873E+02 -0.23717752786E+03  0.54170209373E+03  0.59164162483E+03  0.25500000920E-02 0.  1.
</event>
<event>
 5   0  0.1448458E-01  0.4981226E+03  0.7818609E-02  0.1014270E+00
       -1   -1    0    0    0  501  0.00000000000E+00  0.00000000000E+00  0.51645383549E+02  0.51645383795E+02  0.50400001928E-02 0. -1.
        1   -1    0    0  501    0  0.00000000000E+00  0.00000000000E+00 -0.12011048401E+04  0.12011048401E+04  0.50400001928E-02 0.  1.
    10030    2    1    2    0    0  0.00000000000E+00  0.00000000000E+00 -0.11494594565E+04  0.12527502239E+04  0.49812255644E+03 0.  0.
        5    1    3    3  502    0  0.11757819426E+03 -0.24963859197E+02 -0.26255117866E+02  0.12312289488E+03  0.46999998093E+01 0. -1.
       -5    1    3    3    0  502 -0.11757819426E+03  0.24963859197E+02 -0.11232043387E+04  0.11296273290E+04  0.46999998093E+01 0.  1.
</event>
<event>
 5   0  0.1413361E-01  0.5187198E+03  0.7818609E-02  0.1009005E+00
        1   -1    0    0  501    0  0.00000000000E+00  0.00000000000E+00  0.20084654694E+03  0.20084654700E+03  0.50400001928E-02 0. -1.
       -1   -1    0    0    0  501  0.00000000000E+00  0.00000000000E+00 -0.33492012223E+03  0.33492012227E+03  0.50400001928E-02 0.  1.
    10030    2    1    2    0    0  0.00000000000E+00  0.00000000000E+00 -0.13407357529E+03  0.53576666927E+03  0.51871977050E+03 0.  0.
        3    1    3    3  502    0  0.22923989806E+03  0.28861110128E+02  0.54664352398E+02  0.23742808630E+03  0.10100000352E+00 0. -1.
       -3    1    3    3    0  502 -0.22923989806E+03 -0.28861110128E+02 -0.18873792769E+03  0.29833858297E+03  0.10100000352E+00 0.  1.
</event>
<event>
 5   0  0.2413301E-01  0.5057773E+03  0.7818609E-02  0.1012282E+00
       -2   -1    0    0    0  501  0.00000000000E+00  0.00000000000E+00  0.23234066312E+03  0.23234066314E+03  0.25500000920E-02 0. -1.
        2   -1    0    0  501    0  0.00000000000E+00  0.00000000000E+00 -0.27525390196E+03  0.27525390197E+03  0.25500000920E-02 0.  1.
    10030    2    1    2    0    0  0.00000000000E+00  0.00000000000E+00 -0.42913238835E+02  0.50759456511E+03  0.50577731905E+03 0.  0.
        4    1    3    3  502    0 -0.84462942519E+02  0.55548822211E+01 -0.26061140613E+03  0.27401599092E+03  0.12699999809E+01 0.  1.
       -4    1    3    3    0  502  0.84462942519E+02 -0.55548822211E+01  0.21769816730E+03  0.23357857419E+03  0.12699999809E+01 0. -1.
</event>
<event>
 5   0  0.1413361E-01  0.4930306E+03  0.7818609E-02  0.1015614E+00
       -1   -1    0    0    0  501  0.00000000000E+00  0.00000000000E+00  0.44661936621E+02  0.44661936906E+02  0.50400001928E-02 0.  1.
        1   -1    0    0  501    0  0.00000000000E+00  0.00000000000E+00 -0.13606617544E+04  0.13606617544E+04  0.50400001928E-02 0. -1.
    10030    2    1    2    0    0  0.00000000000E+00  0.00000000000E+00 -0.13159998177E+04  0.14053236913E+04  0.49303058421E+03 0.  0.
        3    1    3    3  502    0 -0.61658021425E+02  0.17564629286E+03 -0.11186376901E+04  0.11340209979E+04  0.10100000352E+00 0. -1.
       -3    1    3    3    0  502  0.61658021425E+02 -0.17564629286E+03 -0.19736212768E+03  0.27130269340E+03  0.10100000352E+00 0.  1.
</event>
<event>
 5   0  0.1439814E-01  0.5200502E+03  0.7818609E-02  0.1008674E+00
        1   -1    0    0  501    0  0.00000000000E+00  0.00000000000E+00  0.77764640848E+02  0.77764641011E+02  0.50400001928E-02 0.  1.
       -1   -1    0    0    0  501  0.00000000000E+00  0.00000000000E+00 -0.86945747745E+03  0.86945747747E+03  0.50400001928E-02 0. -1.
    10030    2    1    2    0    0  0.00000000000E+00  0.00000000000E+00 -0.79169283661E+03  0.94722211848E+03  0.52005018431E+03 0.  0.
        4    1    3    3  502    0 -0.81870318240E+02 -0.15671731124E+02 -0.84445628048E+03  0.84856135589E+03  0.12699999809E+01 0. -1.
       -4    1    3    3    0  502  0.81870318240E+02  0.15671731124E+02  0.52763443875E+02  0.98660762589E+02  0.12699999809E+01 0.  1.
</event>
<event>
 5   0  0.1413361E-01  0.5030057E+03  0.7818609E-02  0.1012997E+00
       -1   -1    0    0    0  501  0.00000000000E+00  0.00000000000E+00  0.19137358373E+03  0.19137358380E+03  0.50400001928E-02 0. -1.
        1   -1    0    0  501    0  0.00000000000E+00  0.00000000000E+00 -0.33052466236E+03  0.33052466240E+03  0.50400001928E-02 0.  1.
    10030    2    1    2    0    0  0.00000000000E+00  0.00000000000E+00 -0.13915107863E+03  0.52189824619E+03  0.50300572233E+03 0.  0.
        3    1    3    3  502    0  0.16046754683E+03 -0.60448380951E+02 -0.26046907108E+03  0.31184609591E+03  0.10100000352E+00 0.  1.
       -3    1    3    3    0  502 -0.16046754683E+03  0.60448380951E+02  0.12131799245E+03  0.21005215028E+03  0.10100000352E+00 0. -1.
</event>
<event>
 5   0  0.2504064E-01  0.5119935E+03  0.7818609E-02  0.1010695E+00
       -2   -1    0    0    0  501  0.00000000000E+00  0.00000000000E+00  0.57883361651E+02  0.57883361708E+02  0.25500000920E-02 0.  1.
        2   -1    0    0  501    0  0.00000000000E+00  0.00000000000E+00 -0.11321792711E+04  0.11321792711E+04  0.25500000920E-02 0. -1.
    10030    2    1    2    0    0  0.00000000000E+00  0.00000000000E+00 -0.10742959094E+04  0.11900626328E+04  0.51199352432E+03 0.  0.
        5    1    3    3  502    0 -0.13264429937E+03 -0.44858775390E+01 -0.10458486290E+04  0.10542466874E+04  0.46999998093E+01 0. -1.
       -5    1    3    3    0  502  0.13264429937E+03  0.44858775390E+01 -0.28447280480E+02  0.13581594538E+03  0.46999998093E+01 0.  1.
</event>
<event>
 5   0  0.1439814E-01  0.4191776E+03  0.7818609E-02  0.1037334E+00
        1   -1    0    0  501    0  0.00000000000E+00  0.00000000000E+00  0.27623210465E+03  0.27623210469E+03  0.50400001928E-02 0.  1.
       -1   -1    0    0    0  501  0.00000000000E+00  0.00000000000E+00 -0.15902374986E+03  0.15902374994E+03  0.50400001928E-02 0. -1.
    10030    2    1    2    0    0  0.00000000000E+00  0.00000000000E+00  0.11720835478E+03  0.43525585464E+03  0.41917760027E+03 0.  0.
        4    1    3    3  502    0 -0.85148450423E+02  0.10313013712E+02  0.25716999776E+03  0.27109894413E+03  0.12699999809E+01 0.  1.
       -4    1    3    3    0  502  0.85148450423E+02 -0.10313013712E+02 -0.13996164298E+03  0.16415691051E+03  0.12699999809E+01 0. -1.
</event>
<event>
 5   0  0.1448458E-01  0.5021691E+03  0.7818609E-02  0.1013214E+00
       -1   -1    0    0    0  501  0.00000000000E+00  0.00000000000E+00  0.16327410982E+03  0.16327410990E+03  0.50400001928E-02 0.  1.
        1   -1    0    0  501    0  0.00000000000E+00  0.00000000000E+00 -0.38612024319E+03  0.38612024323E+03  0.50400001928E-02 0. -1.
    10030    2    1    2    0    0  0.00000000000E+00  0.00000000000E+00 -0.22284613337E+03  0.54939435313E+03  0.50216905131E+03 0.  0.
        5    1    3    3  502    0  0.62316019186E+02  0.14000575739E+03  0.10611390925E+03  0.18645951326E+03  0.46999998093E+01 0.  1.
       -5    1    3    3    0  502 -0.62316019186E+02 -0.14000575739E+03 -0.32896004263E+03  0.36293483987E+03  0.46999998093E+01 0. -1.
</event>
<event>
 5   0  0.2504064E-01  0.4978677E+03  0.7818609E-02  0.1014337E+00
        2   -1    0    0  501    0  0.00000000000E+00  0.00000000000E+00  0.18072091779E+03  0.18072091781E+03  0.25500000920E-02 0. -1.
       -2   -1    0    0    0  501  0.00000000000E+00  0.00000000000E+00 -0.34289367009E+03  0.34289367010E+03  0.25500000920E-02 0.  1.
    10030    2    1    2    0    0  0.00000000000E+00  0.00000000000E+00 -0.16217275230E+03  0.52361458791E+03  0.49786768833E+03 0.  0.
        5    1    3    3  502    0 -0.28677367546E+02 -0.15285812435E+03 -0.28544930651E+03  0.32510212884E+03  0.46999998093E+01 0.  1.
       -5    1    3    3    0  502  0.28677367546E+02  0.15285812435E+03  0.12327655421E+03  0.19851245907E+03  0.46999998093E+01 0. -1.
</event>
<event>
 5   0  0.1448458E-01  0.4986069E+03  0.7818609E-02  0.1014143E+00
        1   -1    0    0  501    0  0.00000000000E+00  0.00000000000E+00  0.25604867360E+03  0.25604867365E+03  0.50400001928E-02 0. -1.
       -1   -1    0    0    0  501  0.00000000000E+00  0.00000000000E+00 -0.24273590242E+03  0.24273590247E+03  0.50400001928E-02 0.  1.
    10030    2    1    2    0    0  0.00000000000E+00  0.00000000000E+00  0.13312771186E+02  0.49878457612E+03  0.49860688272E+03 0.  0.
        5    1    3    3  502    0 -0.21091566260E+03 -0.83483402119E+02 -0.96701395625E+02  0.24663362519E+03  0.46999998093E+01 0.  1.
       -5    1    3    3    0  502  0.21091566260E+03  0.83483402119E+02  0.11001416681E+03  0.25215095093E+03  0.46999998093E+01 0. -1.
</event>
<event>
 5   0  0.2413301E-01  0.4998585E+03  0.7818609E-02  0.1013816E+00
        2   -1    0    0  501    0  0.00000000000E+00  0.00000000000E+00  0.47258453020E+03  0.47258453021E+03  0.25500000920E-02 0. -1.
       -2   -1    0    0    0  501  0.00000000000E+00  0.00000000000E+00 -0.13217663020E+03  0.13217663023E+03  0.25500000920E-02 0.  1.
    10030    2    1    2    0    0  0.00000000000E+00  0.00000000000E+00  0.34040790000E+03  0.60476116044E+03  0.49985850277E+03 0.  0.
        4    1    3    3  502    0  0.87028578060E+02 -0.92950498899E+01 -0.11302495501E+03  0.14295672320E+03  0.12699999809E+01 0.  1.
       -4    1    3    3    0  502 -0.87028578060E+02  0.92950498899E+01  0.45343285501E+03  0.46180443724E+03  0.12699999809E+01 0. -1.
</event>
<event>
 5   0  0.1453602E-01  0.5015552E+03  0.7818609E-02  0.1013374E+00
       -1   -1    0    0    0  501  0.00000000000E+00  0.00000000000E+00  0.34979085308E+03  0.34979085312E+03  0.50400001928E-02 0. -1.
        1   -1    0    0  501    0  0.00000000000E+00  0.00000000000E+00 -0.17979146322E+03  0.17979146329E+03  0.50400001928E-02 0.  1.
    10030    2    1    2    0    0  0.00000000000E+00  0.00000000000E+00  0.16999938987E+03  0.52958231641E+03  0.50155521859E+03 0.  0.
        2    1    3    3  502    0 -0.21392277945E+03  0.35193782654E+02  0.21809027139E+03  0.30751410437E+03  0.25500000920E-02 0. -1.
       -2    1    3    3    0  502  0.21392277945E+03 -0.35193782654E+02 -0.48090881528E+02  0.22206821204E+03  0.25500000920E-02 0.  1.
</event>
<event>
 5   0  0.1453602E-01  0.4890291E+03  0.7818609E-02  0.1016683E+00
        1   -1    0    0  501    0  0.00000000000E+00  0.00000000000E+00  0.37109585025E+03  0.37109585029E+03  0.50400001928E-02 0. -1.
       -1   -1    0    0    0  501  0.00000000000E+00  0.00000000000E+00 -0.16111031153E+03  0.16111031161E+03  0.50400001928E-02 0.  1.
    10030    2    1    2    0    0  0.00000000000E+00  0.00000000000E+00  0.20998553872E+03  0.53220616190E+03  0.48902911191E+03 0.  0.
        2    1    3    3  502    0  0.14161958814E+03 -0.13723867153E+03 -0.52327671446E+02  0.20403123759E+03  0.25500000920E-02 0.  1.
       -2    1    3    3    0  502 -0.14161958814E+03  0.13723867153E+03  0.26231321016E+03  0.32817492430E+03  0.25500000920E-02 0. -1.
</event>
<event>
 5   0  0.1529146E-01  0.4988931E+03  0.7818609E-02  0.1014068E+00
       -1   -1    0    0    0  501  0.00000000000E+00  0.00000000000E+00  0.19115591947E+03  0.19115591954E+03  0.50400001928E-02 0. -1.
        1   -1    0    0  501    0  0.00000000000E+00  0.00000000000E+00 -0.32551217887E+03  0.32551217891E+03  0.50400001928E-02 0.  1.
    10030    2    1    2    0    0  0.00000000000E+00  0.00000000000E+00 -0.13435625940E+03  0.51666809844E+03  0.49889309427E+03 0.  0.
        1    1    3    3  502    0 -0.15228111423E+03  0.37888540419E+02  0.13363375746E+03  0.20611419264E+03  0.50400001928E-02 0. -1.
       -1    1    3    3    0  502  0.15228111423E+03 -0.37888540419E+02 -0.26799001686E+03  0.31055390581E+03  0.50400001928E-02 0.  1.
</event>
<event>
 5   0  0.2466034E-01  0.4993252E+03  0.7818609E-02  0.1013955E+00
        2   -1    0    0  501    0  0.00000000000E+00  0.00000000000E+00  0.23172626953E+03  0.23172626955E+03  0.25500000920E-02 0. -1.
       -2   -1    0    0    0  501  0.00000000000E+00  0.00000000000E+00 -0.26898725704E+03  0.26898725705E+03  0.25500000920E-02 0.  1.
    10030    2    1    2    0    0  0.00000000000E+00  0.00000000000E+00 -0.37260987505E+02  0.50071352660E+03  0.49932519917E+03 0.  0.
        3    1    3    3  502    0  0.29669215036E+02  0.77340625228E+02 -0.25480511898E+03  0.26793188219E+03  0.10100000352E+00 0.  1.
       -3    1    3    3    0  502 -0.29669215036E+02 -0.77340625228E+02  0.21754413148E+03  0.23278164441E+03  0.10100000352E+00 0. -1.
</event>
<event>
 5   0  0.1453602E-01  0.5008463E+03  0.7818609E-02  0.1013558E+00
       -1   -1    0    0    0  501  0.00000000000E+00  0.00000000000E+00  0.11264738609E+03  0.11264738620E+03  0.50400001928E-02 0. -1.
        1   -1    0    0  501    0  0.00000000000E+00  0.00000000000E+00 -0.55670853466E+03  0.55670853468E+03  0.50400001928E-02 0.  1.
    10030    2    1    2    0    0  0.00000000000E+00  0.00000000000E+00 -0.44406114857E+03  0.66935592088E+03  0.50084632887E+03 0.  0.
        2    1    3    3  502    0 -0.51765402118E+01 -0.13839787433E+03  0.56807389121E+02  0.14969251035E+03  0.25500000920E-02 0. -1.
       -2    1    3    3    0  502  0.51765402118E+01  0.13839787433E+03 -0.50086853770E+03  0.51966341053E+03  0.25500000920E-02 0.  1.
</event>
<event>
 5   0  0.9868500E-02  0.5020510E+03  0.7818609E-02  0.1013245E+00
        3   -1    0    0  501    0  0.00000000000E+00  0.00000000000E+00  0.10947529440E+04  0.10947529487E+04  0.10100000352E+00 0.  1.
       -3   -1    0    0    0  501  0.00000000000E+00  0.00000000000E+00 -0.57559799632E+02  0.57559888245E+02  0.10100000352E+00 0. -1.
    10030    2    1    2    0    0  0.00000000000E+00  0.00000000000E+00  0.10371931444E+04  0.11523128369E+04  0.50205104858E+03 0.  0.
        2    1    3    3  502    0 -0.21432681866E+03  0.65377463167E+02  0.77830667313E+03  0.80992065990E+03  0.25500000920E-02 0.  1.
       -2    1    3    3    0  502  0.21432681866E+03 -0.65377463167E+02  0.25888647128E+03  0.34239217705E+03  0.25500000920E-02 0. -1.
</event>
<event>
 5   0  0.1453602E-01  0.5168310E+03  0.7818609E-02  0.1009477E+00
       -1   -1    0    0    0  501  0.00000000000E+00  0.00000000000E+00  0.57548755658E+02  0.57548755878E+02  0.50400001928E-02 0. -1.
        1   -1    0    0  501    0  0.00000000000E+00  0.00000000000E+00 -0.11603825567E+04  0.11603825567E+04  0.50400001928E-02 0.  1.
    10030    2    1    2    0    0  0.00000000000E+00  0.00000000000E+00 -0.11028338010E+04  0.12179313125E+04  0.51683100667E+03 0.  0.
        2    1    3    3  502    0  0.13977495445E+02  0.24843516696E+03 -0.71575336973E+03  0.75777192403E+03  0.25500000920E-02 0.  1.
       -2    1    3    3    0  502 -0.13977495445E+02 -0.24843516696E+03 -0.38708043127E+03  0.46015938852E+03  0.25500000920E-02 0. -1.
</event>
<event>
 5   0  0.2504064E-01  0.5051679E+03  0.7818609E-02  0.1012439E+00
        2   -1    0    0  501    0  0.00000000000E+00  0.00000000000E+00  0.69433846817E+03  0.69433846817E+03  0.25500000920E-02 0.  1.
       -2   -1    0    0    0  501  0.00000000000E+00  0.00000000000E+00 -0.91884079247E+02  0.91884079283E+02  0.25500000920E-02 0. -1.
    10030    2    1    2    0    0  0.00000000000E+00  0.00000000000E+00  0.60245438892E+03  0.78622254745E+03  0.50516789625E+03 0.  0.
        5    1    3    3  502    0 -0.12060498578E+03  0.22185745498E+03  0.29624005954E+03  0.38928980952E+03  0.46999998093E+01 0. -1.
       -5    1    3    3    0  502  0.12060498578E+03 -0.22185745498E+03  0.30621432938E+03  0.39693273793E+03  0.46999998093E+01 0.  1.
</event>
<event>
 5   0  0.2413301E-01  0.5005903E+03  0.7818609E-02  0.1013625E+00
       -2   -1    0    0    0  501  0.00000000000E+00  0.00000000000E+00  0.13260336078E+03  0.13260336081E+03  0.25500000920E-02 0.  1.
        2   -1    0    0  501    0  0.00000000000E+00  0.00000000000E+00 -0.47244398522E+03  0.47244398522E+03  0.25500000920E-02 0. -1.
    10030    2    1    2    0    0  0.00000000000E+00  0.00000000000E+00 -0.33984062443E+03  0.60504734603E+03  0.50059029248E+03 0.  0.
        4    1    3    3  502    0 -0.12033843633E+03 -0.10173054342E+03 -0.40496068165E+03  0.43454022749E+03  0.12699999809E+01 0. -1.
       -4    1    3    3    0  502  0.12033843633E+03  0.10173054342E+03  0.65120057218E+02  0.17050711854E+03  0.12699999809E+01 0.  1.
</event>
<event>
 5   0  0.1453602E-01  0.4822857E+03  0.7818609E-02  0.1018509E+00
        1   -1    0    0  501    0  0.00000000000E+00  0.00000000000E+00  0.46996959185E+03  0.46996959188E+03  0.50400001928E-02 0.  1.
       -1   -1    0    0    0  501  0.00000000000E+00  0.00000000000E+00 -0.12373111887E+03  0.12373111897E+03  0.50400001928E-02 0. -1.
    10030    2    1    2    0    0  0.00000000000E+00  0.00000000000E+00  0.34623847299E+03  0.59370071085E+03  0.48228565590E+03 0.  0.
        2    1    3    3  502    0 -0.19033958366E+02  0.27927835388E+02 -0.12080109754E+03  0.12543986900E+03  0.25500000920E-02 0. -1.
       -2    1    3    3    0  502  0.19033958366E+02 -0.27927835388E+02  0.46703957053E+03  0.46826084185E+03  0.25500000920E-02 0.  1.
</event>
<event>
 5   0  0.1529146E-01  0.4898446E+03  0.7818609E-02  0.1016464E+00
        1   -1    0    0  501    0  0.00000000000E+00  0.00000000000E+00  0.24233291921E+03  0.24233291926E+03  0.50400001928E-02 0. -1.
       -1   -1    0    0    0  501  0.00000000000E+00  0.00000000000E+00 -0.24753930156E+03  0.24753930161E+03  0.50400001928E-02 0.  1.
    10030    2    1    2    0    0  0.00000000000E+00  0.00000000000E+00 -0.52063823517E+01  0.48987222087E+03  0.48984455326E+03 0.  0.
        1    1    3    3  502    0  0.41280101095E+02 -0.22489552297E+03 -0.90385586740E+02  0.24586906539E+03  0.50400001928E-02 0. -1.
       -1    1    3    3    0  502 -0.41280101095E+02  0.22489552297E+03  0.85179204388E+02  0.24400315548E+03  0.50400001928E-02 0.  1.
</event>
<event>
 5   0  0.1413361E-01  0.5275816E+03  0.7818609E-02  0.1006820E+00
        1   -1    0    0  501    0  0.00000000000E+00  0.00000000000E+00  0.43041128139E+03  0.43041128141E+03  0.50400001928E-02 0.  1.
       -1   -1    0    0    0  501  0.00000000000E+00  0.00000000000E+00 -0.16167229447E+03  0.16167229455E+03  0.50400001928E-02 0. -1.
    10030    2    1    2    0    0  0.00000000000E+00  0.00000000000E+00  0.26873898692E+03  0.59208357596E+03  0.52758157458E+03 0.  0.
        3    1    3    3  502    0 -0.74134193858E+02 -0.16401994444E+02  0.41788319850E+03  0.42472494854E+03  0.10100000352E+00 0.  1.
       -3    1    3    3    0  502  0.74134193858E+02  0.16401994444E+02 -0.14914421159E+03  0.16735862742E+03  0.10100000352E+00 0. -1.
</event>
<event>
 5   0  0.2488968E-01  0.5030772E+03  0.7818609E-02  0.1012979E+00
        2   -1    0    0  501    0  0.00000000000E+00  0.00000000000E+00  0.34890206108E+03  0.34890206109E+03  0.25500000920E-02 0.  1.
       -2   -1    0    0    0  501  0.00000000000E+00  0.00000000000E+00 -0.18134503442E+03  0.18134503444E+03  0.25500000920E-02 0. -1.
    10030    2    1    2    0    0  0.00000000000E+00  0.00000000000E+00  0.16755702665E+03  0.53024709553E+03  0.50307715625E+03 0.  0.
        2    1    3    3  502    0 -0.93486543666E+02 -0.48458416243E+02  0.32455338131E+03  0.34120792675E+03  0.25500000920E-02 0.  1.
       -2    1    3    3    0  502  0.93486543666E+02  0.48458416243E+02 -0.15699635466E+03  0.18903916878E+03  0.25500000920E-02 0. -1.
</event>
<event>
 5   0  0.1529146E-01  0.4967010E+03  0.7818609E-02  0.1014644E+00
       -1   -1    0    0    0  501  0.00000000000E+00  0.00000000000E+00  0.24109642137E+03  0.24109642142E+03  0.50400001928E-02 0. -1.
        1   -1    0    0  501    0  0.00000000000E+00  0.00000000000E+00 -0.25582285476E+03  0.25582285481E+03  0.50400001928E-02 0.  1.
    10030    2    1    2    0    0  0.00000000000E+00  0.00000000000E+00 -0.14726433391E+02  0.49691927622E+03  0.49670101595E+03 0.  0.
        1    1    3    3  502    0 -0.14094615369E+03  0.73993459947E+02 -0.19806997051E+03  0.25411132128E+03  0.50400001928E-02 0.  1.
       -1    1    3    3    0  502  0.14094615369E+03 -0.73993459947E+02  0.18334353712E+03  0.24280795495E+03  0.50400001928E-02 0. -1.
</event>
<event>
 5   0  0.2504064E-01  0.4067700E+03  0.7818609E-02  0.1041460E+00
        2   -1    0    0  501    0  0.00000000000E+00  0.00000000000E+00  0.72070530899E+03  0.72070530900E+03  0.25500000920E-02 0.  1.
       -2   -1    0    0    0  501  0.00000000000E+00  0.00000000000E+00 -0.57395809035E+02  0.57395809092E+02  0.25500000920E-02 0. -1.
    10030    2    1    2    0    0  0.00000000000E+00  0.00000000000E+00  0.66330949996E+03  0.77810111809E+03  0.40677002992E+03 0.  0.
        5    1    3    3  502    0 -0.49701390805E+02 -0.12813472096E+02  0.70800555486E+03  0.70987912283E+03  0.46999998093E+01 0.  1.
       -5    1    3    3    0  502  0.49701390805E+02  0.12813472096E+02 -0.44696054904E+02  0.68221995260E+02  0.46999998093E+01 0. -1.
</event>
<event>
 5   0  0.1529146E-01  0.5031630E+03  0.7818609E-02  0.1012957E+00
       -1   -1    0    0    0  501  0.00000000000E+00  0.00000000000E+00  0.57842292363E+03  0.57842292365E+03  0.50400001928E-02 0.  1.
        1   -1    0    0  501    0  0.00000000000E+00  0.00000000000E+00 -0.10942383901E+03  0.10942383913E+03  0.50400001928E-02 0. -1.
    10030    2    1    2    0    0  0.00000000000E+00  0.00000000000E+00  0.46899908462E+03  0.68784676278E+03  0.50316302298E+03 0.  0.
        1    1    3    3  502    0 -0.10652222935E+03 -0.87655880005E+02  0.52210824333E+03  0.54002551461E+03  0.50400001928E-02 0.  1.
       -1    1    3    3    0  502  0.10652222935E+03  0.87655880005E+02 -0.53109158716E+02  0.14782124817E+03  0.50400001928E-02 0. -1.
</event>
<event>
 5   0  0.2488968E-01  0.4955019E+03  0.7818609E-02  0.1014960E+00
       -2   -1    0    0    0  501  0.00000000000E+00  0.00000000000E+00  0.61871776251E+02  0.61871776304E+02  0.25500000920E-02 0. -1.
        2   -1    0    0  501    0  0.00000000000E+00  0.00000000000E+00 -0.99206019598E+03  0.99206019599E+03  0.25500000920E-02 0.  1.
    10030    2    1    2    0    0  0.00000000000E+00  0.00000000000E+00 -0.93018841973E+03  0.10539319723E+04  0.49550187286E+03 0.  0.
        2    1    3    3  502    0 -0.41548111382E+02 -0.11739409739E+03 -0.95343929791E+01  0.12489405237E+03  0.25500000920E-02 0. -1.
       -2    1    3    3    0  502  0.41548111382E+02  0.11739409739E+03 -0.92065402675E+03  0.92903791992E+03  0.25500000920E-02 0.  1.
</event>
<event>
 5   0  0.1448458E-01  0.5032634E+03  0.7818609E-02  0.1012931E+00
       -1   -1    0    0    0  501  0.00000000000E+00  0.00000000000E+00  0.19614709597E+03  0.19614709603E+03  0.50400001928E-02 0.  1.
        1   -1    0    0  501    0  0.00000000000E+00  0.00000000000E+00 -0.32281135113E+03  0.32281135117E+03  0.50400001928E-02 0. -1.
    10030    2    1    2    0    0  0.00000000000E+00  0.00000000000E+00 -0.12666425517E+03  0.51895844721E+03  0.50326338670E+03 0.  0.
        5    1    3    3  502    0  0.19239784785E+03 -0.16190629757E+03 -0.71699242324E+02  0.26152141862E+03  0.46999998093E+01 0.  1.
       -5    1    3    3    0  502 -0.19239784785E+03  0.16190629757E+03 -0.54965012842E+02  0.25743702858E+03  0.46999998093E+01 0. -1.
</event>
<event>
 5   0  0.2504064E-01  0.4990271E+03  0.7818609E-02  0.1014033E+00
       -2   -1    0    0    0  501  0.00000000000E+00  0.00000000000E+00  0.81867396512E+02  0.81867396552E+02  0.25500000920E-02 0. -1.
        2   -1    0    0  501    0  0.00000000000E+00  0.00000000000E+00 -0.76046150523E+03  0.76046150524E+03  0.25500000920E-02 0.  1.
    10030    2    1    2    0    0  0.00000000000E+00  0.00000000000E+00 -0.67859410872E+03  0.84232890179E+03  0.49902706780E+03 0.  0.
        5    1    3    3  502    0  0.22163382650E+03  0.20700656094E+02 -0.52940494991E+03  0.57431851894E+03  0.46999998093E+01 0.  1.
       -5    1    3    3    0  502 -0.22163382650E+03 -0.20700656094E+02 -0.14918915881E+03  0.26801038285E+03  0.46999998093E+01 0. -1.
</event>
<event>
 5   0  0.1529146E-01  0.6442973E+03  0.7818609E-02  0.9817539E-01
       -1   -1    0    0    0  501  0.00000000000E+00  0.00000000000E+00  0.19816714833E+03  0.19816714840E+03  0.50400001928E-02 0. -1.
        1   -1    0    0  501    0  0.00000000000E+00  0.00000000000E+00 -0.52369800129E+03  0.52369800132E+03  0.50400001928E-02 0.  1.
    10030    2    1    2    0    0  0.00000000000E+00  0.00000000000E+00 -0.32553085296E+03  0.72186514971E+03  0.64429725914E+03 0.  0.
        1    1    3    3  502    0  0.55198569400E+02 -0.63922128084E+02  0.18554267312E+03  0.20386025629E+03  0.50400001928E-02 0. -1.
       -1    1    3    3    0  502 -0.55198569400E+02  0.63922128084E+02 -0.51107352608E+03  0.51800489342E+03  0.50400001928E-02 0.  1.
</event>
<event>
 5   0  0.1453602E-01  0.4709325E+03  0.7818609E-02  0.1021657E+00
       -1   -1    0    0    0  501  0.00000000000E+00  0.00000000000E+00  0.16841746708E+03  0.16841746716E+03  0.50400001928E-02 0. -1.
        1   -1    0    0  501    0  0.00000000000E+00  0.00000000000E+00 -0.32920781677E+03  0.32920781681E+03  0.50400001928E-02 0.  1.
    10030    2    1    2    0    0  0.00000000000E+00  0.00000000000E+00 -0.16079034969E+03  0.49762528397E+03  0.47093246511E+03 0.  0.
        2    1    3    3  502    0  0.65253656586E+02  0.19393233958E+03  0.42727656327E+02  0.20902976978E+03  0.25500000920E-02 0. -1.
       -2    1    3    3    0  502 -0.65253656586E+02 -0.19393233958E+03 -0.20351800602E+03  0.28859551419E+03  0.25500000920E-02 0.  1.
</event>
<event>
 5   0  0.2466034E-01  0.5140428E+03  0.7818609E-02  0.1010177E+00
       -2   -1    0    0    0  501  0.00000000000E+00  0.00000000000E+00  0.20941951703E+03  0.20941951705E+03  0.25500000920E-02 0. -1.
        2   -1    0    0  501    0  0.00000000000E+00  0.00000000000E+00 -0.31544340885E+03  0.31544340886E+03  0.25500000920E-02 0.  1.
    10030    2    1    2    0    0  0.00000000000E+00  0.00000000000E+00 -0.10602389182E+03  0.52486292591E+03  0.51404282444E+03 0.  0.
        3    1    3    3  502    0  0.12882725387E+03 -0.35180730705E+02  0.17121435166E+03  0.21713707552E+03  0.10100000352E+00 0. -1.
       -3    1    3    3    0  502 -0.12882725387E+03  0.35180730705E+02 -0.27723824348E+03  0.30772585039E+03  0.10100000352E+00 0.  1.
</event>
<event>
 5   0  0.1413361E-01  0.5010572E+03  0.7818609E-02  0.1013503E+00
       -1   -1    0    0    0  501  0.00000000000E+00  0.00000000000E+00  0.10979374568E+04  0.10979374568E+04  0.50400001928E-02 0. -1.
        1   -1    0    0  501    0  0.00000000000E+00  0.00000000000E+00 -0.57165892675E+02  0.57165892897E+02  0.50400001928E-02 0.  1.
    10030    2    1    2    0    0  0.00000000000E+00  0.00000000000E+00  0.10407715641E+04  0.11551033497E+04  0.50105718219E+03 0.  0.
        3    1    3    3  502    0 -0.52697488046E+02  0.13074893239E+03  0.99783039468E+03  0.10077389619E+04  0.10100000352E+00 0. -1.
       -3    1    3    3    0  502  0.52697488046E+02 -0.13074893239E+03  0.42941169466E+02  0.14736438784E+03  0.10100000352E+00 0.  1.
</event>
<event>
 5   0  0.9868500E-02  0.4433841E+03  0.7818609E-02  0.1029714E+00
        3   -1    0    0  501    0  0.00000000000E+00  0.00000000000E+00  0.46081313572E+03  0.46081314679E+03  0.10100000352E+00 0. -1.
       -3   -1    0    0    0  501  0.00000000000E+00  0.00000000000E+00 -0.10665352931E+03  0.10665357713E+03  0.10100000352E+00 0.  1.
    10030    2    1    2    0    0  0.00000000000E+00  0.00000000000E+00  0.35415960641E+03  0.56746672392E+03  0.44338409528E+03 0.  0.
        3    1    3    3  502    0 -0.67417017277E+02  0.43341220305E+02 -0.87462676497E+02  0.11863071094E+03  0.10100000352E+00 0.  1.
       -3    1    3    3    0  502  0.67417017277E+02 -0.43341220305E+02  0.44162228290E+03  0.44883601299E+03  0.10100000352E+00 0. -1.
</event>
<event>
 5   0  0.2511944E-01  0.4915395E+03  0.7818609E-02  0.1016011E+00
       -2   -1    0    0    0  501  0.00000000000E+00  0.00000000000E+00  0.90551823480E+02  0.90551823516E+02  0.25500000920E-02 0. -1.
        2   -1    0    0  501    0  0.00000000000E+00  0.00000000000E+00 -0.66705181239E+03  0.66705181240E+03  0.25500000920E-02 0.  1.
    10030    2    1    2    0    0  0.00000000000E+00  0.00000000000E+00 -0.57649998891E+03  0.75760363591E+03  0.49153945104E+03 0.  0.
        1    1    3    3  502    0 -0.46154130766E+02  0.23885050414E+03 -0.34215080209E+03  0.41981774440E+03  0.50400001928E-02 0. -1.
       -1    1    3    3    0  502  0.46154130766E+02 -0.23885050414E+03 -0.23434918682E+03  0.33778589151E+03  0.50400001928E-02 0.  1.
</event>
<event>
 5   0  0.1529146E-01  0.4966338E+03  0.7818609E-02  0.1014661E+00
       -1   -1    0    0    0  501  0.00000000000E+00  0.00000000000E+00  0.83410598179E+02  0.83410598331E+02  0.50400001928E-02 0.  1.
        1   -1    0    0  501    0  0.00000000000E+00  0.00000000000E+00 -0.73924984741E+03  0.73924984743E+03  0.50400001928E-02 0. -1.
    10030    2    1    2    0    0  0.00000000000E+00  0.00000000000E+00 -0.65583924923E+03  0.82266044576E+03  0.49663375659E+03 0.  0.
        1    1    3    3  502    0 -0.17431619509E+03 -0.79665227432E+02 -0.66382576160E+02  0.20282832834E+03  0.50400001928E-02 0.  1.
       -1    1    3    3    0  502  0.17431619509E+03  0.79665227432E+02 -0.58945667307E+03  0.61983211742E+03  0.50400001928E-02 0. -1.
</event>
<event>
 5   0  0.2488968E-01  0.5005716E+03  0.7818609E-02  0.1013630E+00
       -2   -1    0    0    0  501  0.00000000000E+00  0.00000000000E+00  0.58153984968E+02  0.58153985024E+02  0.25500000920E-02 0. -1.
        2   -1    0    0  501    0  0.00000000000E+00  0.00000000000E+00 -0.10771916315E+04  0.10771916315E+04  0.25500000920E-02 0.  1.
    10030    2    1    2    0    0  0.00000000000E+00  0.00000000000E+00 -0.10190376465E+04  0.11353456165E+04  0.50057161718E+03 0.  0.
        2    1    3    3  502    0  0.17109048208E+03  0.59896717509E+01 -0.95411303214E+02  0.19598761699E+03  0.25500000920E-02 0. -1.
       -2    1    3    3    0  502 -0.17109048208E+03 -0.59896717509E+01 -0.92362634334E+03  0.93935799956E+03  0.25500000920E-02 0.  1.
</event>
<event>
 5   0  0.1413361E-01  0.5444114E+03  0.7818609E-02  0.1002796E+00
        1   -1    0    0  501    0  0.00000000000E+00  0.00000000000E+00  0.81857700349E+02  0.81857700504E+02  0.50400001928E-02 0.  1.
       -1   -1    0    0    0  501  0.00000000000E+00  0.00000000000E+00 -0.90517982960E+03  0.90517982962E+03  0.50400001928E-02 0. -1.
    10030    2    1    2    0    0  0.00000000000E+00  0.00000000000E+00 -0.82332212925E+03  0.98703753012E+03  0.54441138613E+03 0.  0.
        3    1    3    3  502    0 -0.26003141989E+03 -0.68605110253E+01 -0.26625010285E+03  0.37222645447E+03  0.10100000352E+00 0.  1.
       -3    1    3    3    0  502  0.26003141989E+03  0.68605110253E+01 -0.55707202640E+03  0.61481107565E+03  0.10100000352E+00 0. -1.
</event>
<event>
 5   0  0.2413301E-01  0.5015967E+03  0.7818609E-02  0.1013363E+00
        2   -1    0    0  501    0  0.00000000000E+00  0.00000000000E+00  0.28674098661E+03  0.28674098662E+03  0.25500000920E-02 0.  1.
       -2   -1    0    0    0  501  0.00000000000E+00  0.00000000000E+00 -0.21936103720E+03  0.21936103721E+03  0.25500000920E-02 0. -1.
    10030    2    1    2    0    0  0.00000000000E+00  0.00000000000E+00  0.67379949410E+02  0.50610202383E+03  0.50159665165E+03 0.  0.
        4    1    3    3  502    0  0.36194483041E+02  0.52379198551E+02  0.27844782401E+03  0.28563687549E+03  0.12699999809E+01 0.  1.
       -4    1    3    3    0  502 -0.36194483041E+02 -0.52379198551E+02 -0.21106787460E+03  0.22046514834E+03  0.12699999809E+01 0. -1.
</event>
<event>
 5   0  0.2511944E-01  0.5209381E+03  0.7818609E-02  0.1008454E+00
       -2   -1    0    0    0  501  0.00000000000E+00  0.00000000000E+00  0.51035797958E+02  0.51035798021E+02  0.25500000920E-02 0.  1.
        2   -1    0    0  501    0  0.00000000000E+00  0.00000000000E+00 -0.13293441374E+04  0.13293441374E+04  0.25500000920E-02 0. -1.
    10030    2    1    2    0    0  0.00000000000E+00  0.00000000000E+00 -0.12783083394E+04  0.13803799354E+04  0.52093814933E+03 0.  0.
        1    1    3    3  502    0 -0.46972307892E+02  0.60538176977E+02  0.20495395490E+02  0.79317903667E+02  0.50400001928E-02 0.  1.
       -1    1    3    3    0  502  0.46972307892E+02 -0.60538176977E+02 -0.12988037349E+04  0.13010620317E+04  0.50400001928E-02 0. -1.
</event>
<event>
 5   0  0.1413361E-01  0.5024732E+03  0.7818609E-02  0.1013135E+00
       -1   -1    0    0    0  501  0.00000000000E+00  0.00000000000E+00  0.91720187033E+02  0.91720187172E+02  0.50400001928E-02 0. -1.
        1   -1    0    0  501    0  0.00000000000E+00  0.00000000000E+00 -0.68817808179E+03  0.68817808181E+03  0.50400001928E-02 0.  1.
    10030    2    1    2    0    0  0.00000000000E+00  0.00000000000E+00 -0.59645789476E+03  0.77989826898E+03  0.50247317316E+03 0.  0.
        3    1    3    3  502    0 -0.78172601603E+02  0.89049500948E+02 -0.64208218609E+03  0.65292443143E+03  0.10100000352E+00 0.  1.
       -3    1    3    3    0  502  0.78172601603E+02 -0.89049500948E+02  0.45624291338E+02  0.12697383755E+03  0.10100000352E+00 0. -1.
</event>
<event>
 5   0  0.1448458E-01  0.5012618E+03  0.7818609E-02  0.1013450E+00
        1   -1    0    0  501    0  0.00000000000E+00  0.00000000000E+00  0.35550637244E+03  0.35550637248E+03  0.50400001928E-02 0.  1.
       -1   -1    0    0    0  501  0.00000000000E+00  0.00000000000E+00 -0.17669400350E+03  0.17669400357E+03  0.50400001928E-02 0. -1.
    10030    2    1    2    0    0  0.00000000000E+00  0.00000000000E+00  0.17881236894E+03  0.53220037605E+03  0.50126178488E+03 0.  0.
        5    1    3    3  502    0  0.23708649170E+03 -0.78225097993E+02  0.66521623443E+02  0.25841127469E+03  0.46999998093E+01 0. -1.
       -5    1    3    3    0  502 -0.23708649170E+03  0.78225097993E+02  0.11229074550E+03  0.27378910136E+03  0.46999998093E+01 0.  1.
</event>
<event>
 5   0  0.1413361E-01  0.4975118E+03  0.7818609E-02  0.1014430E+00
       -1   -1    0    0    0  501  0.00000000000E+00  0.00000000000E+00  0.14602394492E+03  0.14602394500E+03  0.50400001928E-02 0. -1.
        1   -1    0    0  501    0  0.00000000000E+00  0.00000000000E+00 -0.42376274045E+03  0.42376274048E+03  0.50400001928E-02 0.  1.
    10030    2    1    2    0    0  0.00000000000E+00  0.00000000000E+00 -0.27773879553E+03  0.56978668548E+03  0.49751183745E+03 0.  0.
        3    1    3    3  502    0  0.20501819985E+03  0.61477656648E+02 -0.28404160158E+03  0.35565658460E+03  0.10100000352E+00 0. -1.
       -3    1    3    3    0  502 -0.20501819985E+03 -0.61477656648E+02  0.63028060532E+01  0.21413010088E+03  0.10100000352E+00 0.  1.
</event>
<event>
 5   0  0.1448458E-01  0.4936764E+03  0.7818609E-02  0.1015443E+00
        1   -1    0    0  501    0  0.00000000000E+00  0.00000000000E+00  0.79591350384E+03  0.79591350385E+03  0.50400001928E-02 0.  1.
       -1   -1    0    0    0  501  0.00000000000E+00  0.00000000000E+00 -0.76552403019E+02  0.76552403185E+02  0.50400001928E-02 0. -1.
    10030    2    1    2    0    0  0.00000000000E+00  0.00000000000E+00  0.71936110082E+03  0.87246590704E+03  0.49367637737E+03 0.  0.
        5    1    3    3  502    0  0.78309934313E+02 -0.93604568998E+02  0.73877302887E+03  0.74880033342E+03  0.46999998093E+01 0.  1.
       -5    1    3    3    0  502 -0.78309934313E+02  0.93604568998E+02 -0.19411928050E+02  0.12366557362E+03  0.46999998093E+01 0. -1.
</event>
<event>
 5   0  0.2488968E-01  0.5036247E+03  0.7818609E-02  0.1012837E+00
        2   -1    0    0  501    0  0.00000000000E+00  0.00000000000E+00  0.63314057318E+03  0.63314057319E+03  0.25500000920E-02 0.  1.
       -2   -1    0    0    0  501  0.00000000000E+00  0.00000000000E+00 -0.10015070045E+03  0.10015070048E+03  0.25500000920E-02 0. -1.
    10030    2    1    2    0    0  0.00000000000E+00  0.00000000000E+00  0.53298987274E+03  0.73329127367E+03  0.50362474880E+03 0.  0.
        2    1    3    3  502    0 -0.42375389993E+01 -0.12602535844E+03 -0.50869285785E+02  0.13597070254E+03  0.25500000920E-02 0. -1.
       -2    1    3    3    0  502  0.42375389993E+01  0.12602535844E+03  0.58385915852E+03  0.59732057113E+03  0.25500000920E-02 0.  1.
</event>
<event>
 5   0  0.1529146E-01  0.4957841E+03  0.7818609E-02  0.1014885E+00
        1   -1    0    0  501    0  0.00000000000E+00  0.00000000000E+00  0.35823479246E+03  0.35823479249E+03  0.50400001928E-02 0.  1.
       -1   -1    0    0    0  501  0.00000000000E+00  0.00000000000E+00 -0.17153687721E+03  0.17153687729E+03  0.50400001928E-02 0. -1.
    10030    2    1    2    0    0  0.00000000000E+00  0.00000000000E+00  0.18669791524E+03  0.52977166978E+03  0.49578413705E+03 0.  0.
        1    1    3    3  502    0 -0.91218503783E+02 -0.18380733611E+03 -0.55270318709E+02  0.21251061244E+03  0.50400001928E-02 0. -1.
       -1    1    3    3    0  502  0.91218503783E+02  0.18380733611E+03  0.24196823395E+03  0.31726105735E+03  0.50400001928E-02 0.  1.
</event>
<event>
 5   0  0.2511944E-01  0.4944521E+03  0.7818609E-02  0.1015237E+00
       -2   -1    0    0    0  501  0.00000000000E+00  0.00000000000E+00  0.20226595911E+03  0.20226595913E+03  0.25500000920E-02 0.  1.
        2   -1    0    0  501    0  0.00000000000E+00  0.00000000000E+00 -0.30217994841E+03  0.30217994842E+03  0.25500000920E-02 0. -1.
    10030    2    1    2    0    0  0.00000000000E+00  0.00000000000E+00 -0.99913989301E+02  0.50444590755E+03  0.49445208907E+03 0.  0.
        1    1    3    3  502    0 -0.10227345949E+03  0.22411062755E+03 -0.71242125596E+02  0.25643883166E+03  0.50400001928E-02 0.  1.
       -1    1    3    3    0  502  0.10227345949E+03 -0.22411062755E+03 -0.28671863705E+02  0.24800707589E+03  0.50400001928E-02 0. -1.
</event>
<event>
 5   0  0.2413301E-01  0.5148032E+03  0.7818609E-02  0.1009986E+00
       -2   -1    0    0    0  501  0.00000000000E+00  0.00000000000E+00  0.82036384164E+02  0.82036384204E+02  0.25500000920E-02 0.  1.
        2   -1    0    0  501    0  0.00000000000E+00  0.00000000000E+00 -0.80763668471E+03  0.80763668471E+03  0.25500000920E-02 0. -1.
    10030    2    1    2    0    0  0.00000000000E+00  0.00000000000E+00 -0.72560030054E+03  0.88967306892E+03  0.51480323756E+03 0.  0.
        4    1    3    3  502    0 -0.94052508253E+02  0.18280702713E+03 -0.95129005709E+02  0.22652908004E+03  0.12699999809E+01 0.  1.
       -4    1    3    3    0  502  0.94052508253E+02 -0.18280702713E+03 -0.63047129484E+03  0.66314398888E+03  0.12699999809E+01 0. -1.
</event>
<event>
 5   0  0.1413361E-01  0.5016749E+03  0.7818609E-02  0.1013343E+00
        1   -1    0    0  501    0  0.00000000000E+00  0.00000000000E+00  0.19944335466E+03  0.19944335473E+03  0.50400001928E-02 0. -1.
       -1   -1    0    0    0  501  0.00000000000E+00  0.00000000000E+00 -0.31547522901E+03  0.31547522905E+03  0.50400001928E-02 0.  1.
    10030    2    1    2    0    0  0.00000000000E+00  0.00000000000E+00 -0.11603187435E+03  0.51491858378E+03  0.50167494661E+03 0.  0.
        3    1    3    3  502    0  0.22842022902E+03  0.10342557546E+03 -0.50996004808E+02  0.25587741868E+03  0.10100000352E+00 0. -1.
       -3    1    3    3    0  502 -0.22842022902E+03 -0.10342557546E+03 -0.65035869539E+02  0.25904116509E+03  0.10100000352E+00 0.  1.
</event>
<event>
 5   0  0.2466034E-01  0.4695928E+03  0.7818609E-02  0.1022035E+00
        2   -1    0    0  501    0  0.00000000000E+00  0.00000000000E+00  0.16780885603E+04  0.16780885603E+04  0.25500000920E-02 0. -1.
       -2   -1    0    0    0  501  0.00000000000E+00  0.00000000000E+00 -0.32852468028E+02  0.32852468127E+02  0.25500000920E-02 0.  1.
    10030    2    1    2    0    0  0.00000000000E+00  0.00000000000E+00  0.16452360923E+04  0.17109410284E+04  0.46959280600E+03 0.  0.
        3    1    3    3  502    0 -0.22676664897E+03  0.14070375366E+02  0.10384218043E+04  0.10629868026E+04  0.10100000352E+00 0. -1.
       -3    1    3    3    0  502  0.22676664897E+03 -0.14070375366E+02  0.60681428796E+03  0.64795422587E+03  0.10100000352E+00 0.  1.
</event>
<event>
 5   0  0.2466034E-01  0.4857226E+03  0.7818609E-02  0.1017574E+00
       -2   -1    0    0    0  501  0.00000000000E+00  0.00000000000E+00  0.10443117726E+03  0.10443117729E+03  0.25500000920E-02 0. -1.
        2   -1    0    0  501    0  0.00000000000E+00  0.00000000000E+00 -0.56478933323E+03  0.56478933323E+03  0.25500000920E-02 0.  1.
    10030    2    1    2    0    0  0.00000000000E+00  0.00000000000E+00 -0.46035815597E+03  0.66922051052E+03  0.48572261625E+03 0.  0.
        3    1    3    3  502    0 -0.50490254537E+01 -0.44780440307E+02 -0.55897840843E+03  0.56079198620E+03  0.10100000352E+00 0.  1.
       -3    1    3    3    0  502  0.50490254537E+01  0.44780440307E+02  0.98620252456E+02  0.10842852433E+03  0.10100000352E+00 0. -1.
</event>
<event>
 5   0  0.1453602E-01  0.5047881E+03  0.7818609E-02  0.1012537E+00
       -1   -1    0    0    0  501  0.00000000000E+00  0.00000000000E+00  0.68423320651E+02  0.68423320837E+02  0.50400001928E-02 0. -1.
        1   -1    0    0  501    0  0.00000000000E+00  0.00000000000E+00 -0.93100954935E+03  0.93100954936E+03  0.50400001928E-02 0.  1.
    10030    2    1    2    0    0  0.00000000000E+00  0.00000000000E+00 -0.86258622870E+03  0.99943287020E+03  0.50478813387E+03 0.  0.
        2    1    3    3  502    0 -0.38040219874E+02 -0.56284882529E+01  0.62589283382E+02  0.73458536664E+02  0.25500000920E-02 0. -1.
       -2    1    3    3    0  502  0.38040219874E+02  0.56284882529E+01 -0.92517551208E+03  0.92597433354E+03  0.25500000920E-02 0.  1.
</event>
<event>
 5   0  0.1413361E-01  0.4987369E+03  0.7818609E-02  0.1014109E+00
       -1   -1    0    0    0  501  0.00000000000E+00  0.00000000000E+00  0.40610570844E+02  0.40610571157E+02  0.50400001928E-02 0. -1.
        1   -1    0    0  501    0  0.00000000000E+00  0.00000000000E+00 -0.15312423879E+04  0.15312423879E+04  0.50400001928E-02 0.  1.
    10030    2    1    2    0    0  0.00000000000E+00  0.00000000000E+00 -0.14906318171E+04  0.15718529591E+04  0.49873691552E+03 0.  0.
        3    1    3    3  502    0  0.33633094680E+02 -0.58403154840E+02 -0.15019951522E+04  0.15035064220E+04  0.10100000352E+00 0.  1.
       -3    1    3    3    0  502 -0.33633094680E+02  0.58403154840E+02  0.11363335078E+02  0.68346537134E+02  0.10100000352E+00 0. -1.
</event>
<event>
 5   0  0.1439814E-01  0.5321977E+03  0.7818609E-02  0.1005701E+00
       -1   -1    0    0    0  501  0.00000000000E+00  0.00000000000E+00  0.66977404432E+03  0.66977404434E+03  0.50400001928E-02 0. -1.
        1   -1    0    0  501    0  0.00000000000E+00  0.00000000000E+00 -0.10572014463E+03  0.10572014475E+03  0.50400001928E-02 0.  1.
    10030    2    1    2    0    0  0.00000000000E+00  0.00000000000E+00  0.56405389969E+03  0.77549418909E+03  0.53219774103E+03 0.  0.
        4    1    3    3  502    0 -0.20070713381E+03  0.12267989033E+02  0.53597820229E+03  0.57245794897E+03  0.12699999809E+01 0. -1.
       -4    1    3    3    0  502  0.20070713381E+03 -0.12267989033E+02  0.28075697401E+02  0.20303624011E+03  0.12699999809E+01 0.  1.
</event>
<event>
 5   0  0.2504064E-01  0.4997716E+03  0.7818609E-02  0.1013839E+00
        2   -1    0    0  501    0  0.00000000000E+00  0.00000000000E+00  0.34339186866E+03  0.34339186867E+03  0.25500000920E-02 0.  1.
       -2   -1    0    0    0  501  0.00000000000E+00  0.00000000000E+00 -0.18184158165E+03  0.18184158167E+03  0.25500000920E-02 0. -1.
    10030    2    1    2    0    0  0.00000000000E+00  0.00000000000E+00  0.16155028701E+03  0.52523345034E+03  0.49977162997E+03 0.  0.
        5    1    3    3  502    0 -0.10112204701E+03 -0.18641388617E+03  0.21958380872E+03  0.30531122548E+03  0.46999998093E+01 0.  1.
       -5    1    3    3    0  502  0.10112204701E+03  0.18641388617E+03 -0.58033521714E+02  0.21992222487E+03  0.46999998093E+01 0. -1.
</event>
<event>
 5   0  0.2466034E-01  0.5715731E+03  0.7818609E-02  0.9966204E-01
       -2   -1    0    0    0  501  0.00000000000E+00  0.00000000000E+00  0.88741852216E+02  0.88741852253E+02  0.25500000920E-02 0.  1.
        2   -1    0    0  501    0  0.00000000000E+00  0.00000000000E+00 -0.92035428085E+03  0.92035428085E+03  0.25500000920E-02 0. -1.
    10030    2    1    2    0    0  0.00000000000E+00  0.00000000000E+00 -0.83161242863E+03  0.10090961331E+04  0.57157307004E+03 0.  0.
        3    1    3    3  502    0  0.32775593893E+02  0.32668093400E+02  0.82083405225E+02  0.94229186008E+02  0.10100000352E+00 0.  1.
       -3    1    3    3    0  502 -0.32775593893E+02 -0.32668093400E+02 -0.91369583386E+03  0.91486694710E+03  0.10100000352E+00 0. -1.
</event>
<event>
 5   0  0.2413301E-01  0.4847978E+03  0.7818609E-02  0.1017825E+00
        2   -1    0    0  501    0  0.00000000000E+00  0.00000000000E+00  0.15899343055E+03  0.15899343057E+03  0.25500000920E-02 0.  1.
       -2   -1    0    0    0  501  0.00000000000E+00  0.00000000000E+00 -0.36955753528E+03  0.36955753529E+03  0.25500000920E-02 0. -1.
    10030    2    1    2    0    0  0.00000000000E+00  0.00000000000E+00 -0.21056410472E+03  0.52855096586E+03  0.48479777363E+03 0.  0.
        4    1    3    3  502    0 -0.45372469229E+02  0.20486724267E+03  0.27022245062E+02  0.21156810420E+03  0.12699999809E+01 0.  1.
       -4    1    3    3    0  502  0.45372469229E+02 -0.20486724267E+03 -0.23758634979E+03  0.31698286167E+03  0.12699999809E+01 0. -1.
</event>
<event>
 5   0  0.2466034E-01  0.5301323E+03  0.7818609E-02  0.1006200E+00
        2   -1    0    0  501    0  0.00000000000E+00  0.00000000000E+00  0.77095360604E+03  0.77095360605E+03  0.25500000920E-02 0. -1.
       -2   -1    0    0    0  501  0.00000000000E+00  0.00000000000E+00 -0.91133955200E+02  0.91133955236E+02  0.25500000920E-02 0.  1.
    10030    2    1    2    0    0  0.00000000000E+00  0.00000000000E+00  0.67981965084E+03  0.86208756128E+03  0.53013225298E+03 0.  0.
        3    1    3    3  502    0  0.24979302437E+03 -0.81269646301E+02  0.28221543658E+03  0.38554749808E+03  0.10100000352E+00 0.  1.
       -3    1    3    3    0  502 -0.24979302437E+03  0.81269646301E+02  0.39760421426E+03  0.47654006320E+03  0.10100000352E+00 0. -1.
</event>
<event>
 5   0  0.1448458E-01  0.5110606E+03  0.7818609E-02  0.1010932E+00
       -1   -1    0    0    0  501  0.00000000000E+00  0.00000000000E+00  0.82868069671E+02  0.82868069824E+02  0.50400001928E-02 0.  1.
        1   -1    0    0  501    0  0.00000000000E+00  0.00000000000E+00 -0.78794816968E+03  0.78794816969E+03  0.50400001928E-02 0. -1.
    10030    2    1    2    0    0  0.00000000000E+00  0.00000000000E+00 -0.70508010001E+03  0.87081623952E+03  0.51106063787E+03 0.  0.
        5    1    3    3  502    0 -0.61210107015E+02 -0.94776824386E+02 -0.74312635990E+03  0.75165696992E+03  0.46999998093E+01 0. -1.
       -5    1    3    3    0  502  0.61210107015E+02  0.94776824386E+02  0.38046259898E+02  0.11915926960E+03  0.46999998093E+01 0.  1.
</event>
<event>
 5   0  0.1439814E-01  0.5038112E+03  0.7818609E-02  0.1012789E+00
       -1   -1    0    0    0  501  0.00000000000E+00  0.00000000000E+00  0.32073891272E+03  0.32073891276E+03  0.50400001928E-02 0. -1.
        1   -1    0    0  501    0  0.00000000000E+00  0.00000000000E+00 -0.19784448579E+03  0.19784448586E+03  0.50400001928E-02 0.  1.
    10030    2    1    2    0    0  0.00000000000E+00  0.00000000000E+00  0.12289442693E+03  0.51858339862E+03  0.50381117609E+03 0.  0.
        4    1    3    3  502    0  0.12290827171E+03  0.13559629127E+03  0.23961792745E+03  0.30151477828E+03  0.12699999809E+01 0. -1.
       -4    1    3    3    0  502 -0.12290827171E+03 -0.13559629127E+03 -0.11672350053E+03  0.21706862034E+03  0.12699999809E+01 0.  1.
</event>
<event>
 5   0  0.1448458E-01  0.4989104E+03  0.7818609E-02  0.1014064E+00
       -1   -1    0    0    0  501  0.00000000000E+00  0.00000000000E+00  0.64174625108E+02  0.64174625306E+02  0.50400001928E-02 0. -1.
        1   -1    0    0  501    0  0.00000000000E+00  0.00000000000E+00 -0.96966499943E+03  0.96966499944E+03  0.50400001928E-02 0.  1.
    10030    2    1    2    0    0  0.00000000000E+00  0.00000000000E+00 -0.90549037432E+03  0.10338396248E+04  0.49891036441E+03 0.  0.
        5    1    3    3  502    0  0.30087564173E+02 -0.17505406928E+03 -0.81556643002E+03  0.83469747841E+03  0.46999998093E+01 0.  1.
       -5    1    3    3    0  502 -0.30087564173E+02  0.17505406928E+03 -0.89923944299E+02  0.19914214634E+03  0.46999998093E+01 0. -1.
</event>
<event>
 5   0  0.1439814E-01  0.5072651E+03  0.7818609E-02  0.1011900E+00
        1   -1    0    0  501    0  0.00000000000E+00  0.00000000000E+00  0.99081215268E+03  0.99081215269E+03  0.50400001928E-02 0.  1.
       -1   -1    0    0    0  501  0.00000000000E+00  0.00000000000E+00 -0.64926004861E+02  0.64926005057E+02  0.50400001928E-02 0. -1.
    10030    2    1    2    0    0  0.00000000000E+00  0.00000000000E+00  0.92588614782E+03  0.10557381577E+04  0.50726511708E+03 0.  0.
        4    1    3    3  502    0  0.22367699887E+03 -0.11040769828E+03  0.36741907705E+03  0.44409419129E+03  0.12699999809E+01 0. -1.
       -4    1    3    3    0  502 -0.22367699887E+03  0.11040769828E+03  0.55846707077E+03  0.61164396645E+03  0.12699999809E+01 0.  1.
</event>
<event>
 5   0  0.2466034E-01  0.5021620E+03  0.7818609E-02  0.1013216E+00
        2   -1    0    0  501    0  0.00000000000E+00  0.00000000000E+00  0.11321833337E+04  0.11321833337E+04  0.25500000920E-02 0. -1.
       -2   -1    0    0    0  501  0.00000000000E+00  0.00000000000E+00 -0.55681499356E+02  0.55681499414E+02  0.25500000920E-02 0.  1.
    10030    2    1    2    0    0  0.00000000000E+00  0.00000000000E+00  0.10765018344E+04  0.11878648332E+04  0.50216198822E+03 0.  0.
        3    1    3    3  502    0 -0.12262753440E+02 -0.95511746917E+02 -0.10263828892E+02  0.96841237629E+02  0.10100000352E+00 0.  1.
       -3    1    3    3    0  502  0.12262753440E+02  0.95511746917E+02  0.10867656633E+04  0.10910235955E+04  0.10100000352E+00 0. -1.
</event>
<event>
 5   0  0.1413361E-01  0.5028570E+03  0.7818609E-02  0.1013036E+00
        1   -1    0    0  501    0  0.00000000000E+00  0.00000000000E+00  0.69081908628E+03  0.69081908630E+03  0.50400001928E-02 0.  1.
       -1   -1    0    0    0  501  0.00000000000E+00  0.00000000000E+00 -0.91509184956E+02  0.91509185095E+02  0.50400001928E-02 0. -1.
    10030    2    1    2    0    0  0.00000000000E+00  0.00000000000E+00  0.59930990133E+03  0.78232827140E+03  0.50285700393E+03 0.  0.
        3    1    3    3  502    0 -0.10634020526E+03 -0.20387027083E+03  0.45789223479E+03  0.51238328961E+03  0.10100000352E+00 0.  1.
       -3    1    3    3    0  502  0.10634020526E+03  0.20387027083E+03  0.14141766653E+03  0.26994498179E+03  0.10100000352E+00 0. -1.
</event>
<event>
 5   0  0.9868500E-02  0.4973470E+03  0.7818609E-02  0.1014474E+00
       -4   -1    0    0    0  501  0.00000000000E+00  0.00000000000E+00  0.94142514206E+03  0.94142599868E+03  0.12699999809E+01 0. -1.
        4   -1    0    0  501    0  0.00000000000E+00  0.00000000000E+00 -0.65679029844E+02  0.65691307349E+02  0.12699999809E+01 0.  1.
    10030    2    1    2    0    0  0.00000000000E+00  0.00000000000E+00  0.87574611221E+03  0.10071173060E+04  0.49734697652E+03 0.  0.
        2    1    3    3  502    0  0.33723304868E+02  0.82201160480E+01 -0.60755919877E+02  0.69972233105E+02  0.25500000920E-02 0.  1.
       -2    1    3    3    0  502 -0.33723304868E+02 -0.82201160480E+01  0.93650203209E+03  0.93714507293E+03  0.25500000920E-02 0. -1.
</event>
<event>
 5   0  0.2466034E-01  0.5048684E+03  0.7818609E-02  0.1012516E+00
       -2   -1    0    0    0  501  0.00000000000E+00  0.00000000000E+00  0.94240478546E+02  0.94240478581E+02  0.25500000920E-02 0.  1.
        2   -1    0    0  501    0  0.00000000000E+00  0.00000000000E+00 -0.67617457810E+03  0.67617457810E+03  0.25500000920E-02 0. -1.
    10030    2    1    2    0    0  0.00000000000E+00  0.00000000000E+00 -0.58193409955E+03  0.77041505668E+03  0.50486836239E+03 0.  0.
        3    1    3    3  502    0  0.21321788588E+03  0.13344165924E+03 -0.25843618840E+03  0.36063529632E+03  0.10100000352E+00 0.  1.
       -3    1    3    3    0  502 -0.21321788588E+03 -0.13344165924E+03 -0.32349791116E+03  0.40977976036E+03  0.10100000352E+00 0. -1.
</event>
<event>
 5   0  0.1413361E-01  0.4986168E+03  0.7818609E-02  0.1014141E+00
       -1   -1    0    0    0  501  0.00000000000E+00  0.00000000000E+00  0.14382594983E+03  0.14382594991E+03  0.50400001928E-02 0. -1.
        1   -1    0    0  501    0  0.00000000000E+00  0.00000000000E+00 -0.43215210426E+03  0.43215210429E+03  0.50400001928E-02 0.  1.
    10030    2    1    2    0    0  0.00000000000E+00  0.00000000000E+00 -0.28832615444E+03  0.57597805421E+03  0.49861683445E+03 0.  0.
        3    1    3    3  502    0 -0.46362098885E+02  0.43657527744E+02  0.13427220886E+03  0.14860841233E+03  0.10100000352E+00 0. -1.
       -3    1    3    3    0  502  0.46362098885E+02 -0.43657527744E+02 -0.42259836330E+03  0.42736964188E+03  0.10100000352E+00 0.  1.
</event>
<event>
 5   0  0.2413301E-01  0.5464546E+03  0.7818609E-02  0.1002318E+00
        2   -1    0    0  501    0  0.00000000000E+00  0.00000000000E+00  0.96948270933E+03  0.96948270934E+03  0.25500000920E-02 0.  1.
       -2   -1    0    0    0  501  0.00000000000E+00  0.00000000000E+00 -0.77003086889E+02  0.77003086931E+02  0.25500000920E-02 0. -1.
    10030    2    1    2    0    0  0.00000000000E+00  0.00000000000E+00  0.89247962244E+03  0.10464857963E+04  0.54645461414E+03 0.  0.
        4    1    3    3  502    0 -0.17593577453E+03 -0.15309189806E+03  0.17364981146E+03  0.29076862955E+03  0.12699999809E+01 0. -1.
       -4    1    3    3    0  502  0.17593577453E+03  0.15309189806E+03  0.71882981099E+03  0.75571716672E+03  0.12699999809E+01 0.  1.
</event>
<event>
 5   0  0.9868500E-02  0.5112569E+03  0.7818609E-02  0.1010882E+00
        4   -1    0    0  501    0  0.00000000000E+00  0.00000000000E+00  0.91141688872E+02  0.91150536753E+02  0.12699999809E+01 0. -1.
       -4   -1    0    0    0  501  0.00000000000E+00  0.00000000000E+00 -0.71692640177E+03  0.71692752664E+03  0.12699999809E+01 0.  1.
    10030    2    1    2    0    0  0.00000000000E+00  0.00000000000E+00 -0.62578471290E+03  0.80807806339E+03  0.51125693114E+03 0.  0.
        4    1    3    3  502    0 -0.76171061365E+01  0.14443844358E+03  0.20244003063E+02  0.14605449959E+03  0.12699999809E+01 0. -1.
       -4    1    3    3    0  502  0.76171061365E+01 -0.14443844358E+03 -0.64602871596E+03  0.66202356381E+03  0.12699999809E+01 0.  1.
</event>
<event>
 5   0  0.1453602E-01  0.5012342E+03  0.7818609E-02  0.1013457E+00
        1   -1    0    0  501    0  0.00000000000E+00  0.00000000000E+00  0.42846548354E+03  0.42846548357E+03  0.50400001928E-02 0.  1.
       -1   -1    0    0    0  501  0.00000000000E+00  0.00000000000E+00 -0.14659038882E+03  0.14659038891E+03  0.50400001928E-02 0. -1.
    10030    2    1    2    0    0  0.00000000000E+00  0.00000000000E+00  0.28187509472E+03  0.57505587248E+03  0.50123416429E+03 0.  0.
        2    1    3    3  502    0  0.20202221081E+03 -0.37697754657E+02 -0.23627454538E+02  0.20686312136E+03  0.25500000920E-02 0. -1.
       -2    1    3    3    0  502 -0.20202221081E+03  0.37697754657E+02  0.30550254926E+03  0.36819275112E+03  0.25500000920E-02 0.  1.
</event>
<event>
 5   0  0.1439814E-01  0.5026832E+03  0.7818609E-02  0.1013081E+00
       -1   -1    0    0    0  501  0.00000000000E+00  0.00000000000E+00  0.10084628250E+03  0.10084628263E+03  0.50400001928E-02 0. -1.
        1   -1    0    0  501    0  0.00000000000E+00  0.00000000000E+00 -0.62642467872E+03  0.62642467874E+03  0.50400001928E-02 0.  1.
    10030    2    1    2    0    0  0.00000000000E+00  0.00000000000E+00 -0.52557839622E+03  0.72727096137E+03  0.50268320111E+03 0.  0.
        4    1    3    3  502    0 -0.23606273825E+03 -0.78498681973E+02 -0.21096045495E+03  0.32618029664E+03  0.12699999809E+01 0. -1.
       -4    1    3    3    0  502  0.23606273825E+03  0.78498681973E+02 -0.31461794127E+03  0.40109066473E+03  0.12699999809E+01 0.  1.
</event>
<event>
 5   0  0.1413361E-01  0.5123284E+03  0.7818609E-02  0.1010610E+00
        1   -1    0    0  501    0  0.00000000000E+00  0.00000000000E+00  0.48915654121E+03  0.48915654124E+03  0.50400001928E-02 0.  1.
       -1   -1    0    0    0  501  0.00000000000E+00  0.00000000000E+00 -0.13414949188E+03  0.13414949197E+03  0.50400001928E-02 0. -1.
    10030    2    1    2    0    0  0.00000000000E+00  0.00000000000E+00  0.35500704934E+03  0.62330603321E+03  0.51232841611E+03 0.  0.
        3    1    3    3  502    0 -0.85807451443E+01 -0.18316964265E+03 -0.40115208991E+02  0.18770718518E+03  0.10100000352E+00 0. -1.
       -3    1    3    3    0  502  0.85807451443E+01  0.18316964265E+03  0.39512225833E+03  0.43559884803E+03  0.10100000352E+00 0.  1.
</event>
<event>
 5   0  0.1448458E-01  0.5064731E+03  0.7818609E-02  0.1012103E+00
        1   -1    0    0  501    0  0.00000000000E+00  0.00000000000E+00  0.12663563184E+04  0.12663563185E+04  0.50400001928E-02 0.  1.
       -1   -1    0    0    0  501  0.00000000000E+00  0.00000000000E+00 -0.50640359239E+02  0.50640359490E+02  0.50400001928E-02 0. -1.
    10030    2    1    2    0    0  0.00000000000E+00  0.00000000000E+00  0.12157159592E+04  0.13169966779E+04  0.50647305580E+03 0.  0.
        5    1    3    3  502    0  0.14205365351E+03  0.89802000817E+02  0.11541982229E+03  0.20393004978E+03  0.46999998093E+01 0. -1.
       -5    1    3    3    0  502 -0.14205365351E+03 -0.89802000817E+02  0.11002961369E+04  0.11130666282E+04  0.46999998093E+01 0.  1.
</event>
<event>
 5   0  0.2466034E-01  0.5104495E+03  0.7818609E-02  0.1011087E+00
       -2   -1    0    0    0  501  0.00000000000E+00  0.00000000000E+00  0.14252771781E+03  0.14252771783E+03  0.25500000920E-02 0. -1.
        2   -1    0    0  501    0  0.00000000000E+00  0.00000000000E+00 -0.45703162028E+03  0.45703162029E+03  0.25500000920E-02 0.  1.
    10030    2    1    2    0    0  0.00000000000E+00  0.00000000000E+00 -0.31450390247E+03  0.59955933812E+03  0.51044950314E+03 0.  0.
        3    1    3    3  502    0  0.91194421585E+02 -0.21556818300E+03 -0.37736221314E+02  0.23708668594E+03  0.10100000352E+00 0.  1.
       -3    1    3    3    0  502 -0.91194421585E+02  0.21556818300E+03 -0.27676768116E+03  0.36247265218E+03  0.10100000352E+00 0. -1.
</event>
<event>
 5   0  0.1529146E-01  0.4329909E+03  0.7818609E-02  0.1032919E+00
       -1   -1    0    0    0  501  0.00000000000E+00  0.00000000000E+00  0.54315992434E+03  0.54315992436E+03  0.50400001928E-02 0.  1.
        1   -1    0    0  501    0  0.00000000000E+00  0.00000000000E+00 -0.86291867930E+02  0.86291868077E+02  0.50400001928E-02 0. -1.
    10030    2    1    2    0    0  0.00000000000E+00  0.00000000000E+00  0.45686805641E+03  0.62945179244E+03  0.43299092143E+03 0.  0.
        1    1    3    3  502    0  0.19524804136E+02  0.10076557317E+03 -0.48673581535E+02  0.11359593425E+03  0.50400001928E-02 0. -1.
       -1    1    3    3    0  502 -0.19524804136E+02 -0.10076557317E+03  0.50554163794E+03  0.51585585819E+03  0.50400001928E-02 0.  1.
</event>
<event>
 5   0  0.2511944E-01  0.4903087E+03  0.7818609E-02  0.1016340E+00
       -2   -1    0    0    0  501  0.00000000000E+00  0.00000000000E+00  0.50519417725E+02  0.50519417789E+02  0.25500000920E-02 0.  1.
        2   -1    0    0  501    0  0.00000000000E+00  0.00000000000E+00 -0.11896547319E+04  0.11896547319E+04  0.25500000920E-02 0. -1.
    10030    2    1    2    0    0  0.00000000000E+00  0.00000000000E+00 -0.11391353142E+04  0.12401741497E+04  0.49030873699E+03 0.  0.
        1    1    3    3  502    0 -0.84274761637E+02  0.10602182752E+03 -0.10864382842E+04  0.10948474820E+04  0.50400001928E-02 0. -1.
       -1    1    3    3    0  502  0.84274761637E+02 -0.10602182752E+03 -0.52697029980E+02  0.14532666773E+03  0.50400001928E-02 0.  1.
</event>
<event>
 5   0  0.1413361E-01  0.4742293E+03  0.7818609E-02  0.1020733E+00
        1   -1    0    0  501    0  0.00000000000E+00  0.00000000000E+00  0.50186501688E+03  0.50186501691E+03  0.50400001928E-02 0. -1.
       -1   -1    0    0    0  501  0.00000000000E+00  0.00000000000E+00 -0.11202886467E+03  0.11202886479E+03  0.50400001928E-02 0.  1.
    10030    2    1    2    0    0  0.00000000000E+00  0.00000000000E+00  0.38983615221E+03  0.61389388169E+03  0.47422934579E+03 0.  0.
        3    1    3    3  502    0  0.14110865009E+03  0.16659847624E+03  0.75173216864E+02  0.23090631467E+03  0.10100000352E+00 0. -1.
       -3    1    3    3    0  502 -0.14110865009E+03 -0.16659847624E+03  0.31466293534E+03  0.38298756703E+03  0.10100000352E+00 0.  1.
</event>
<event>
 5   0  0.1453602E-01  0.5094482E+03  0.7818609E-02  0.1011342E+00
       -1   -1    0    0    0  501  0.00000000000E+00  0.00000000000E+00  0.11039153110E+03  0.11039153121E+03  0.50400001928E-02 0.  1.
        1   -1    0    0  501    0  0.00000000000E+00  0.00000000000E+00 -0.58776582026E+03  0.58776582028E+03  0.50400001928E-02 0. -1.
    10030    2    1    2    0    0  0.00000000000E+00  0.00000000000E+00 -0.47737428916E+03  0.69815735149E+03  0.50944820687E+03 0.  0.
        2    1    3    3  502    0 -0.26753989756E+02  0.10751775458E+03 -0.55301389423E+03  0.56400373291E+03  0.25500000920E-02 0. -1.
       -2    1    3    3    0  502  0.26753989756E+02 -0.10751775458E+03  0.75639605067E+02  0.13415361858E+03  0.25500000920E-02 0.  1.
</event>
<event>
 5   0  0.1448458E-01  0.4993390E+03  0.7818609E-02  0.1013952E+00
        1   -1    0    0  501    0  0.00000000000E+00  0.00000000000E+00  0.38002896096E+03  0.38002896099E+03  0.50400001928E-02 0.  1.
       -1   -1    0    0    0  501  0.00000000000E+00  0.00000000000E+00 -0.16402660441E+03  0.16402660449E+03  0.50400001928E-02 0. -1.
    10030    2    1    2    0    0  0.00000000000E+00  0.00000000000E+00  0.21600235655E+03  0.54405556548E+03  0.49933900338E+03 0.  0.
        5    1    3    3  502    0 -0.60316629119E+02 -0.22581724990E+03  0.20349242136E+03  0.30993996459E+03  0.46999998093E+01 0. -1.
       -5    1    3    3    0  502  0.60316629119E+02  0.22581724990E+03  0.12509935191E+02  0.23411560089E+03  0.46999998093E+01 0.  1.
</event>
<event>
 5   0  0.2504064E-01  0.4956595E+03  0.7818609E-02  0.1014918E+00
        2   -1    0    0  501    0  0.00000000000E+00  0.00000000000E+00  0.89364825860E+03  0.89364825860E+03  0.25500000920E-02 0.  1.
       -2   -1    0    0    0  501  0.00000000000E+00  0.00000000000E+00 -0.68729037999E+02  0.68729038047E+02  0.25500000920E-02 0. -1.
    10030    2    1    2    0    0  0.00000000000E+00  0.00000000000E+00  0.82491922060E+03  0.96237729665E+03  0.49565950066E+03 0.  0.
        5    1    3    3  502    0  0.72970610009E+02 -0.22421403310E+03  0.56033906777E+03  0.60794621755E+03  0.46999998093E+01 0. -1.
       -5    1    3    3    0  502 -0.72970610009E+02  0.22421403310E+03  0.26458015283E+03  0.35443107910E+03  0.46999998093E+01 0.  1.
</event>
<event>
 5   0  0.2504064E-01  0.4978204E+03  0.7818609E-02  0.1014349E+00
       -2   -1    0    0    0  501  0.00000000000E+00  0.00000000000E+00  0.35373910713E+02  0.35373910805E+02  0.25500000920E-02 0. -1.
        2   -1    0    0  501    0  0.00000000000E+00  0.00000000000E+00 -0.17514685259E+04  0.17514685259E+04  0.25500000920E-02 0.  1.
    10030    2    1    2    0    0  0.00000000000E+00  0.00000000000E+00 -0.17160946152E+04  0.17868424367E+04  0.49782041475E+03 0.  0.
        5    1    3    3  502    0  0.79201394920E+02  0.36681472950E+02 -0.16945679953E+04  0.16968209016E+04  0.46999998093E+01 0.  1.
       -5    1    3    3    0  502 -0.79201394920E+02 -0.36681472950E+02 -0.21526619844E+02  0.90021535063E+02  0.46999998093E+01 0. -1.
</event>
<event>
 5   0  0.2504064E-01  0.5132939E+03  0.7818609E-02  0.1010366E+00
       -2   -1    0    0    0  501  0.00000000000E+00  0.00000000000E+00  0.14201845445E+03  0.14201845447E+03  0.25500000920E-02 0. -1.
        2   -1    0    0  501    0  0.00000000000E+00  0.00000000000E+00 -0.46379650371E+03  0.46379650372E+03  0.25500000920E-02 0.  1.
    10030    2    1    2    0    0  0.00000000000E+00  0.00000000000E+00 -0.32177804926E+03  0.60581495819E+03  0.51329392221E+03 0.  0.
        5    1    3    3  502    0 -0.89923048831E+02 -0.57684607659E+02  0.11447083606E+03  0.15665034625E+03  0.46999998093E+01 0. -1.
       -5    1    3    3    0  502  0.89923048831E+02  0.57684607659E+02 -0.43624888533E+03  0.44916461194E+03  0.46999998093E+01 0.  1.
</event>
<event>
 5   0  0.1439814E-01  0.4959752E+03  0.7818609E-02  0.1014835E+00
       -1   -1    0    0    0  501  0.00000000000E+00  0.00000000000E+00  0.19040899885E+03  0.19040899892E+03  0.50400001928E-02 0.  1.
        1   -1    0    0  501    0  0.00000000000E+00  0.00000000000E+00 -0.32297769509E+03  0.32297769513E+03  0.50400001928E-02 0. -1.
    10030    2    1    2    0    0  0.00000000000E+00  0.00000000000E+00 -0.13256869624E+03  0.51338669405E+03  0.49597523971E+03 0.  0.
        4    1    3    3  502    0 -0.19697836576E+03  0.65842777434E+02 -0.20654209241E+03  0.29291124381E+03  0.12699999809E+01 0. -1.
       -4    1    3    3    0  502  0.19697836576E+03 -0.65842777434E+02  0.73973396171E+02  0.22047545024E+03  0.12699999809E+01 0.  1.
</event>
<event>
 5   0  0.9868500E-02  0.5065700E+03  0.7818609E-02  0.1012078E+00
        3   -1    0    0  501    0  0.00000000000E+00  0.00000000000E+00  0.50823659615E+03  0.50823660619E+03  0.10100000352E+00 0.  1.
       -3   -1    0    0    0  501  0.00000000000E+00  0.00000000000E+00 -0.12622718727E+03  0.12622722767E+03  0.10100000352E+00 0. -1.
    10030    2    1    2    0    0  0.00000000000E+00  0.00000000000E+00  0.38200940888E+03  0.63446383386E+03  0.50657000306E+03 0.  0.
        5    1    3    3  502    0 -0.38756359295E+02 -0.40405762631E+01  0.50440473570E+03  0.50592945065E+03  0.46999998093E+01 0.  1.
       -5    1    3    3    0  502  0.38756359295E+02  0.40405762631E+01 -0.12239532682E+03  0.12853438321E+03  0.46999998093E+01 0. -1.
</event>
<event>
 5   0  0.2488968E-01  0.4996330E+03  0.7818609E-02  0.1013875E+00
        2   -1    0    0  501    0  0.00000000000E+00  0.00000000000E+00  0.16514620839E+04  0.16514620839E+04  0.25500000920E-02 0. -1.
       -2   -1    0    0    0  501  0.00000000000E+00  0.00000000000E+00 -0.37789720096E+02  0.37789720182E+02  0.25500000920E-02 0.  1.
    10030    2    1    2    0    0  0.00000000000E+00  0.00000000000E+00  0.16136723638E+04  0.16892518041E+04  0.49963302523E+03 0.  0.
        2    1    3    3  502    0 -0.23513957796E+03 -0.79872545140E+02  0.71498499217E+03  0.75688426039E+03  0.25500000920E-02 0.  1.
       -2    1    3    3    0  502  0.23513957796E+03  0.79872545140E+02  0.89868737164E+03  0.93236754370E+03  0.25500000920E-02 0. -1.
</event>
<event>
 5   0  0.2466034E-01  0.4349529E+03  0.7818609E-02  0.1032307E+00
        2   -1    0    0  501    0  0.00000000000E+00  0.00000000000E+00  0.16632626429E+04  0.16632626429E+04  0.25500000920E-02 0.  1.
       -2   -1    0    0    0  501  0.00000000000E+00  0.00000000000E+00 -0.28435675719E+02  0.28435675833E+02  0.25500000920E-02 0. -1.
    10030    2    1    2    0    0  0.00000000000E+00  0.00000000000E+00  0.16348269672E+04  0.16916983187E+04  0.43495285835E+03 0.  0.
        3    1    3    3  502    0 -0.12632277859E+03 -0.47281957310E+02  0.14809262807E+04  0.14870560470E+04  0.10100000352E+00 0.  1.
       -3    1    3    3    0  502  0.12632277859E+03  0.47281957310E+02  0.15390068650E+03  0.20464227174E+03  0.10100000352E+00 0. -1.
</event>
<event>
 5   0  0.1529146E-01  0.4540568E+03  0.7818609E-02  0.1026519E+00
       -1   -1    0    0    0  501  0.00000000000E+00  0.00000000000E+00  0.76718836939E+03  0.76718836940E+03  0.50400001928E-02 0.  1.
        1   -1    0    0  501    0  0.00000000000E+00  0.00000000000E+00 -0.67182828809E+02  0.67182828999E+02  0.50400001928E-02 0. -1.
    10030    2    1    2    0    0  0.00000000000E+00  0.00000000000E+00  0.70000554058E+03  0.83437119840E+03  0.45405675844E+03 0.  0.
        1    1    3    3  502    0 -0.13285701238E+03  0.13752293447E+03  0.57489840563E+03  0.60586444033E+03  0.50400001928E-02 0.  1.
       -1    1    3    3    0  502  0.13285701238E+03 -0.13752293447E+03  0.12510713495E+03  0.22850675807E+03  0.50400001928E-02 0. -1.
</event>
<event>
 5   0  0.2466034E-01  0.5178475E+03  0.7818609E-02  0.1009223E+00
        2   -1    0    0  501    0  0.00000000000E+00  0.00000000000E+00  0.30418854131E+03  0.30418854133E+03  0.25500000920E-02 0.  1.
       -2   -1    0    0    0  501  0.00000000000E+00  0.00000000000E+00 -0.22039461504E+03  0.22039461506E+03  0.25500000920E-02 0. -1.
    10030    2    1    2    0    0  0.00000000000E+00  0.00000000000E+00  0.83793926273E+02  0.52458315638E+03  0.51784753150E+03 0.  0.
        3    1    3    3  502    0 -0.23517771684E+03  0.10096959883E+03  0.81625539881E+02  0.26863759481E+03  0.10100000352E+00 0. -1.
       -3    1    3    3    0  502  0.23517771684E+03 -0.10096959883E+03  0.21683863913E+01  0.25594556157E+03  0.10100000352E+00 0.  1.
</event>
<event>
 5   0  0.1439814E-01  0.4974991E+03  0.7818609E-02  0.1014434E+00
       -1   -1    0    0    0  501  0.00000000000E+00  0.00000000000E+00  0.19213515493E+03  0.19213515499E+03  0.50400001928E-02 0.  1.
        1   -1    0    0  501    0  0.00000000000E+00  0.00000000000E+00 -0.32204590921E+03  0.32204590925E+03  0.50400001928E-02 0. -1.
    10030    2    1    2    0    0  0.00000000000E+00  0.00000000000E+00 -0.12991075428E+03  0.51418106424E+03  0.49749910829E+03 0.  0.
        4    1    3    3  502    0 -0.86099395140E+02 -0.15703158052E+03 -0.24337869529E+03  0.30217019268E+03  0.12699999809E+01 0. -1.
       -4    1    3    3    0  502  0.86099395140E+02  0.15703158052E+03  0.11346794101E+03  0.21201087156E+03  0.12699999809E+01 0.  1.
</event>
<event>
 5   0  0.2504064E-01  0.4960667E+03  0.7818609E-02  0.1014811E+00
       -2   -1    0    0    0  501  0.00000000000E+00  0.00000000000E+00  0.52146777798E+02  0.52146777861E+02  0.25500000920E-02 0.  1.
        2   -1    0    0  501    0  0.00000000000E+00  0.00000000000E+00 -0.11797572081E+04  0.11797572081E+04  0.25500000920E-02 0. -1.
    10030    2    1    2    0    0  0.00000000000E+00  0.00000000000E+00 -0.11276104303E+04  0.12319039859E+04  0.49606667707E+03 0.  0.
        5    1    3    3  502    0 -0.19969712098E+03  0.10835139861E+03 -0.81063858817E+03  0.84188833959E+03  0.46999998093E+01 0. -1.
       -5    1    3    3    0  502  0.19969712098E+03 -0.10835139861E+03 -0.31697184208E+03  0.39001564633E+03  0.46999998093E+01 0.  1.
</event>
<event>
 5   0  0.1413361E-01  0.4885298E+03  0.7818609E-02  0.1016817E+00
       -1   -1    0    0    0  501  0.00000000000E+00  0.00000000000E+00  0.13627201143E+03  0.13627201152E+03  0.50400001928E-02 0.  1.
        1   -1    0    0  501    0  0.00000000000E+00  0.00000000000E+00 -0.43783994061E+03  0.43783994064E+03  0.50400001928E-02 0. -1.
    10030    2    1    2    0    0  0.00000000000E+00  0.00000000000E+00 -0.30156792918E+03  0.57411195216E+03  0.48852975110E+03 0.  0.
        3    1    3    3  502    0  0.11322604364E+03 -0.81928897057E+02 -0.38621055220E+03  0.41072019912E+03  0.10100000352E+00 0. -1.
       -3    1    3    3    0  502 -0.11322604364E+03  0.81928897057E+02  0.84642623015E+02  0.16339175305E+03  0.10100000352E+00 0.  1.
</event>
<event>
 5   0  0.2488968E-01  0.5009964E+03  0.7818609E-02  0.1013519E+00
        2   -1    0    0  501    0  0.00000000000E+00  0.00000000000E+00  0.27542015951E+03  0.27542015952E+03  0.25500000920E-02 0. -1.
       -2   -1    0    0    0  501  0.00000000000E+00  0.00000000000E+00 -0.22783139496E+03  0.22783139497E+03  0.25500000920E-02 0.  1.
    10030    2    1    2    0    0  0.00000000000E+00  0.00000000000E+00  0.47588764556E+02  0.50325155449E+03  0.50099644369E+03 0.  0.
        2    1    3    3  502    0  0.20539212561E+03 -0.12979577944E+03  0.85031809751E+02  0.25741654628E+03  0.25500000920E-02 0. -1.
       -2    1    3    3    0  502 -0.20539212561E+03  0.12979577944E+03 -0.37443045195E+02  0.24583500821E+03  0.25500000920E-02 0.  1.
</event>
<event>
 5   0  0.1448458E-01  0.4920346E+03  0.7818609E-02  0.1015879E+00
        1   -1    0    0  501    0  0.00000000000E+00  0.00000000000E+00  0.19811093085E+03  0.19811093091E+03  0.50400001928E-02 0. -1.
       -1   -1    0    0    0  501  0.00000000000E+00  0.00000000000E+00 -0.30550821875E+03  0.30550821879E+03  0.50400001928E-02 0.  1.
    10030    2    1    2    0    0  0.00000000000E+00  0.00000000000E+00 -0.10739728790E+03  0.50361914970E+03  0.49203462327E+03 0.  0.
        5    1    3    3  502    0  0.15919272013E+02 -0.23422070083E+03 -0.12884147727E+03  0.26783385929E+03  0.46999998093E+01 0.  1.
       -5    1    3    3    0  502 -0.15919272013E+02  0.23422070083E+03  0.21444189370E+02  0.23578529041E+03  0.46999998093E+01 0. -1.
</event>
<event>
 5   0  0.1453602E-01  0.4970483E+03  0.7818609E-02  0.1014552E+00
        1   -1    0    0  501    0  0.00000000000E+00  0.00000000000E+00  0.79087287755E+03  0.79087287756E+03  0.50400001928E-02 0.  1.
       -1   -1    0    0    0  501  0.00000000000E+00  0.00000000000E+00 -0.78096308127E+02  0.78096308289E+02  0.50400001928E-02 0. -1.
    10030    2    1    2    0    0  0.00000000000E+00  0.00000000000E+00  0.71277656942E+03  0.86896918585E+03  0.49704829549E+03 0.  0.
        2    1    3    3  502    0 -0.22489860555E+03 -0.10009591473E+03  0.41607736898E+03  0.48344487991E+03  0.25500000920E-02 0.  1.
       -2    1    3    3    0  502  0.22489860555E+03  0.10009591473E+03  0.29669920044E+03  0.38552430594E+03  0.25500000920E-02 0. -1.
</event>
<event>
 5   0  0.1448458E-01  0.4990899E+03  0.7818609E-02  0.1014017E+00
        1   -1    0    0  501    0  0.00000000000E+00  0.00000000000E+00  0.29140804834E+03  0.29140804838E+03  0.50400001928E-02 0. -1.
       -1   -1    0    0    0  501  0.00000000000E+00  0.00000000000E+00 -0.21369582688E+03  0.21369582694E+03  0.50400001928E-02 0.  1.
    10030    2    1    2    0    0  0.00000000000E+00  0.00000000000E+00  0.77712221451E+02  0.50510387532E+03  0.49908990724E+03 0.  0.
        5    1    3    3  502    0  0.14042206769E+03  0.20027727985E+03 -0.10942995362E+02  0.24489014897E+03  0.46999998093E+01 0. -1.
       -5    1    3    3    0  502 -0.14042206769E+03 -0.20027727985E+03  0.88655216813E+02  0.26021372635E+03  0.46999998093E+01 0.  1.
</event>
<event>
 5   0  0.2504064E-01  0.4971814E+03  0.7818609E-02  0.1014517E+00
       -2   -1    0    0    0  501  0.00000000000E+00  0.00000000000E+00  0.61339927923E+03  0.61339927923E+03  0.25500000920E-02 0. -1.
        2   -1    0    0  501    0  0.00000000000E+00  0.00000000000E+00 -0.10074568445E+03  0.10074568448E+03  0.25500000920E-02 0.  1.
    10030    2    1    2    0    0  0.00000000000E+00  0.00000000000E+00  0.51265359478E+03  0.71414496371E+03  0.49718137632E+03 0.  0.
        5    1    3    3  502    0 -0.19965041854E+03 -0.17551982449E+02  0.46746535034E+03  0.50863966172E+03  0.46999998093E+01 0.  1.
       -5    1    3    3    0  502  0.19965041854E+03  0.17551982449E+02  0.45188244441E+02  0.20550530199E+03  0.46999998093E+01 0. -1.
</event>
<event>
 5   0  0.1448458E-01  0.4980870E+03  0.7818609E-02  0.1014279E+00
        1   -1    0    0  501    0  0.00000000000E+00  0.00000000000E+00  0.20668278807E+03  0.20668278814E+03  0.50400001928E-02 0. -1.
       -1   -1    0    0    0  501  0.00000000000E+00  0.00000000000E+00 -0.30008630360E+03  0.30008630365E+03  0.50400001928E-02 0.  1.
    10030    2    1    2    0    0  0.00000000000E+00  0.00000000000E+00 -0.93403515530E+02  0.50676909178E+03  0.49808703624E+03 0.  0.
        5    1    3    3  502    0  0.68489193844E+02 -0.12383112381E+03 -0.25515261415E+03  0.29180449517E+03  0.46999998093E+01 0.  1.
       -5    1    3    3    0  502 -0.68489193844E+02  0.12383112381E+03  0.16174909862E+03  0.21496459661E+03  0.46999998093E+01 0. -1.
</event>
<event>
 5   0  0.2511944E-01  0.4938740E+03  0.7818609E-02  0.1015390E+00
       -2   -1    0    0    0  501  0.00000000000E+00  0.00000000000E+00  0.16431201207E+03  0.16431201209E+03  0.25500000920E-02 0.  1.
        2   -1    0    0  501    0  0.00000000000E+00  0.00000000000E+00 -0.37111032647E+03  0.37111032648E+03  0.25500000920E-02 0. -1.
    10030    2    1    2    0    0  0.00000000000E+00  0.00000000000E+00 -0.20679831440E+03  0.53542233857E+03  0.49387401005E+03 0.  0.
        1    1    3    3  502    0  0.20661610831E+03 -0.11483905220E+03 -0.25979554502E+02  0.23780908604E+03  0.50400001928E-02 0.  1.
       -1    1    3    3    0  502 -0.20661610831E+03  0.11483905220E+03 -0.18081875990E+03  0.29761325253E+03  0.50400001928E-02 0. -1.
</event>
<event>
 5   0  0.2504064E-01  0.5025906E+03  0.7818609E-02  0.1013105E+00
       -2   -1    0    0    0  501  0.00000000000E+00  0.00000000000E+00  0.75070880372E+02  0.75070880416E+02  0.25500000920E-02 0.  1.
        2   -1    0    0  501    0  0.00000000000E+00  0.00000000000E+00 -0.84119588148E+03  0.84119588149E+03  0.25500000920E-02 0. -1.
    10030    2    1    2    0    0  0.00000000000E+00  0.00000000000E+00 -0.76612500111E+03  0.91626676190E+03  0.50259055069E+03 0.  0.
        5    1    3    3  502    0  0.78147250042E+02 -0.67941110941E+02  0.34278275584E+02  0.10917910707E+03  0.46999998093E+01 0.  1.
       -5    1    3    3    0  502 -0.78147250042E+02  0.67941110941E+02 -0.80040327670E+03  0.80708765484E+03  0.46999998093E+01 0. -1.
</event>
<event>
 5   0  0.2504064E-01  0.5043999E+03  0.7818609E-02  0.1012637E+00
        2   -1    0    0  501    0  0.00000000000E+00  0.00000000000E+00  0.36627717826E+03  0.36627717827E+03  0.25500000920E-02 0. -1.
       -2   -1    0    0    0  501  0.00000000000E+00  0.00000000000E+00 -0.17365213929E+03  0.17365213931E+03  0.25500000920E-02 0.  1.
    10030    2    1    2    0    0  0.00000000000E+00  0.00000000000E+00  0.19262503897E+03  0.53992931758E+03  0.50439990319E+03 0.  0.
        5    1    3    3  502    0 -0.42197765613E+02 -0.63460022297E+02 -0.16098258055E+03  0.17817212770E+03  0.46999998093E+01 0.  1.
       -5    1    3    3    0  502  0.42197765613E+02  0.63460022297E+02  0.35360761951E+03  0.36175718988E+03  0.46999998093E+01 0. -1.
</event>
<event>
 5   0  0.1413361E-01  0.5012868E+03  0.7818609E-02  0.1013444E+00
        1   -1    0    0  501    0  0.00000000000E+00  0.00000000000E+00  0.34793690728E+03  0.34793690732E+03  0.50400001928E-02 0.  1.
       -1   -1    0    0    0  501  0.00000000000E+00  0.00000000000E+00 -0.18055608134E+03  0.18055608141E+03  0.50400001928E-02 0. -1.
    10030    2    1    2    0    0  0.00000000000E+00  0.00000000000E+00  0.16738082594E+03  0.52849298872E+03  0.50128684227E+03 0.  0.
        3    1    3    3  502    0  0.21658466244E+03 -0.12855583228E+01 -0.49296562756E+02  0.22212773345E+03  0.10100000352E+00 0. -1.
       -3    1    3    3    0  502 -0.21658466244E+03  0.12855583228E+01  0.21667738870E+03  0.30636525528E+03  0.10100000352E+00 0.  1.
</event>
<event>
 5   0  0.1448458E-01  0.5007502E+03  0.7818609E-02  0.1013583E+00
       -1   -1    0    0    0  501  0.00000000000E+00  0.00000000000E+00  0.10714130611E+03  0.10714130623E+03  0.50400001928E-02 0. -1.
        1   -1    0    0  501    0  0.00000000000E+00  0.00000000000E+00 -0.58509353102E+03  0.58509353104E+03  0.50400001928E-02 0.  1.
    10030    2    1    2    0    0  0.00000000000E+00  0.00000000000E+00 -0.47795222490E+03  0.69223483727E+03  0.50075017787E+03 0.  0.
        5    1    3    3  502    0  0.15847045365E+03  0.10274601872E+02  0.28534911857E+02  0.16141494143E+03  0.46999998093E+01 0. -1.
       -5    1    3    3    0  502 -0.15847045365E+03 -0.10274601872E+02 -0.50648713676E+03  0.53081989584E+03  0.46999998093E+01 0.  1.
</event>
<event>
 5   0  0.2504064E-01  0.4775099E+03  0.7818609E-02  0.1019822E+00
        2   -1    0    0  501    0  0.00000000000E+00  0.00000000000E+00  0.26934091070E+03  0.26934091072E+03  0.25500000920E-02 0.  1.
       -2   -1    0    0    0  501  0.00000000000E+00  0.00000000000E+00 -0.21164227097E+03  0.21164227098E+03  0.25500000920E-02 0. -1.
    10030    2    1    2    0    0  0.00000000000E+00  0.00000000000E+00  0.57698639736E+02  0.48098318170E+03  0.47750988267E+03 0.  0.
        5    1    3    3  502    0  0.51169215866E+01 -0.22679385757E+03  0.10368776363E+03  0.24946919458E+03  0.46999998093E+01 0. -1.
       -5    1    3    3    0  502 -0.51169215866E+01  0.22679385757E+03 -0.45989123894E+02  0.23151398712E+03  0.46999998093E+01 0.  1.
</event>
<event>
 5   0  0.1453602E-01  0.4960333E+03  0.7818609E-02  0.1014819E+00
       -1   -1    0    0    0  501  0.00000000000E+00  0.00000000000E+00  0.11109046907E+03  0.11109046918E+03  0.50400001928E-02 0.  1.
        1   -1    0    0  501    0  0.00000000000E+00  0.00000000000E+00 -0.55371327234E+03  0.55371327236E+03  0.50400001928E-02 0. -1.
    10030    2    1    2    0    0  0.00000000000E+00  0.00000000000E+00 -0.44262280327E+03  0.66480374155E+03  0.49603333436E+03 0.  0.
        2    1    3    3  502    0 -0.93256830055E+02  0.15834811031E+02 -0.52858811167E+03  0.53698507372E+03  0.25500000920E-02 0. -1.
       -2    1    3    3    0  502  0.93256830055E+02 -0.15834811031E+02  0.85965308395E+02  0.12781866783E+03  0.25500000920E-02 0.  1.
</event>
<event>
 5   0  0.2511944E-01  0.5018334E+03  0.7818609E-02  0.1013301E+00
       -2   -1    0    0    0  501  0.00000000000E+00  0.00000000000E+00  0.47419333527E+02  0.47419333596E+02  0.25500000920E-02 0. -1.
        2   -1    0    0  501    0  0.00000000000E+00  0.00000000000E+00 -0.13277111855E+04  0.13277111855E+04  0.25500000920E-02 0.  1.
    10030    2    1    2    0    0  0.00000000000E+00  0.00000000000E+00 -0.12802918520E+04  0.13751305191E+04  0.50183335713E+03 0.  0.
        1    1    3    3  502    0  0.57458879109E+02 -0.33745591282E+02  0.22730297472E+02  0.70405640172E+02  0.50400001928E-02 0. -1.
       -1    1    3    3    0  502 -0.57458879109E+02  0.33745591282E+02 -0.13030221494E+04  0.13047248789E+04  0.50400001928E-02 0.  1.
</event>
<event>
 5   0  0.1448458E-01  0.5019500E+03  0.7818609E-02  0.1013271E+00
       -1   -1    0    0    0  501  0.00000000000E+00  0.00000000000E+00  0.34373648029E+03  0.34373648033E+03  0.50400001928E-02 0.  1.
        1   -1    0    0  501    0  0.00000000000E+00  0.00000000000E+00 -0.18324631229E+03  0.18324631236E+03  0.50400001928E-02 0. -1.
    10030    2    1    2    0    0  0.00000000000E+00  0.00000000000E+00  0.16049016800E+03  0.52698279269E+03  0.50194996739E+03 0.  0.
        5    1    3    3  502    0 -0.14266744514E+03  0.56232866008E+02 -0.12828115209E+03  0.19998569724E+03  0.46999998093E+01 0. -1.
       -5    1    3    3    0  502  0.14266744514E+03 -0.56232866008E+02  0.28877132009E+03  0.32699709544E+03  0.46999998093E+01 0.  1.
</event>
<event>
 5   0  0.1529146E-01  0.4995223E+03  0.7818609E-02  0.1013904E+00
        1   -1    0    0  501    0  0.00000000000E+00  0.00000000000E+00  0.26707793820E+03  0.26707793825E+03  0.50400001928E-02 0. -1.
       -1   -1    0    0    0  501  0.00000000000E+00  0.00000000000E+00 -0.23356716520E+03  0.23356716525E+03  0.50400001928E-02 0.  1.
    10030    2    1    2    0    0  0.00000000000E+00  0.00000000000E+00  0.33510773002E+02  0.50064510350E+03  0.49952231957E+03 0.  0.
        1    1    3    3  502    0 -0.82036175324E+02  0.40230484911E+02 -0.21621538841E+03  0.23472860965E+03  0.50400001928E-02 0.  1.
       -1    1    3    3    0  502  0.82036175324E+02 -0.40230484911E+02  0.24972616142E+03  0.26591649384E+03  0.50400001928E-02 0. -1.
</event>
<event>
 5   0  0.1529146E-01  0.5013588E+03  0.7818609E-02  0.1013425E+00
        1   -1    0    0  501    0  0.00000000000E+00  0.00000000000E+00  0.20209200807E+03  0.20209200814E+03  0.50400001928E-02 0. -1.
       -1   -1    0    0    0  501  0.00000000000E+00  0.00000000000E+00 -0.31094829974E+03  0.31094829979E+03  0.50400001928E-02 0.  1.
    10030    2    1    2    0    0  0.00000000000E+00  0.00000000000E+00 -0.10885629167E+03  0.51304030792E+03  0.50135881893E+03 0.  0.
        1    1    3    3  502    0 -0.73288895581E+02 -0.17910229380E+03  0.10863096195E+03  0.22192246344E+03  0.50400001928E-02 0.  1.
       -1    1    3    3    0  502  0.73288895581E+02  0.17910229380E+03 -0.21748725362E+03  0.29111784448E+03  0.50400001928E-02 0. -1.
</event>
<event>
 5   0  0.1453602E-01  0.4929098E+03  0.7818609E-02  0.1015646E+00
        1   -1    0    0  501    0  0.00000000000E+00  0.00000000000E+00  0.47262971781E+03  0.47262971784E+03  0.50400001928E-02 0.  1.
       -1   -1    0    0    0  501  0.00000000000E+00  0.00000000000E+00 -0.12851502160E+03  0.12851502170E+03  0.50400001928E-02 0. -1.
    10030    2    1    2    0    0  0.00000000000E+00  0.00000000000E+00  0.34411469621E+03  0.60114473954E+03  0.49290980283E+03 0.  0.
        2    1    3    3  502    0 -0.34664209030E+02  0.39115306935E+01  0.46960354690E+03  0.47089743971E+03  0.25500000920E-02 0.  1.
       -2    1    3    3    0  502  0.34664209030E+02 -0.39115306935E+01 -0.12548885068E+03  0.13024729983E+03  0.25500000920E-02 0. -1.
</event>
<event>
 5   0  0.2413301E-01  0.4913126E+03  0.7818609E-02  0.1016072E+00
        2   -1    0    0  501    0  0.00000000000E+00  0.00000000000E+00  0.52816092112E+03  0.52816092112E+03  0.25500000920E-02 0.  1.
       -2   -1    0    0    0  501  0.00000000000E+00  0.00000000000E+00 -0.11425875209E+03  0.11425875212E+03  0.25500000920E-02 0. -1.
    10030    2    1    2    0    0  0.00000000000E+00  0.00000000000E+00  0.41390216903E+03  0.64241967324E+03  0.49131255941E+03 0.  0.
        4    1    3    3  502    0 -0.11924580522E+03  0.14530750127E+03  0.16020470387E+00  0.18797731393E+03  0.12699999809E+01 0. -1.
       -4    1    3    3    0  502  0.11924580522E+03 -0.14530750127E+03  0.41374196433E+03  0.45444235931E+03  0.12699999809E+01 0.  1.
</event>
<event>
 5   0  0.2466034E-01  0.4948440E+03  0.7818609E-02  0.1015134E+00
       -2   -1    0    0    0  501  0.00000000000E+00  0.00000000000E+00  0.70062332916E+02  0.70062332962E+02  0.25500000920E-02 0. -1.
        2   -1    0    0  501    0  0.00000000000E+00  0.00000000000E+00 -0.87375971864E+03  0.87375971864E+03  0.25500000920E-02 0.  1.
    10030    2    1    2    0    0  0.00000000000E+00  0.00000000000E+00 -0.80369738572E+03  0.94382205161E+03  0.49484399287E+03 0.  0.
        3    1    3    3  502    0 -0.21809625717E+03  0.11437722760E+03 -0.44736543541E+03  0.51067011914E+03  0.10100000352E+00 0.  1.
       -3    1    3    3    0  502  0.21809625717E+03 -0.11437722760E+03 -0.35633195032E+03  0.43315193247E+03  0.10100000352E+00 0. -1.
</event>
<event>
 5   0  0.1439814E-01  0.4939006E+03  0.7818609E-02  0.1015383E+00
       -1   -1    0    0    0  501  0.00000000000E+00  0.00000000000E+00  0.62676858494E+02  0.62676858697E+02  0.50400001928E-02 0.  1.
        1   -1    0    0  501    0  0.00000000000E+00  0.00000000000E+00 -0.97299781578E+03  0.97299781580E+03  0.50400001928E-02 0. -1.
    10030    2    1    2    0    0  0.00000000000E+00  0.00000000000E+00 -0.91032095729E+03  0.10356746745E+04  0.49390058322E+03 0.  0.
        4    1    3    3  502    0 -0.20732499485E+02  0.11956564394E+03 -0.41643623361E+01  0.12142789860E+03  0.12699999809E+01 0.  1.
       -4    1    3    3    0  502  0.20732499485E+02 -0.11956564394E+03 -0.90615659495E+03  0.91424677589E+03  0.12699999809E+01 0. -1.
</event>
<event>
 5   0  0.2504064E-01  0.5018802E+03  0.7818609E-02  0.1013289E+00
       -2   -1    0    0    0  501  0.00000000000E+00  0.00000000000E+00  0.50390069331E+02  0.50390069395E+02  0.25500000920E-02 0.  1.
        2   -1    0    0  501    0  0.00000000000E+00  0.00000000000E+00 -0.12496694473E+04  0.12496694473E+04  0.25500000920E-02 0. -1.
    10030    2    1    2    0    0  0.00000000000E+00  0.00000000000E+00 -0.11992793779E+04  0.13000595167E+04  0.50188018543E+03 0.  0.
        5    1    3    3  502    0 -0.21868998586E+03 -0.78587471774E+02 -0.84466728384E+03  0.87606290358E+03  0.46999998093E+01 0.  1.
       -5    1    3    3    0  502  0.21868998586E+03  0.78587471774E+02 -0.35461209411E+03  0.42399661310E+03  0.46999998093E+01 0. -1.
</event>
<event>
 5   0  0.2466034E-01  0.5003613E+03  0.7818609E-02  0.1013685E+00
        2   -1    0    0  501    0  0.00000000000E+00  0.00000000000E+00  0.54594241249E+03  0.54594241250E+03  0.25500000920E-02 0.  1.
       -2   -1    0    0    0  501  0.00000000000E+00  0.00000000000E+00 -0.11464643051E+03  0.11464643054E+03  0.25500000920E-02 0. -1.
    10030    2    1    2    0    0  0.00000000000E+00  0.00000000000E+00  0.43129598198E+03  0.66058884304E+03  0.50036126497E+03 0.  0.
        3    1    3    3  502    0 -0.11563549660E+03 -0.13245653123E+03  0.45061087752E+03  0.48370081029E+03  0.10100000352E+00 0.  1.
       -3    1    3    3    0  502  0.11563549660E+03  0.13245653123E+03 -0.19314895541E+02  0.17688803275E+03  0.10100000352E+00 0. -1.
</event>
<event>
 5   0  0.2413301E-01  0.4844075E+03  0.7818609E-02  0.1017931E+00
        2   -1    0    0  501    0  0.00000000000E+00  0.00000000000E+00  0.64655980409E+03  0.64655980410E+03  0.25500000920E-02 0. -1.
       -2   -1    0    0    0  501  0.00000000000E+00  0.00000000000E+00 -0.90730445822E+02  0.90730445858E+02  0.25500000920E-02 0.  1.
    10030    2    1    2    0    0  0.00000000000E+00  0.00000000000E+00  0.55582935827E+03  0.73729024996E+03  0.48440751147E+03 0.  0.
        4    1    3    3  502    0 -0.19622722219E+03 -0.11826256193E+03  0.39746929166E+03  0.45877511593E+03  0.12699999809E+01 0. -1.
       -4    1    3    3    0  502  0.19622722219E+03  0.11826256193E+03  0.15836006661E+03  0.27851513402E+03  0.12699999809E+01 0.  1.
</event>
<event>
 5   0  0.2488968E-01  0.4826467E+03  0.7818609E-02  0.1018410E+00
        2   -1    0    0  501    0  0.00000000000E+00  0.00000000000E+00  0.11681680053E+03  0.11681680056E+03  0.25500000920E-02 0.  1.
       -2   -1    0    0    0  501  0.00000000000E+00  0.00000000000E+00 -0.49853248727E+03  0.49853248727E+03  0.25500000920E-02 0. -1.
    10030    2    1    2    0    0  0.00000000000E+00  0.00000000000E+00 -0.38171568674E+03  0.61534928783E+03  0.48264674507E+03 0.  0.
        2    1    3    3  502    0  0.98749662413E+02  0.76620150563E+02 -0.45404984354E+03  0.47093885349E+03  0.25500000920E-02 0. -1.
       -2    1    3    3    0  502 -0.98749662413E+02 -0.76620150563E+02  0.72334156804E+02  0.14441043434E+03  0.25500000920E-02 0.  1.
</event>
<event>
 5   0  0.2488968E-01  0.4918720E+03  0.7818609E-02  0.1015922E+00
        2   -1    0    0  501    0  0.00000000000E+00  0.00000000000E+00  0.16135084044E+04  0.16135084044E+04  0.25500000920E-02 0. -1.
       -2   -1    0    0    0  501  0.00000000000E+00  0.00000000000E+00 -0.37486330051E+02  0.37486330137E+02  0.25500000920E-02 0.  1.
    10030    2    1    2    0    0  0.00000000000E+00  0.00000000000E+00  0.15760220743E+04  0.16509947345E+04  0.49187196976E+03 0.  0.
        2    1    3    3  502    0  0.86959424715E+02  0.93000040176E+02  0.81749045968E+02  0.15130715628E+03  0.25500000920E-02 0.  1.
       -2    1    3    3    0  502 -0.86959424715E+02 -0.93000040176E+02  0.14942730284E+04  0.14996875782E+04  0.25500000920E-02 0. -1.
</event>
<event>
 5   0  0.2488968E-01  0.5010087E+03  0.7818609E-02  0.1013516E+00
        2   -1    0    0  501    0  0.00000000000E+00  0.00000000000E+00  0.20327416470E+04  0.20327416470E+04  0.25500000920E-02 0. -1.
       -2   -1    0    0    0  501  0.00000000000E+00  0.00000000000E+00 -0.30870839086E+02  0.30870839192E+02  0.25500000920E-02 0.  1.
    10030    2    1    2    0    0  0.00000000000E+00  0.00000000000E+00  0.20018708079E+04  0.20636124862E+04  0.50100874403E+03 0.  0.
        2    1    3    3  502    0  0.16572407417E+03  0.18781259543E+03  0.98530487917E+03  0.10166433714E+04  0.25500000920E-02 0. -1.
       -2    1    3    3    0  502 -0.16572407417E+03 -0.18781259543E+03  0.10165659287E+04  0.10469691147E+04  0.25500000920E-02 0.  1.
</event>
<event>
 5   0  0.2466034E-01  0.4957050E+03  0.7818609E-02  0.1014906E+00
       -2   -1    0    0    0  501  0.00000000000E+00  0.00000000000E+00  0.23845695602E+03  0.23845695604E+03  0.25500000920E-02 0.  1.
        2   -1    0    0  501    0  0.00000000000E+00  0.00000000000E+00 -0.25761821793E+03  0.25761821794E+03  0.25500000920E-02 0. -1.
    10030    2    1    2    0    0  0.00000000000E+00  0.00000000000E+00 -0.19161261905E+02  0.49607517398E+03  0.49570497706E+03 0.  0.
        3    1    3    3  502    0 -0.91257228443E+02  0.28318788015E+02  0.21928430142E+03  0.23919751367E+03  0.10100000352E+00 0.  1.
       -3    1    3    3    0  502  0.91257228443E+02 -0.28318788015E+02 -0.23844556332E+03  0.25687766031E+03  0.10100000352E+00 0. -1.
</event>
<event>
 5   0  0.2413301E-01  0.5007500E+03  0.7818609E-02  0.1013583E+00
       -2   -1    0    0    0  501  0.00000000000E+00  0.00000000000E+00  0.90874613270E+02  0.90874613306E+02  0.25500000920E-02 0.  1.
        2   -1    0    0  501    0  0.00000000000E+00  0.00000000000E+00 -0.68982554577E+03  0.68982554578E+03  0.25500000920E-02 0. -1.
    10030    2    1    2    0    0  0.00000000000E+00  0.00000000000E+00 -0.59895093250E+03  0.78070015908E+03  0.50074995641E+03 0.  0.
        4    1    3    3  502    0  0.19722847553E+03 -0.13541969404E+03 -0.41455547891E+03  0.47863913660E+03  0.12699999809E+01 0. -1.
       -4    1    3    3    0  502 -0.19722847553E+03  0.13541969404E+03 -0.18439545360E+03  0.30206102248E+03  0.12699999809E+01 0.  1.
</event>
<event>
 5   0  0.2511944E-01  0.5343540E+03  0.7818609E-02  0.1005182E+00
       -2   -1    0    0    0  501  0.00000000000E+00  0.00000000000E+00  0.85011592018E+02  0.85011592056E+02  0.25500000920E-02 0. -1.
        2   -1    0    0  501    0  0.00000000000E+00  0.00000000000E+00 -0.83969206514E+03  0.83969206514E+03  0.25500000920E-02 0.  1.
    10030    2    1    2    0    0  0.00000000000E+00  0.00000000000E+00 -0.75468047312E+03  0.92470365720E+03  0.53435403725E+03 0.  0.
        1    1    3    3  502    0 -0.58386782154E+02 -0.15224666762E+03 -0.74360121467E+03  0.76126922348E+03  0.50400001928E-02 0.  1.
       -1    1    3    3    0  502  0.58386782154E+02  0.15224666762E+03 -0.11079258453E+02  0.16343443372E+03  0.50400001928E-02 0. -1.
</event>
<event>
 5   0  0.1439814E-01  0.5005900E+03  0.7818609E-02  0.1013625E+00
        1   -1    0    0  501    0  0.00000000000E+00  0.00000000000E+00  0.17086899732E+04  0.17086899732E+04  0.50400001928E-02 0.  1.
       -1   -1    0    0    0  501  0.00000000000E+00  0.00000000000E+00 -0.36664107669E+02  0.36664108015E+02  0.50400001928E-02 0. -1.
    10030    2    1    2    0    0  0.00000000000E+00  0.00000000000E+00  0.16720258655E+04  0.17453540812E+04  0.50059002570E+03 0.  0.
        4    1    3    3  502    0  0.11324364302E+03  0.11728482730E+03  0.14981548906E+04  0.15070001800E+04  0.12699999809E+01 0.  1.
       -4    1    3    3    0  502 -0.11324364302E+03 -0.11728482730E+03  0.17387097490E+03  0.23835390119E+03  0.12699999809E+01 0. -1.
</event>
<event>
 5   0  0.1413361E-01  0.5032682E+03  0.7818609E-02  0.1012929E+00
        1   -1    0    0  501    0  0.00000000000E+00  0.00000000000E+00  0.46903652378E+03  0.46903652381E+03  0.50400001928E-02 0.  1.
       -1   -1    0    0    0  501  0.00000000000E+00  0.00000000000E+00 -0.13499955809E+03  0.13499955819E+03  0.50400001928E-02 0. -1.
    10030    2    1    2    0    0  0.00000000000E+00  0.00000000000E+00  0.33403696569E+03  0.60403608199E+03  0.50326821269E+03 0.  0.
        3    1    3    3  502    0 -0.93153251912E+02 -0.10010362783E+03 -0.86514936794E+02  0.16181195610E+03  0.10100000352E+00 0. -1.
       -3    1    3    3    0  502  0.93153251912E+02  0.10010362783E+03  0.42055190248E+03  0.44222412590E+03  0.10100000352E+00 0.  1.
</event>
<event>
 5   0  0.1439814E-01  0.5104601E+03  0.7818609E-02  0.1011084E+00
        1   -1    0    0  501    0  0.00000000000E+00  0.00000000000E+00  0.11245260495E+04  0.11245260495E+04  0.50400001928E-02 0.  1.
       -1   -1    0    0    0  501  0.00000000000E+00  0.00000000000E+00 -0.57928744567E+02  0.57928744786E+02  0.50400001928E-02 0. -1.
    10030    2    1    2    0    0  0.00000000000E+00  0.00000000000E+00  0.10665973049E+04  0.11824547943E+04  0.51046011564E+03 0.  0.
        4    1    3    3  502    0  0.82957419909E+02 -0.11871910707E+02  0.10917401270E+04  0.10949525075E+04  0.12699999809E+01 0.  1.
       -4    1    3    3    0  502 -0.82957419909E+02  0.11871910707E+02 -0.25142822153E+02  0.87502286756E+02  0.12699999809E+01 0. -1.
</event>
<event>
 5   0  0.2413301E-01  0.5680179E+03  0.7818609E-02  0.9974074E-01
        2   -1    0    0  501    0  0.00000000000E+00  0.00000000000E+00  0.17899323035E+04  0.17899323035E+04  0.25500000920E-02 0. -1.
       -2   -1    0    0    0  501  0.00000000000E+00  0.00000000000E+00 -0.45063766320E+02  0.45063766393E+02  0.25500000920E-02 0.  1.
    10030    2    1    2    0    0  0.00000000000E+00  0.00000000000E+00  0.17448685371E+04  0.18349960699E+04  0.56801792620E+03 0.  0.
        4    1    3    3  502    0  0.10055257777E+03 -0.23236283097E+03  0.12881084620E+04  0.13127560051E+04  0.12699999809E+01 0. -1.
       -4    1    3    3    0  502 -0.10055257777E+03  0.23236283097E+03  0.45676007516E+03  0.52224006479E+03  0.12699999809E+01 0.  1.
</event>
<event>
 5   0  0.2488968E-01  0.4776620E+03  0.7818609E-02  0.1019780E+00
       -2   -1    0    0    0  501  0.00000000000E+00  0.00000000000E+00  0.11771955025E+03  0.11771955028E+03  0.25500000920E-02 0.  1.
        2   -1    0    0  501    0  0.00000000000E+00  0.00000000000E+00 -0.48454351000E+03  0.48454351000E+03  0.25500000920E-02 0. -1.
    10030    2    1    2    0    0  0.00000000000E+00  0.00000000000E+00 -0.36682395974E+03  0.60226306028E+03  0.47766198964E+03 0.  0.
        2    1    3    3  502    0 -0.13209641564E+03  0.16077470426E+03 -0.35605025208E+02  0.21110586534E+03  0.25500000920E-02 0.  1.
       -2    1    3    3    0  502  0.13209641564E+03 -0.16077470426E+03 -0.33121893453E+03  0.39115719494E+03  0.25500000920E-02 0. -1.
</event>
<event>
 5   0  0.2488968E-01  0.4975258E+03  0.7818609E-02  0.1014427E+00
       -2   -1    0    0    0  501  0.00000000000E+00  0.00000000000E+00  0.38807065323E+03  0.38807065324E+03  0.25500000920E-02 0. -1.
        2   -1    0    0  501    0  0.00000000000E+00  0.00000000000E+00 -0.15946317988E+03  0.15946317990E+03  0.25500000920E-02 0.  1.
    10030    2    1    2    0    0  0.00000000000E+00  0.00000000000E+00  0.22860747335E+03  0.54753383314E+03  0.49752579989E+03 0.  0.
        2    1    3    3  502    0  0.97723688490E+02 -0.18982878188E+03 -0.26192202424E+02  0.21510675767E+03  0.25500000920E-02 0.  1.
       -2    1    3    3    0  502 -0.97723688490E+02  0.18982878188E+03  0.25479967577E+03  0.33242707546E+03  0.25500000920E-02 0. -1.
</event>
<event>
 5   0  0.2511944E-01  0.5026419E+03  0.7818609E-02  0.1013092E+00
        2   -1    0    0  501    0  0.00000000000E+00  0.00000000000E+00  0.29898206525E+03  0.29898206526E+03  0.25500000920E-02 0. -1.
       -2   -1    0    0    0  501  0.00000000000E+00  0.00000000000E+00 -0.21125754763E+03  0.21125754765E+03  0.25500000920E-02 0.  1.
    10030    2    1    2    0    0  0.00000000000E+00  0.00000000000E+00  0.87724517615E+02  0.51023961291E+03  0.50264189200E+03 0.  0.
        1    1    3    3  502    0 -0.54007797882E+02 -0.14825180579E+03 -0.15471359467E+03  0.22097904099E+03  0.50400001928E-02 0.  1.
       -1    1    3    3    0  502  0.54007797882E+02  0.14825180579E+03  0.24243811229E+03  0.28926057192E+03  0.50400001928E-02 0. -1.
</event>
<event>
 5   0  0.2504064E-01  0.4574193E+03  0.7818609E-02  0.1025532E+00
       -2   -1    0    0    0  501  0.00000000000E+00  0.00000000000E+00  0.84416191472E+02  0.84416191511E+02  0.25500000920E-02 0.  1.
        2   -1    0    0  501    0  0.00000000000E+00  0.00000000000E+00 -0.61964541399E+03  0.61964541399E+03  0.25500000920E-02 0. -1.
    10030    2    1    2    0    0  0.00000000000E+00  0.00000000000E+00 -0.53522922251E+03  0.70406160550E+03  0.45741930841E+03 0.  0.
        5    1    3    3  502    0 -0.81339688031E+02  0.87313802896E+02 -0.56784292425E+03  0.58026504431E+03  0.46999998093E+01 0. -1.
       -5    1    3    3    0  502  0.81339688031E+02 -0.87313802896E+02  0.32613701734E+02  0.12379656120E+03  0.46999998093E+01 0.  1.
</event>
<event>
 5   0  0.1453602E-01  0.4898376E+03  0.7818609E-02  0.1016466E+00
        1   -1    0    0  501    0  0.00000000000E+00  0.00000000000E+00  0.58807956480E+03  0.58807956483E+03  0.50400001928E-02 0.  1.
       -1   -1    0    0    0  501  0.00000000000E+00  0.00000000000E+00 -0.10200185881E+03  0.10200185893E+03  0.50400001928E-02 0. -1.
    10030    2    1    2    0    0  0.00000000000E+00  0.00000000000E+00  0.48607770600E+03  0.69008142376E+03  0.48983755996E+03 0.  0.
        2    1    3    3  502    0 -0.63297402054E+02 -0.22951366084E+03  0.16208357838E+03  0.28801765225E+03  0.25500000920E-02 0. -1.
       -2    1    3    3    0  502  0.63297402054E+02  0.22951366084E+03  0.32399412761E+03  0.40206377150E+03  0.25500000920E-02 0.  1.
</event>
<event>
 5   0  0.1413361E-01  0.4805751E+03  0.7818609E-02  0.1018977E+00
       -1   -1    0    0    0  501  0.00000000000E+00  0.00000000000E+00  0.20322413222E+03  0.20322413228E+03  0.50400001928E-02 0. -1.
        1   -1    0    0  501    0  0.00000000000E+00  0.00000000000E+00 -0.28411043580E+03  0.28411043585E+03  0.50400001928E-02 0.  1.
    10030    2    1    2    0    0  0.00000000000E+00  0.00000000000E+00 -0.80886303579E+02  0.48733456813E+03  0.48057505885E+03 0.  0.
        3    1    3    3  502    0 -0.88617686145E+02  0.30193172495E+02 -0.26485509263E+03  0.28091449278E+03  0.10100000352E+00 0.  1.
       -3    1    3    3    0  502  0.88617686145E+02 -0.30193172495E+02  0.18396878905E+03  0.20642007535E+03  0.10100000352E+00 0. -1.
</event>
<event>
 5   0  0.1529146E-01  0.5224725E+03  0.7818609E-02  0.1008074E+00
       -1   -1    0    0    0  501  0.00000000000E+00  0.00000000000E+00  0.11450569136E+03  0.11450569148E+03  0.50400001928E-02 0.  1.
        1   -1    0    0  501    0  0.00000000000E+00  0.00000000000E+00 -0.59599111890E+03  0.59599111892E+03  0.50400001928E-02 0. -1.
    10030    2    1    2    0    0  0.00000000000E+00  0.00000000000E+00 -0.48148542754E+03  0.71049681040E+03  0.52247248794E+03 0.  0.
        1    1    3    3  502    0 -0.22429835265E+03  0.11432261569E+03 -0.33559296973E+03  0.41952598587E+03  0.50400001928E-02 0.  1.
       -1    1    3    3    0  502  0.22429835265E+03 -0.11432261569E+03 -0.14589245781E+03  0.29097082453E+03  0.50400001928E-02 0. -1.
</event>
<event>
 5   0  0.1453602E-01  0.5038168E+03  0.7818609E-02  0.1012787E+00
        1   -1    0    0  501    0  0.00000000000E+00  0.00000000000E+00  0.31236483597E+03  0.31236483601E+03  0.50400001928E-02 0. -1.
       -1   -1    0    0    0  501  0.00000000000E+00  0.00000000000E+00 -0.20315296581E+03  0.20315296587E+03  0.50400001928E-02 0.  1.
    10030    2    1    2    0    0  0.00000000000E+00  0.00000000000E+00  0.10921187016E+03  0.51551780189E+03  0.50381680349E+03 0.  0.
        2    1    3    3  502    0  0.15124880267E+03  0.20133749739E+03  0.47753025870E+02  0.25630711979E+03  0.25500000920E-02 0.  1.
       -2    1    3    3    0  502 -0.15124880267E+03 -0.20133749739E+03  0.61458844294E+02  0.25921068210E+03  0.25500000920E-02 0. -1.
</event>
<event>
 5   0  0.2466034E-01  0.4971293E+03  0.7818609E-02  0.1014531E+00
       -2   -1    0    0    0  501  0.00000000000E+00  0.00000000000E+00  0.14913296867E+03  0.14913296869E+03  0.25500000920E-02 0. -1.
        2   -1    0    0  501    0  0.00000000000E+00  0.00000000000E+00 -0.41429066299E+03  0.41429066300E+03  0.25500000920E-02 0.  1.
    10030    2    1    2    0    0  0.00000000000E+00  0.00000000000E+00 -0.26515769432E+03  0.56342363170E+03  0.49712934524E+03 0.  0.
        3    1    3    3  502    0 -0.11591380644E+03  0.18813671034E+03 -0.26156707314E+03  0.34241608644E+03  0.10100000352E+00 0.  1.
       -3    1    3    3    0  502  0.11591380644E+03 -0.18813671034E+03 -0.35906211815E+01  0.22100754526E+03  0.10100000352E+00 0. -1.
</event>
<event>
 5   0  0.1453602E-01  0.5042344E+03  0.7818609E-02  0.1012680E+00
       -1   -1    0    0    0  501  0.00000000000E+00  0.00000000000E+00  0.12141270981E+03  0.12141270992E+03  0.50400001928E-02 0. -1.
        1   -1    0    0  501    0  0.00000000000E+00  0.00000000000E+00 -0.52352906176E+03  0.52352906179E+03  0.50400001928E-02 0.  1.
    10030    2    1    2    0    0  0.00000000000E+00  0.00000000000E+00 -0.40211635195E+03  0.64494177170E+03  0.50423439825E+03 0.  0.
        2    1    3    3  502    0 -0.13780168227E+03  0.19657161334E+03 -0.29958150826E+03  0.38389944374E+03  0.25500000920E-02 0.  1.
       -2    1    3    3    0  502  0.13780168227E+03 -0.19657161334E+03 -0.10253484369E+03  0.26104232796E+03  0.25500000920E-02 0. -1.
</event>
<event>
 5   0  0.2504064E-01  0.4957411E+03  0.7818609E-02  0.1014897E+00
       -2   -1    0    0    0  501  0.00000000000E+00  0.00000000000E+00  0.90628863836E+02  0.90628863872E+02  0.25500000920E-02 0. -1.
        2   -1    0    0  501    0  0.00000000000E+00  0.00000000000E+00 -0.67792749764E+03  0.67792749765E+03  0.25500000920E-02 0.  1.
    10030    2    1    2    0    0  0.00000000000E+00  0.00000000000E+00 -0.58729863381E+03  0.76855636152E+03  0.49574105697E+03 0.  0.
        5    1    3    3  502    0 -0.69705117852E+02  0.21682786303E+02  0.73513557592E+02  0.10370766522E+03  0.46999998093E+01 0. -1.
       -5    1    3    3    0  502  0.69705117852E+02 -0.21682786303E+02 -0.66081219140E+03  0.66484869630E+03  0.46999998093E+01 0.  1.
</event>
<event>
 5   0  0.2511944E-01  0.5057053E+03  0.7818609E-02  0.1012300E+00
        2   -1    0    0  501    0  0.00000000000E+00  0.00000000000E+00  0.14367993162E+04  0.14367993162E+04  0.25500000920E-02 0. -1.
       -2   -1    0    0    0  501  0.00000000000E+00  0.00000000000E+00 -0.44497839330E+02  0.44497839403E+02  0.25500000920E-02 0.  1.
    10030    2    1    2    0    0  0.00000000000E+00  0.00000000000E+00  0.13923014769E+04  0.14812971556E+04  0.50570531014E+03 0.  0.
        1    1    3    3  502    0 -0.55141745222E+02  0.24293726148E+03  0.82299905026E+03  0.85987589909E+03  0.50400001928E-02 0. -1.
       -1    1    3    3    0  502  0.55141745222E+02 -0.24293726148E+03  0.56930242659E+03  0.62142125650E+03  0.50400001928E-02 0.  1.
</event>
<event>
 5   0  0.1448458E-01  0.4923273E+03  0.7818609E-02  0.1015801E+00
       -1   -1    0    0    0  501  0.00000000000E+00  0.00000000000E+00  0.79549936054E+02  0.79549936214E+02  0.50400001928E-02 0. -1.
        1   -1    0    0  501    0  0.00000000000E+00  0.00000000000E+00 -0.76174206216E+03  0.76174206218E+03  0.50400001928E-02 0.  1.
    10030    2    1    2    0    0  0.00000000000E+00  0.00000000000E+00 -0.68219212611E+03  0.84129199839E+03  0.49232725867E+03 0.  0.
        5    1    3    3  502    0  0.32295748857E+02  0.20622545763E+03 -0.11827865896E+03  0.23996642667E+03  0.46999998093E+01 0. -1.
       -5    1    3    3    0  502 -0.32295748857E+02 -0.20622545763E+03 -0.56391346715E+03  0.60132557172E+03  0.46999998093E+01 0.  1.
</event>
<event>
 5   0  0.1413361E-01  0.5011951E+03  0.7818609E-02  0.1013467E+00
        1   -1    0    0  501    0  0.00000000000E+00  0.00000000000E+00  0.26629071033E+03  0.26629071038E+03  0.50400001928E-02 0.  1.
       -1   -1    0    0    0  501  0.00000000000E+00  0.00000000000E+00 -0.23582920467E+03  0.23582920472E+03  0.50400001928E-02 0. -1.
    10030    2    1    2    0    0  0.00000000000E+00  0.00000000000E+00  0.30461505668E+02  0.50211991510E+03  0.50119507760E+03 0.  0.
        3    1    3    3  502    0 -0.11642854416E+03 -0.79712495251E+02  0.22271053300E+03  0.26364688412E+03  0.10100000352E+00 0.  1.
       -3    1    3    3    0  502  0.11642854416E+03  0.79712495251E+02 -0.19224902734E+03  0.23847303098E+03  0.10100000352E+00 0. -1.
</event>
<event>
 5   0  0.1439814E-01  0.5048599E+03  0.7818609E-02  0.1012518E+00
       -1   -1    0    0    0  501  0.00000000000E+00  0.00000000000E+00  0.95222662873E+02  0.95222663006E+02  0.50400001928E-02 0.  1.
        1   -1    0    0  501    0  0.00000000000E+00  0.00000000000E+00 -0.66917759296E+03  0.66917759297E+03  0.50400001928E-02 0. -1.
    10030    2    1    2    0    0  0.00000000000E+00  0.00000000000E+00 -0.57395493008E+03  0.76440025598E+03  0.50485987123E+03 0.  0.
        4    1    3    3  502    0 -0.12040886781E+03 -0.21800259082E+03 -0.34932821724E+03  0.42901659795E+03  0.12699999809E+01 0. -1.
       -4    1    3    3    0  502  0.12040886781E+03  0.21800259082E+03 -0.22462671285E+03  0.33538365804E+03  0.12699999809E+01 0.  1.
</event>
<event>
 5   0  0.1448458E-01  0.4575830E+03  0.7818609E-02  0.1025485E+00
       -1   -1    0    0    0  501  0.00000000000E+00  0.00000000000E+00  0.53741320803E+03  0.53741320805E+03  0.50400001928E-02 0.  1.
        1   -1    0    0  501    0  0.00000000000E+00  0.00000000000E+00 -0.97402819221E+02  0.97402819352E+02  0.50400001928E-02 0. -1.
    10030    2    1    2    0    0  0.00000000000E+00  0.00000000000E+00  0.44001038881E+03  0.63481602741E+03  0.45758304863E+03 0.  0.
        5    1    3    3  502    0 -0.17521518264E+02 -0.51748176362E+02 -0.88151311571E+02  0.10381532203E+03  0.46999998093E+01 0. -1.
       -5    1    3    3    0  502  0.17521518264E+02  0.51748176362E+02  0.52816170038E+03  0.53100070537E+03  0.46999998093E+01 0.  1.
</event>
<event>
 5   0  0.2488968E-01  0.4890525E+03  0.7818609E-02  0.1016677E+00
       -2   -1    0    0    0  501  0.00000000000E+00  0.00000000000E+00  0.56305105861E+02  0.56305105919E+02  0.25500000920E-02 0.  1.
        2   -1    0    0  501    0  0.00000000000E+00  0.00000000000E+00 -0.10619477427E+04  0.10619477427E+04  0.25500000920E-02 0. -1.
    10030    2    1    2    0    0  0.00000000000E+00  0.00000000000E+00 -0.10056426369E+04  0.11182528487E+04  0.48905247206E+03 0.  0.
        2    1    3    3  502    0  0.10251385487E+03  0.60393255372E+02 -0.14347370252E+02  0.11984274185E+03  0.25500000920E-02 0.  1.
       -2    1    3    3    0  502 -0.10251385487E+03 -0.60393255372E+02 -0.99129526663E+03  0.99841010681E+03  0.25500000920E-02 0. -1.
</event>
<event>
 5   0  0.1453602E-01  0.5121041E+03  0.7818609E-02  0.1010667E+00
        1   -1    0    0  501    0  0.00000000000E+00  0.00000000000E+00  0.63186347786E+03  0.63186347788E+03  0.50400001928E-02 0.  1.
       -1   -1    0    0    0  501  0.00000000000E+00  0.00000000000E+00 -0.10376079044E+03  0.10376079056E+03  0.50400001928E-02 0. -1.
    10030    2    1    2    0    0  0.00000000000E+00  0.00000000000E+00  0.52810268742E+03  0.73562426844E+03  0.51210410646E+03 0.  0.
        2    1    3    3  502    0 -0.66614246121E+01  0.24436397627E+03  0.15461005754E+03  0.28924452869E+03  0.25500000920E-02 0.  1.
       -2    1    3    3    0  502  0.66614246121E+01 -0.24436397627E+03  0.37349262987E+03  0.44637973974E+03  0.25500000920E-02 0. -1.
</event>
<event>
 5   0  0.2504064E-01  0.5040253E+03  0.7818609E-02  0.1012734E+00
        2   -1    0    0  501    0  0.00000000000E+00  0.00000000000E+00  0.51387392275E+03  0.51387392275E+03  0.25500000920E-02 0. -1.
       -2   -1    0    0    0  501  0.00000000000E+00  0.00000000000E+00 -0.12359134033E+03  0.12359134035E+03  0.25500000920E-02 0.  1.
    10030    2    1    2    0    0  0.00000000000E+00  0.00000000000E+00  0.39028258242E+03  0.63746526311E+03  0.50402526477E+03 0.  0.
        5    1    3    3  502    0  0.24358921817E+03  0.51160771757E+02  0.24469531606E+03  0.34907165378E+03  0.46999998093E+01 0. -1.
       -5    1    3    3    0  502 -0.24358921817E+03 -0.51160771757E+02  0.14558726636E+03  0.28839360933E+03  0.46999998093E+01 0.  1.
</event>
<event>
 5   0  0.1529146E-01  0.5091761E+03  0.7818609E-02  0.1011411E+00
        1   -1    0    0  501    0  0.00000000000E+00  0.00000000000E+00  0.58659213826E+03  0.58659213828E+03  0.50400001928E-02 0.  1.
       -1   -1    0    0    0  501  0.00000000000E+00  0.00000000000E+00 -0.11049428962E+03  0.11049428974E+03  0.50400001928E-02 0. -1.
    10030    2    1    2    0    0  0.00000000000E+00  0.00000000000E+00  0.47609784864E+03  0.69708642802E+03  0.50917612537E+03 0.  0.
        1    1    3    3  502    0  0.20262513451E+03 -0.97829159286E+02  0.40111850040E+03  0.45991688480E+03  0.50400001928E-02 0.  1.
       -1    1    3    3    0  502 -0.20262513451E+03  0.97829159286E+02  0.74979348247E+02  0.23716954322E+03  0.50400001928E-02 0. -1.
</event>
<event>
 5   0  0.2466034E-01  0.4985543E+03  0.7818609E-02  0.1014157E+00
       -2   -1    0    0    0  501  0.00000000000E+00  0.00000000000E+00  0.91278567081E+02  0.91278567116E+02  0.25500000920E-02 0.  1.
        2   -1    0    0  501    0  0.00000000000E+00  0.00000000000E+00 -0.68076332603E+03  0.68076332604E+03  0.25500000920E-02 0. -1.
    10030    2    1    2    0    0  0.00000000000E+00  0.00000000000E+00 -0.58948475895E+03  0.77204189315E+03  0.49855431374E+03 0.  0.
        3    1    3    3  502    0  0.15569416597E+02 -0.21276403657E+03 -0.95055128116E+02  0.23355177064E+03  0.10100000352E+00 0.  1.
       -3    1    3    3    0  502 -0.15569416597E+02  0.21276403657E+03 -0.49442963083E+03  0.53849012251E+03  0.10100000352E+00 0. -1.
</event>
<event>
 5   0  0.2504064E-01  0.4982171E+03  0.7818609E-02  0.1014245E+00
       -2   -1    0    0    0  501  0.00000000000E+00  0.00000000000E+00  0.30117323073E+03  0.30117323074E+03  0.25500000920E-02 0. -1.
        2   -1    0    0  501    0  0.00000000000E+00  0.00000000000E+00 -0.20604443225E+03  0.20604443226E+03  0.25500000920E-02 0.  1.
    10030    2    1    2    0    0  0.00000000000E+00  0.00000000000E+00  0.95128798478E+02  0.50721766300E+03  0.49821709060E+03 0.  0.
        5    1    3    3  502    0 -0.23941709149E+03  0.56992065997E+02  0.86522378503E+02  0.26091541017E+03  0.46999998093E+01 0. -1.
       -5    1    3    3    0  502  0.23941709149E+03 -0.56992065997E+02  0.86064199746E+01  0.24630225283E+03  0.46999998093E+01 0.  1.
</event>
<event>
 5   0  0.2504064E-01  0.4608021E+03  0.7818609E-02  0.1024549E+00
       -2   -1    0    0    0  501  0.00000000000E+00  0.00000000000E+00  0.33596028534E+03  0.33596028535E+03  0.25500000920E-02 0. -1.
        2   -1    0    0  501    0  0.00000000000E+00  0.00000000000E+00 -0.15800868208E+03  0.15800868210E+03  0.25500000920E-02 0.  1.
    10030    2    1    2    0    0  0.00000000000E+00  0.00000000000E+00  0.17795160326E+03  0.49396896745E+03  0.46080209168E+03 0.  0.
        5    1    3    3  502    0 -0.11677677348E+03 -0.11156658382E+03  0.26504979186E+03  0.31041488304E+03  0.46999998093E+01 0. -1.
       -5    1    3    3    0  502  0.11677677348E+03  0.11156658382E+03 -0.87098188597E+02  0.18355408441E+03  0.46999998093E+01 0.  1.
</event>
<event>
 5   0  0.2466034E-01  0.5011365E+03  0.7818609E-02  0.1013483E+00
       -2   -1    0    0    0  501  0.00000000000E+00  0.00000000000E+00  0.75835871487E+02  0.75835871530E+02  0.25500000920E-02 0. -1.
        2   -1    0    0  501    0  0.00000000000E+00  0.00000000000E+00 -0.82789905677E+03  0.82789905677E+03  0.25500000920E-02 0.  1.
    10030    2    1    2    0    0  0.00000000000E+00  0.00000000000E+00 -0.75206318528E+03  0.90373492830E+03  0.50113649436E+03 0.  0.
        3    1    3    3  502    0  0.12111665533E+03 -0.10801423820E+03 -0.31743040825E+02  0.16536006378E+03  0.10100000352E+00 0. -1.
       -3    1    3    3    0  502 -0.12111665533E+03  0.10801423820E+03 -0.72032014446E+03  0.73837486453E+03  0.10100000352E+00 0.  1.
</event>
<event>
 5   0  0.1529146E-01  0.4958852E+03  0.7818609E-02  0.1014859E+00
        1   -1    0    0  501    0  0.00000000000E+00  0.00000000000E+00  0.13790100199E+04  0.13790100199E+04  0.50400001928E-02 0.  1.
       -1   -1    0    0    0  501  0.00000000000E+00  0.00000000000E+00 -0.44579476378E+02  0.44579476663E+02  0.50400001928E-02 0. -1.
    10030    2    1    2    0    0  0.00000000000E+00  0.00000000000E+00  0.13344305435E+04  0.14235894966E+04  0.49588524809E+03 0.  0.
        1    1    3    3  502    0  0.22380956096E+03  0.10297395019E+03  0.74745365057E+03  0.78700782320E+03  0.50400001928E-02 0. -1.
       -1    1    3    3    0  502 -0.22380956096E+03 -0.10297395019E+03  0.58697689296E+03  0.63658167339E+03  0.50400001928E-02 0.  1.
</event>
<event>
 5   0  0.1453602E-01  0.5042047E+03  0.7818609E-02  0.1012687E+00
       -1   -1    0    0    0  501  0.00000000000E+00  0.00000000000E+00  0.43697673613E+03  0.43697673616E+03  0.50400001928E-02 0.  1.
        1   -1    0    0  501    0  0.00000000000E+00  0.00000000000E+00 -0.14544386070E+03  0.14544386079E+03  0.50400001928E-02 0. -1.
    10030    2    1    2    0    0  0.00000000000E+00  0.00000000000E+00  0.29153287543E+03  0.58242059695E+03  0.50420465516E+03 0.  0.
        2    1    3    3  502    0 -0.84921080936E+02  0.19255702712E+03  0.30609955169E+03  0.37146565687E+03  0.25500000920E-02 0.  1.
       -2    1    3    3    0  502  0.84921080936E+02 -0.19255702712E+03 -0.14566676257E+02  0.21095494008E+03  0.25500000920E-02 0. -1.
</event>
<event>
 5   0  0.1448458E-01  0.4982987E+03  0.7818609E-02  0.1014224E+00
       -1   -1    0    0    0  501  0.00000000000E+00  0.00000000000E+00  0.36622467789E+03  0.36622467792E+03  0.50400001928E-02 0. -1.
        1   -1    0    0  501    0  0.00000000000E+00  0.00000000000E+00 -0.16950083696E+03  0.16950083703E+03  0.50400001928E-02 0.  1.
    10030    2    1    2    0    0  0.00000000000E+00  0.00000000000E+00  0.19672384093E+03  0.53572551495E+03  0.49829866324E+03 0.  0.
        5    1    3    3  502    0 -0.21931218112E+03 -0.97856975865E+02  0.16951010613E+03  0.29398909264E+03  0.46999998093E+01 0. -1.
       -5    1    3    3    0  502  0.21931218112E+03  0.97856975865E+02  0.27213734802E+02  0.24173642231E+03  0.46999998093E+01 0.  1.
</event>
<event>
 5   0  0.2488968E-01  0.4930018E+03  0.7818609E-02  0.1015622E+00
        2   -1    0    0  501    0  0.00000000000E+00  0.00000000000E+00  0.52887837824E+03  0.52887837825E+03  0.25500000920E-02 0. -1.
       -2   -1    0    0    0  501  0.00000000000E+00  0.00000000000E+00 -0.11488974739E+03  0.11488974742E+03  0.25500000920E-02 0.  1.
    10030    2    1    2    0    0  0.00000000000E+00  0.00000000000E+00  0.41398863085E+03  0.64376812566E+03  0.49300183888E+03 0.  0.
        2    1    3    3  502    0 -0.27017602360E+02  0.19140627754E+03  0.72587740924E+01  0.19343992279E+03  0.25500000920E-02 0.  1.
       -2    1    3    3    0  502  0.27017602360E+02 -0.19140627754E+03  0.40672985676E+03  0.45032820288E+03  0.25500000920E-02 0. -1.
</event>
<event>
 5   0  0.1413361E-01  0.4705282E+03  0.7818609E-02  0.1021771E+00
       -1   -1    0    0    0  501  0.00000000000E+00  0.00000000000E+00  0.62811167010E+03  0.62811167012E+03  0.50400001928E-02 0.  1.
        1   -1    0    0  501    0  0.00000000000E+00  0.00000000000E+00 -0.88119988517E+02  0.88119988661E+02  0.50400001928E-02 0. -1.
    10030    2    1    2    0    0  0.00000000000E+00  0.00000000000E+00  0.53999168159E+03  0.71623165878E+03  0.47052818498E+03 0.  0.
        3    1    3    3  502    0  0.16951758280E+03 -0.41383268883E+02  0.29796944237E+02  0.17702161989E+03  0.10100000352E+00 0. -1.
       -3    1    3    3    0  502 -0.16951758280E+03  0.41383268883E+02  0.51019473735E+03  0.53921003889E+03  0.10100000352E+00 0.  1.
</event>
<event>
 5   0  0.1439814E-01  0.6115452E+03  0.7818609E-02  0.9881739E-01
       -1   -1    0    0    0  501  0.00000000000E+00  0.00000000000E+00  0.11963510719E+03  0.11963510729E+03  0.50400001928E-02 0.  1.
        1   -1    0    0  501    0  0.00000000000E+00  0.00000000000E+00 -0.78151714740E+03  0.78151714742E+03  0.50400001928E-02 0. -1.
    10030    2    1    2    0    0  0.00000000000E+00  0.00000000000E+00 -0.66188204021E+03  0.90115225471E+03  0.61154521584E+03 0.  0.
        4    1    3    3  502    0 -0.25043517082E+03 -0.81954702967E+02 -0.10236757403E+03  0.28269255603E+03  0.12699999809E+01 0. -1.
       -4    1    3    3    0  502  0.25043517082E+03  0.81954702967E+02 -0.55951446618E+03  0.61845969868E+03  0.12699999809E+01 0.  1.
</event>
<event>
 5   0  0.2413301E-01  0.4498263E+03  0.7818609E-02  0.1027774E+00
        2   -1    0    0  501    0  0.00000000000E+00  0.00000000000E+00  0.30853869148E+03  0.30853869149E+03  0.25500000920E-02 0. -1.
       -2   -1    0    0    0  501  0.00000000000E+00  0.00000000000E+00 -0.16395328418E+03  0.16395328420E+03  0.25500000920E-02 0.  1.
    10030    2    1    2    0    0  0.00000000000E+00  0.00000000000E+00  0.14458540729E+03  0.47249197569E+03  0.44982632992E+03 0.  0.
        4    1    3    3  502    0 -0.82023186822E+02  0.87511394054E+02 -0.12755238604E+03  0.17509217958E+03  0.12699999809E+01 0.  1.
       -4    1    3    3    0  502  0.82023186822E+02 -0.87511394054E+02  0.27213779333E+03  0.29739979611E+03  0.12699999809E+01 0. -1.
</event>
<event>
 5   0  0.9868500E-02  0.4561428E+03  0.7818609E-02  0.1025906E+00
        3   -1    0    0  501    0  0.00000000000E+00  0.00000000000E+00  0.11447629614E+03  0.11447634069E+03  0.10100000352E+00 0. -1.
       -3   -1    0    0    0  501  0.00000000000E+00  0.00000000000E+00 -0.45438711105E+03  0.45438712228E+03  0.10100000352E+00 0.  1.
    10030    2    1    2    0    0  0.00000000000E+00  0.00000000000E+00 -0.33991081492E+03  0.56886346297E+03  0.45614282567E+03 0.  0.
        2    1    3    3  502    0 -0.16697381847E+03  0.46971580282E+02  0.14727349443E+02  0.17407894829E+03  0.25500000920E-02 0. -1.
       -2    1    3    3    0  502  0.16697381847E+03 -0.46971580282E+02 -0.35463816436E+03  0.39478451468E+03  0.25500000920E-02 0.  1.
</event>
<event>
 5   0  0.1439814E-01  0.4909269E+03  0.7818609E-02  0.1016175E+00
       -1   -1    0    0    0  501  0.00000000000E+00  0.00000000000E+00  0.73151848130E+02  0.73151848304E+02  0.50400001928E-02 0. -1.
        1   -1    0    0  501    0  0.00000000000E+00  0.00000000000E+00 -0.82366064598E+03  0.82366064599E+03  0.50400001928E-02 0.  1.
    10030    2    1    2    0    0  0.00000000000E+00  0.00000000000E+00 -0.75050879785E+03  0.89681249429E+03  0.49092687264E+03 0.  0.
        4    1    3    3  502    0  0.23171228109E+03 -0.48986417923E+01 -0.22756665816E+03  0.32481190666E+03  0.12699999809E+01 0. -1.
       -4    1    3    3    0  502 -0.23171228109E+03  0.48986417923E+01 -0.52294213968E+03  0.57200058764E+03  0.12699999809E+01 0.  1.
</event>
<event>
 5   0  0.9868500E-02  0.4987080E+03  0.7818609E-02  0.1014117E+00
        3   -1    0    0  501    0  0.00000000000E+00  0.00000000000E+00  0.30131780798E+03  0.30131782491E+03  0.10100000352E+00 0.  1.
       -3   -1    0    0    0  501  0.00000000000E+00  0.00000000000E+00 -0.20635158300E+03  0.20635160772E+03  0.10100000352E+00 0. -1.
    10030    2    1    2    0    0  0.00000000000E+00  0.00000000000E+00  0.94966224974E+02  0.50766943263E+03  0.49870799967E+03 0.  0.
        1    1    3    3  502    0 -0.71023393320E+02  0.22667476884E+03  0.12468549054E+03  0.26827643356E+03  0.50400001928E-02 0.  1.
       -1    1    3    3    0  502  0.71023393320E+02 -0.22667476884E+03 -0.29719265564E+02  0.23939299906E+03  0.50400001928E-02 0. -1.
</event>
<event>
 5   0  0.1439814E-01  0.5005056E+03  0.7818609E-02  0.1013647E+00
        1   -1    0    0  501    0  0.00000000000E+00  0.00000000000E+00  0.10022195805E+03  0.10022195817E+03  0.50400001928E-02 0.  1.
       -1   -1    0    0    0  501  0.00000000000E+00  0.00000000000E+00 -0.62487769125E+03  0.62487769127E+03  0.50400001928E-02 0. -1.
    10030    2    1    2    0    0  0.00000000000E+00  0.00000000000E+00 -0.52465573321E+03  0.72509964945E+03  0.50050560760E+03 0.  0.
        4    1    3    3  502    0  0.67957757681E+02 -0.21088944671E+03 -0.93799290756E+02  0.24060867692E+03  0.12699999809E+01 0.  1.
       -4    1    3    3    0  502 -0.67957757681E+02  0.21088944671E+03 -0.43085644245E+03  0.48449097253E+03  0.12699999809E+01 0. -1.
</event>
<event>
 5   0  0.1529146E-01  0.4998710E+03  0.7818609E-02  0.1013813E+00
       -1   -1    0    0    0  501  0.00000000000E+00  0.00000000000E+00  0.28595434285E+03  0.28595434289E+03  0.50400001928E-02 0.  1.
        1   -1    0    0  501    0  0.00000000000E+00  0.00000000000E+00 -0.21845355500E+03  0.21845355506E+03  0.50400001928E-02 0. -1.
    10030    2    1    2    0    0  0.00000000000E+00  0.00000000000E+00  0.67500787842E+02  0.50440789795E+03  0.49987095450E+03 0.  0.
        1    1    3    3  502    0  0.10426225936E+03 -0.15853362424E+03  0.19790515213E+03  0.27417143908E+03  0.50400001928E-02 0.  1.
       -1    1    3    3    0  502 -0.10426225936E+03  0.15853362424E+03 -0.13040436429E+03  0.23023645887E+03  0.50400001928E-02 0. -1.
</event>
<event>
 5   0  0.2511944E-01  0.4629472E+03  0.7818609E-02  0.1023930E+00
        2   -1    0    0  501    0  0.00000000000E+00  0.00000000000E+00  0.15126552473E+03  0.15126552475E+03  0.25500000920E-02 0. -1.
       -2   -1    0    0    0  501  0.00000000000E+00  0.00000000000E+00 -0.35421180615E+03  0.35421180615E+03  0.25500000920E-02 0.  1.
    10030    2    1    2    0    0  0.00000000000E+00  0.00000000000E+00 -0.20294628141E+03  0.50547733091E+03  0.46294723125E+03 0.  0.
        1    1    3    3  502    0 -0.59068081668E+02 -0.19189746139E+03  0.24287891688E+02  0.20224632423E+03  0.50400001928E-02 0. -1.
       -1    1    3    3    0  502  0.59068081668E+02  0.19189746139E+03 -0.22723417310E+03  0.30323100667E+03  0.50400001928E-02 0.  1.
</event>
<event>
 5   0  0.1413361E-01  0.4987854E+03  0.7818609E-02  0.1014096E+00
        1   -1    0    0  501    0  0.00000000000E+00  0.00000000000E+00  0.29746806011E+03  0.29746806015E+03  0.50400001928E-02 0. -1.
       -1   -1    0    0    0  501  0.00000000000E+00  0.00000000000E+00 -0.20908702915E+03  0.20908702921E+03  0.50400001928E-02 0.  1.
    10030    2    1    2    0    0  0.00000000000E+00  0.00000000000E+00  0.88381030961E+02  0.50655508936E+03  0.49878537662E+03 0.  0.
        3    1    3    3  502    0 -0.18169591363E+03  0.12905900950E+03 -0.69477353932E+02  0.23344538092E+03  0.10100000352E+00 0.  1.
       -3    1    3    3    0  502  0.18169591363E+03 -0.12905900950E+03  0.15785838489E+03  0.27310970844E+03  0.10100000352E+00 0. -1.
</event>
<event>
 5   0  0.2488968E-01  0.4985661E+03  0.7818609E-02  0.1014154E+00
        2   -1    0    0  501    0  0.00000000000E+00  0.00000000000E+00  0.13776884455E+04  0.13776884455E+04  0.25500000920E-02 0. -1.
       -2   -1    0    0    0  501  0.00000000000E+00  0.00000000000E+00 -0.45106010465E+02  0.45106010537E+02  0.25500000920E-02 0.  1.
    10030    2    1    2    0    0  0.00000000000E+00  0.00000000000E+00  0.13325824351E+04  0.14227944561E+04  0.49856606180E+03 0.  0.
        2    1    3    3  502    0 -0.13002001195E+03 -0.52146343913E+02  0.12547333295E+04  0.12625292760E+04  0.25500000920E-02 0. -1.
       -2    1    3    3    0  502  0.13002001195E+03  0.52146343913E+02  0.77849105584E+02  0.16026518005E+03  0.25500000920E-02 0.  1.
</event>
<event>
 5   0  0.2466034E-01  0.5042337E+03  0.7818609E-02  0.1012680E+00
        2   -1    0    0  501    0  0.00000000000E+00  0.00000000000E+00  0.17213599150E+04  0.17213599150E+04  0.25500000920E-02 0.  1.
       -2   -1    0    0    0  501  0.00000000000E+00  0.00000000000E+00 -0.36925979947E+02  0.36925980035E+02  0.25500000920E-02 0. -1.
    10030    2    1    2    0    0  0.00000000000E+00  0.00000000000E+00  0.16844339351E+04  0.17582858951E+04  0.50423368306E+03 0.  0.
        3    1    3    3  502    0 -0.92291335594E+02 -0.12542814083E+02  0.25266242824E+02  0.96505989650E+02  0.10100000352E+00 0. -1.
       -3    1    3    3    0  502  0.92291335594E+02  0.12542814083E+02  0.16591676923E+04  0.16617799054E+04  0.10100000352E+00 0.  1.
</event>
<event>
 5   0  0.1448458E-01  0.5084161E+03  0.7818609E-02  0.1011605E+00
        1   -1    0    0  501    0  0.00000000000E+00  0.00000000000E+00  0.43467706269E+03  0.43467706272E+03  0.50400001928E-02 0. -1.
       -1   -1    0    0    0  501  0.00000000000E+00  0.00000000000E+00 -0.14866607614E+03  0.14866607622E+03  0.50400001928E-02 0.  1.
    10030    2    1    2    0    0  0.00000000000E+00  0.00000000000E+00  0.28601098656E+03  0.58334313894E+03  0.50841610254E+03 0.  0.
        5    1    3    3  502    0 -0.23219289179E+03 -0.29317672804E+02  0.25674359058E+03  0.34743693851E+03  0.46999998093E+01 0.  1.
       -5    1    3    3    0  502  0.23219289179E+03  0.29317672804E+02  0.29267395980E+02  0.23590620044E+03  0.46999998093E+01 0. -1.
</event>
<event>
 5   0  0.1448458E-01  0.5016499E+03  0.7818609E-02  0.1013349E+00
        1   -1    0    0  501    0  0.00000000000E+00  0.00000000000E+00  0.88530627922E+03  0.88530627923E+03  0.50400001928E-02 0.  1.
       -1   -1    0    0    0  501  0.00000000000E+00  0.00000000000E+00 -0.71063731688E+02  0.71063731867E+02  0.50400001928E-02 0. -1.
    10030    2    1    2    0    0  0.00000000000E+00  0.00000000000E+00  0.81424254753E+03  0.95637001110E+03  0.50164994959E+03 0.  0.
        5    1    3    3  502    0  0.29301243379E+02  0.14253485895E+03  0.17737168973E+02  0.14666780847E+03  0.46999998093E+01 0. -1.
       -5    1    3    3    0  502 -0.29301243379E+02 -0.14253485895E+03  0.79650537856E+03  0.80970220263E+03  0.46999998093E+01 0.  1.
</event>
<event>
 5   0  0.2413301E-01  0.5487025E+03  0.7818609E-02  0.1001795E+00
        2   -1    0    0  501    0  0.00000000000E+00  0.00000000000E+00  0.50304456278E+03  0.50304456279E+03  0.25500000920E-02 0. -1.
       -2   -1    0    0    0  501  0.00000000000E+00  0.00000000000E+00 -0.14962611675E+03  0.14962611677E+03  0.25500000920E-02 0.  1.
    10030    2    1    2    0    0  0.00000000000E+00  0.00000000000E+00  0.35341844604E+03  0.65267067956E+03  0.54870248583E+03 0.  0.
        4    1    3    3  502    0 -0.17365618437E+03  0.14446302275E+03 -0.84869676643E+01  0.22605237630E+03  0.12699999809E+01 0.  1.
       -4    1    3    3    0  502  0.17365618437E+03 -0.14446302275E+03  0.36190541370E+03  0.42661830326E+03  0.12699999809E+01 0. -1.
</event>
<event>
 5   0  0.2413301E-01  0.5156833E+03  0.7818609E-02  0.1009765E+00
       -2   -1    0    0    0  501  0.00000000000E+00  0.00000000000E+00  0.77608297196E+02  0.77608297238E+02  0.25500000920E-02 0.  1.
        2   -1    0    0  501    0  0.00000000000E+00  0.00000000000E+00 -0.85663943857E+03  0.85663943858E+03  0.25500000920E-02 0. -1.
    10030    2    1    2    0    0  0.00000000000E+00  0.00000000000E+00 -0.77903114138E+03  0.93424773581E+03  0.51568334532E+03 0.  0.
        4    1    3    3  502    0  0.66582129832E+02  0.16781274531E+02  0.60734116841E+02  0.91678989066E+02  0.12699999809E+01 0.  1.
       -4    1    3    3    0  502 -0.66582129832E+02 -0.16781274531E+02 -0.83976525822E+03  0.84256874675E+03  0.12699999809E+01 0. -1.
</event>
<event>
 5   0  0.2488968E-01  0.4858271E+03  0.7818609E-02  0.1017546E+00
       -2   -1    0    0    0  501  0.00000000000E+00  0.00000000000E+00  0.39781484140E+02  0.39781484222E+02  0.25500000920E-02 0.  1.
        2   -1    0    0  501    0  0.00000000000E+00  0.00000000000E+00 -0.14832777312E+04  0.14832777312E+04  0.25500000920E-02 0. -1.
    10030    2    1    2    0    0  0.00000000000E+00  0.00000000000E+00 -0.14434962470E+04  0.15230592154E+04  0.48582708694E+03 0.  0.
        2    1    3    3  502    0 -0.12961925943E+03 -0.20449020469E+03 -0.65986947195E+03  0.70288343005E+03  0.25500000920E-02 0.  1.
       -2    1    3    3    0  502  0.12961925943E+03  0.20449020469E+03 -0.78362677509E+03  0.82017578534E+03  0.25500000920E-02 0. -1.
</event>
<event>
 5   0  0.1413361E-01  0.4937993E+03  0.7818609E-02  0.1015410E+00
        1   -1    0    0  501    0  0.00000000000E+00  0.00000000000E+00  0.60776634056E+03  0.60776634058E+03  0.50400001928E-02 0. -1.
       -1   -1    0    0    0  501  0.00000000000E+00  0.00000000000E+00 -0.10030077721E+03  0.10030077734E+03  0.50400001928E-02 0.  1.
    10030    2    1    2    0    0  0.00000000000E+00  0.00000000000E+00  0.50746556335E+03  0.70806711792E+03  0.49379929678E+03 0.  0.
        3    1    3    3  502    0  0.49207976488E+02 -0.14987222099E+03 -0.18622038747E+02  0.15883922092E+03  0.10100000352E+00 0.  1.
       -3    1    3    3    0  502 -0.49207976488E+02  0.14987222099E+03  0.52608760209E+03  0.54922789701E+03  0.10100000352E+00 0. -1.
</event>
<event>
 5   0  0.2466034E-01  0.3792850E+03  0.7818609E-02  0.1051198E+00
        2   -1    0    0  501    0  0.00000000000E+00  0.00000000000E+00  0.93303177305E+03  0.93303177306E+03  0.25500000920E-02 0.  1.
       -2   -1    0    0    0  501  0.00000000000E+00  0.00000000000E+00 -0.38545601238E+02  0.38545601322E+02  0.25500000920E-02 0. -1.
    10030    2    1    2    0    0  0.00000000000E+00  0.00000000000E+00  0.89448617182E+03  0.97157737438E+03  0.37928496257E+03 0.  0.
        3    1    3    3  502    0 -0.15148211805E+02 -0.18525634037E+03  0.35088866303E+03  0.39707964442E+03  0.10100000352E+00 0. -1.
       -3    1    3    3    0  502  0.15148211805E+02  0.18525634037E+03  0.54359750879E+03  0.57449772996E+03  0.10100000352E+00 0.  1.
</event>
<event>
 5   0  0.1448458E-01  0.5029910E+03  0.7818609E-02  0.1013001E+00
       -1   -1    0    0    0  501  0.00000000000E+00  0.00000000000E+00  0.51739025109E+03  0.51739025112E+03  0.50400001928E-02 0.  1.
        1   -1    0    0  501    0  0.00000000000E+00  0.00000000000E+00 -0.12224812188E+03  0.12224812198E+03  0.50400001928E-02 0. -1.
    10030    2    1    2    0    0  0.00000000000E+00  0.00000000000E+00  0.39514212922E+03  0.63963837310E+03  0.50299099998E+03 0.  0.
        5    1    3    3  502    0 -0.11414966738E+03  0.21723441217E+03  0.26730402939E+03  0.36289732779E+03  0.46999998093E+01 0.  1.
       -5    1    3    3    0  502  0.11414966738E+03 -0.21723441217E+03  0.12783809983E+03  0.27674104531E+03  0.46999998093E+01 0. -1.
</event>
<event>
 5   0  0.1413361E-01  0.4693587E+03  0.7818609E-02  0.1022101E+00
        1   -1    0    0  501    0  0.00000000000E+00  0.00000000000E+00  0.89077399961E+03  0.89077399963E+03  0.50400001928E-02 0.  1.
       -1   -1    0    0    0  501  0.00000000000E+00  0.00000000000E+00 -0.61827565553E+02  0.61827565758E+02  0.50400001928E-02 0. -1.
    10030    2    1    2    0    0  0.00000000000E+00  0.00000000000E+00  0.82894643406E+03  0.95260156539E+03  0.46935866013E+03 0.  0.
        3    1    3    3  502    0  0.50954188965E+02  0.50777781840E+02  0.86784581906E+03  0.87082207618E+03  0.10100000352E+00 0.  1.
       -3    1    3    3    0  502 -0.50954188965E+02 -0.50777781840E+02 -0.38899384995E+02  0.81779489211E+02  0.10100000352E+00 0. -1.
</event>
<event>
 5   0  0.1448458E-01  0.4996609E+03  0.7818609E-02  0.1013867E+00
       -1   -1    0    0    0  501  0.00000000000E+00  0.00000000000E+00  0.60714601872E+02  0.60714602081E+02  0.50400001928E-02 0.  1.
        1   -1    0    0  501    0  0.00000000000E+00  0.00000000000E+00 -0.10280104230E+04  0.10280104230E+04  0.50400001928E-02 0. -1.
    10030    2    1    2    0    0  0.00000000000E+00  0.00000000000E+00 -0.96729582109E+03  0.10887250251E+04  0.49966085967E+03 0.  0.
        5    1    3    3  502    0 -0.90597986611E+02 -0.20193868306E+03 -0.73593283304E+03  0.76850923979E+03  0.46999998093E+01 0. -1.
       -5    1    3    3    0  502  0.90597986611E+02  0.20193868306E+03 -0.23136298805E+03  0.32021578526E+03  0.46999998093E+01 0.  1.
</event>
<event>
 5   0  0.2413301E-01  0.5032944E+03  0.7818609E-02  0.1012923E+00
       -2   -1    0    0    0  501  0.00000000000E+00  0.00000000000E+00  0.93308003726E+02  0.93308003761E+02  0.25500000920E-02 0. -1.
        2   -1    0    0  501    0  0.00000000000E+00  0.00000000000E+00 -0.67868050981E+03  0.67868050981E+03  0.25500000920E-02 0.  1.
    10030    2    1    2    0    0  0.00000000000E+00  0.00000000000E+00 -0.58537250608E+03  0.77198851357E+03  0.50329444087E+03 0.  0.
        4    1    3    3  502    0  0.21970794440E+03 -0.51653944939E+02 -0.12198500087E+03  0.25655733121E+03  0.12699999809E+01 0. -1.
       -4    1    3    3    0  502 -0.21970794440E+03  0.51653944939E+02 -0.46338750521E+03  0.51543118236E+03  0.12699999809E+01 0.  1.
</event>
<event>
 5   0  0.1453602E-01  0.4739332E+03  0.7818609E-02  0.1020816E+00
        1   -1    0    0  501    0  0.00000000000E+00  0.00000000000E+00  0.16770272620E+04  0.16770272620E+04  0.50400001928E-02 0. -1.
       -1   -1    0    0    0  501  0.00000000000E+00  0.00000000000E+00 -0.33483753103E+02  0.33483753482E+02  0.50400001928E-02 0.  1.
    10030    2    1    2    0    0  0.00000000000E+00  0.00000000000E+00  0.16435435089E+04  0.17105110155E+04  0.47393318989E+03 0.  0.
        2    1    3    3  502    0 -0.13990521470E+03  0.13638131719E+03  0.13057229806E+04  0.13202597604E+04  0.25500000920E-02 0. -1.
       -2    1    3    3    0  502  0.13990521470E+03 -0.13638131719E+03  0.33782052830E+03  0.39025125513E+03  0.25500000920E-02 0.  1.
</event>
<event>
 5   0  0.1413361E-01  0.5002462E+03  0.7818609E-02  0.1013715E+00
       -1   -1    0    0    0  501  0.00000000000E+00  0.00000000000E+00  0.89379761446E+02  0.89379761589E+02  0.50400001928E-02 0. -1.
        1   -1    0    0  501    0  0.00000000000E+00  0.00000000000E+00 -0.69995213992E+03  0.69995213993E+03  0.50400001928E-02 0.  1.
    10030    2    1    2    0    0  0.00000000000E+00  0.00000000000E+00 -0.61057237847E+03  0.78933190152E+03  0.50024616082E+03 0.  0.
        3    1    3    3  502    0  0.12953181896E+03 -0.21167536795E+03 -0.35459589264E+03  0.43280851516E+03  0.10100000352E+00 0.  1.
       -3    1    3    3    0  502 -0.12953181896E+03  0.21167536795E+03 -0.25597648583E+03  0.35652338636E+03  0.10100000352E+00 0. -1.
</event>
<event>
 5   0  0.2488968E-01  0.5023445E+03  0.7818609E-02  0.1013169E+00
       -2   -1    0    0    0  501  0.00000000000E+00  0.00000000000E+00  0.45597699622E+02  0.45597699693E+02  0.25500000920E-02 0.  1.
        2   -1    0    0  501    0  0.00000000000E+00  0.00000000000E+00 -0.13835676151E+04  0.13835676151E+04  0.25500000920E-02 0. -1.
    10030    2    1    2    0    0  0.00000000000E+00  0.00000000000E+00 -0.13379699155E+04  0.14291653148E+04  0.50234450559E+03 0.  0.
        2    1    3    3  502    0 -0.18736225792E+03  0.49930362780E+02 -0.11232030173E+04  0.11398169480E+04  0.25500000920E-02 0. -1.
       -2    1    3    3    0  502  0.18736225792E+03 -0.49930362780E+02 -0.21476689816E+03  0.28934836680E+03  0.25500000920E-02 0.  1.
</event>
<event>
 5   0  0.1413361E-01  0.4166013E+03  0.7818609E-02  0.1038178E+00
       -1   -1    0    0    0  501  0.00000000000E+00  0.00000000000E+00  0.58438004525E+02  0.58438004742E+02  0.50400001928E-02 0.  1.
        1   -1    0    0  501    0  0.00000000000E+00  0.00000000000E+00 -0.74248178876E+03  0.74248178878E+03  0.50400001928E-02 0. -1.
    10030    2    1    2    0    0  0.00000000000E+00  0.00000000000E+00 -0.68404378424E+03  0.80091979352E+03  0.41660126848E+03 0.  0.
        3    1    3    3  502    0 -0.18275369569E+03 -0.95248302453E+02 -0.28377298299E+03  0.35071108976E+03  0.10100000352E+00 0. -1.
       -3    1    3    3    0  502  0.18275369569E+03  0.95248302453E+02 -0.40027080125E+03  0.45020870376E+03  0.10100000352E+00 0.  1.
</event>
<event>
 5   0  0.2413301E-01  0.4951584E+03  0.7818609E-02  0.1015050E+00
        2   -1    0    0  501    0  0.00000000000E+00  0.00000000000E+00  0.49712961810E+03  0.49712961811E+03  0.25500000920E-02 0. -1.
       -2   -1    0    0    0  501  0.00000000000E+00  0.00000000000E+00 -0.12329877226E+03  0.12329877229E+03  0.25500000920E-02 0.  1.
    10030    2    1    2    0    0  0.00000000000E+00  0.00000000000E+00  0.37383084584E+03  0.62042839039E+03  0.49515844565E+03 0.  0.
        4    1    3    3  502    0  0.22079826374E+03 -0.13716981147E+02  0.47648404102E+02  0.22630071179E+03  0.12699999809E+01 0.  1.
       -4    1    3    3    0  502 -0.22079826374E+03  0.13716981147E+02  0.32618244174E+03  0.39412767860E+03  0.12699999809E+01 0. -1.
</event>
<event>
 5   0  0.2511944E-01  0.5008994E+03  0.7818609E-02  0.1013544E+00
       -2   -1    0    0    0  501  0.00000000000E+00  0.00000000000E+00  0.25716557906E+02  0.25716558032E+02  0.25500000920E-02 0. -1.
        2   -1    0    0  501    0  0.00000000000E+00  0.00000000000E+00 -0.24390924974E+04  0.24390924974E+04  0.25500000920E-02 0.  1.
    10030    2    1    2    0    0  0.00000000000E+00  0.00000000000E+00 -0.24133759394E+04  0.24648090554E+04  0.50089944541E+03 0.  0.
        1    1    3    3  502    0 -0.19052791278E+03 -0.50735636639E+02 -0.44675097301E+03  0.48832511945E+03  0.50400001928E-02 0. -1.
       -1    1    3    3    0  502  0.19052791278E+03  0.50735636639E+02 -0.19666249664E+04  0.19764839359E+04  0.50400001928E-02 0.  1.
</event>
<event>
 5   0  0.2466034E-01  0.4981572E+03  0.7818609E-02  0.1014261E+00
        2   -1    0    0  501    0  0.00000000000E+00  0.00000000000E+00  0.25305891334E+03  0.25305891335E+03  0.25500000920E-02 0.  1.
       -2   -1    0    0    0  501  0.00000000000E+00  0.00000000000E+00 -0.24516085504E+03  0.24516085506E+03  0.25500000920E-02 0. -1.
    10030    2    1    2    0    0  0.00000000000E+00  0.00000000000E+00  0.78980582991E+01  0.49821976841E+03  0.49815716226E+03 0.  0.
        3    1    3    3  502    0 -0.20873720869E+02  0.21179793806E+03 -0.12547376632E+03  0.24705820170E+03  0.10100000352E+00 0. -1.
       -3    1    3    3    0  502  0.20873720869E+02 -0.21179793806E+03  0.13337182462E+03  0.25116156671E+03  0.10100000352E+00 0.  1.
</event>
<event>
 5   0  0.2466034E-01  0.4972654E+03  0.7818609E-02  0.1014495E+00
        2   -1    0    0  501    0  0.00000000000E+00  0.00000000000E+00  0.11980943937E+04  0.11980943937E+04  0.25500000920E-02 0.  1.
       -2   -1    0    0    0  501  0.00000000000E+00  0.00000000000E+00 -0.51597123464E+02  0.51597123527E+02  0.25500000920E-02 0. -1.
    10030    2    1    2    0    0  0.00000000000E+00  0.00000000000E+00  0.11464972703E+04  0.12496915173E+04  0.49726541966E+03 0.  0.
        3    1    3    3  502    0 -0.30461798193E+02 -0.85391856460E+02  0.11550717588E+04  0.11586243862E+04  0.10100000352E+00 0.  1.
       -3    1    3    3    0  502  0.30461798193E+02  0.85391856460E+02 -0.85744884934E+01  0.91067131023E+02  0.10100000352E+00 0. -1.
</event>
<event>
 5   0  0.2504064E-01  0.4907777E+03  0.7818609E-02  0.1016214E+00
        2   -1    0    0  501    0  0.00000000000E+00  0.00000000000E+00  0.59205695416E+03  0.59205695417E+03  0.25500000920E-02 0.  1.
       -2   -1    0    0    0  501  0.00000000000E+00  0.00000000000E+00 -0.10170591315E+03  0.10170591318E+03  0.25500000920E-02 0. -1.
    10030    2    1    2    0    0  0.00000000000E+00  0.00000000000E+00  0.49035104102E+03  0.69376286735E+03  0.49077772228E+03 0.  0.
        5    1    3    3  502    0 -0.10823588966E+03  0.19141373258E+03  0.91363364395E+02  0.23816712447E+03  0.46999998093E+01 0. -1.
       -5    1    3    3    0  502  0.10823588966E+03 -0.19141373258E+03  0.39898767662E+03  0.45559574287E+03  0.46999998093E+01 0.  1.
</event>
<event>
 5   0  0.9868500E-02  0.4819862E+03  0.7818609E-02  0.1018591E+00
       -3   -1    0    0    0  501  0.00000000000E+00  0.00000000000E+00  0.92547470361E+02  0.92547525473E+02  0.10100000352E+00 0. -1.
        3   -1    0    0  501    0  0.00000000000E+00  0.00000000000E+00 -0.62754447289E+03  0.62754448102E+03  0.10100000352E+00 0.  1.
    10030    2    1    2    0    0  0.00000000000E+00  0.00000000000E+00 -0.53499700253E+03  0.72009200649E+03  0.48198620841E+03 0.  0.
        3    1    3    3  502    0 -0.97707221011E+02  0.19601843320E+03 -0.41770211642E+03  0.47164074830E+03  0.10100000352E+00 0.  1.
       -3    1    3    3    0  502  0.97707221011E+02 -0.19601843320E+03 -0.11729488611E+03  0.24845125820E+03  0.10100000352E+00 0. -1.
</event>
<event>
 5   0  0.1413361E-01  0.4307979E+03  0.7818609E-02  0.1033608E+00
       -1   -1    0    0    0  501  0.00000000000E+00  0.00000000000E+00  0.56584617129E+02  0.56584617353E+02  0.50400001928E-02 0.  1.
        1   -1    0    0  501    0  0.00000000000E+00  0.00000000000E+00 -0.81995251336E+03  0.81995251338E+03  0.50400001928E-02 0. -1.
    10030    2    1    2    0    0  0.00000000000E+00  0.00000000000E+00 -0.76336789623E+03  0.87653713073E+03  0.43079786043E+03 0.  0.
        3    1    3    3  502    0  0.10481981619E+03 -0.18766166762E+03 -0.40992089123E+03  0.46285985204E+03  0.10100000352E+00 0. -1.
       -3    1    3    3    0  502 -0.10481981619E+03  0.18766166762E+03 -0.35344700500E+03  0.41367727869E+03  0.10100000352E+00 0.  1.
</event>
<event>
 5   0  0.1439814E-01  0.4915552E+03  0.7818609E-02  0.1016007E+00
       -1   -1    0    0    0  501  0.00000000000E+00  0.00000000000E+00  0.60692912508E+02  0.60692912717E+02  0.50400001928E-02 0. -1.
        1   -1    0    0  501    0  0.00000000000E+00  0.00000000000E+00 -0.99528322964E+03  0.99528322965E+03  0.50400001928E-02 0.  1.
    10030    2    1    2    0    0  0.00000000000E+00  0.00000000000E+00 -0.93459031713E+03  0.10559761424E+04  0.49155523838E+03 0.  0.
        4    1    3    3  502    0 -0.22778259822E+02  0.11826903412E+03 -0.92753218195E+03  0.93532025264E+03  0.12699999809E+01 0.  1.
       -4    1    3    3    0  502  0.22778259822E+02 -0.11826903412E+03 -0.70581351786E+01  0.12065588972E+03  0.12699999809E+01 0. -1.
</event>
<event>
 5   0  0.2413301E-01  0.6828721E+03  0.7818609E-02  0.9746980E-01
        2   -1    0    0  501    0  0.00000000000E+00  0.00000000000E+00  0.13111568284E+04  0.13111568284E+04  0.25500000920E-02 0.  1.
       -2   -1    0    0    0  501  0.00000000000E+00  0.00000000000E+00 -0.88912753742E+02  0.88912753778E+02  0.25500000920E-02 0. -1.
    10030    2    1    2    0    0  0.00000000000E+00  0.00000000000E+00  0.12222440746E+04  0.14000695822E+04  0.68287206482E+03 0.  0.
        4    1    3    3  502    0 -0.18221633251E+01 -0.21577093359E+03  0.11536355770E+04  0.11736426516E+04  0.12699999809E+01 0.  1.
       -4    1    3    3    0  502  0.18221633251E+01  0.21577093359E+03  0.68608497620E+02  0.22642693062E+03  0.12699999809E+01 0. -1.
</event>
<event>
 5   0  0.1413361E-01  0.4979601E+03  0.7818609E-02  0.1014313E+00
        1   -1    0    0  501    0  0.00000000000E+00  0.00000000000E+00  0.41901168036E+03  0.41901168039E+03  0.50400001928E-02 0.  1.
       -1   -1    0    0    0  501  0.00000000000E+00  0.00000000000E+00 -0.14794592153E+03  0.14794592161E+03  0.50400001928E-02 0. -1.
    10030    2    1    2    0    0  0.00000000000E+00  0.00000000000E+00  0.27106575883E+03  0.56695760201E+03  0.49796011573E+03 0.  0.
        3    1    3    3  502    0 -0.68480790219E+02 -0.22560353342E+03  0.44416140654E+02  0.23991535314E+03  0.10100000352E+00 0. -1.
       -3    1    3    3    0  502  0.68480790219E+02  0.22560353342E+03  0.22664961818E+03  0.32704224887E+03  0.10100000352E+00 0.  1.
</event>
<event>
 5   0  0.1453602E-01  0.5045159E+03  0.7818609E-02  0.1012607E+00
        1   -1    0    0  501    0  0.00000000000E+00  0.00000000000E+00  0.41693406890E+03  0.41693406893E+03  0.50400001928E-02 0. -1.
       -1   -1    0    0    0  501  0.00000000000E+00  0.00000000000E+00 -0.15262382589E+03  0.15262382597E+03  0.50400001928E-02 0.  1.
    10030    2    1    2    0    0  0.00000000000E+00  0.00000000000E+00  0.26431024301E+03  0.56955789490E+03  0.50451589775E+03 0.  0.
        2    1    3    3  502    0  0.29610577355E+02 -0.64374195858E+02 -0.14115827520E+03  0.15794455371E+03  0.25500000920E-02 0.  1.
       -2    1    3    3    0  502 -0.29610577355E+02  0.64374195858E+02  0.40546851821E+03  0.41161334119E+03  0.25500000920E-02 0. -1.
</event>
<event>
 5   0  0.1413361E-01  0.4928053E+03  0.7818609E-02  0.1015674E+00
       -1   -1    0    0    0  501  0.00000000000E+00  0.00000000000E+00  0.42625316389E+02  0.42625316687E+02  0.50400001928E-02 0.  1.
        1   -1    0    0  501    0  0.00000000000E+00  0.00000000000E+00 -0.14243712469E+04  0.14243712469E+04  0.50400001928E-02 0. -1.
    10030    2    1    2    0    0  0.00000000000E+00  0.00000000000E+00 -0.13817459305E+04  0.14669965636E+04  0.49280533795E+03 0.  0.
        3    1    3    3  502    0 -0.12425183435E+03 -0.11926936644E+03 -0.16632108697E+03  0.23942935134E+03  0.10100000352E+00 0.  1.
       -3    1    3    3    0  502  0.12425183435E+03  0.11926936644E+03 -0.12154248435E+04  0.12275672123E+04  0.10100000352E+00 0. -1.
</event>
<event>
 5   0  0.1529146E-01  0.5061533E+03  0.7818609E-02  0.1012185E+00
        1   -1    0    0  501    0  0.00000000000E+00  0.00000000000E+00  0.80260612712E+03  0.80260612714E+03  0.50400001928E-02 0. -1.
       -1   -1    0    0    0  501  0.00000000000E+00  0.00000000000E+00 -0.79799767837E+02  0.79799767997E+02  0.50400001928E-02 0.  1.
    10030    2    1    2    0    0  0.00000000000E+00  0.00000000000E+00  0.72280635928E+03  0.88240589513E+03  0.50615326804E+03 0.  0.
        1    1    3    3  502    0 -0.15677220304E+03  0.18269062759E+03  0.49750113647E+03  0.55268505486E+03  0.50400001928E-02 0. -1.
       -1    1    3    3    0  502  0.15677220304E+03 -0.18269062759E+03  0.22530522282E+03  0.32972084027E+03  0.50400001928E-02 0.  1.
</event>
<event>
 5   0  0.1448458E-01  0.5239626E+03  0.7818609E-02  0.1007707E+00
       -1   -1    0    0    0  501  0.00000000000E+00  0.00000000000E+00  0.12516450205E+03  0.12516450215E+03  0.50400001928E-02 0. -1.
        1   -1    0    0  501    0  0.00000000000E+00  0.00000000000E+00 -0.54835198123E+03  0.54835198125E+03  0.50400001928E-02 0.  1.
    10030    2    1    2    0    0  0.00000000000E+00  0.00000000000E+00 -0.42318747918E+03  0.67351648341E+03  0.52396260447E+03 0.  0.
        5    1    3    3  502    0  0.62798654868E+01 -0.19283425440E+03 -0.43932737219E+03  0.47984905578E+03  0.46999998093E+01 0.  1.
       -5    1    3    3    0  502 -0.62798654868E+01  0.19283425440E+03  0.16139893009E+02  0.19366742763E+03  0.46999998093E+01 0. -1.
</event>
<event>
 5   0  0.9868500E-02  0.4850613E+03  0.7818609E-02  0.1017753E+00
        4   -1    0    0  501    0  0.00000000000E+00  0.00000000000E+00  0.49938885405E+02  0.49955031533E+02  0.12699999809E+01 0.  1.
       -4   -1    0    0    0  501  0.00000000000E+00  0.00000000000E+00 -0.11776552596E+04  0.11776559444E+04  0.12699999809E+01 0. -1.
    10030    2    1    2    0    0  0.00000000000E+00  0.00000000000E+00 -0.11277163742E+04  0.12276109759E+04  0.48506132353E+03 0.  0.
        5    1    3    3  502    0  0.74238289343E+02  0.61060561857E+02 -0.44531162269E+00  0.96239306521E+02  0.46999998093E+01 0.  1.
       -5    1    3    3    0  502 -0.74238289343E+02 -0.61060561857E+02 -0.11272710626E+04  0.11313716694E+04  0.46999998093E+01 0. -1.
</event>
<event>
 5   0  0.1448458E-01  0.4931249E+03  0.7818609E-02  0.1015589E+00
       -1   -1    0    0    0  501  0.00000000000E+00  0.00000000000E+00  0.20800873029E+04  0.20800873029E+04  0.50400001928E-02 0.  1.
        1   -1    0    0  501    0  0.00000000000E+00  0.00000000000E+00 -0.29226199593E+02  0.29226200027E+02  0.50400001928E-02 0. -1.
    10030    2    1    2    0    0  0.00000000000E+00  0.00000000000E+00  0.20508611033E+04  0.21093135030E+04  0.49312492191E+03 0.  0.
        5    1    3    3  502    0  0.92059810358E+02  0.31266662372E+02  0.19944232379E+04  0.19967971241E+04  0.46999998093E+01 0.  1.
       -5    1    3    3    0  502 -0.92059810358E+02 -0.31266662372E+02  0.56437865394E+02  0.11251637884E+03  0.46999998093E+01 0. -1.
</event>
<event>
 5   0  0.9868500E-02  0.4708449E+03  0.7818609E-02  0.1021682E+00
       -4   -1    0    0    0  501  0.00000000000E+00  0.00000000000E+00  0.11970721727E+03  0.11971395393E+03  0.12699999809E+01 0. -1.
        4   -1    0    0  501    0  0.00000000000E+00  0.00000000000E+00 -0.46297341032E+03  0.46297515221E+03  0.12699999809E+01 0.  1.
    10030    2    1    2    0    0  0.00000000000E+00  0.00000000000E+00 -0.34326619305E+03  0.58268910614E+03  0.47084489497E+03 0.  0.
        3    1    3    3  502    0 -0.94430505312E+02  0.12635213354E+03 -0.38790788518E+03  0.41875353081E+03  0.10100000352E+00 0.  1.
       -3    1    3    3    0  502  0.94430505312E+02 -0.12635213354E+03  0.44641692122E+02  0.16393557533E+03  0.10100000352E+00 0. -1.
</event>
<event>
 5   0  0.2504064E-01  0.5016911E+03  0.7818609E-02  0.1013338E+00
       -2   -1    0    0    0  501  0.00000000000E+00  0.00000000000E+00  0.12209352621E+03  0.12209352624E+03  0.25500000920E-02 0.  1.
        2   -1    0    0  501    0  0.00000000000E+00  0.00000000000E+00 -0.51537129073E+03  0.51537129074E+03  0.25500000920E-02 0. -1.
    10030    2    1    2    0    0  0.00000000000E+00  0.00000000000E+00 -0.39327776452E+03  0.63746481698E+03  0.50169113289E+03 0.  0.
        5    1    3    3  502    0 -0.52847450742E+02 -0.24452235040E+03 -0.17400253401E+03  0.30476713198E+03  0.46999998093E+01 0. -1.
       -5    1    3    3    0  502  0.52847450742E+02  0.24452235040E+03 -0.21927523051E+03  0.33269768500E+03  0.46999998093E+01 0.  1.
</event>
<event>
 5   0  0.1529146E-01  0.4959722E+03  0.7818609E-02  0.1014836E+00
        1   -1    0    0  501    0  0.00000000000E+00  0.00000000000E+00  0.14138771186E+03  0.14138771195E+03  0.50400001928E-02 0.  1.
       -1   -1    0    0    0  501  0.00000000000E+00  0.00000000000E+00 -0.43495366342E+03  0.43495366345E+03  0.50400001928E-02 0. -1.
    10030    2    1    2    0    0  0.00000000000E+00  0.00000000000E+00 -0.29356595156E+03  0.57634137540E+03  0.49597218983E+03 0.  0.
        1    1    3    3  502    0 -0.57637174425E+02  0.21333497188E+03 -0.27754903890E+03  0.35477785038E+03  0.50400001928E-02 0. -1.
       -1    1    3    3    0  502  0.57637174425E+02 -0.21333497188E+03 -0.16016912664E+02  0.22156352502E+03  0.50400001928E-02 0.  1.
</event>
<event>
 5   0  0.2504064E-01  0.5054967E+03  0.7818609E-02  0.1012354E+00
       -2   -1    0    0    0  501  0.00000000000E+00  0.00000000000E+00  0.55889885697E+02  0.55889885755E+02  0.25500000920E-02 0.  1.
        2   -1    0    0  501    0  0.00000000000E+00  0.00000000000E+00 -0.11429925818E+04  0.11429925818E+04  0.25500000920E-02 0. -1.
    10030    2    1    2    0    0  0.00000000000E+00  0.00000000000E+00 -0.10871026961E+04  0.11988824675E+04  0.50549668559E+03 0.  0.
        5    1    3    3  502    0 -0.20653481513E+03 -0.10385731381E+03 -0.78561111449E+03  0.81893216123E+03  0.46999998093E+01 0. -1.
       -5    1    3    3    0  502  0.20653481513E+03  0.10385731381E+03 -0.30149158160E+03  0.37995030631E+03  0.46999998093E+01 0.  1.
</event>
<event>
 5   0  0.1413361E-01  0.4945747E+03  0.7818609E-02  0.1015205E+00
        1   -1    0    0  501    0  0.00000000000E+00  0.00000000000E+00  0.75767952935E+03  0.75767952937E+03  0.50400001928E-02 0. -1.
       -1   -1    0    0    0  501  0.00000000000E+00  0.00000000000E+00 -0.80708320437E+02  0.80708320594E+02  0.50400001928E-02 0.  1.
    10030    2    1    2    0    0  0.00000000000E+00  0.00000000000E+00  0.67697120891E+03  0.83838784996E+03  0.49457473577E+03 0.  0.
        3    1    3    3  502    0 -0.17582874966E+03 -0.10507744519E+03  0.57333851418E+03  0.60883009184E+03  0.10100000352E+00 0.  1.
       -3    1    3    3    0  502  0.17582874966E+03  0.10507744519E+03  0.10363269474E+03  0.22955775812E+03  0.10100000352E+00 0. -1.
</event>
<event>
 5   0  0.2413301E-01  0.5139550E+03  0.7818609E-02  0.1010199E+00
       -2   -1    0    0    0  501  0.00000000000E+00  0.00000000000E+00  0.30624990660E+02  0.30624990766E+02  0.25500000920E-02 0. -1.
        2   -1    0    0  501    0  0.00000000000E+00  0.00000000000E+00 -0.21563250238E+04  0.21563250238E+04  0.25500000920E-02 0.  1.
    10030    2    1    2    0    0  0.00000000000E+00  0.00000000000E+00 -0.21257000331E+04  0.21869500145E+04  0.51395499348E+03 0.  0.
        4    1    3    3  502    0  0.16919107450E+03  0.58373431113E+02 -0.27820946698E+03  0.33080991153E+03  0.12699999809E+01 0. -1.
       -4    1    3    3    0  502 -0.16919107450E+03 -0.58373431113E+02 -0.18474905661E+04  0.18561401030E+04  0.12699999809E+01 0.  1.
</event>
<event>
 5   0  0.1439814E-01  0.4233216E+03  0.7818609E-02  0.1035991E+00
       -1   -1    0    0    0  501  0.00000000000E+00  0.00000000000E+00  0.12616928520E+03  0.12616928530E+03  0.50400001928E-02 0. -1.
        1   -1    0    0  501    0  0.00000000000E+00  0.00000000000E+00 -0.35508079543E+03  0.35508079547E+03  0.50400001928E-02 0.  1.
    10030    2    1    2    0    0  0.00000000000E+00  0.00000000000E+00 -0.22891151023E+03  0.48125008077E+03  0.42332158075E+03 0.  0.
        4    1    3    3  502    0 -0.12823702808E+03 -0.35928164538E+02 -0.30147627021E+03  0.32958325622E+03  0.12699999809E+01 0.  1.
       -4    1    3    3    0  502  0.12823702808E+03  0.35928164538E+02  0.72564759982E+02  0.15166682455E+03  0.12699999809E+01 0. -1.
</event>
<event>
 5   0  0.2413301E-01  0.4947257E+03  0.7818609E-02  0.1015165E+00
       -2   -1    0    0    0  501  0.00000000000E+00  0.00000000000E+00  0.26875400419E+03  0.26875400420E+03  0.25500000920E-02 0.  1.
        2   -1    0    0  501    0  0.00000000000E+00  0.00000000000E+00 -0.22767428804E+03  0.22767428805E+03  0.25500000920E-02 0. -1.
    10030    2    1    2    0    0  0.00000000000E+00  0.00000000000E+00  0.41079716153E+02  0.49642829225E+03  0.49472568790E+03 0.  0.
        4    1    3    3  502    0  0.15345346009E+02  0.22660479988E+03 -0.77784859586E+02  0.24007772128E+03  0.12699999809E+01 0. -1.
       -4    1    3    3    0  502 -0.15345346009E+02 -0.22660479988E+03  0.11886457574E+03  0.25635057097E+03  0.12699999809E+01 0.  1.
</event>
<event>
 5   0  0.2488968E-01  0.5029792E+03  0.7818609E-02  0.1013004E+00
       -2   -1    0    0    0  501  0.00000000000E+00  0.00000000000E+00  0.51009995165E+02  0.51009995229E+02  0.25500000920E-02 0.  1.
        2   -1    0    0  501    0  0.00000000000E+00  0.00000000000E+00 -0.12398944166E+04  0.12398944166E+04  0.25500000920E-02 0. -1.
    10030    2    1    2    0    0  0.00000000000E+00  0.00000000000E+00 -0.11888844215E+04  0.12909044119E+04  0.50297915758E+03 0.  0.
        2    1    3    3  502    0  0.19917140788E+03  0.90654328432E+02 -0.27636441020E+03  0.35251204832E+03  0.25500000920E-02 0.  1.
       -2    1    3    3    0  502 -0.19917140788E+03 -0.90654328432E+02 -0.91252001127E+03  0.93839236354E+03  0.25500000920E-02 0. -1.
</event>
<event>
 5   0  0.1529146E-01  0.5080840E+03  0.7818609E-02  0.1011690E+00
       -1   -1    0    0    0  501  0.00000000000E+00  0.00000000000E+00  0.10458747669E+03  0.10458747681E+03  0.50400001928E-02 0.  1.
        1   -1    0    0  501    0  0.00000000000E+00  0.00000000000E+00 -0.61706554323E+03  0.61706554325E+03  0.50400001928E-02 0. -1.
    10030    2    1    2    0    0  0.00000000000E+00  0.00000000000E+00 -0.51247806654E+03  0.72165302006E+03  0.50808396223E+03 0.  0.
        1    1    3    3  502    0 -0.22245903552E+03  0.80550282347E+02 -0.38765681185E+03  0.45415214881E+03  0.50400001928E-02 0. -1.
       -1    1    3    3    0  502  0.22245903552E+03 -0.80550282347E+02 -0.12482125469E+03  0.26750087125E+03  0.50400001928E-02 0.  1.
</event>
<event>
 5   0  0.1448458E-01  0.4767914E+03  0.7818609E-02  0.1020021E+00
       -1   -1    0    0    0  501  0.00000000000E+00  0.00000000000E+00  0.19493362515E+03  0.19493362521E+03  0.50400001928E-02 0.  1.
        1   -1    0    0  501    0  0.00000000000E+00  0.00000000000E+00 -0.29154800212E+03  0.29154800217E+03  0.50400001928E-02 0. -1.
    10030    2    1    2    0    0  0.00000000000E+00  0.00000000000E+00 -0.96614376973E+02  0.48648162738E+03  0.47679139667E+03 0.  0.
        5    1    3    3  502    0  0.10683832658E+03 -0.55140373095E+02 -0.25829451982E+03  0.28494392034E+03  0.46999998093E+01 0. -1.
       -5    1    3    3    0  502 -0.10683832658E+03  0.55140373095E+02  0.16168014285E+03  0.20153770704E+03  0.46999998093E+01 0.  1.
</event>
<event>
 5   0  0.1529146E-01  0.5309009E+03  0.7818609E-02  0.1006014E+00
        1   -1    0    0  501    0  0.00000000000E+00  0.00000000000E+00  0.16222770402E+04  0.16222770402E+04  0.50400001928E-02 0. -1.
       -1   -1    0    0    0  501  0.00000000000E+00  0.00000000000E+00 -0.43435202845E+02  0.43435203137E+02  0.50400001928E-02 0.  1.
    10030    2    1    2    0    0  0.00000000000E+00  0.00000000000E+00  0.15788418373E+04  0.16657122433E+04  0.53090086668E+03 0.  0.
        1    1    3    3  502    0  0.14087729865E+03  0.16664011742E+02  0.85469942078E+02  0.16561767293E+03  0.50400001928E-02 0.  1.
       -1    1    3    3    0  502 -0.14087729865E+03 -0.16664011742E+02  0.14933718953E+04  0.15000945704E+04  0.50400001928E-02 0. -1.
</event>
<event>
 5   0  0.2504064E-01  0.5025072E+03  0.7818609E-02  0.1013127E+00
       -2   -1    0    0    0  501  0.00000000000E+00  0.00000000000E+00  0.85313855138E+03  0.85313855139E+03  0.25500000920E-02 0.  1.
        2   -1    0    0  501    0  0.00000000000E+00  0.00000000000E+00 -0.73995462731E+02  0.73995462775E+02  0.25500000920E-02 0. -1.
    10030    2    1    2    0    0  0.00000000000E+00  0.00000000000E+00  0.77914308865E+03  0.92713401416E+03  0.50250724136E+03 0.  0.
        5    1    3    3  502    0  0.17443302617E+03 -0.16751530315E+02  0.57474786406E+02  0.18448017633E+03  0.46999998093E+01 0. -1.
       -5    1    3    3    0  502 -0.17443302617E+03  0.16751530315E+02  0.72166830225E+03  0.74265383784E+03  0.46999998093E+01 0.  1.
</event>
<event>
 5   0  0.2466034E-01  0.4935703E+03  0.7818609E-02  0.1015471E+00
       -2   -1    0    0    0  501  0.00000000000E+00  0.00000000000E+00  0.39846210981E+03  0.39846210981E+03  0.25500000920E-02 0. -1.
        2   -1    0    0  501    0  0.00000000000E+00  0.00000000000E+00 -0.15284494342E+03  0.15284494345E+03  0.25500000920E-02 0.  1.
    10030    2    1    2    0    0  0.00000000000E+00  0.00000000000E+00  0.24561716638E+03  0.55130705326E+03  0.49357033395E+03 0.  0.
        3    1    3    3  502    0  0.13580640265E+03  0.20592849671E+03  0.11467811478E+03  0.27203125733E+03  0.10100000352E+00 0. -1.
       -3    1    3    3    0  502 -0.13580640265E+03 -0.20592849671E+03  0.13093905160E+03  0.27927579593E+03  0.10100000352E+00 0.  1.
</event>
<event>
 5   0  0.2504064E-01  0.4994083E+03  0.7818609E-02  0.1013933E+00
       -2   -1    0    0    0  501  0.00000000000E+00  0.00000000000E+00  0.59904245637E+03  0.59904245638E+03  0.25500000920E-02 0.  1.
        2   -1    0    0  501    0  0.00000000000E+00  0.00000000000E+00 -0.10408638724E+03  0.10408638727E+03  0.25500000920E-02 0. -1.
    10030    2    1    2    0    0  0.00000000000E+00  0.00000000000E+00  0.49495606914E+03  0.70312884365E+03  0.49940831030E+03 0.  0.
        5    1    3    3  502    0  0.40178818124E+02 -0.15404608112E+02  0.59371977633E+03  0.59529564267E+03  0.46999998093E+01 0.  1.
       -5    1    3    3    0  502 -0.40178818124E+02  0.15404608112E+02 -0.98763707194E+02  0.10783320098E+03  0.46999998093E+01 0. -1.
</event>
<event>
 5   0  0.1453602E-01  0.5163977E+03  0.7818609E-02  0.1009585E+00
        1   -1    0    0  501    0  0.00000000000E+00  0.00000000000E+00  0.29518670592E+03  0.29518670596E+03  0.50400001928E-02 0. -1.
       -1   -1    0    0    0  501  0.00000000000E+00  0.00000000000E+00 -0.22584567423E+03  0.22584567428E+03  0.50400001928E-02 0.  1.
    10030    2    1    2    0    0  0.00000000000E+00  0.00000000000E+00  0.69341031689E+02  0.52103238024E+03  0.51639767872E+03 0.  0.
        2    1    3    3  502    0  0.74162936622E+02 -0.68653903591E+02  0.27440167642E+03  0.29242055275E+03  0.25500000920E-02 0. -1.
       -2    1    3    3    0  502 -0.74162936622E+02  0.68653903591E+02 -0.20506064473E+03  0.22861182749E+03  0.25500000920E-02 0.  1.
</event>
<event>
 5   0  0.2413301E-01  0.5054401E+03  0.7818609E-02  0.1012369E+00
        2   -1    0    0  501    0  0.00000000000E+00  0.00000000000E+00  0.10847132379E+04  0.10847132379E+04  0.25500000920E-02 0. -1.
       -2   -1    0    0    0  501  0.00000000000E+00  0.00000000000E+00 -0.58879545836E+02  0.58879545891E+02  0.25500000920E-02 0.  1.
    10030    2    1    2    0    0  0.00000000000E+00  0.00000000000E+00  0.10258336920E+04  0.11435927838E+04  0.50544009672E+03 0.  0.
        4    1    3    3  502    0  0.30118323764E+02  0.64106954775E+02  0.10617890520E+04  0.10641496224E+04  0.12699999809E+01 0. -1.
       -4    1    3    3    0  502 -0.30118323764E+02 -0.64106954775E+02 -0.35955359945E+02  0.79443161352E+02  0.12699999809E+01 0.  1.
</event>
<event>
 5   0  0.1529146E-01  0.5004897E+03  0.7818609E-02  0.1013651E+00
        1   -1    0    0  501    0  0.00000000000E+00  0.00000000000E+00  0.60206096785E+03  0.60206096787E+03  0.50400001928E-02 0.  1.
       -1   -1    0    0    0  501  0.00000000000E+00  0.00000000000E+00 -0.10401352221E+03  0.10401352233E+03  0.50400001928E-02 0. -1.
    10030    2    1    2    0    0  0.00000000000E+00  0.00000000000E+00  0.49804744564E+03  0.70607449020E+03  0.50048968781E+03 0.  0.
        1    1    3    3  502    0  0.60946720502E+02 -0.23670442512E+03  0.17332722494E+03  0.29964281160E+03  0.50400001928E-02 0. -1.
       -1    1    3    3    0  502 -0.60946720502E+02  0.23670442512E+03  0.32472022070E+03  0.40643167860E+03  0.50400001928E-02 0.  1.
</event>
<event>
 5   0  0.2466034E-01  0.5000074E+03  0.7818609E-02  0.1013777E+00
       -2   -1    0    0    0  501  0.00000000000E+00  0.00000000000E+00  0.80072071052E+02  0.80072071093E+02  0.25500000920E-02 0.  1.
        2   -1    0    0  501    0  0.00000000000E+00  0.00000000000E+00 -0.78056991041E+03  0.78056991042E+03  0.25500000920E-02 0. -1.
    10030    2    1    2    0    0  0.00000000000E+00  0.00000000000E+00 -0.70049783936E+03  0.86064198151E+03  0.50000739733E+03 0.  0.
        3    1    3    3  502    0  0.88675391863E+02  0.21292658132E+03 -0.51624808325E+03  0.56543182419E+03  0.10100000352E+00 0. -1.
       -3    1    3    3    0  502 -0.88675391863E+02 -0.21292658132E+03 -0.18424975612E+03  0.29521015732E+03  0.10100000352E+00 0.  1.
</event>
<event>
 5   0  0.1529146E-01  0.4997153E+03  0.7818609E-02  0.1013853E+00
        1   -1    0    0  501    0  0.00000000000E+00  0.00000000000E+00  0.69405638489E+03  0.69405638491E+03  0.50400001928E-02 0.  1.
       -1   -1    0    0    0  501  0.00000000000E+00  0.00000000000E+00 -0.89947796789E+02  0.89947796931E+02  0.50400001928E-02 0. -1.
    10030    2    1    2    0    0  0.00000000000E+00  0.00000000000E+00  0.60410858810E+03  0.78400418184E+03  0.49971528987E+03 0.  0.
        1    1    3    3  502    0  0.19995519153E+03 -0.13967092893E+03  0.38710549275E+03  0.45753765917E+03  0.50400001928E-02 0.  1.
       -1    1    3    3    0  502 -0.19995519153E+03  0.13967092893E+03  0.21700309535E+03  0.32646652267E+03  0.50400001928E-02 0. -1.
</event>
<event>
 5   0  0.9868500E-02  0.5016914E+03  0.7818609E-02  0.1013338E+00
        3   -1    0    0  501    0  0.00000000000E+00  0.00000000000E+00  0.59860170044E+03  0.59860170896E+03  0.10100000352E+00 0.  1.
       -3   -1    0    0    0  501  0.00000000000E+00  0.00000000000E+00 -0.10511755588E+03  0.10511760440E+03  0.10100000352E+00 0. -1.
    10030    2    1    2    0    0  0.00000000000E+00  0.00000000000E+00  0.49348414456E+03  0.70371931336E+03  0.50169141019E+03 0.  0.
        1    1    3    3  502    0 -0.24024454056E+03  0.24839960328E+02  0.15171949734E+03  0.28522494421E+03  0.50400001928E-02 0. -1.
       -1    1    3    3    0  502  0.24024454056E+03 -0.24839960328E+02  0.34176464722E+03  0.41849436915E+03  0.50400001928E-02 0.  1.
</event>
<event>
 5   0  0.2504064E-01  0.4822507E+03  0.7818609E-02  0.1018518E+00
       -2   -1    0    0    0  501  0.00000000000E+00  0.00000000000E+00  0.18342928829E+03  0.18342928831E+03  0.25500000920E-02 0.  1.
        2   -1    0    0  501    0  0.00000000000E+00  0.00000000000E+00 -0.31696923551E+03  0.31696923552E+03  0.25500000920E-02 0. -1.
    10030    2    1    2    0    0  0.00000000000E+00  0.00000000000E+00 -0.13353994721E+03  0.50039852383E+03  0.48225072851E+03 0.  0.
        5    1    3    3  502    0  0.19895677724E+03  0.13597980340E+03 -0.73734107824E+02  0.25205776083E+03  0.46999998093E+01 0. -1.
       -5    1    3    3    0  502 -0.19895677724E+03 -0.13597980340E+03 -0.59805839388E+02  0.24834076299E+03  0.46999998093E+01 0.  1.
</event>
<event>
 5   0  0.1448458E-01  0.4951964E+03  0.7818609E-02  0.1015040E+00
       -1   -1    0    0    0  501  0.00000000000E+00  0.00000000000E+00  0.62043375544E+03  0.62043375546E+03  0.50400001928E-02 0. -1.
        1   -1    0    0  501    0  0.00000000000E+00  0.00000000000E+00 -0.98809706158E+02  0.98809706286E+02  0.50400001928E-02 0.  1.
    10030    2    1    2    0    0  0.00000000000E+00  0.00000000000E+00  0.52162404928E+03  0.71924346175E+03  0.49519643423E+03 0.  0.
        5    1    3    3  502    0 -0.96869959650E+02  0.22561967271E+03  0.30662176806E+03  0.39284478416E+03  0.46999998093E+01 0. -1.
       -5    1    3    3    0  502  0.96869959650E+02 -0.22561967271E+03  0.21500228122E+03  0.32639867758E+03  0.46999998093E+01 0.  1.
</event>
<event>
 5   0  0.1453602E-01  0.5165345E+03  0.7818609E-02  0.1009551E+00
       -1   -1    0    0    0  501  0.00000000000E+00  0.00000000000E+00  0.94193142263E+03  0.94193142264E+03  0.50400001928E-02 0.  1.
        1   -1    0    0  501    0  0.00000000000E+00  0.00000000000E+00 -0.70814044980E+02  0.70814045159E+02  0.50400001928E-02 0. -1.
    10030    2    1    2    0    0  0.00000000000E+00  0.00000000000E+00  0.87111737765E+03  0.10127454678E+04  0.51653450699E+03 0.  0.
        2    1    3    3  502    0  0.16103519302E+03  0.83859620818E+02  0.75431826255E+02  0.19660806142E+03  0.25500000920E-02 0. -1.
       -2    1    3    3    0  502 -0.16103519302E+03 -0.83859620818E+02  0.79568555139E+03  0.81613740638E+03  0.25500000920E-02 0.  1.
</event>
<event>
 5   0  0.2488968E-01  0.4927827E+03  0.7818609E-02  0.1015680E+00
        2   -1    0    0  501    0  0.00000000000E+00  0.00000000000E+00  0.18007325317E+03  0.18007325318E+03  0.25500000920E-02 0.  1.
       -2   -1    0    0    0  501  0.00000000000E+00  0.00000000000E+00 -0.33713335372E+03  0.33713335373E+03  0.25500000920E-02 0. -1.
    10030    2    1    2    0    0  0.00000000000E+00  0.00000000000E+00 -0.15706010055E+03  0.51720660691E+03  0.49278270977E+03 0.  0.
        2    1    3    3  502    0  0.24061209794E+03 -0.14868612642E+02 -0.25080148774E+02  0.24237217494E+03  0.25500000920E-02 0. -1.
       -2    1    3    3    0  502 -0.24061209794E+03  0.14868612642E+02 -0.13197995178E+03  0.27483443197E+03  0.25500000920E-02 0.  1.
</event>
<event>
 5   0  0.2466034E-01  0.4719640E+03  0.7818609E-02  0.1021367E+00
       -2   -1    0    0    0  501  0.00000000000E+00  0.00000000000E+00  0.39190551875E+02  0.39190551958E+02  0.25500000920E-02 0. -1.
        2   -1    0    0  501    0  0.00000000000E+00  0.00000000000E+00 -0.14209423607E+04  0.14209423607E+04  0.25500000920E-02 0.  1.
    10030    2    1    2    0    0  0.00000000000E+00  0.00000000000E+00 -0.13817518089E+04  0.14601329127E+04  0.47196404677E+03 0.  0.
        3    1    3    3  502    0  0.17345622447E+03 -0.28586354107E+02 -0.20383804359E+03  0.26917317784E+03  0.10100000352E+00 0. -1.
       -3    1    3    3    0  502 -0.17345622447E+03  0.28586354107E+02 -0.11779137653E+04  0.11909597349E+04  0.10100000352E+00 0.  1.
</event>
<event>
 5   0  0.1413361E-01  0.5038807E+03  0.7818609E-02  0.1012771E+00
        1   -1    0    0  501    0  0.00000000000E+00  0.00000000000E+00  0.57706389258E+02  0.57706389479E+02  0.50400001928E-02 0. -1.
       -1   -1    0    0    0  501  0.00000000000E+00  0.00000000000E+00 -0.10999464107E+04  0.10999464107E+04  0.50400001928E-02 0.  1.
    10030    2    1    2    0    0  0.00000000000E+00  0.00000000000E+00 -0.10422400215E+04  0.11576528002E+04  0.50388068379E+03 0.  0.
        3    1    3    3  502    0 -0.17661433248E+03  0.17953302471E+03 -0.50500551449E+03  0.56431844668E+03  0.10100000352E+00 0. -1.
       -3    1    3    3    0  502  0.17661433248E+03 -0.17953302471E+03 -0.53723450699E+03  0.59333435354E+03  0.10100000352E+00 0.  1.
</event>
<event>
 5   0  0.9868500E-02  0.5025907E+03  0.7818609E-02  0.1013105E+00
        4   -1    0    0  501    0  0.00000000000E+00  0.00000000000E+00  0.80222412069E+02  0.80232464116E+02  0.12699999809E+01 0.  1.
       -4   -1    0    0    0  501  0.00000000000E+00  0.00000000000E+00 -0.78711869576E+03  0.78711972032E+03  0.12699999809E+01 0. -1.
    10030    2    1    2    0    0  0.00000000000E+00  0.00000000000E+00 -0.70689628369E+03  0.86735218443E+03  0.50259074399E+03 0.  0.
        4    1    3    3  502    0  0.18533160536E+03  0.18097587353E+02 -0.64464937870E+03  0.67100652827E+03  0.12699999809E+01 0. -1.
       -4    1    3    3    0  502 -0.18533160536E+03 -0.18097587353E+02 -0.62246904985E+02  0.19634565617E+03  0.12699999809E+01 0.  1.
</event>
<event>
 5   0  0.2413301E-01  0.4982526E+03  0.7818609E-02  0.1014236E+00
       -2   -1    0    0    0  501  0.00000000000E+00  0.00000000000E+00  0.49374776706E+02  0.49374776771E+02  0.25500000920E-02 0.  1.
        2   -1    0    0  501    0  0.00000000000E+00  0.00000000000E+00 -0.12569960875E+04  0.12569960875E+04  0.25500000920E-02 0. -1.
    10030    2    1    2    0    0  0.00000000000E+00  0.00000000000E+00 -0.12076213108E+04  0.13063708643E+04  0.49825255117E+03 0.  0.
        4    1    3    3  502    0 -0.87927038764E+02  0.58968915756E+02 -0.12550487735E+02  0.10661906403E+03  0.12699999809E+01 0.  1.
       -4    1    3    3    0  502  0.87927038764E+02 -0.58968915756E+02 -0.11950708231E+04  0.11997518003E+04  0.12699999809E+01 0. -1.
</event>
<event>
 5   0  0.2488968E-01  0.4984755E+03  0.7818609E-02  0.1014178E+00
        2   -1    0    0  501    0  0.00000000000E+00  0.00000000000E+00  0.30021190571E+03  0.30021190572E+03  0.25500000920E-02 0.  1.
       -2   -1    0    0    0  501  0.00000000000E+00  0.00000000000E+00 -0.20691866043E+03  0.20691866045E+03  0.25500000920E-02 0. -1.
    10030    2    1    2    0    0  0.00000000000E+00  0.00000000000E+00  0.93293245272E+02  0.50713056617E+03  0.49847545730E+03 0.  0.
        2    1    3    3  502    0  0.19860498331E+03 -0.10701915783E+02  0.19945773564E+03  0.28167686932E+03  0.25500000920E-02 0.  1.
       -2    1    3    3    0  502 -0.19860498331E+03  0.10701915783E+02 -0.10616449037E+03  0.22545369684E+03  0.25500000920E-02 0. -1.
</event>
<event>
 5   0  0.9868500E-02  0.4962986E+03  0.7818609E-02  0.1014750E+00
       -4   -1    0    0    0  501  0.00000000000E+00  0.00000000000E+00  0.97739698334E+02  0.97747948983E+02  0.12699999809E+01 0. -1.
        4   -1    0    0  501    0  0.00000000000E+00  0.00000000000E+00 -0.62998561437E+03  0.62998689448E+03  0.12699999809E+01 0.  1.
    10030    2    1    2    0    0  0.00000000000E+00  0.00000000000E+00 -0.53224591604E+03  0.72773484346E+03  0.49629858679E+03 0.  0.
        3    1    3    3  502    0  0.50253964933E+02 -0.15103346080E+03  0.13024179563E+02  0.15970662706E+03  0.10100000352E+00 0. -1.
       -3    1    3    3    0  502 -0.50253964933E+02  0.15103346080E+03 -0.54527009560E+03  0.56802821640E+03  0.10100000352E+00 0.  1.
</event>
<event>
 5   0  0.2413301E-01  0.5040501E+03  0.7818609E-02  0.1012727E+00
       -2   -1    0    0    0  501  0.00000000000E+00  0.00000000000E+00  0.11497451967E+03  0.11497451970E+03  0.25500000920E-02 0.  1.
        2   -1    0    0  501    0  0.00000000000E+00  0.00000000000E+00 -0.55244085627E+03  0.55244085627E+03  0.25500000920E-02 0. -1.
    10030    2    1    2    0    0  0.00000000000E+00  0.00000000000E+00 -0.43746633660E+03  0.66741537597E+03  0.50405008524E+03 0.  0.
        4    1    3    3  502    0 -0.56279796982E+02  0.15285362503E+03  0.35906297894E+02  0.16680084340E+03  0.12699999809E+01 0.  1.
       -4    1    3    3    0  502  0.56279796982E+02 -0.15285362503E+03 -0.47337263449E+03  0.50061453257E+03  0.12699999809E+01 0. -1.
</event>
<event>
 5   0  0.2504064E-01  0.4946703E+03  0.7818609E-02  0.1015179E+00
       -2   -1    0    0    0  501  0.00000000000E+00  0.00000000000E+00  0.10579906586E+03  0.10579906589E+03  0.25500000920E-02 0. -1.
        2   -1    0    0  501    0  0.00000000000E+00  0.00000000000E+00 -0.57821562355E+03  0.57821562355E+03  0.25500000920E-02 0.  1.
    10030    2    1    2    0    0  0.00000000000E+00  0.00000000000E+00 -0.47241655769E+03  0.68401468944E+03  0.49467028554E+03 0.  0.
        5    1    3    3  502    0 -0.67047810741E+02  0.23365878456E+02  0.91339320458E+02  0.11578572736E+03  0.46999998093E+01 0. -1.
       -5    1    3    3    0  502  0.67047810741E+02 -0.23365878456E+02 -0.56375587815E+03  0.56822896208E+03  0.46999998093E+01 0.  1.
</event>
<event>
 5   0  0.9868500E-02  0.4925737E+03  0.7818609E-02  0.1015736E+00
        3   -1    0    0  501    0  0.00000000000E+00  0.00000000000E+00  0.97554927358E+02  0.97554979641E+02  0.10100000352E+00 0.  1.
       -3   -1    0    0    0  501  0.00000000000E+00  0.00000000000E+00 -0.62177470331E+03  0.62177471152E+03  0.10100000352E+00 0. -1.
    10030    2    1    2    0    0  0.00000000000E+00  0.00000000000E+00 -0.52421977596E+03  0.71932969116E+03  0.49257368086E+03 0.  0.
        5    1    3    3  502    0 -0.20606025053E+03 -0.12362234572E+03 -0.18357883817E+03  0.30243444088E+03  0.46999998093E+01 0.  1.
       -5    1    3    3    0  502  0.20606025053E+03  0.12362234572E+03 -0.34064093779E+03  0.41689525028E+03  0.46999998093E+01 0. -1.
</event>
<event>
 5   0  0.2413301E-01  0.5194222E+03  0.7818609E-02  0.1008830E+00
       -2   -1    0    0    0  501  0.00000000000E+00  0.00000000000E+00  0.23942305362E+03  0.23942305364E+03  0.25500000920E-02 0. -1.
        2   -1    0    0  501    0  0.00000000000E+00  0.00000000000E+00 -0.28171833503E+03  0.28171833504E+03  0.25500000920E-02 0.  1.
    10030    2    1    2    0    0  0.00000000000E+00  0.00000000000E+00 -0.42295281406E+02  0.52114138868E+03  0.51942223303E+03 0.  0.
        4    1    3    3  502    0 -0.25313191805E+03  0.21504510777E+02  0.32975682183E+02  0.25617810296E+03  0.12699999809E+01 0. -1.
       -4    1    3    3    0  502  0.25313191805E+03 -0.21504510777E+02 -0.75270963589E+02  0.26496328572E+03  0.12699999809E+01 0.  1.
</event>
<event>
 5   0  0.2488968E-01  0.5051162E+03  0.7818609E-02  0.1012452E+00
       -2   -1    0    0    0  501  0.00000000000E+00  0.00000000000E+00  0.18292474967E+03  0.18292474968E+03  0.25500000920E-02 0.  1.
        2   -1    0    0  501    0  0.00000000000E+00  0.00000000000E+00 -0.34869857131E+03  0.34869857132E+03  0.25500000920E-02 0. -1.
    10030    2    1    2    0    0  0.00000000000E+00  0.00000000000E+00 -0.16577382165E+03  0.53162332101E+03  0.50511621979E+03 0.  0.
        2    1    3    3  502    0 -0.19521809728E+02  0.24579055755E+03 -0.14045173552E+03  0.28376185307E+03  0.25500000920E-02 0.  1.
       -2    1    3    3    0  502  0.19521809728E+02 -0.24579055755E+03 -0.25322086128E+02  0.24786146794E+03  0.25500000920E-02 0. -1.
</event>
<event>
 5   0  0.9868500E-02  0.4931039E+03  0.7818609E-02  0.1015595E+00
       -4   -1    0    0    0  501  0.00000000000E+00  0.00000000000E+00  0.10029419195E+03  0.10030223248E+03  0.12699999809E+01 0. -1.
        4   -1    0    0  501    0  0.00000000000E+00  0.00000000000E+00 -0.60606259483E+03  0.60606392546E+03  0.12699999809E+01 0.  1.
    10030    2    1    2    0    0  0.00000000000E+00  0.00000000000E+00 -0.50576840287E+03  0.70636615794E+03  0.49310391576E+03 0.  0.
        2    1    3    3  502    0 -0.22102260129E+03 -0.10847259572E+03 -0.23417533939E+03  0.33978726269E+03  0.25500000920E-02 0.  1.
       -2    1    3    3    0  502  0.22102260129E+03  0.10847259572E+03 -0.27159306349E+03  0.36657889525E+03  0.25500000920E-02 0. -1.
</event>
<event>
 5   0  0.1529146E-01  0.5023581E+03  0.7818609E-02  0.1013165E+00
       -1   -1    0    0    0  501  0.00000000000E+00  0.00000000000E+00  0.14849489533E+03  0.14849489542E+03  0.50400001928E-02 0. -1.
        1   -1    0    0  501    0  0.00000000000E+00  0.00000000000E+00 -0.42486928297E+03  0.42486928300E+03  0.50400001928E-02 0.  1.
    10030    2    1    2    0    0  0.00000000000E+00  0.00000000000E+00 -0.27637438763E+03  0.57336417842E+03  0.50235811823E+03 0.  0.
        1    1    3    3  502    0 -0.33934231969E+02  0.23532731717E+03 -0.45742143761E+02  0.24212150265E+03  0.50400001928E-02 0.  1.
       -1    1    3    3    0  502  0.33934231969E+02 -0.23532731717E+03 -0.23063224387E+03  0.33124267576E+03  0.50400001928E-02 0. -1.
</event>
<event>
 5   0  0.2466034E-01  0.4880053E+03  0.7818609E-02  0.1016958E+00
        2   -1    0    0  501    0  0.00000000000E+00  0.00000000000E+00  0.98194680717E+02  0.98194680750E+02  0.25500000920E-02 0.  1.
       -2   -1    0    0    0  501  0.00000000000E+00  0.00000000000E+00 -0.60631883027E+03  0.60631883027E+03  0.25500000920E-02 0. -1.
    10030    2    1    2    0    0  0.00000000000E+00  0.00000000000E+00 -0.50812414955E+03  0.70451351102E+03  0.48800526212E+03 0.  0.
        3    1    3    3  502    0  0.96571891540E+02  0.16681192825E+03 -0.47005654596E+03  0.50804086080E+03  0.10100000352E+00 0. -1.
       -3    1    3    3    0  502 -0.96571891540E+02 -0.16681192825E+03 -0.38067603593E+02  0.19647265023E+03  0.10100000352E+00 0.  1.
</event>
<event>
 5   0  0.1439814E-01  0.5011165E+03  0.7818609E-02  0.1013488E+00
       -1   -1    0    0    0  501  0.00000000000E+00  0.00000000000E+00  0.71924452380E+02  0.71924452557E+02  0.50400001928E-02 0.  1.
        1   -1    0    0  501    0  0.00000000000E+00  0.00000000000E+00 -0.87285257601E+03  0.87285257603E+03  0.50400001928E-02 0. -1.
    10030    2    1    2    0    0  0.00000000000E+00  0.00000000000E+00 -0.80092812363E+03  0.94477702859E+03  0.50111652788E+03 0.  0.
        4    1    3    3  502    0 -0.26361010743E+02 -0.14905009244E+03 -0.77690544832E+03  0.79151406903E+03  0.12699999809E+01 0. -1.
       -4    1    3    3    0  502  0.26361010743E+02  0.14905009244E+03 -0.24022675315E+02  0.15326295956E+03  0.12699999809E+01 0.  1.
</event>
<event>
 5   0  0.2488968E-01  0.4667267E+03  0.7818609E-02  0.1022848E+00
        2   -1    0    0  501    0  0.00000000000E+00  0.00000000000E+00  0.97076968743E+03  0.97076968744E+03  0.25500000920E-02 0. -1.
       -2   -1    0    0    0  501  0.00000000000E+00  0.00000000000E+00 -0.56098216657E+02  0.56098216715E+02  0.25500000920E-02 0.  1.
    10030    2    1    2    0    0  0.00000000000E+00  0.00000000000E+00  0.91467147078E+03  0.10268679042E+04  0.46672667925E+03 0.  0.
        2    1    3    3  502    0 -0.23188157808E+03  0.46218768157E+01  0.40047050855E+03  0.46278186679E+03  0.25500000920E-02 0.  1.
       -2    1    3    3    0  502  0.23188157808E+03 -0.46218768157E+01  0.51420096222E+03  0.56408603737E+03  0.25500000920E-02 0. -1.
</event>
<event>
 5   0  0.2504064E-01  0.5009318E+03  0.7818609E-02  0.1013536E+00
       -2   -1    0    0    0  501  0.00000000000E+00  0.00000000000E+00  0.11094719154E+03  0.11094719157E+03  0.25500000920E-02 0. -1.
        2   -1    0    0  501    0  0.00000000000E+00  0.00000000000E+00 -0.56543276351E+03  0.56543276351E+03  0.25500000920E-02 0.  1.
    10030    2    1    2    0    0  0.00000000000E+00  0.00000000000E+00 -0.45448557197E+03  0.67637995508E+03  0.50093184018E+03 0.  0.
        5    1    3    3  502    0  0.78696211304E+01  0.11448567561E+03 -0.52778098207E+03  0.54013309091E+03  0.46999998093E+01 0.  1.
       -5    1    3    3    0  502 -0.78696211304E+01 -0.11448567561E+03  0.73295410102E+02  0.13624686417E+03  0.46999998093E+01 0. -1.
</event>
<event>
 5   0  0.1529146E-01  0.4931906E+03  0.7818609E-02  0.1015572E+00
        1   -1    0    0  501    0  0.00000000000E+00  0.00000000000E+00  0.12958027551E+03  0.12958027560E+03  0.50400001928E-02 0.  1.
       -1   -1    0    0    0  501  0.00000000000E+00  0.00000000000E+00 -0.46927854061E+03  0.46927854064E+03  0.50400001928E-02 0. -1.
    10030    2    1    2    0    0  0.00000000000E+00  0.00000000000E+00 -0.33969826511E+03  0.59885881624E+03  0.49319060258E+03 0.  0.
        1    1    3    3  502    0 -0.73788570101E+02  0.23492761475E+03 -0.18584346362E+03  0.30850207495E+03  0.50400001928E-02 0.  1.
       -1    1    3    3    0  502  0.73788570101E+02 -0.23492761475E+03 -0.15385480149E+03  0.29035674130E+03  0.50400001928E-02 0. -1.
</event>
<event>
 5   0  0.1439814E-01  0.5246272E+03  0.7818609E-02  0.1007544E+00
        1   -1    0    0  501    0  0.00000000000E+00  0.00000000000E+00  0.12708520049E+04  0.12708520049E+04  0.50400001928E-02 0.  1.
       -1   -1    0    0    0  501  0.00000000000E+00  0.00000000000E+00 -0.54143542408E+02  0.54143542642E+02  0.50400001928E-02 0. -1.
    10030    2    1    2    0    0  0.00000000000E+00  0.00000000000E+00  0.12167084625E+04  0.13249955475E+04  0.52462721844E+03 0.  0.
        4    1    3    3  502    0  0.44580787257E+02 -0.95210577331E+02  0.14001684926E+01  0.10514786731E+03  0.12699999809E+01 0. -1.
       -4    1    3    3    0  502 -0.44580787257E+02  0.95210577331E+02  0.12153082940E+04  0.12198476802E+04  0.12699999809E+01 0.  1.
</event>
<event>
 5   0  0.1413361E-01  0.4860691E+03  0.7818609E-02  0.1017480E+00
       -1   -1    0    0    0  501  0.00000000000E+00  0.00000000000E+00  0.33677774126E+03  0.33677774130E+03  0.50400001928E-02 0.  1.
        1   -1    0    0  501    0  0.00000000000E+00  0.00000000000E+00 -0.17538505738E+03  0.17538505746E+03  0.50400001928E-02 0. -1.
    10030    2    1    2    0    0  0.00000000000E+00  0.00000000000E+00  0.16139268387E+03  0.51216279875E+03  0.48606906301E+03 0.  0.
        3    1    3    3  502    0  0.10241775270E+03  0.10368385221E+03 -0.12423362297E+03  0.19150389175E+03  0.10100000352E+00 0. -1.
       -3    1    3    3    0  502 -0.10241775270E+03 -0.10368385221E+03  0.28562630685E+03  0.32065890700E+03  0.10100000352E+00 0.  1.
</event>
<event>
 5   0  0.1448458E-01  0.4938201E+03  0.7818609E-02  0.1015405E+00
       -1   -1    0    0    0  501  0.00000000000E+00  0.00000000000E+00  0.14269868569E+04  0.14269868569E+04  0.50400001928E-02 0. -1.
        1   -1    0    0  501    0  0.00000000000E+00  0.00000000000E+00 -0.42722583919E+02  0.42722584216E+02  0.50400001928E-02 0.  1.
    10030    2    1    2    0    0  0.00000000000E+00  0.00000000000E+00  0.13842642729E+04  0.14697094411E+04  0.49382007237E+03 0.  0.
        5    1    3    3  502    0 -0.72192774619E+02  0.98133760532E+02  0.53110885993E+02  0.13298453998E+03  0.46999998093E+01 0.  1.
       -5    1    3    3    0  502  0.72192774619E+02 -0.98133760532E+02  0.13311533869E+04  0.13367249011E+04  0.46999998093E+01 0. -1.
</event>
<event>
 5   0  0.1448458E-01  0.4006215E+03  0.7818609E-02  0.1043565E+00
       -1   -1    0    0    0  501  0.00000000000E+00  0.00000000000E+00  0.18218585734E+04  0.18218585734E+04  0.50400001928E-02 0. -1.
        1   -1    0    0  501    0  0.00000000000E+00  0.00000000000E+00 -0.22023886051E+02  0.22023886627E+02  0.50400001928E-02 0.  1.
    10030    2    1    2    0    0  0.00000000000E+00  0.00000000000E+00  0.17998346873E+04  0.18438824600E+04  0.40062154789E+03 0.  0.
        5    1    3    3  502    0  0.64439125402E+02 -0.14836989296E+03  0.14432583943E+04  0.14523026230E+04  0.46999998093E+01 0. -1.
       -5    1    3    3    0  502 -0.64439125402E+02  0.14836989296E+03  0.35657629303E+03  0.39157983703E+03  0.46999998093E+01 0.  1.
</event>
<event>
 5   0  0.1413361E-01  0.5023543E+03  0.7818609E-02  0.1013166E+00
       -1   -1    0    0    0  501  0.00000000000E+00  0.00000000000E+00  0.38970707488E+03  0.38970707491E+03  0.50400001928E-02 0. -1.
        1   -1    0    0  501    0  0.00000000000E+00  0.00000000000E+00 -0.16189070432E+03  0.16189070440E+03  0.50400001928E-02 0.  1.
    10030    2    1    2    0    0  0.00000000000E+00  0.00000000000E+00  0.22781637056E+03  0.55159777931E+03  0.50235426886E+03 0.  0.
        3    1    3    3  502    0  0.11276676472E+02 -0.17196202044E+03 -0.86738784476E+02  0.19292933120E+03  0.10100000352E+00 0.  1.
       -3    1    3    3    0  502 -0.11276676472E+02  0.17196202044E+03  0.31455515504E+03  0.35866844811E+03  0.10100000352E+00 0. -1.
</event>
<event>
 5   0  0.2504064E-01  0.4963744E+03  0.7818609E-02  0.1014730E+00
       -2   -1    0    0    0  501  0.00000000000E+00  0.00000000000E+00  0.40118545736E+03  0.40118545737E+03  0.25500000920E-02 0. -1.
        2   -1    0    0  501    0  0.00000000000E+00  0.00000000000E+00 -0.15353719228E+03  0.15353719230E+03  0.25500000920E-02 0.  1.
    10030    2    1    2    0    0  0.00000000000E+00  0.00000000000E+00  0.24764826508E+03  0.55472264967E+03  0.49637440996E+03 0.  0.
        5    1    3    3  502    0  0.10666955599E+02  0.24319098911E+02  0.39954315197E+03  0.40045227281E+03  0.46999998093E+01 0. -1.
       -5    1    3    3    0  502 -0.10666955599E+02 -0.24319098911E+02 -0.15189488689E+03  0.15427037686E+03  0.46999998093E+01 0.  1.
</event>
<event>
 5   0  0.9868500E-02  0.5077581E+03  0.7818609E-02  0.1011774E+00
       -3   -1    0    0    0  501  0.00000000000E+00  0.00000000000E+00  0.14948145985E+03  0.14948149397E+03  0.10100000352E+00 0.  1.
        3   -1    0    0  501    0  0.00000000000E+00  0.00000000000E+00 -0.43118759896E+03  0.43118761079E+03  0.10100000352E+00 0. -1.
    10030    2    1    2    0    0  0.00000000000E+00  0.00000000000E+00 -0.28170613911E+03  0.58066910476E+03  0.50775807272E+03 0.  0.
        4    1    3    3  502    0 -0.10702258184E+03 -0.13350506761E+03 -0.35533569725E+03  0.39438877614E+03  0.12699999809E+01 0. -1.
       -4    1    3    3    0  502  0.10702258184E+03  0.13350506761E+03  0.73629558142E+02  0.18628032863E+03  0.12699999809E+01 0.  1.
</event>
<event>
 5   0  0.1448458E-01  0.4957437E+03  0.7818609E-02  0.1014896E+00
       -1   -1    0    0    0  501  0.00000000000E+00  0.00000000000E+00  0.31723638558E+03  0.31723638562E+03  0.50400001928E-02 0.  1.
        1   -1    0    0  501    0  0.00000000000E+00  0.00000000000E+00 -0.19367407990E+03  0.19367407996E+03  0.50400001928E-02 0. -1.
    10030    2    1    2    0    0  0.00000000000E+00  0.00000000000E+00  0.12356230568E+03  0.51091046558E+03  0.49574374474E+03 0.  0.
        5    1    3    3  502    0  0.57461359743E+02  0.20447740469E+03 -0.69818696373E+02  0.22362816740E+03  0.46999998093E+01 0. -1.
       -5    1    3    3    0  502 -0.57461359743E+02 -0.20447740469E+03  0.19338100206E+03  0.28728229818E+03  0.46999998093E+01 0.  1.
</event>
<event>
 5   0  0.2504064E-01  0.5047451E+03  0.7818609E-02  0.1012548E+00
       -2   -1    0    0    0  501  0.00000000000E+00  0.00000000000E+00  0.15375254051E+03  0.15375254053E+03  0.25500000920E-02 0. -1.
        2   -1    0    0  501    0  0.00000000000E+00  0.00000000000E+00 -0.41424952230E+03  0.41424952231E+03  0.25500000920E-02 0.  1.
    10030    2    1    2    0    0  0.00000000000E+00  0.00000000000E+00 -0.26049698179E+03  0.56800206284E+03  0.50474514943E+03 0.  0.
        5    1    3    3  502    0 -0.13509082974E+03  0.77894836589E+02  0.92987885042E+02  0.18162041353E+03  0.46999998093E+01 0. -1.
       -5    1    3    3    0  502  0.13509082974E+03 -0.77894836589E+02 -0.35348486683E+03  0.38638164931E+03  0.46999998093E+01 0.  1.
</event>
<event>
 5   0  0.1439814E-01  0.4891499E+03  0.7818609E-02  0.1016650E+00
        1   -1    0    0  501    0  0.00000000000E+00  0.00000000000E+00  0.88706423001E+02  0.88706423144E+02  0.50400001928E-02 0.  1.
       -1   -1    0    0    0  501  0.00000000000E+00  0.00000000000E+00 -0.67432445568E+03  0.67432445570E+03  0.50400001928E-02 0. -1.
    10030    2    1    2    0    0  0.00000000000E+00  0.00000000000E+00 -0.58561803268E+03  0.76303087884E+03  0.48914991758E+03 0.  0.
        4    1    3    3  502    0 -0.10682690868E+03  0.12990937319E+03 -0.56978398056E+03  0.59409075996E+03  0.12699999809E+01 0. -1.
       -4    1    3    3    0  502  0.10682690868E+03 -0.12990937319E+03 -0.15834052112E+02  0.16894011888E+03  0.12699999809E+01 0.  1.
</event>
<event>
 5   0  0.1448458E-01  0.4969710E+03  0.7818609E-02  0.1014573E+00
        1   -1    0    0  501    0  0.00000000000E+00  0.00000000000E+00  0.72832199641E+03  0.72832199643E+03  0.50400001928E-02 0.  1.
       -1   -1    0    0    0  501  0.00000000000E+00  0.00000000000E+00 -0.84777115627E+02  0.84777115777E+02  0.50400001928E-02 0. -1.
    10030    2    1    2    0    0  0.00000000000E+00  0.00000000000E+00  0.64354488079E+03  0.81309911221E+03  0.49697097771E+03 0.  0.
        5    1    3    3  502    0 -0.22059884078E+03  0.77951210297E+02  0.18505484428E+03  0.29834145728E+03  0.46999998093E+01 0. -1.
       -5    1    3    3    0  502  0.22059884078E+03 -0.77951210297E+02  0.45849003650E+03  0.51475765493E+03  0.46999998093E+01 0.  1.
</event>
<event>
 5   0  0.2466034E-01  0.4961246E+03  0.7818609E-02  0.1014795E+00
       -2   -1    0    0    0  501  0.00000000000E+00  0.00000000000E+00  0.15676284636E+03  0.15676284638E+03  0.25500000920E-02 0. -1.
        2   -1    0    0  501    0  0.00000000000E+00  0.00000000000E+00 -0.39253504300E+03  0.39253504301E+03  0.25500000920E-02 0.  1.
    10030    2    1    2    0    0  0.00000000000E+00  0.00000000000E+00 -0.23577219665E+03  0.54929788939E+03  0.49612462404E+03 0.  0.
        3    1    3    3  502    0  0.16207434127E+03  0.17013447675E+03 -0.20591238550E+03  0.31243199737E+03  0.10100000352E+00 0.  1.
       -3    1    3    3    0  502 -0.16207434127E+03 -0.17013447675E+03 -0.29859811147E+02  0.23686589202E+03  0.10100000352E+00 0. -1.
</event>
<event>
 5   0  0.2504064E-01  0.4928543E+03  0.7818609E-02  0.1015661E+00
       -2   -1    0    0    0  501  0.00000000000E+00  0.00000000000E+00  0.21097616471E+03  0.21097616473E+03  0.25500000920E-02 0. -1.
        2   -1    0    0  501    0  0.00000000000E+00  0.00000000000E+00 -0.28783506938E+03  0.28783506940E+03  0.25500000920E-02 0.  1.
    10030    2    1    2    0    0  0.00000000000E+00  0.00000000000E+00 -0.76858904673E+02  0.49881123412E+03  0.49285429496E+03 0.  0.
        5    1    3    3  502    0  0.26039328979E+02  0.24433273102E+03 -0.56751264841E+02  0.25222871795E+03  0.46999998093E+01 0. -1.
       -5    1    3    3    0  502 -0.26039328979E+02 -0.24433273102E+03 -0.20107639832E+02  0.24658251617E+03  0.46999998093E+01 0.  1.
</event>
<event>
 5   0  0.1448458E-01  0.4651595E+03  0.7818609E-02  0.1023295E+00
       -1   -1    0    0    0  501  0.00000000000E+00  0.00000000000E+00  0.25716053230E+03  0.25716053235E+03  0.50400001928E-02 0.  1.
        1   -1    0    0  501    0  0.00000000000E+00  0.00000000000E+00 -0.21034854027E+03  0.21034854033E+03  0.50400001928E-02 0. -1.
    10030    2    1    2    0    0  0.00000000000E+00  0.00000000000E+00  0.46811992031E+02  0.46750907267E+03  0.46515951074E+03 0.  0.
        5    1    3    3  502    0  0.42333700171E+02  0.13813569105E+03  0.20652851441E+03  0.25209071498E+03  0.46999998093E+01 0.  1.
       -5    1    3    3    0  502 -0.42333700171E+02 -0.13813569105E+03 -0.15971652238E+03  0.21541835770E+03  0.46999998093E+01 0. -1.
</event>
<event>
 5   0  0.2413301E-01  0.5033913E+03  0.7818609E-02  0.1012898E+00
       -2   -1    0    0    0  501  0.00000000000E+00  0.00000000000E+00  0.62277403294E+02  0.62277403346E+02  0.25500000920E-02 0.  1.
        2   -1    0    0  501    0  0.00000000000E+00  0.00000000000E+00 -0.10172340814E+04  0.10172340814E+04  0.25500000920E-02 0. -1.
    10030    2    1    2    0    0  0.00000000000E+00  0.00000000000E+00 -0.95495667811E+03  0.10795114848E+04  0.50339128781E+03 0.  0.
        4    1    3    3  502    0 -0.46567141996E+01  0.23176639343E+03 -0.68772181960E+03  0.72574117988E+03  0.12699999809E+01 0. -1.
       -4    1    3    3    0  502  0.46567141996E+01 -0.23176639343E+03 -0.26723485851E+03  0.35377030488E+03  0.12699999809E+01 0.  1.
</event>
<event>
 5   0  0.1529146E-01  0.4946530E+03  0.7818609E-02  0.1015184E+00
       -1   -1    0    0    0  501  0.00000000000E+00  0.00000000000E+00  0.14766141342E+04  0.14766141342E+04  0.50400001928E-02 0. -1.
        1   -1    0    0  501    0  0.00000000000E+00  0.00000000000E+00 -0.41426124843E+02  0.41426125149E+02  0.50400001928E-02 0.  1.
    10030    2    1    2    0    0  0.00000000000E+00  0.00000000000E+00  0.14351880094E+04  0.15180402594E+04  0.49465301660E+03 0.  0.
        1    1    3    3  502    0  0.77767879675E+02 -0.95447697200E+02  0.59300487104E+02  0.13665523702E+03  0.50400001928E-02 0.  1.
       -1    1    3    3    0  502 -0.77767879675E+02  0.95447697200E+02  0.13758875223E+04  0.13813850223E+04  0.50400001928E-02 0. -1.
</event>
<event>
 5   0  0.1453602E-01  0.4965851E+03  0.7818609E-02  0.1014674E+00
        1   -1    0    0  501    0  0.00000000000E+00  0.00000000000E+00  0.20188914707E+03  0.20188914713E+03  0.50400001928E-02 0.  1.
       -1   -1    0    0    0  501  0.00000000000E+00  0.00000000000E+00 -0.30536162550E+03  0.30536162554E+03  0.50400001928E-02 0. -1.
    10030    2    1    2    0    0  0.00000000000E+00  0.00000000000E+00 -0.10347247843E+03  0.50725077267E+03  0.49658513125E+03 0.  0.
        2    1    3    3  502    0 -0.84152616028E+02 -0.16543103840E+03  0.11673055467E+03  0.21926037866E+03  0.25500000920E-02 0.  1.
       -2    1    3    3    0  502  0.84152616028E+02  0.16543103840E+03 -0.22020303310E+03  0.28799039401E+03  0.25500000920E-02 0. -1.
</event>
<event>
 5   0  0.1439814E-01  0.4986520E+03  0.7818609E-02  0.1014131E+00
       -1   -1    0    0    0  501  0.00000000000E+00  0.00000000000E+00  0.36554933942E+03  0.36554933946E+03  0.50400001928E-02 0. -1.
        1   -1    0    0  501    0  0.00000000000E+00  0.00000000000E+00 -0.17005491351E+03  0.17005491358E+03  0.50400001928E-02 0.  1.
    10030    2    1    2    0    0  0.00000000000E+00  0.00000000000E+00  0.19549442591E+03  0.53560425304E+03  0.49865202829E+03 0.  0.
        4    1    3    3  502    0 -0.92367521766E+01  0.22625051899E+03 -0.14326870428E+02  0.22689532179E+03  0.12699999809E+01 0.  1.
       -4    1    3    3    0  502  0.92367521766E+01 -0.22625051899E+03  0.20982129634E+03  0.30870893125E+03  0.12699999809E+01 0. -1.
</event>
<event>
 5   0  0.1439814E-01  0.5723802E+03  0.7818609E-02  0.9964425E-01
       -1   -1    0    0    0  501  0.00000000000E+00  0.00000000000E+00  0.14025810664E+03  0.14025810673E+03  0.50400001928E-02 0. -1.
        1   -1    0    0  501    0  0.00000000000E+00  0.00000000000E+00 -0.58395754583E+03  0.58395754585E+03  0.50400001928E-02 0.  1.
    10030    2    1    2    0    0  0.00000000000E+00  0.00000000000E+00 -0.44369943919E+03  0.72421565257E+03  0.57238022249E+03 0.  0.
        4    1    3    3  502    0  0.87328699797E+02  0.26957792290E+03 -0.27253336440E+03  0.39315977152E+03  0.12699999809E+01 0.  1.
       -4    1    3    3    0  502 -0.87328699797E+02 -0.26957792290E+03 -0.17116607479E+03  0.33105588106E+03  0.12699999809E+01 0. -1.
</event>
<event>
 5   0  0.1529146E-01  0.4665395E+03  0.7818609E-02  0.1022901E+00
        1   -1    0    0  501    0  0.00000000000E+00  0.00000000000E+00  0.89234433817E+03  0.89234433818E+03  0.50400001928E-02 0. -1.
       -1   -1    0    0    0  501  0.00000000000E+00  0.00000000000E+00 -0.60979568872E+02  0.60979569080E+02  0.50400001928E-02 0.  1.
    10030    2    1    2    0    0  0.00000000000E+00  0.00000000000E+00  0.83136476930E+03  0.95332390726E+03  0.46653948657E+03 0.  0.
        1    1    3    3  502    0 -0.20868514183E+03  0.76807384272E+02  0.55967874571E+03  0.60223679822E+03  0.50400001928E-02 0. -1.
       -1    1    3    3    0  502  0.20868514183E+03 -0.76807384272E+02  0.27168602358E+03  0.35108710904E+03  0.50400001928E-02 0.  1.
</event>
<event>
 5   0  0.1448458E-01  0.5018307E+03  0.7818609E-02  0.1013302E+00
       -1   -1    0    0    0  501  0.00000000000E+00  0.00000000000E+00  0.14557933323E+03  0.14557933332E+03  0.50400001928E-02 0. -1.
        1   -1    0    0  501    0  0.00000000000E+00  0.00000000000E+00 -0.43246881325E+03  0.43246881327E+03  0.50400001928E-02 0.  1.
    10030    2    1    2    0    0  0.00000000000E+00  0.00000000000E+00 -0.28688948001E+03  0.57804814659E+03  0.50183073445E+03 0.  0.
        5    1    3    3  502    0  0.12924857033E+01 -0.81214656474E+02 -0.41685266258E+03  0.42471840464E+03  0.46999998093E+01 0.  1.
       -5    1    3    3    0  502 -0.12924857033E+01  0.81214656474E+02  0.12996318257E+03  0.15332974195E+03  0.46999998093E+01 0. -1.
</event>
<event>
 5   0  0.2413301E-01  0.4932570E+03  0.7818609E-02  0.1015554E+00
       -2   -1    0    0    0  501  0.00000000000E+00  0.00000000000E+00  0.45598703943E+02  0.45598704014E+02  0.25500000920E-02 0.  1.
        2   -1    0    0  501    0  0.00000000000E+00  0.00000000000E+00 -0.13339329824E+04  0.13339329824E+04  0.25500000920E-02 0. -1.
    10030    2    1    2    0    0  0.00000000000E+00  0.00000000000E+00 -0.12883342785E+04  0.13795316864E+04  0.49325699263E+03 0.  0.
        4    1    3    3  502    0  0.19889263633E+03  0.96354058795E+02 -0.33802991262E+03  0.40386658708E+03  0.12699999809E+01 0.  1.
       -4    1    3    3    0  502 -0.19889263633E+03 -0.96354058795E+02 -0.95030436586E+03  0.97566509935E+03  0.12699999809E+01 0. -1.
</event>
<event>
 5   0  0.1448458E-01  0.5007254E+03  0.7818609E-02  0.1013590E+00
        1   -1    0    0  501    0  0.00000000000E+00  0.00000000000E+00  0.32236382420E+03  0.32236382424E+03  0.50400001928E-02 0.  1.
       -1   -1    0    0    0  501  0.00000000000E+00  0.00000000000E+00 -0.19444330190E+03  0.19444330196E+03  0.50400001928E-02 0. -1.
    10030    2    1    2    0    0  0.00000000000E+00  0.00000000000E+00  0.12792052230E+03  0.51680712620E+03  0.50072541943E+03 0.  0.
        5    1    3    3  502    0 -0.15021118143E+03 -0.17357341836E+03 -0.39087523584E+02  0.23289709119E+03  0.46999998093E+01 0. -1.
       -5    1    3    3    0  502  0.15021118143E+03  0.17357341836E+03  0.16700804589E+03  0.28391003501E+03  0.46999998093E+01 0.  1.
</event>
<event>
 5   0  0.2413301E-01  0.5162765E+03  0.7818609E-02  0.1009616E+00
       -2   -1    0    0    0  501  0.00000000000E+00  0.00000000000E+00  0.34694625456E+03  0.34694625457E+03  0.25500000920E-02 0. -1.
        2   -1    0    0  501    0  0.00000000000E+00  0.00000000000E+00 -0.19206250383E+03  0.19206250384E+03  0.25500000920E-02 0.  1.
    10030    2    1    2    0    0  0.00000000000E+00  0.00000000000E+00  0.15488375074E+03  0.53900875842E+03  0.51627653967E+03 0.  0.
        4    1    3    3  502    0  0.19625341690E+03  0.16008190943E+03  0.12956122160E+03  0.28448083312E+03  0.12699999809E+01 0.  1.
       -4    1    3    3    0  502 -0.19625341690E+03 -0.16008190943E+03  0.25322529133E+02  0.25452792529E+03  0.12699999809E+01 0. -1.
</event>
<event>
 5   0  0.1529146E-01  0.4727658E+03  0.7818609E-02  0.1021142E+00
       -1   -1    0    0    0  501  0.00000000000E+00  0.00000000000E+00  0.40348407225E+02  0.40348407540E+02  0.50400001928E-02 0.  1.
        1   -1    0    0  501    0  0.00000000000E+00  0.00000000000E+00 -0.13848596013E+04  0.13848596014E+04  0.50400001928E-02 0. -1.
    10030    2    1    2    0    0  0.00000000000E+00  0.00000000000E+00 -0.13445111941E+04  0.14252080089E+04  0.47276581677E+03 0.  0.
        1    1    3    3  502    0 -0.11665455811E+03 -0.14357831123E+03 -0.22864708717E+03  0.29411308689E+03  0.50400001928E-02 0.  1.
       -1    1    3    3    0  502  0.11665455811E+03  0.14357831123E+03 -0.11158641069E+04  0.11310949220E+04  0.50400001928E-02 0. -1.
</event>
<event>
 5   0  0.9868500E-02  0.4960939E+03  0.7818609E-02  0.1014804E+00
        3   -1    0    0  501    0  0.00000000000E+00  0.00000000000E+00  0.59732944669E+03  0.59732945522E+03  0.10100000352E+00 0.  1.
       -3   -1    0    0    0  501  0.00000000000E+00  0.00000000000E+00 -0.10300389505E+03  0.10300394457E+03  0.10100000352E+00 0. -1.
    10030    2    1    2    0    0  0.00000000000E+00  0.00000000000E+00  0.49432555164E+03  0.70033339979E+03  0.49609386195E+03 0.  0.
        2    1    3    3  502    0 -0.87984032308E+02 -0.23073978539E+03  0.21419911625E+03  0.32689952571E+03  0.25500000920E-02 0.  1.
       -2    1    3    3    0  502  0.87984032308E+02  0.23073978539E+03  0.28012643539E+03  0.37343387408E+03  0.25500000920E-02 0. -1.
</event>
<event>
 5   0  0.2511944E-01  0.4951061E+03  0.7818609E-02  0.1015064E+00
       -2   -1    0    0    0  501  0.00000000000E+00  0.00000000000E+00  0.91754401429E+02  0.91754401465E+02  0.25500000920E-02 0. -1.
        2   -1    0    0  501    0  0.00000000000E+00  0.00000000000E+00 -0.66789718712E+03  0.66789718712E+03  0.25500000920E-02 0.  1.
    10030    2    1    2    0    0  0.00000000000E+00  0.00000000000E+00 -0.57614278569E+03  0.75965158859E+03  0.49510607605E+03 0.  0.
        1    1    3    3  502    0 -0.14246665026E+01 -0.24532211300E+03 -0.33890207515E+03  0.41837732415E+03  0.50400001928E-02 0.  1.
       -1    1    3    3    0  502  0.14246665026E+01  0.24532211300E+03 -0.23724071054E+03  0.34127426443E+03  0.50400001928E-02 0. -1.
</event>
<event>
 5   0  0.1529146E-01  0.5016514E+03  0.7818609E-02  0.1013349E+00
        1   -1    0    0  501    0  0.00000000000E+00  0.00000000000E+00  0.10284228313E+04  0.10284228314E+04  0.50400001928E-02 0.  1.
       -1   -1    0    0    0  501  0.00000000000E+00  0.00000000000E+00 -0.61174777736E+02  0.61174777944E+02  0.50400001928E-02 0. -1.
    10030    2    1    2    0    0  0.00000000000E+00  0.00000000000E+00  0.96724805361E+03  0.10895976093E+04  0.50165142578E+03 0.  0.
        1    1    3    3  502    0 -0.12549368122E+03  0.55463294547E+02  0.93969005506E+03  0.94965374778E+03  0.50400001928E-02 0.  1.
       -1    1    3    3    0  502  0.12549368122E+03 -0.55463294547E+02  0.27557998553E+02  0.13994386153E+03  0.50400001928E-02 0. -1.
</event>
<event>
 5   0  0.2488968E-01  0.5035508E+03  0.7818609E-02  0.1012856E+00
       -2   -1    0    0    0  501  0.00000000000E+00  0.00000000000E+00  0.87944008092E+02  0.87944008129E+02  0.25500000920E-02 0. -1.
        2   -1    0    0  501    0  0.00000000000E+00  0.00000000000E+00 -0.72080918275E+03  0.72080918276E+03  0.25500000920E-02 0.  1.
    10030    2    1    2    0    0  0.00000000000E+00  0.00000000000E+00 -0.63286517466E+03  0.80875319088E+03  0.50355078638E+03 0.  0.
        2    1    3    3  502    0 -0.17017042257E+03 -0.99226423889E+02 -0.56827300720E+03  0.60144664487E+03  0.25500000920E-02 0. -1.
       -2    1    3    3    0  502  0.17017042257E+03  0.99226423889E+02 -0.64592167463E+02  0.20730654601E+03  0.25500000920E-02 0.  1.
</event>
<event>
 5   0  0.1529146E-01  0.4930332E+03  0.7818609E-02  0.1015614E+00
       -1   -1    0    0    0  501  0.00000000000E+00  0.00000000000E+00  0.10094811840E+03  0.10094811853E+03  0.50400001928E-02 0.  1.
        1   -1    0    0  501    0  0.00000000000E+00  0.00000000000E+00 -0.60199674284E+03  0.60199674286E+03  0.50400001928E-02 0. -1.
    10030    2    1    2    0    0  0.00000000000E+00  0.00000000000E+00 -0.50104862444E+03  0.70294486139E+03  0.49303321805E+03 0.  0.
        1    1    3    3  502    0  0.34504725410E+02 -0.26930449258E+02  0.95363560310E+02  0.10492870834E+03  0.50400001928E-02 0.  1.
       -1    1    3    3    0  502 -0.34504725410E+02  0.26930449258E+02 -0.59641218475E+03  0.59801615305E+03  0.50400001928E-02 0. -1.
</event>
<event>
 5   0  0.1413361E-01  0.5123413E+03  0.7818609E-02  0.1010607E+00
        1   -1    0    0  501    0  0.00000000000E+00  0.00000000000E+00  0.23582068707E+04  0.23582068707E+04  0.50400001928E-02 0.  1.
       -1   -1    0    0    0  501  0.00000000000E+00  0.00000000000E+00 -0.27827669707E+02  0.27827670163E+02  0.50400001928E-02 0. -1.
    10030    2    1    2    0    0  0.00000000000E+00  0.00000000000E+00  0.23303792010E+04  0.23860345409E+04  0.51234130206E+03 0.  0.
        3    1    3    3  502    0  0.21160195984E+03  0.11597281393E+03  0.76461482336E+03  0.80178608200E+03  0.10100000352E+00 0. -1.
       -3    1    3    3    0  502 -0.21160195984E+03 -0.11597281393E+03  0.15657643776E+04  0.15842484589E+04  0.10100000352E+00 0.  1.
</event>
<event>
 5   0  0.1529146E-01  0.5184229E+03  0.7818609E-02  0.1009079E+00
        1   -1    0    0  501    0  0.00000000000E+00  0.00000000000E+00  0.50664628042E+03  0.50664628045E+03  0.50400001928E-02 0. -1.
       -1   -1    0    0    0  501  0.00000000000E+00  0.00000000000E+00 -0.13261831804E+03  0.13261831814E+03  0.50400001928E-02 0.  1.
    10030    2    1    2    0    0  0.00000000000E+00  0.00000000000E+00  0.37402796238E+03  0.63926459859E+03  0.51842290687E+03 0.  0.
        1    1    3    3  502    0  0.84310287230E+02  0.26235955672E+02 -0.11350219914E+03  0.14380298724E+03  0.50400001928E-02 0.  1.
       -1    1    3    3    0  502 -0.84310287230E+02 -0.26235955672E+02  0.48753016152E+03  0.49546161135E+03  0.50400001928E-02 0. -1.
</event>
<event>
 5   0  0.2504064E-01  0.4999708E+03  0.7818609E-02  0.1013787E+00
        2   -1    0    0  501    0  0.00000000000E+00  0.00000000000E+00  0.11822395078E+04  0.11822395078E+04  0.25500000920E-02 0. -1.
       -2   -1    0    0    0  501  0.00000000000E+00  0.00000000000E+00 -0.52859601389E+02  0.52859601451E+02  0.25500000920E-02 0.  1.
    10030    2    1    2    0    0  0.00000000000E+00  0.00000000000E+00  0.11293799064E+04  0.12350991092E+04  0.49997083581E+03 0.  0.
        5    1    3    3  502    0 -0.17349020686E+03  0.62232336651E+02  0.98172371201E+03  0.99888700678E+03  0.46999998093E+01 0. -1.
       -5    1    3    3    0  502  0.17349020686E+03 -0.62232336651E+02  0.14765619435E+03  0.23621210242E+03  0.46999998093E+01 0.  1.
</event>
<event>
 5   0  0.2466034E-01  0.5052398E+03  0.7818609E-02  0.1012420E+00
        2   -1    0    0  501    0  0.00000000000E+00  0.00000000000E+00  0.84170785304E+03  0.84170785304E+03  0.25500000920E-02 0. -1.
       -2   -1    0    0    0  501  0.00000000000E+00  0.00000000000E+00 -0.75818255112E+02  0.75818255155E+02  0.25500000920E-02 0.  1.
    10030    2    1    2    0    0  0.00000000000E+00  0.00000000000E+00  0.76588959793E+03  0.91752610820E+03  0.50523982722E+03 0.  0.
        3    1    3    3  502    0  0.10527899448E+03  0.67238811539E+02  0.78169307160E+03  0.79161151637E+03  0.10100000352E+00 0. -1.
       -3    1    3    3    0  502 -0.10527899448E+03 -0.67238811539E+02 -0.15803473672E+02  0.12591459183E+03  0.10100000352E+00 0.  1.
</event>
<event>
 5   0  0.2511944E-01  0.4988113E+03  0.7818609E-02  0.1014090E+00
       -2   -1    0    0    0  501  0.00000000000E+00  0.00000000000E+00  0.72460487962E+02  0.72460488007E+02  0.25500000920E-02 0. -1.
        2   -1    0    0  501    0  0.00000000000E+00  0.00000000000E+00 -0.85844273881E+03  0.85844273881E+03  0.25500000920E-02 0.  1.
    10030    2    1    2    0    0  0.00000000000E+00  0.00000000000E+00 -0.78598225084E+03  0.93090322682E+03  0.49881130606E+03 0.  0.
        1    1    3    3  502    0  0.10120466652E+03  0.20400946701E+03 -0.58277010209E+03  0.62568621454E+03  0.50400001928E-02 0.  1.
       -1    1    3    3    0  502 -0.10120466652E+03 -0.20400946701E+03 -0.20321214876E+03  0.30521701227E+03  0.50400001928E-02 0. -1.
</event>
<event>
 5   0  0.1453602E-01  0.4876467E+03  0.7818609E-02  0.1017055E+00
       -1   -1    0    0    0  501  0.00000000000E+00  0.00000000000E+00  0.67350018812E+02  0.67350019000E+02  0.50400001928E-02 0. -1.
        1   -1    0    0  501    0  0.00000000000E+00  0.00000000000E+00 -0.88269943278E+03  0.88269943280E+03  0.50400001928E-02 0.  1.
    10030    2    1    2    0    0  0.00000000000E+00  0.00000000000E+00 -0.81534941397E+03  0.95004945180E+03  0.48764668972E+03 0.  0.
        2    1    3    3  502    0  0.13224542569E+03  0.58465983287E+02 -0.79015758339E+03  0.80327836421E+03  0.25500000920E-02 0.  1.
       -2    1    3    3    0  502 -0.13224542569E+03 -0.58465983287E+02 -0.25191830583E+02  0.14677108759E+03  0.25500000920E-02 0. -1.
</event>
<event>
 5   0  0.1529146E-01  0.5212889E+03  0.7818609E-02  0.1008367E+00
       -1   -1    0    0    0  501  0.00000000000E+00  0.00000000000E+00  0.17238097434E+03  0.17238097441E+03  0.50400001928E-02 0. -1.
        1   -1    0    0  501    0  0.00000000000E+00  0.00000000000E+00 -0.39410113309E+03  0.39410113313E+03  0.50400001928E-02 0.  1.
    10030    2    1    2    0    0  0.00000000000E+00  0.00000000000E+00 -0.22172015876E+03  0.56648210754E+03  0.52128893079E+03 0.  0.
        1    1    3    3  502    0 -0.12456846886E+03 -0.22149138537E+03 -0.17384903574E+03  0.30789482698E+03  0.50400001928E-02 0.  1.
       -1    1    3    3    0  502  0.12456846886E+03  0.22149138537E+03 -0.47871123015E+02  0.25858728056E+03  0.50400001928E-02 0. -1.
</event>
<event>
 5   0  0.2504064E-01  0.5007216E+03  0.7818609E-02  0.1013591E+00
        2   -1    0    0  501    0  0.00000000000E+00  0.00000000000E+00  0.60084636885E+03  0.60084636885E+03  0.25500000920E-02 0.  1.
       -2   -1    0    0    0  501  0.00000000000E+00  0.00000000000E+00 -0.10432039918E+03  0.10432039921E+03  0.25500000920E-02 0. -1.
    10030    2    1    2    0    0  0.00000000000E+00  0.00000000000E+00  0.49652596967E+03  0.70516676806E+03  0.50072161150E+03 0.  0.
        5    1    3    3  502    0 -0.17287950214E+03  0.17968263913E+03  0.27928622964E+03  0.37442764472E+03  0.46999998093E+01 0.  1.
       -5    1    3    3    0  502  0.17287950214E+03 -0.17968263913E+03  0.21723974003E+03  0.33073912335E+03  0.46999998093E+01 0. -1.
</event>
<event>
 5   0  0.1413361E-01  0.5010853E+03  0.7818609E-02  0.1013496E+00
       -1   -1    0    0    0  501  0.00000000000E+00  0.00000000000E+00  0.15264993104E+03  0.15264993112E+03  0.50400001928E-02 0.  1.
        1   -1    0    0  501    0  0.00000000000E+00  0.00000000000E+00 -0.41121285277E+03  0.41121285280E+03  0.50400001928E-02 0. -1.
    10030    2    1    2    0    0  0.00000000000E+00  0.00000000000E+00 -0.25856292173E+03  0.56386278392E+03  0.50108527677E+03 0.  0.
        3    1    3    3  502    0  0.14889542142E+03  0.13889599087E+03 -0.29354835880E+03  0.35725703906E+03  0.10100000352E+00 0. -1.
       -3    1    3    3    0  502 -0.14889542142E+03 -0.13889599087E+03  0.34985437074E+02  0.20660574486E+03  0.10100000352E+00 0.  1.
</event>
<event>
 5   0  0.1439814E-01  0.5121571E+03  0.7818609E-02  0.1010654E+00
       -1   -1    0    0    0  501  0.00000000000E+00  0.00000000000E+00  0.80432697928E+02  0.80432698086E+02  0.50400001928E-02 0.  1.
        1   -1    0    0  501    0  0.00000000000E+00  0.00000000000E+00 -0.81529320511E+03  0.81529320512E+03  0.50400001928E-02 0. -1.
    10030    2    1    2    0    0  0.00000000000E+00  0.00000000000E+00 -0.73486050718E+03  0.89572590321E+03  0.51215713279E+03 0.  0.
        4    1    3    3  502    0  0.18683106450E+03 -0.17594338992E+02 -0.67216161676E+03  0.69786693529E+03  0.12699999809E+01 0. -1.
       -4    1    3    3    0  502 -0.18683106450E+03  0.17594338992E+02 -0.62698890420E+02  0.19785896792E+03  0.12699999809E+01 0.  1.
</event>
<event>
 5   0  0.2504064E-01  0.4954191E+03  0.7818609E-02  0.1014982E+00
       -2   -1    0    0    0  501  0.00000000000E+00  0.00000000000E+00  0.20118252830E+03  0.20118252832E+03  0.25500000920E-02 0.  1.
        2   -1    0    0  501    0  0.00000000000E+00  0.00000000000E+00 -0.30499674152E+03  0.30499674153E+03  0.25500000920E-02 0. -1.
    10030    2    1    2    0    0  0.00000000000E+00  0.00000000000E+00 -0.10381421321E+03  0.50617926985E+03  0.49541907751E+03 0.  0.
        5    1    3    3  502    0  0.12446202285E+03  0.92337485020E+02 -0.24928922026E+03  0.29357147615E+03  0.46999998093E+01 0. -1.
       -5    1    3    3    0  502 -0.12446202285E+03 -0.92337485020E+02  0.14547500704E+03  0.21260779370E+03  0.46999998093E+01 0.  1.
</event>
<event>
 5   0  0.1448458E-01  0.6013915E+03  0.7818609E-02  0.9902523E-01
       -1   -1    0    0    0  501  0.00000000000E+00  0.00000000000E+00  0.24660512123E+03  0.24660512129E+03  0.50400001928E-02 0.  1.
        1   -1    0    0  501    0  0.00000000000E+00  0.00000000000E+00 -0.36665062742E+03  0.36665062746E+03  0.50400001928E-02 0. -1.
    10030    2    1    2    0    0  0.00000000000E+00  0.00000000000E+00 -0.12004550619E+03  0.61325574874E+03  0.60139146137E+03 0.  0.
        5    1    3    3  502    0  0.82303202752E+02  0.64244309673E+02 -0.34753305712E+03  0.36290834145E+03  0.46999998093E+01 0. -1.
       -5    1    3    3    0  502 -0.82303202752E+02 -0.64244309673E+02  0.22748755093E+03  0.25034740729E+03  0.46999998093E+01 0.  1.
</event>
<event>
 5   0  0.2504064E-01  0.5025588E+03  0.7818609E-02  0.1013113E+00
        2   -1    0    0  501    0  0.00000000000E+00  0.00000000000E+00  0.16279210729E+04  0.16279210729E+04  0.25500000920E-02 0. -1.
       -2   -1    0    0    0  501  0.00000000000E+00  0.00000000000E+00 -0.38786486579E+02  0.38786486663E+02  0.25500000920E-02 0.  1.
    10030    2    1    2    0    0  0.00000000000E+00  0.00000000000E+00  0.15891345864E+04  0.16667075596E+04  0.50255880818E+03 0.  0.
        5    1    3    3  502    0 -0.11538575728E+02 -0.13412415471E+03  0.14980662110E+04  0.15041099994E+04  0.46999998093E+01 0. -1.
       -5    1    3    3    0  502  0.11538575728E+02  0.13412415471E+03  0.91068375324E+02  0.16259756022E+03  0.46999998093E+01 0.  1.
</event>
<event>
 5   0  0.2413301E-01  0.5010333E+03  0.7818609E-02  0.1013510E+00
       -2   -1    0    0    0  501  0.00000000000E+00  0.00000000000E+00  0.69511897236E+02  0.69511897283E+02  0.25500000920E-02 0.  1.
        2   -1    0    0  501    0  0.00000000000E+00  0.00000000000E+00 -0.90284677802E+03  0.90284677803E+03  0.25500000920E-02 0. -1.
    10030    2    1    2    0    0  0.00000000000E+00  0.00000000000E+00 -0.83333488079E+03  0.97235867531E+03  0.50103330220E+03 0.  0.
        4    1    3    3  502    0  0.18288946285E+03  0.75782620137E+02 -0.71458594411E+03  0.74150269423E+03  0.12699999809E+01 0. -1.
       -4    1    3    3    0  502 -0.18288946285E+03 -0.75782620137E+02 -0.11874893668E+03  0.23085598108E+03  0.12699999809E+01 0.  1.
</event>
<event>
 5   0  0.2511944E-01  0.4966683E+03  0.7818609E-02  0.1014652E+00
       -2   -1    0    0    0  501  0.00000000000E+00  0.00000000000E+00  0.60626761461E+03  0.60626761461E+03  0.25500000920E-02 0.  1.
        2   -1    0    0  501    0  0.00000000000E+00  0.00000000000E+00 -0.10172049986E+03  0.10172049990E+03  0.25500000920E-02 0. -1.
    10030    2    1    2    0    0  0.00000000000E+00  0.00000000000E+00  0.50454711475E+03  0.70798811451E+03  0.49666827892E+03 0.  0.
        1    1    3    3  502    0 -0.92781321545E+02 -0.17843697385E+03  0.45993210313E+03  0.50198173949E+03  0.50400001928E-02 0.  1.
       -1    1    3    3    0  502  0.92781321545E+02  0.17843697385E+03  0.44615011617E+02  0.20600637502E+03  0.50400001928E-02 0. -1.
</event>
<event>
 5   0  0.2511944E-01  0.5059144E+03  0.7818609E-02  0.1012247E+00
       -2   -1    0    0    0  501  0.00000000000E+00  0.00000000000E+00  0.30968738294E+03  0.30968738295E+03  0.25500000920E-02 0. -1.
        2   -1    0    0  501    0  0.00000000000E+00  0.00000000000E+00 -0.20661917020E+03  0.20661917021E+03  0.25500000920E-02 0.  1.
    10030    2    1    2    0    0  0.00000000000E+00  0.00000000000E+00  0.10306821274E+03  0.51630655316E+03  0.50591442000E+03 0.  0.
        1    1    3    3  502    0  0.17758695299E+03  0.17982522363E+03  0.40680174108E+02  0.25598654948E+03  0.50400001928E-02 0.  1.
       -1    1    3    3    0  502 -0.17758695299E+03 -0.17982522363E+03  0.62388038635E+02  0.26032000368E+03  0.50400001928E-02 0. -1.
</event>
<event>
 5   0  0.9868500E-02  0.4957941E+03  0.7818609E-02  0.1014883E+00
        3   -1    0    0  501    0  0.00000000000E+00  0.00000000000E+00  0.21083117619E+03  0.21083120038E+03  0.10100000352E+00 0.  1.
       -3   -1    0    0    0  501  0.00000000000E+00  0.00000000000E+00 -0.29147935591E+03  0.29147937341E+03  0.10100000352E+00 0. -1.
    10030    2    1    2    0    0  0.00000000000E+00  0.00000000000E+00 -0.80648179724E+02  0.50231057379E+03  0.49579409400E+03 0.  0.
        1    1    3    3  502    0  0.74029626214E+02 -0.84353254259E+02  0.18361750359E+03  0.21520047563E+03  0.50400001928E-02 0.  1.
       -1    1    3    3    0  502 -0.74029626214E+02  0.84353254259E+02 -0.26426568331E+03  0.28711009816E+03  0.50400001928E-02 0. -1.
</event>
<event>
 5   0  0.1453602E-01  0.4973088E+03  0.7818609E-02  0.1014484E+00
        1   -1    0    0  501    0  0.00000000000E+00  0.00000000000E+00  0.12949949911E+04  0.12949949911E+04  0.50400001928E-02 0. -1.
       -1   -1    0    0    0  501  0.00000000000E+00  0.00000000000E+00 -0.47744585830E+02  0.47744586096E+02  0.50400001928E-02 0.  1.
    10030    2    1    2    0    0  0.00000000000E+00  0.00000000000E+00  0.12472504053E+04  0.13427395772E+04  0.49730875596E+03 0.  0.
        2    1    3    3  502    0  0.13689063944E+03 -0.19139579019E+03  0.84059605206E+03  0.87291071617E+03  0.25500000920E-02 0.  1.
       -2    1    3    3    0  502 -0.13689063944E+03  0.19139579019E+03  0.40665435323E+03  0.46982886105E+03  0.25500000920E-02 0. -1.
</event>
<event>
 5   0  0.2511944E-01  0.4979235E+03  0.7818609E-02  0.1014322E+00
       -2   -1    0    0    0  501  0.00000000000E+00  0.00000000000E+00  0.59056494753E+02  0.59056494808E+02  0.25500000920E-02 0. -1.
        2   -1    0    0  501    0  0.00000000000E+00  0.00000000000E+00 -0.10495364183E+04  0.10495364183E+04  0.25500000920E-02 0.  1.
    10030    2    1    2    0    0  0.00000000000E+00  0.00000000000E+00 -0.99047992359E+03  0.11085929132E+04  0.49792345602E+03 0.  0.
        1    1    3    3  502    0 -0.27443302946E+02  0.17318417006E+03 -0.10174645549E+03  0.20272699097E+03  0.50400001928E-02 0. -1.
       -1    1    3    3    0  502  0.27443302946E+02 -0.17318417006E+03 -0.88873346810E+03  0.90586592219E+03  0.50400001928E-02 0.  1.
</event>
<event>
 5   0  0.1448458E-01  0.4960878E+03  0.7818609E-02  0.1014805E+00
        1   -1    0    0  501    0  0.00000000000E+00  0.00000000000E+00  0.11169145577E+04  0.11169145577E+04  0.50400001928E-02 0.  1.
       -1   -1    0    0    0  501  0.00000000000E+00  0.00000000000E+00 -0.55085487328E+02  0.55085487559E+02  0.50400001928E-02 0. -1.
    10030    2    1    2    0    0  0.00000000000E+00  0.00000000000E+00  0.10618290704E+04  0.11720000453E+04  0.49608782633E+03 0.  0.
        5    1    3    3  502    0 -0.38692413985E+02 -0.23437100030E+03  0.36258314112E+03  0.43349220628E+03  0.46999998093E+01 0.  1.
       -5    1    3    3    0  502  0.38692413985E+02  0.23437100030E+03  0.69924592929E+03  0.73850783903E+03  0.46999998093E+01 0. -1.
</event>
<event>
 5   0  0.1413361E-01  0.4712073E+03  0.7818609E-02  0.1021580E+00
        1   -1    0    0  501    0  0.00000000000E+00  0.00000000000E+00  0.34632703892E+03  0.34632703896E+03  0.50400001928E-02 0.  1.
       -1   -1    0    0    0  501  0.00000000000E+00  0.00000000000E+00 -0.16027934843E+03  0.16027934850E+03  0.50400001928E-02 0. -1.
    10030    2    1    2    0    0  0.00000000000E+00  0.00000000000E+00  0.18604769049E+03  0.50660638746E+03  0.47120726722E+03 0.  0.
        3    1    3    3  502    0 -0.50440408924E+02  0.80225457975E+01  0.34030352512E+03  0.34411494519E+03  0.10100000352E+00 0.  1.
       -3    1    3    3    0  502  0.50440408924E+02 -0.80225457975E+01 -0.15425583463E+03  0.16249144227E+03  0.10100000352E+00 0. -1.
</event>
<event>
 5   0  0.2413301E-01  0.4852875E+03  0.7818609E-02  0.1017692E+00
        2   -1    0    0  501    0  0.00000000000E+00  0.00000000000E+00  0.12571108022E+04  0.12571108022E+04  0.25500000920E-02 0.  1.
       -2   -1    0    0    0  501  0.00000000000E+00  0.00000000000E+00 -0.46834370693E+02  0.46834370762E+02  0.25500000920E-02 0. -1.
    10030    2    1    2    0    0  0.00000000000E+00  0.00000000000E+00  0.12102764315E+04  0.13039451730E+04  0.48528751626E+03 0.  0.
        4    1    3    3  502    0 -0.62932627694E+02 -0.16596431582E+03  0.16061411202E+03  0.23938081718E+03  0.12699999809E+01 0. -1.
       -4    1    3    3    0  502  0.62932627694E+02  0.16596431582E+03  0.10496623195E+04  0.10645643558E+04  0.12699999809E+01 0.  1.
</event>
<event>
 5   0  0.1439814E-01  0.5046485E+03  0.7818609E-02  0.1012573E+00
       -1   -1    0    0    0  501  0.00000000000E+00  0.00000000000E+00  0.44873698125E+03  0.44873698128E+03  0.50400001928E-02 0.  1.
        1   -1    0    0  501    0  0.00000000000E+00  0.00000000000E+00 -0.14188159104E+03  0.14188159113E+03  0.50400001928E-02 0. -1.
    10030    2    1    2    0    0  0.00000000000E+00  0.00000000000E+00  0.30685539021E+03  0.59061857240E+03  0.50464845939E+03 0.  0.
        4    1    3    3  502    0 -0.17002811625E+03  0.17761489535E+03  0.21972911159E+03  0.32975613223E+03  0.12699999809E+01 0. -1.
       -4    1    3    3    0  502  0.17002811625E+03 -0.17761489535E+03  0.87126278621E+02  0.26086244017E+03  0.12699999809E+01 0.  1.
</event>
<event>
 5   0  0.2466034E-01  0.5083306E+03  0.7818609E-02  0.1011627E+00
       -2   -1    0    0    0  501  0.00000000000E+00  0.00000000000E+00  0.47885778784E+02  0.47885778852E+02  0.25500000920E-02 0.  1.
        2   -1    0    0  501    0  0.00000000000E+00  0.00000000000E+00 -0.13490433115E+04  0.13490433115E+04  0.25500000920E-02 0. -1.
    10030    2    1    2    0    0  0.00000000000E+00  0.00000000000E+00 -0.13011575327E+04  0.13969290903E+04  0.50833056029E+03 0.  0.
        3    1    3    3  502    0  0.18860687303E+03 -0.16758777777E+03 -0.73491206662E+03  0.77701606912E+03  0.10100000352E+00 0. -1.
       -3    1    3    3    0  502 -0.18860687303E+03  0.16758777777E+03 -0.56624546607E+03  0.61991302120E+03  0.10100000352E+00 0.  1.
</event>
<event>
 5   0  0.2466034E-01  0.5035257E+03  0.7818609E-02  0.1012863E+00
       -2   -1    0    0    0  501  0.00000000000E+00  0.00000000000E+00  0.57696031650E+02  0.57696031706E+02  0.25500000920E-02 0.  1.
        2   -1    0    0  501    0  0.00000000000E+00  0.00000000000E+00 -0.10985945201E+04  0.10985945201E+04  0.25500000920E-02 0. -1.
    10030    2    1    2    0    0  0.00000000000E+00  0.00000000000E+00 -0.10408984885E+04  0.11562905519E+04  0.50352574607E+03 0.  0.
        3    1    3    3  502    0  0.13326931087E+03 -0.27452778326E+02 -0.34014987945E+02  0.14025474631E+03  0.10100000352E+00 0.  1.
       -3    1    3    3    0  502 -0.13326931087E+03  0.27452778326E+02 -0.10068835005E+04  0.10160358055E+04  0.10100000352E+00 0. -1.
</event>
<event>
 5   0  0.2466034E-01  0.5311669E+03  0.7818609E-02  0.1005950E+00
        2   -1    0    0  501    0  0.00000000000E+00  0.00000000000E+00  0.21981629181E+03  0.21981629183E+03  0.25500000920E-02 0. -1.
       -2   -1    0    0    0  501  0.00000000000E+00  0.00000000000E+00 -0.32087966261E+03  0.32087966262E+03  0.25500000920E-02 0.  1.
    10030    2    1    2    0    0  0.00000000000E+00  0.00000000000E+00 -0.10106337080E+03  0.54069595445E+03  0.53116693256E+03 0.  0.
        3    1    3    3  502    0  0.69980063880E+02  0.23556852223E+03  0.51996781334E+02  0.25118402313E+03  0.10100000352E+00 0. -1.
       -3    1    3    3    0  502 -0.69980063880E+02 -0.23556852223E+03 -0.15306015213E+03  0.28951193132E+03  0.10100000352E+00 0.  1.
</event>
<event>
 5   0  0.1453602E-01  0.4639625E+03  0.7818609E-02  0.1023638E+00
       -1   -1    0    0    0  501  0.00000000000E+00  0.00000000000E+00  0.80719797145E+02  0.80719797303E+02  0.50400001928E-02 0. -1.
        1   -1    0    0  501    0  0.00000000000E+00  0.00000000000E+00 -0.66669269912E+03  0.66669269914E+03  0.50400001928E-02 0.  1.
    10030    2    1    2    0    0  0.00000000000E+00  0.00000000000E+00 -0.58597290198E+03  0.74741249645E+03  0.46396249632E+03 0.  0.
        2    1    3    3  502    0 -0.20400980294E+03  0.90609052692E+02 -0.19128949509E+03  0.29397563005E+03  0.25500000920E-02 0.  1.
       -2    1    3    3    0  502  0.20400980294E+03 -0.90609052692E+02 -0.39468340689E+03  0.45343686640E+03  0.25500000920E-02 0. -1.
</event>
<event>
 5   0  0.2504064E-01  0.3789065E+03  0.7818609E-02  0.1051339E+00
       -2   -1    0    0    0  501  0.00000000000E+00  0.00000000000E+00  0.84601751958E+02  0.84601751996E+02  0.25500000920E-02 0.  1.
        2   -1    0    0  501    0  0.00000000000E+00  0.00000000000E+00 -0.42425275255E+03  0.42425275256E+03  0.25500000920E-02 0. -1.
    10030    2    1    2    0    0  0.00000000000E+00  0.00000000000E+00 -0.33965100059E+03  0.50885450455E+03  0.37890645891E+03 0.  0.
        5    1    3    3  502    0  0.94538852180E+02 -0.13894780040E+03 -0.28710442926E+03  0.33270877521E+03  0.46999998093E+01 0. -1.
       -5    1    3    3    0  502 -0.94538852180E+02  0.13894780040E+03 -0.52546571334E+02  0.17614572934E+03  0.46999998093E+01 0.  1.
</event>
<event>
 5   0  0.2504064E-01  0.4964893E+03  0.7818609E-02  0.1014699E+00
       -2   -1    0    0    0  501  0.00000000000E+00  0.00000000000E+00  0.29902749430E+03  0.29902749431E+03  0.25500000920E-02 0.  1.
        2   -1    0    0  501    0  0.00000000000E+00  0.00000000000E+00 -0.20608607054E+03  0.20608607056E+03  0.25500000920E-02 0. -1.
    10030    2    1    2    0    0  0.00000000000E+00  0.00000000000E+00  0.92941423757E+02  0.50511356486E+03  0.49648928000E+03 0.  0.
        5    1    3    3  502    0 -0.12052898772E+03 -0.63778452654E+02 -0.16451629691E+03  0.21373495234E+03  0.46999998093E+01 0. -1.
       -5    1    3    3    0  502  0.12052898772E+03  0.63778452654E+02  0.25745772067E+03  0.29137861252E+03  0.46999998093E+01 0.  1.
</event>
<event>
 5   0  0.2413301E-01  0.5079103E+03  0.7818609E-02  0.1011735E+00
        2   -1    0    0  501    0  0.00000000000E+00  0.00000000000E+00  0.11381531476E+04  0.11381531476E+04  0.25500000920E-02 0.  1.
       -2   -1    0    0    0  501  0.00000000000E+00  0.00000000000E+00 -0.56664795503E+02  0.56664795560E+02  0.25500000920E-02 0. -1.
    10030    2    1    2    0    0  0.00000000000E+00  0.00000000000E+00  0.10814883521E+04  0.11948179431E+04  0.50791028891E+03 0.  0.
        4    1    3    3  502    0 -0.15149329835E+03 -0.18125721867E+03  0.76000181271E+03  0.79586981787E+03  0.12699999809E+01 0.  1.
       -4    1    3    3    0  502  0.15149329835E+03  0.18125721867E+03  0.32148653936E+03  0.39894812527E+03  0.12699999809E+01 0. -1.
</event>
<event>
 5   0  0.2413301E-01  0.4912568E+03  0.7818609E-02  0.1016087E+00
       -2   -1    0    0    0  501  0.00000000000E+00  0.00000000000E+00  0.10285116237E+03  0.10285116241E+03  0.25500000920E-02 0. -1.
        2   -1    0    0  501    0  0.00000000000E+00  0.00000000000E+00 -0.58660784961E+03  0.58660784961E+03  0.25500000920E-02 0.  1.
    10030    2    1    2    0    0  0.00000000000E+00  0.00000000000E+00 -0.48375668723E+03  0.68945901202E+03  0.49125675243E+03 0.  0.
        4    1    3    3  502    0  0.20190056838E+03 -0.13464351793E+03 -0.29511683865E+03  0.38208412396E+03  0.12699999809E+01 0.  1.
       -4    1    3    3    0  502 -0.20190056838E+03  0.13464351793E+03 -0.18863984859E+03  0.30737488806E+03  0.12699999809E+01 0. -1.
</event>
<event>
 5   0  0.1453602E-01  0.5054734E+03  0.7818609E-02  0.1012360E+00
       -1   -1    0    0    0  501  0.00000000000E+00  0.00000000000E+00  0.17703452391E+04  0.17703452391E+04  0.50400001928E-02 0. -1.
        1   -1    0    0  501    0  0.00000000000E+00  0.00000000000E+00 -0.36081003434E+02  0.36081003786E+02  0.50400001928E-02 0.  1.
    10030    2    1    2    0    0  0.00000000000E+00  0.00000000000E+00  0.17342642356E+04  0.18064262429E+04  0.50547337407E+03 0.  0.
        2    1    3    3  502    0  0.73318238279E+02  0.13750912397E+03  0.15604472109E+03  0.22053180775E+03  0.25500000920E-02 0.  1.
       -2    1    3    3    0  502 -0.73318238279E+02 -0.13750912397E+03  0.15782195145E+04  0.15858944351E+04  0.25500000920E-02 0. -1.
</event>
<event>
 5   0  0.2466034E-01  0.4324499E+03  0.7818609E-02  0.1033089E+00
       -2   -1    0    0    0  501  0.00000000000E+00  0.00000000000E+00  0.36525972344E+03  0.36525972345E+03  0.25500000920E-02 0.  1.
        2   -1    0    0  501    0  0.00000000000E+00  0.00000000000E+00 -0.12799993824E+03  0.12799993826E+03  0.25500000920E-02 0. -1.
    10030    2    1    2    0    0  0.00000000000E+00  0.00000000000E+00  0.23725978520E+03  0.49325966171E+03  0.43244986784E+03 0.  0.
        3    1    3    3  502    0  0.54434271799E+02  0.15621940340E+03 -0.40180777628E+02  0.17024129064E+03  0.10100000352E+00 0. -1.
       -3    1    3    3    0  502 -0.54434271799E+02 -0.15621940340E+03  0.27744056283E+03  0.32301837107E+03  0.10100000352E+00 0.  1.
</event>
<event>
 5   0  0.1439814E-01  0.4995167E+03  0.7818609E-02  0.1013905E+00
       -1   -1    0    0    0  501  0.00000000000E+00  0.00000000000E+00  0.74929451799E+02  0.74929451969E+02  0.50400001928E-02 0. -1.
        1   -1    0    0  501    0  0.00000000000E+00  0.00000000000E+00 -0.83250609377E+03  0.83250609379E+03  0.50400001928E-02 0.  1.
    10030    2    1    2    0    0  0.00000000000E+00  0.00000000000E+00 -0.75757664197E+03  0.90743554576E+03  0.49951666763E+03 0.  0.
        4    1    3    3  502    0  0.18395737785E+02  0.24307440996E+03 -0.47752397861E+03  0.53614768021E+03  0.12699999809E+01 0.  1.
       -4    1    3    3    0  502 -0.18395737785E+02 -0.24307440996E+03 -0.28005266336E+03  0.37128786555E+03  0.12699999809E+01 0. -1.
</event>
<event>
 5   0  0.2511944E-01  0.4983502E+03  0.7818609E-02  0.1014210E+00
       -2   -1    0    0    0  501  0.00000000000E+00  0.00000000000E+00  0.34484769409E+02  0.34484769503E+02  0.25500000920E-02 0. -1.
        2   -1    0    0  501    0  0.00000000000E+00  0.00000000000E+00 -0.18004533364E+04  0.18004533364E+04  0.25500000920E-02 0.  1.
    10030    2    1    2    0    0  0.00000000000E+00  0.00000000000E+00 -0.17659685669E+04  0.18349381059E+04  0.49835015090E+03 0.  0.
        1    1    3    3  502    0  0.15646602669E+03 -0.75251769269E+02 -0.15410661496E+04  0.15508156962E+04  0.50400001928E-02 0.  1.
       -1    1    3    3    0  502 -0.15646602669E+03  0.75251769269E+02 -0.22490241736E+03  0.28412240962E+03  0.50400001928E-02 0. -1.
</event>
<event>
 5   0  0.2488968E-01  0.4888781E+03  0.7818609E-02  0.1016723E+00
       -2   -1    0    0    0  501  0.00000000000E+00  0.00000000000E+00  0.56549066818E+03  0.56549066819E+03  0.25500000920E-02 0.  1.
        2   -1    0    0  501    0  0.00000000000E+00  0.00000000000E+00 -0.10566123008E+03  0.10566123011E+03  0.25500000920E-02 0. -1.
    10030    2    1    2    0    0  0.00000000000E+00  0.00000000000E+00  0.45982943810E+03  0.67115189829E+03  0.48887806091E+03 0.  0.
        2    1    3    3  502    0 -0.10755673659E+03  0.17863047614E+03  0.40504287256E+03  0.45556231979E+03  0.25500000920E-02 0.  1.
       -2    1    3    3    0  502  0.10755673659E+03 -0.17863047614E+03  0.54786565541E+02  0.21558957851E+03  0.25500000920E-02 0. -1.
</event>
<event>
 5   0  0.1439814E-01  0.4941916E+03  0.7818609E-02  0.1015306E+00
        1   -1    0    0  501    0  0.00000000000E+00  0.00000000000E+00  0.58918241590E+03  0.58918241592E+03  0.50400001928E-02 0.  1.
       -1   -1    0    0    0  501  0.00000000000E+00  0.00000000000E+00 -0.10362890718E+03  0.10362890730E+03  0.50400001928E-02 0. -1.
    10030    2    1    2    0    0  0.00000000000E+00  0.00000000000E+00  0.48555350872E+03  0.69281132322E+03  0.49419158203E+03 0.  0.
        4    1    3    3  502    0 -0.23480560405E+03 -0.13310030093E+02  0.13652829728E+03  0.27194193765E+03  0.12699999809E+01 0. -1.
       -4    1    3    3    0  502  0.23480560405E+03  0.13310030093E+02  0.34902521144E+03  0.42086938557E+03  0.12699999809E+01 0.  1.
</event>
<event>
 5   0  0.1453602E-01  0.5010196E+03  0.7818609E-02  0.1013513E+00
        1   -1    0    0  501    0  0.00000000000E+00  0.00000000000E+00  0.44675887865E+03  0.44675887867E+03  0.50400001928E-02 0. -1.
       -1   -1    0    0    0  501  0.00000000000E+00  0.00000000000E+00 -0.14046761456E+03  0.14046761465E+03  0.50400001928E-02 0.  1.
    10030    2    1    2    0    0  0.00000000000E+00  0.00000000000E+00  0.30629126409E+03  0.58722649332E+03  0.50101957646E+03 0.  0.
        2    1    3    3  502    0  0.19195626300E+03 -0.22983415493E+02  0.33986710756E+03  0.39100523666E+03  0.25500000920E-02 0. -1.
       -2    1    3    3    0  502 -0.19195626300E+03  0.22983415493E+02 -0.33575843465E+02  0.19622125666E+03  0.25500000920E-02 0.  1.
</event>
<event>
 5   0  0.2413301E-01  0.4410096E+03  0.7818609E-02  0.1030437E+00
        2   -1    0    0  501    0  0.00000000000E+00  0.00000000000E+00  0.60164966902E+03  0.60164966903E+03  0.25500000920E-02 0.  1.
       -2   -1    0    0    0  501  0.00000000000E+00  0.00000000000E+00 -0.80815080632E+02  0.80815080672E+02  0.25500000920E-02 0. -1.
    10030    2    1    2    0    0  0.00000000000E+00  0.00000000000E+00  0.52083458839E+03  0.68246474970E+03  0.44100959867E+03 0.  0.
        4    1    3    3  502    0  0.50083853120E+02  0.13706727795E+03  0.46107489169E+01  0.14600925633E+03  0.12699999809E+01 0. -1.
       -4    1    3    3    0  502 -0.50083853120E+02 -0.13706727795E+03  0.51622383947E+03  0.53645549337E+03  0.12699999809E+01 0.  1.
</event>
<event>
 5   0  0.2413301E-01  0.5007822E+03  0.7818609E-02  0.1013575E+00
       -2   -1    0    0    0  501  0.00000000000E+00  0.00000000000E+00  0.91182497601E+02  0.91182497636E+02  0.25500000920E-02 0. -1.
        2   -1    0    0  501    0  0.00000000000E+00  0.00000000000E+00 -0.68758483627E+03  0.68758483627E+03  0.25500000920E-02 0.  1.
    10030    2    1    2    0    0  0.00000000000E+00  0.00000000000E+00 -0.59640233867E+03  0.77876733391E+03  0.50078219896E+03 0.  0.
        4    1    3    3  502    0 -0.15061303096E+03 -0.11003840533E+03 -0.55796069561E+03  0.58831495518E+03  0.12699999809E+01 0.  1.
       -4    1    3    3    0  502  0.15061303096E+03  0.11003840533E+03 -0.38441643062E+02  0.19045237873E+03  0.12699999809E+01 0. -1.
</event>
<event>
 5   0  0.1439814E-01  0.5220916E+03  0.7818609E-02  0.1008168E+00
        1   -1    0    0  501    0  0.00000000000E+00  0.00000000000E+00  0.71034150936E+03  0.71034150938E+03  0.50400001928E-02 0.  1.
       -1   -1    0    0    0  501  0.00000000000E+00  0.00000000000E+00 -0.95932601905E+02  0.95932602037E+02  0.50400001928E-02 0. -1.
    10030    2    1    2    0    0  0.00000000000E+00  0.00000000000E+00  0.61440890746E+03  0.80627411142E+03  0.52209159846E+03 0.  0.
        4    1    3    3  502    0 -0.18219266244E+03 -0.15187585493E+03  0.13886093266E+03  0.27485343926E+03  0.12699999809E+01 0.  1.
       -4    1    3    3    0  502  0.18219266244E+03  0.15187585493E+03  0.47554797480E+03  0.53142067215E+03  0.12699999809E+01 0. -1.
</event>
<event>
 5   0  0.1453602E-01  0.4936121E+03  0.7818609E-02  0.1015460E+00
       -1   -1    0    0    0  501  0.00000000000E+00  0.00000000000E+00  0.77903067272E+02  0.77903067435E+02  0.50400001928E-02 0. -1.
        1   -1    0    0  501    0  0.00000000000E+00  0.00000000000E+00 -0.78191036880E+03  0.78191036881E+03  0.50400001928E-02 0.  1.
    10030    2    1    2    0    0  0.00000000000E+00  0.00000000000E+00 -0.70400730153E+03  0.85981343625E+03  0.49361205876E+03 0.  0.
        2    1    3    3  502    0  0.92244037798E+01  0.12730552377E+03  0.15947537184E+02  0.12863168333E+03  0.25500000920E-02 0. -1.
       -2    1    3    3    0  502 -0.92244037798E+01 -0.12730552377E+03 -0.71995483871E+03  0.73118175292E+03  0.25500000920E-02 0.  1.
</event>
<event>
 5   0  0.2504064E-01  0.4919636E+03  0.7818609E-02  0.1015898E+00
        2   -1    0    0  501    0  0.00000000000E+00  0.00000000000E+00  0.25707365727E+03  0.25707365729E+03  0.25500000920E-02 0. -1.
       -2   -1    0    0    0  501  0.00000000000E+00  0.00000000000E+00 -0.23536849927E+03  0.23536849928E+03  0.25500000920E-02 0.  1.
    10030    2    1    2    0    0  0.00000000000E+00  0.00000000000E+00  0.21705158009E+02  0.49244215657E+03  0.49196357963E+03 0.  0.
        5    1    3    3  502    0 -0.15083624786E+03 -0.61363064928E+02 -0.17363067494E+03  0.23808969042E+03  0.46999998093E+01 0.  1.
       -5    1    3    3    0  502  0.15083624786E+03  0.61363064928E+02  0.19533583295E+03  0.25435246615E+03  0.46999998093E+01 0. -1.
</event>
<event>
 5   0  0.9868500E-02  0.4806834E+03  0.7818609E-02  0.1018948E+00
        4   -1    0    0  501    0  0.00000000000E+00  0.00000000000E+00  0.38735546620E+03  0.38735754814E+03  0.12699999809E+01 0.  1.
       -4   -1    0    0    0  501  0.00000000000E+00  0.00000000000E+00 -0.14911913693E+03  0.14912454492E+03  0.12699999809E+01 0. -1.
    10030    2    1    2    0    0  0.00000000000E+00  0.00000000000E+00  0.23823632927E+03  0.53648209306E+03  0.48068335481E+03 0.  0.
        2    1    3    3  502    0 -0.21423423652E+03 -0.36418399679E+02  0.23370840780E+03  0.31912729093E+03  0.25500000920E-02 0.  1.
       -2    1    3    3    0  502  0.21423423652E+03  0.36418399679E+02  0.45279214716E+01  0.21735480213E+03  0.25500000920E-02 0. -1.
</event>
<event>
 5   0  0.1413361E-01  0.5066909E+03  0.7818609E-02  0.1012047E+00
        1   -1    0    0  501    0  0.00000000000E+00  0.00000000000E+00  0.14770735709E+04  0.14770735709E+04  0.50400001928E-02 0. -1.
       -1   -1    0    0    0  501  0.00000000000E+00  0.00000000000E+00 -0.43453433120E+02  0.43453433412E+02  0.50400001928E-02 0.  1.
    10030    2    1    2    0    0  0.00000000000E+00  0.00000000000E+00  0.14336201377E+04  0.15205270043E+04  0.50669090323E+03 0.  0.
        3    1    3    3  502    0 -0.12345600792E+03 -0.11999213224E+03  0.12745605065E+04  0.12861352933E+04  0.10100000352E+00 0. -1.
       -3    1    3    3    0  502  0.12345600792E+03  0.11999213224E+03  0.15905963122E+03  0.23439171098E+03  0.10100000352E+00 0.  1.
</event>
<event>
 5   0  0.2488968E-01  0.4945282E+03  0.7818609E-02  0.1015217E+00
        2   -1    0    0  501    0  0.00000000000E+00  0.00000000000E+00  0.11305243872E+04  0.11305243872E+04  0.25500000920E-02 0.  1.
       -2   -1    0    0    0  501  0.00000000000E+00  0.00000000000E+00 -0.54080686845E+02  0.54080686905E+02  0.25500000920E-02 0. -1.
    10030    2    1    2    0    0  0.00000000000E+00  0.00000000000E+00  0.10764437004E+04  0.11846050741E+04  0.49452820099E+03 0.  0.
        2    1    3    3  502    0 -0.15207738756E+03 -0.18455821436E+03  0.68877708696E+03  0.72911119990E+03  0.25500000920E-02 0. -1.
       -2    1    3    3    0  502  0.15207738756E+03  0.18455821436E+03  0.38766661342E+03  0.45549387423E+03  0.25500000920E-02 0.  1.
</event>
<event>
 5   0  0.1439814E-01  0.5006990E+03  0.7818609E-02  0.1013597E+00
       -1   -1    0    0    0  501  0.00000000000E+00  0.00000000000E+00  0.12038558745E+03  0.12038558756E+03  0.50400001928E-02 0.  1.
        1   -1    0    0  501    0  0.00000000000E+00  0.00000000000E+00 -0.52061779456E+03  0.52061779459E+03  0.50400001928E-02 0. -1.
    10030    2    1    2    0    0  0.00000000000E+00  0.00000000000E+00 -0.40023220711E+03  0.64100338215E+03  0.50069902768E+03 0.  0.
        4    1    3    3  502    0  0.13770429174E+03 -0.19680369805E+03 -0.29045170459E+03  0.37690578813E+03  0.12699999809E+01 0. -1.
       -4    1    3    3    0  502 -0.13770429174E+03  0.19680369805E+03 -0.10978050252E+03  0.26409759401E+03  0.12699999809E+01 0.  1.
</event>
<event>
 5   0  0.2466034E-01  0.4493032E+03  0.7818609E-02  0.1027930E+00
        2   -1    0    0  501    0  0.00000000000E+00  0.00000000000E+00  0.40890830640E+03  0.40890830640E+03  0.25500000920E-02 0. -1.
       -2   -1    0    0    0  501  0.00000000000E+00  0.00000000000E+00 -0.12342213794E+03  0.12342213796E+03  0.25500000920E-02 0.  1.
    10030    2    1    2    0    0  0.00000000000E+00  0.00000000000E+00  0.28548616846E+03  0.53233044437E+03  0.44930318229E+03 0.  0.
        3    1    3    3  502    0 -0.93733999555E+02  0.15503079765E+02 -0.98448271638E+02  0.13681549819E+03  0.10100000352E+00 0.  1.
       -3    1    3    3    0  502  0.93733999555E+02 -0.15503079765E+02  0.38393444010E+03  0.39551494618E+03  0.10100000352E+00 0. -1.
</event>
<event>
 5   0  0.9868500E-02  0.4818166E+03  0.7818609E-02  0.1018637E+00
        4   -1    0    0  501    0  0.00000000000E+00  0.00000000000E+00  0.10599546111E+03  0.10600306919E+03  0.12699999809E+01 0. -1.
       -4   -1    0    0    0  501  0.00000000000E+00  0.00000000000E+00 -0.54751259587E+03  0.54751406881E+03  0.12699999809E+01 0.  1.
    10030    2    1    2    0    0  0.00000000000E+00  0.00000000000E+00 -0.44151713476E+03  0.65351713799E+03  0.48181663459E+03 0.  0.
        4    1    3    3  502    0 -0.19873081600E+03 -0.13321071688E+03 -0.25903034848E+03  0.35261504031E+03  0.12699999809E+01 0. -1.
       -4    1    3    3    0  502  0.19873081600E+03  0.13321071688E+03 -0.18248678628E+03  0.30090209768E+03  0.12699999809E+01 0.  1.
</event>
<event>
 5   0  0.2488968E-01  0.5309932E+03  0.7818609E-02  0.1005992E+00
       -2   -1    0    0    0  501  0.00000000000E+00  0.00000000000E+00  0.46609825777E+02  0.46609825847E+02  0.25500000920E-02 0.  1.
        2   -1    0    0  501    0  0.00000000000E+00  0.00000000000E+00 -0.15123085274E+04  0.15123085274E+04  0.25500000920E-02 0. -1.
    10030    2    1    2    0    0  0.00000000000E+00  0.00000000000E+00 -0.14656987016E+04  0.15589183532E+04  0.53099317148E+03 0.  0.
        2    1    3    3  502    0 -0.17318987436E+03  0.19978926509E+03 -0.80342925638E+03  0.84581856981E+03  0.25500000920E-02 0. -1.
       -2    1    3    3    0  502  0.17318987436E+03 -0.19978926509E+03 -0.66226944524E+03  0.71309978343E+03  0.25500000920E-02 0.  1.
</event>
<event>
 5   0  0.1529146E-01  0.4714597E+03  0.7818609E-02  0.1021509E+00
       -1   -1    0    0    0  501  0.00000000000E+00  0.00000000000E+00  0.39980395308E+02  0.39980395626E+02  0.50400001928E-02 0.  1.
        1   -1    0    0  501    0  0.00000000000E+00  0.00000000000E+00 -0.13898954161E+04  0.13898954161E+04  0.50400001928E-02 0. -1.
    10030    2    1    2    0    0  0.00000000000E+00  0.00000000000E+00 -0.13499150208E+04  0.14298758117E+04  0.47145972641E+03 0.  0.
        1    1    3    3  502    0 -0.29126514317E+02  0.22814629240E+03 -0.51825809888E+03  0.56700135948E+03  0.50400001928E-02 0.  1.
       -1    1    3    3    0  502  0.29126514317E+02 -0.22814629240E+03 -0.83165692192E+03  0.86287445227E+03  0.50400001928E-02 0. -1.
</event>
<event>
 5   0  0.2488968E-01  0.4981356E+03  0.7818609E-02  0.1014267E+00
       -2   -1    0    0    0  501  0.00000000000E+00  0.00000000000E+00  0.31388050497E+02  0.31388050601E+02  0.25500000920E-02 0.  1.
        2   -1    0    0  501    0  0.00000000000E+00  0.00000000000E+00 -0.19763817839E+04  0.19763817839E+04  0.25500000920E-02 0. -1.
    10030    2    1    2    0    0  0.00000000000E+00  0.00000000000E+00 -0.19449937334E+04  0.20077698345E+04  0.49813560941E+03 0.  0.
        2    1    3    3  502    0  0.14265632055E+03  0.16021564797E+03 -0.46242856004E+03  0.50976470336E+03  0.25500000920E-02 0.  1.
       -2    1    3    3    0  502 -0.14265632055E+03 -0.16021564797E+03 -0.14825651733E+04  0.14980051311E+04  0.25500000920E-02 0. -1.
</event>
<event>
 5   0  0.1413361E-01  0.5035062E+03  0.7818609E-02  0.1012868E+00
       -1   -1    0    0    0  501  0.00000000000E+00  0.00000000000E+00  0.55353783331E+02  0.55353783561E+02  0.50400001928E-02 0. -1.
        1   -1    0    0  501    0  0.00000000000E+00  0.00000000000E+00 -0.11449917663E+04  0.11449917663E+04  0.50400001928E-02 0.  1.
    10030    2    1    2    0    0  0.00000000000E+00  0.00000000000E+00 -0.10896379829E+04  0.12003455498E+04  0.50350621164E+03 0.  0.
        3    1    3    3  502    0  0.14891324867E+02  0.14484520649E+03 -0.10344208511E+04  0.10446187787E+04  0.10100000352E+00 0.  1.
       -3    1    3    3    0  502 -0.14891324867E+02 -0.14484520649E+03 -0.55217131812E+02  0.15572677113E+03  0.10100000352E+00 0. -1.
</event>
<event>
 5   0  0.1439814E-01  0.4910138E+03  0.7818609E-02  0.1016151E+00
        1   -1    0    0  501    0  0.00000000000E+00  0.00000000000E+00  0.11178726948E+04  0.11178726948E+04  0.50400001928E-02 0. -1.
       -1   -1    0    0    0  501  0.00000000000E+00  0.00000000000E+00 -0.53918159744E+02  0.53918159980E+02  0.50400001928E-02 0.  1.
    10030    2    1    2    0    0  0.00000000000E+00  0.00000000000E+00  0.10639545350E+04  0.11717908548E+04  0.49101380297E+03 0.  0.
        4    1    3    3  502    0 -0.10230913277E+03  0.21779580752E+03  0.64815346023E+03  0.69138028127E+03  0.12699999809E+01 0. -1.
       -4    1    3    3    0  502  0.10230913277E+03 -0.21779580752E+03  0.41580107482E+03  0.48041057351E+03  0.12699999809E+01 0.  1.
</event>
<event>
 5   0  0.2466034E-01  0.4950039E+03  0.7818609E-02  0.1015091E+00
       -2   -1    0    0    0  501  0.00000000000E+00  0.00000000000E+00  0.44417558631E+02  0.44417558704E+02  0.25500000920E-02 0. -1.
        2   -1    0    0  501    0  0.00000000000E+00  0.00000000000E+00 -0.13791215718E+04  0.13791215718E+04  0.25500000920E-02 0.  1.
    10030    2    1    2    0    0  0.00000000000E+00  0.00000000000E+00 -0.13347040132E+04  0.14235391305E+04  0.49500389222E+03 0.  0.
        3    1    3    3  502    0 -0.12386972148E+03 -0.15357824741E+03 -0.23763940094E+03  0.30887292056E+03  0.10100000352E+00 0. -1.
       -3    1    3    3    0  502  0.12386972148E+03  0.15357824741E+03 -0.10970646122E+04  0.11146662100E+04  0.10100000352E+00 0.  1.
</event>
<event>
 5   0  0.1529146E-01  0.4856888E+03  0.7818609E-02  0.1017583E+00
        1   -1    0    0  501    0  0.00000000000E+00  0.00000000000E+00  0.90187013435E+03  0.90187013436E+03  0.50400001928E-02 0.  1.
       -1   -1    0    0    0  501  0.00000000000E+00  0.00000000000E+00 -0.65390125995E+02  0.65390126189E+02  0.50400001928E-02 0. -1.
    10030    2    1    2    0    0  0.00000000000E+00  0.00000000000E+00  0.83648000835E+03  0.96726026055E+03  0.48568879673E+03 0.  0.
        1    1    3    3  502    0  0.19455759437E+03 -0.14007020960E+03  0.49539912536E+03  0.55035680660E+03  0.50400001928E-02 0.  1.
       -1    1    3    3    0  502 -0.19455759437E+03  0.14007020960E+03  0.34108088300E+03  0.41690345395E+03  0.50400001928E-02 0. -1.
</event>
<event>
 5   0  0.1453602E-01  0.5017279E+03  0.7818609E-02  0.1013329E+00
       -1   -1    0    0    0  501  0.00000000000E+00  0.00000000000E+00  0.35706370178E+03  0.35706370181E+03  0.50400001928E-02 0. -1.
        1   -1    0    0  501    0  0.00000000000E+00  0.00000000000E+00 -0.17625066660E+03  0.17625066667E+03  0.50400001928E-02 0.  1.
    10030    2    1    2    0    0  0.00000000000E+00  0.00000000000E+00  0.18081303518E+03  0.53331436848E+03  0.50172787638E+03 0.  0.
        2    1    3    3  502    0  0.23377786516E+02  0.79978621881E+02 -0.16111132097E+03  0.18138345738E+03  0.25500000920E-02 0.  1.
       -2    1    3    3    0  502 -0.23377786516E+02 -0.79978621881E+02  0.34192435614E+03  0.35193091110E+03  0.25500000920E-02 0. -1.
</event>
<event>
 5   0  0.1453602E-01  0.4885862E+03  0.7818609E-02  0.1016802E+00
        1   -1    0    0  501    0  0.00000000000E+00  0.00000000000E+00  0.25925706998E+03  0.25925707003E+03  0.50400001928E-02 0. -1.
       -1   -1    0    0    0  501  0.00000000000E+00  0.00000000000E+00 -0.23019280298E+03  0.23019280303E+03  0.50400001928E-02 0.  1.
    10030    2    1    2    0    0  0.00000000000E+00  0.00000000000E+00  0.29064267007E+02  0.48944987306E+03  0.48858617114E+03 0.  0.
        2    1    3    3  502    0  0.11347482897E+03  0.17337316981E+03 -0.11509645497E+03  0.23702739667E+03  0.25500000920E-02 0.  1.
       -2    1    3    3    0  502 -0.11347482897E+03 -0.17337316981E+03  0.14416072197E+03  0.25242247639E+03  0.25500000920E-02 0. -1.
</event>
<event>
 5   0  0.2413301E-01  0.5098623E+03  0.7818609E-02  0.1011236E+00
        2   -1    0    0  501    0  0.00000000000E+00  0.00000000000E+00  0.13394944004E+04  0.13394944004E+04  0.25500000920E-02 0. -1.
       -2   -1    0    0    0  501  0.00000000000E+00  0.00000000000E+00 -0.48518217782E+02  0.48518217849E+02  0.25500000920E-02 0.  1.
    10030    2    1    2    0    0  0.00000000000E+00  0.00000000000E+00  0.12909761826E+04  0.13880126182E+04  0.50986226016E+03 0.  0.
        4    1    3    3  502    0 -0.12607008361E+03  0.51579367797E+02  0.12321115089E+04  0.12396186835E+04  0.12699999809E+01 0. -1.
       -4    1    3    3    0  502  0.12607008361E+03 -0.51579367797E+02  0.58864673698E+02  0.14839393476E+03  0.12699999809E+01 0.  1.
</event>
<event>
 5   0  0.1439814E-01  0.5037967E+03  0.7818609E-02  0.1012793E+00
        1   -1    0    0  501    0  0.00000000000E+00  0.00000000000E+00  0.46971141647E+03  0.46971141650E+03  0.50400001928E-02 0. -1.
       -1   -1    0    0    0  501  0.00000000000E+00  0.00000000000E+00 -0.13508883359E+03  0.13508883368E+03  0.50400001928E-02 0.  1.
    10030    2    1    2    0    0  0.00000000000E+00  0.00000000000E+00  0.33462258289E+03  0.60480025018E+03  0.50379665505E+03 0.  0.
        4    1    3    3  502    0 -0.21448250273E+03 -0.12387092425E+03  0.22238208187E+03  0.33286957368E+03  0.12699999809E+01 0.  1.
       -4    1    3    3    0  502  0.21448250273E+03  0.12387092425E+03  0.11224050102E+03  0.27193067650E+03  0.12699999809E+01 0. -1.
</event>
<event>
 5   0  0.1439814E-01  0.4913062E+03  0.7818609E-02  0.1016073E+00
        1   -1    0    0  501    0  0.00000000000E+00  0.00000000000E+00  0.40609951671E+03  0.40609951674E+03  0.50400001928E-02 0. -1.
       -1   -1    0    0    0  501  0.00000000000E+00  0.00000000000E+00 -0.14859768435E+03  0.14859768444E+03  0.50400001928E-02 0.  1.
    10030    2    1    2    0    0  0.00000000000E+00  0.00000000000E+00  0.25750183235E+03  0.55469720117E+03  0.49130620933E+03 0.  0.
        4    1    3    3  502    0 -0.17156723241E+03  0.28302492941E+02  0.32465387112E+03  0.36829077544E+03  0.12699999809E+01 0. -1.
       -4    1    3    3    0  502  0.17156723241E+03 -0.28302492941E+02 -0.67152038765E+02  0.18640642573E+03  0.12699999809E+01 0.  1.
</event>
<event>
 5   0  0.2504064E-01  0.5393011E+03  0.7818609E-02  0.1004001E+00
       -2   -1    0    0    0  501  0.00000000000E+00  0.00000000000E+00  0.59315845364E+02  0.59315845419E+02  0.25500000920E-02 0. -1.
        2   -1    0    0  501    0  0.00000000000E+00  0.00000000000E+00 -0.12258344488E+04  0.12258344488E+04  0.25500000920E-02 0.  1.
    10030    2    1    2    0    0  0.00000000000E+00  0.00000000000E+00 -0.11665186034E+04  0.12851502942E+04  0.53930105375E+03 0.  0.
        5    1    3    3  502    0 -0.13067732172E+03 -0.17700898734E+03 -0.21193607680E+03  0.30552861512E+03  0.46999998093E+01 0. -1.
       -5    1    3    3    0  502  0.13067732172E+03  0.17700898734E+03 -0.95458252664E+03  0.97962167911E+03  0.46999998093E+01 0.  1.
</event>
<event>
 5   0  0.2511944E-01  0.4951491E+03  0.7818609E-02  0.1015053E+00
       -2   -1    0    0    0  501  0.00000000000E+00  0.00000000000E+00  0.23327107926E+03  0.23327107928E+03  0.25500000920E-02 0. -1.
        2   -1    0    0  501    0  0.00000000000E+00  0.00000000000E+00 -0.26275506994E+03  0.26275506996E+03  0.25500000920E-02 0.  1.
    10030    2    1    2    0    0  0.00000000000E+00  0.00000000000E+00 -0.29483990683E+02  0.49602614923E+03  0.49514910382E+03 0.  0.
        1    1    3    3  502    0  0.91127323212E+02  0.68276766118E+02  0.20548199579E+03  0.23492287340E+03  0.50400001928E-02 0. -1.
       -1    1    3    3    0  502 -0.91127323212E+02 -0.68276766118E+02 -0.23496598647E+03  0.26110327583E+03  0.50400001928E-02 0.  1.
</event>
<event>
 5   0  0.2511944E-01  0.4920161E+03  0.7818609E-02  0.1015884E+00
       -2   -1    0    0    0  501  0.00000000000E+00  0.00000000000E+00  0.17438654987E+03  0.17438654989E+03  0.25500000920E-02 0. -1.
        2   -1    0    0  501    0  0.00000000000E+00  0.00000000000E+00 -0.34704482058E+03  0.34704482059E+03  0.25500000920E-02 0.  1.
    10030    2    1    2    0    0  0.00000000000E+00  0.00000000000E+00 -0.17265827071E+03  0.52143137048E+03  0.49201605226E+03 0.  0.
        1    1    3    3  502    0 -0.95511555970E+02 -0.90780174183E+02 -0.30649031721E+03  0.33361626447E+03  0.50400001928E-02 0.  1.
       -1    1    3    3    0  502  0.95511555970E+02  0.90780174183E+02  0.13383204651E+03  0.18781510601E+03  0.50400001928E-02 0. -1.
</event>
<event>
 5   0  0.9868500E-02  0.5003504E+03  0.7818609E-02  0.1013687E+00
       -3   -1    0    0    0  501  0.00000000000E+00  0.00000000000E+00  0.13556853151E+04  0.13556853188E+04  0.10100000352E+00 0.  1.
        3   -1    0    0  501    0  0.00000000000E+00  0.00000000000E+00 -0.46166731769E+02  0.46166842249E+02  0.10100000352E+00 0. -1.
    10030    2    1    2    0    0  0.00000000000E+00  0.00000000000E+00  0.13095185833E+04  0.14018521611E+04  0.50035043871E+03 0.  0.
        4    1    3    3  502    0  0.27474116310E+02  0.24520180106E+03  0.77052500369E+03  0.80906683563E+03  0.12699999809E+01 0.  1.
       -4    1    3    3    0  502 -0.27474116310E+02 -0.24520180106E+03  0.53899357962E+03  0.59278532546E+03  0.12699999809E+01 0. -1.
</event>
<event>
 5   0  0.1529146E-01  0.5076518E+03  0.7818609E-02  0.1011801E+00
        1   -1    0    0  501    0  0.00000000000E+00  0.00000000000E+00  0.15750393952E+03  0.15750393960E+03  0.50400001928E-02 0. -1.
       -1   -1    0    0    0  501  0.00000000000E+00  0.00000000000E+00 -0.40905376603E+03  0.40905376607E+03  0.50400001928E-02 0.  1.
    10030    2    1    2    0    0  0.00000000000E+00  0.00000000000E+00 -0.25154982651E+03  0.56655770567E+03  0.50765176907E+03 0.  0.
        1    1    3    3  502    0 -0.35157809503E+02  0.18431314875E+03  0.64999279817E+02  0.19857571547E+03  0.50400001928E-02 0. -1.
       -1    1    3    3    0  502  0.35157809503E+02 -0.18431314875E+03 -0.31654910633E+03  0.36798199020E+03  0.50400001928E-02 0.  1.
</event>
<event>
 5   0  0.2504064E-01  0.4572462E+03  0.7818609E-02  0.1025583E+00
        2   -1    0    0  501    0  0.00000000000E+00  0.00000000000E+00  0.10704981806E+04  0.10704981806E+04  0.25500000920E-02 0. -1.
       -2   -1    0    0    0  501  0.00000000000E+00  0.00000000000E+00 -0.48826357931E+02  0.48826357997E+02  0.25500000920E-02 0.  1.
    10030    2    1    2    0    0  0.00000000000E+00  0.00000000000E+00  0.10216718227E+04  0.11193245386E+04  0.45724622413E+03 0.  0.
        5    1    3    3  502    0 -0.26722768135E+02  0.12647752706E+02  0.10656796358E+04  0.10661000179E+04  0.46999998093E+01 0. -1.
       -5    1    3    3    0  502  0.26722768135E+02 -0.12647752706E+02 -0.44007813156E+02  0.53224520686E+02  0.46999998093E+01 0.  1.
</event>
<event>
 5   0  0.2488968E-01  0.5023408E+03  0.7818609E-02  0.1013170E+00
       -2   -1    0    0    0  501  0.00000000000E+00  0.00000000000E+00  0.63916213606E+03  0.63916213606E+03  0.25500000920E-02 0.  1.
        2   -1    0    0  501    0  0.00000000000E+00  0.00000000000E+00 -0.98701971988E+02  0.98701972021E+02  0.25500000920E-02 0. -1.
    10030    2    1    2    0    0  0.00000000000E+00  0.00000000000E+00  0.54046016407E+03  0.73786410808E+03  0.50234077383E+03 0.  0.
        2    1    3    3  502    0  0.18276525237E+03  0.52749645430E+02  0.51114370890E+03  0.54539302683E+03  0.25500000920E-02 0.  1.
       -2    1    3    3    0  502 -0.18276525237E+03 -0.52749645430E+02  0.29316455173E+02  0.19247108125E+03  0.25500000920E-02 0. -1.
</event>
<event>
 5   0  0.1448458E-01  0.5033474E+03  0.7818609E-02  0.1012909E+00
        1   -1    0    0  501    0  0.00000000000E+00  0.00000000000E+00  0.55266339835E+03  0.55266339838E+03  0.50400001928E-02 0. -1.
       -1   -1    0    0    0  501  0.00000000000E+00  0.00000000000E+00 -0.11460799784E+03  0.11460799795E+03  0.50400001928E-02 0.  1.
    10030    2    1    2    0    0  0.00000000000E+00  0.00000000000E+00  0.43805540052E+03  0.66727139633E+03  0.50334737750E+03 0.  0.
        5    1    3    3  502    0  0.22231898211E+03  0.77245179259E+02  0.10101342184E+03  0.25616078723E+03  0.46999998093E+01 0.  1.
       -5    1    3    3    0  502 -0.22231898211E+03 -0.77245179259E+02  0.33704197868E+03  0.41111060910E+03  0.46999998093E+01 0. -1.
</event>
<event>
 5   0  0.2511944E-01  0.4771938E+03  0.7818609E-02  0.1019909E+00
        2   -1    0    0  501    0  0.00000000000E+00  0.00000000000E+00  0.14308345688E+04  0.14308345688E+04  0.25500000920E-02 0. -1.
       -2   -1    0    0    0  501  0.00000000000E+00  0.00000000000E+00 -0.39786900646E+02  0.39786900728E+02  0.25500000920E-02 0.  1.
    10030    2    1    2    0    0  0.00000000000E+00  0.00000000000E+00  0.13910476681E+04  0.14706214695E+04  0.47719376731E+03 0.  0.
        1    1    3    3  502    0  0.20644644107E+03  0.52676446202E+02  0.36455484848E+03  0.42225013746E+03  0.50400001928E-02 0.  1.
       -1    1    3    3    0  502 -0.20644644107E+03 -0.52676446202E+02  0.10264928196E+04  0.10483713320E+04  0.50400001928E-02 0. -1.
</event>
<event>
 5   0  0.2413301E-01  0.4892870E+03  0.7818609E-02  0.1016614E+00
        2   -1    0    0  501    0  0.00000000000E+00  0.00000000000E+00  0.61279396634E+03  0.61279396635E+03  0.25500000920E-02 0. -1.
       -2   -1    0    0    0  501  0.00000000000E+00  0.00000000000E+00 -0.97668134132E+02  0.97668134165E+02  0.25500000920E-02 0.  1.
    10030    2    1    2    0    0  0.00000000000E+00  0.00000000000E+00  0.51512583221E+03  0.71046210051E+03  0.48928700499E+03 0.  0.
        4    1    3    3  502    0 -0.91337061759E+02  0.81851162805E+02 -0.49798252194E+02  0.13237654824E+03  0.12699999809E+01 0.  1.
       -4    1    3    3    0  502  0.91337061759E+02 -0.81851162805E+02  0.56492408440E+03  0.57808555227E+03  0.12699999809E+01 0. -1.
</event>
<event>
 5   0  0.2511944E-01  0.5051676E+03  0.7818609E-02  0.1012439E+00
       -2   -1    0    0    0  501  0.00000000000E+00  0.00000000000E+00  0.14720092055E+04  0.14720092055E+04  0.25500000920E-02 0.  1.
        2   -1    0    0  501    0  0.00000000000E+00  0.00000000000E+00 -0.43341160366E+02  0.43341160441E+02  0.25500000920E-02 0. -1.
    10030    2    1    2    0    0  0.00000000000E+00  0.00000000000E+00  0.14286680452E+04  0.15153503660E+04  0.50516764384E+03 0.  0.
        1    1    3    3  502    0 -0.62067340219E+02  0.94188114577E+02  0.13922580131E+04  0.13968200065E+04  0.50400001928E-02 0.  1.
       -1    1    3    3    0  502  0.62067340219E+02 -0.94188114577E+02  0.36410032102E+02  0.11853035945E+03  0.50400001928E-02 0. -1.
</event>
<event>
 5   0  0.2488968E-01  0.4773647E+03  0.7818609E-02  0.1019862E+00
        2   -1    0    0  501    0  0.00000000000E+00  0.00000000000E+00  0.12441349224E+04  0.12441349224E+04  0.25500000920E-02 0. -1.
       -2   -1    0    0    0  501  0.00000000000E+00  0.00000000000E+00 -0.45790267917E+02  0.45790267988E+02  0.25500000920E-02 0.  1.
    10030    2    1    2    0    0  0.00000000000E+00  0.00000000000E+00  0.11983446545E+04  0.12899251904E+04  0.47736473046E+03 0.  0.
        2    1    3    3  502    0 -0.15453188001E+03  0.17816860274E+03  0.50006757684E+03  0.55289396303E+03  0.25500000920E-02 0. -1.
       -2    1    3    3    0  502  0.15453188001E+03 -0.17816860274E+03  0.69827707766E+03  0.73703122738E+03  0.25500000920E-02 0.  1.
</event>
<event>
 5   0  0.1453602E-01  0.4958107E+03  0.7818609E-02  0.1014878E+00
        1   -1    0    0  501    0  0.00000000000E+00  0.00000000000E+00  0.94688188536E+02  0.94688188670E+02  0.50400001928E-02 0.  1.
       -1   -1    0    0    0  501  0.00000000000E+00  0.00000000000E+00 -0.64904689071E+03  0.64904689073E+03  0.50400001928E-02 0. -1.
    10030    2    1    2    0    0  0.00000000000E+00  0.00000000000E+00 -0.55435870217E+03  0.74373507939E+03  0.49581074782E+03 0.  0.
        2    1    3    3  502    0 -0.46583781958E+02  0.10333671858E+03 -0.60789797680E+03  0.61837567575E+03  0.25500000920E-02 0. -1.
       -2    1    3    3    0  502  0.46583781958E+02 -0.10333671858E+03  0.53539274633E+02  0.12535940365E+03  0.25500000920E-02 0.  1.
</event>
<event>
 5   0  0.1453602E-01  0.5003004E+03  0.7818609E-02  0.1013701E+00
        1   -1    0    0  501    0  0.00000000000E+00  0.00000000000E+00  0.42239899124E+02  0.42239899425E+02  0.50400001928E-02 0.  1.
       -1   -1    0    0    0  501  0.00000000000E+00  0.00000000000E+00 -0.14814223786E+04  0.14814223786E+04  0.50400001928E-02 0. -1.
    10030    2    1    2    0    0  0.00000000000E+00  0.00000000000E+00 -0.14391824795E+04  0.15236622780E+04  0.50030043801E+03 0.  0.
        2    1    3    3  502    0  0.18577395565E+02 -0.67632003519E+02 -0.14508646845E+04  0.14525589627E+04  0.25500000920E-02 0. -1.
       -2    1    3    3    0  502 -0.18577395565E+02  0.67632003519E+02  0.11682205011E+02  0.71103315298E+02  0.25500000920E-02 0.  1.
</event>
<event>
 5   0  0.2511944E-01  0.5136881E+03  0.7818609E-02  0.1010267E+00
       -2   -1    0    0    0  501  0.00000000000E+00  0.00000000000E+00  0.54474824938E+02  0.54474824998E+02  0.25500000920E-02 0.  1.
        2   -1    0    0  501    0  0.00000000000E+00  0.00000000000E+00 -0.12109972870E+04  0.12109972870E+04  0.25500000920E-02 0. -1.
    10030    2    1    2    0    0  0.00000000000E+00  0.00000000000E+00 -0.11565224620E+04  0.12654721120E+04  0.51368809700E+03 0.  0.
        1    1    3    3  502    0  0.17405235218E+02 -0.11585360130E+03 -0.15180416705E+02  0.11813316310E+03  0.50400001928E-02 0.  1.
       -1    1    3    3    0  502 -0.17405235218E+02  0.11585360130E+03 -0.11413420453E+04  0.11473389489E+04  0.50400001928E-02 0. -1.
</event>
<event>
 5   0  0.1529146E-01  0.5147666E+03  0.7818609E-02  0.1009995E+00
       -1   -1    0    0    0  501  0.00000000000E+00  0.00000000000E+00  0.32208567281E+02  0.32208567675E+02  0.50400001928E-02 0.  1.
        1   -1    0    0  501    0  0.00000000000E+00  0.00000000000E+00 -0.20567866698E+04  0.20567866698E+04  0.50400001928E-02 0. -1.
    10030    2    1    2    0    0  0.00000000000E+00  0.00000000000E+00 -0.20245781025E+04  0.20889952375E+04  0.51476655779E+03 0.  0.
        1    1    3    3  502    0  0.95504831091E+02  0.90764706076E+01 -0.43059224827E+02  0.10515537052E+03  0.50400001928E-02 0.  1.
       -1    1    3    3    0  502 -0.95504831091E+02 -0.90764706076E+01 -0.19815188777E+04  0.19838398669E+04  0.50400001928E-02 0. -1.
</event>
<event>
 5   0  0.1448458E-01  0.5431913E+03  0.7818609E-02  0.1003082E+00
        1   -1    0    0  501    0  0.00000000000E+00  0.00000000000E+00  0.56321502341E+03  0.56321502343E+03  0.50400001928E-02 0. -1.
       -1   -1    0    0    0  501  0.00000000000E+00  0.00000000000E+00 -0.13096984352E+03  0.13096984361E+03  0.50400001928E-02 0.  1.
    10030    2    1    2    0    0  0.00000000000E+00  0.00000000000E+00  0.43224517989E+03  0.69418486704E+03  0.54319125002E+03 0.  0.
        5    1    3    3  502    0  0.15175556732E+03 -0.20807480716E+03  0.32618596797E+03  0.41562513553E+03  0.46999998093E+01 0. -1.
       -5    1    3    3    0  502 -0.15175556732E+03  0.20807480716E+03  0.10605921192E+03  0.27855973151E+03  0.46999998093E+01 0.  1.
</event>
<event>
 5   0  0.2466034E-01  0.5023788E+03  0.7818609E-02  0.1013160E+00
       -2   -1    0    0    0  501  0.00000000000E+00  0.00000000000E+00  0.17243978656E+03  0.17243978658E+03  0.25500000920E-02 0. -1.
        2   -1    0    0  501    0  0.00000000000E+00  0.00000000000E+00 -0.36590233771E+03  0.36590233771E+03  0.25500000920E-02 0.  1.
    10030    2    1    2    0    0  0.00000000000E+00  0.00000000000E+00 -0.19346255115E+03  0.53834212429E+03  0.50237882528E+03 0.  0.
        3    1    3    3  502    0 -0.53194994303E+02 -0.13134437090E+03  0.12551643838E+03  0.18930250313E+03  0.10100000352E+00 0. -1.
       -3    1    3    3    0  502  0.53194994303E+02  0.13134437090E+03 -0.31897898952E+03  0.34903962117E+03  0.10100000352E+00 0.  1.
</event>
<event>
 5   0  0.1439814E-01  0.5077822E+03  0.7818609E-02  0.1011767E+00
        1   -1    0    0  501    0  0.00000000000E+00  0.00000000000E+00  0.11677150736E+04  0.11677150736E+04  0.50400001928E-02 0.  1.
       -1   -1    0    0    0  501  0.00000000000E+00  0.00000000000E+00 -0.55202408389E+02  0.55202408619E+02  0.50400001928E-02 0. -1.
    10030    2    1    2    0    0  0.00000000000E+00  0.00000000000E+00  0.11125126652E+04  0.12229174822E+04  0.50778217582E+03 0.  0.
        4    1    3    3  502    0 -0.20372875576E+03 -0.49534964534E+02  0.21143340573E+03  0.29776637922E+03  0.12699999809E+01 0. -1.
       -4    1    3    3    0  502  0.20372875576E+03  0.49534964534E+02  0.90107925945E+03  0.92515110299E+03  0.12699999809E+01 0.  1.
</event>
<event>
 5   0  0.2488968E-01  0.4954459E+03  0.7818609E-02  0.1014974E+00
       -2   -1    0    0    0  501  0.00000000000E+00  0.00000000000E+00  0.32937853189E+03  0.32937853190E+03  0.25500000920E-02 0.  1.
        2   -1    0    0  501    0  0.00000000000E+00  0.00000000000E+00 -0.18631044674E+03  0.18631044676E+03  0.25500000920E-02 0. -1.
    10030    2    1    2    0    0  0.00000000000E+00  0.00000000000E+00  0.14306808515E+03  0.51568897866E+03  0.49544590595E+03 0.  0.
        2    1    3    3  502    0  0.10552589703E+03  0.11717743991E+03  0.27039081317E+03  0.31301351284E+03  0.25500000920E-02 0.  1.
       -2    1    3    3    0  502 -0.10552589703E+03 -0.11717743991E+03 -0.12732272802E+03  0.20267546582E+03  0.25500000920E-02 0. -1.
</event>
<event>
 5   0  0.1439814E-01  0.5059407E+03  0.7818609E-02  0.1012240E+00
        1   -1    0    0  501    0  0.00000000000E+00  0.00000000000E+00  0.92492480423E+03  0.92492480424E+03  0.50400001928E-02 0.  1.
       -1   -1    0    0    0  501  0.00000000000E+00  0.00000000000E+00 -0.69188325334E+02  0.69188325517E+02  0.50400001928E-02 0. -1.
    10030    2    1    2    0    0  0.00000000000E+00  0.00000000000E+00  0.85573647890E+03  0.99411312976E+03  0.50594070152E+03 0.  0.
        4    1    3    3  502    0  0.54694235653E+01 -0.15351274069E+03  0.32950142398E+02  0.15710951891E+03  0.12699999809E+01 0. -1.
       -4    1    3    3    0  502 -0.54694235653E+01  0.15351274069E+03  0.82278633650E+03  0.83700361085E+03  0.12699999809E+01 0.  1.
</event>
<event>
 5   0  0.1529146E-01  0.4789691E+03  0.7818609E-02  0.1019419E+00
       -1   -1    0    0    0  501  0.00000000000E+00  0.00000000000E+00  0.93813457108E+02  0.93813457244E+02  0.50400001928E-02 0. -1.
        1   -1    0    0  501    0  0.00000000000E+00  0.00000000000E+00 -0.61134997704E+03  0.61134997706E+03  0.50400001928E-02 0.  1.
    10030    2    1    2    0    0  0.00000000000E+00  0.00000000000E+00 -0.51753651994E+03  0.70516343431E+03  0.47896912178E+03 0.  0.
        1    1    3    3  502    0 -0.26870723861E+02 -0.53118388556E+02 -0.60028402878E+03  0.60322840967E+03  0.50400001928E-02 0.  1.
       -1    1    3    3    0  502  0.26870723861E+02  0.53118388556E+02  0.82747508840E+02  0.10193502464E+03  0.50400001928E-02 0. -1.
</event>
<event>
 5   0  0.2504064E-01  0.5385140E+03  0.7818609E-02  0.1004188E+00
       -2   -1    0    0    0  501  0.00000000000E+00  0.00000000000E+00  0.14001861903E+03  0.14001861906E+03  0.25500000920E-02 0. -1.
        2   -1    0    0  501    0  0.00000000000E+00  0.00000000000E+00 -0.51778352624E+03  0.51778352624E+03  0.25500000920E-02 0.  1.
    10030    2    1    2    0    0  0.00000000000E+00  0.00000000000E+00 -0.37776490720E+03  0.65780214530E+03  0.53851400840E+03 0.  0.
        5    1    3    3  502    0  0.14627230012E+03  0.22234105281E+03 -0.23844211561E+03  0.35736236797E+03  0.46999998093E+01 0.  1.
       -5    1    3    3    0  502 -0.14627230012E+03 -0.22234105281E+03 -0.13932279159E+03  0.30043977733E+03  0.46999998093E+01 0. -1.
</event>
<event>
 5   0  0.1413361E-01  0.4974080E+03  0.7818609E-02  0.1014458E+00
       -1   -1    0    0    0  501  0.00000000000E+00  0.00000000000E+00  0.65408781720E+03  0.65408781722E+03  0.50400001928E-02 0.  1.
        1   -1    0    0  501    0  0.00000000000E+00  0.00000000000E+00 -0.94564793852E+02  0.94564793986E+02  0.50400001928E-02 0. -1.
    10030    2    1    2    0    0  0.00000000000E+00  0.00000000000E+00  0.55952302335E+03  0.74865261121E+03  0.49740800015E+03 0.  0.
        3    1    3    3  502    0  0.13883924676E+03 -0.17767457958E+03  0.12183936893E+03  0.25629950193E+03  0.10100000352E+00 0.  1.
       -3    1    3    3    0  502 -0.13883924676E+03  0.17767457958E+03  0.43768365442E+03  0.49235310928E+03  0.10100000352E+00 0. -1.
</event>
<event>
 5   0  0.9868500E-02  0.4888598E+03  0.7818609E-02  0.1016728E+00
        3   -1    0    0  501    0  0.00000000000E+00  0.00000000000E+00  0.90798133623E+02  0.90798189797E+02  0.10100000352E+00 0.  1.
       -3   -1    0    0    0  501  0.00000000000E+00  0.00000000000E+00 -0.65800853526E+03  0.65800854301E+03  0.10100000352E+00 0. -1.
    10030    2    1    2    0    0  0.00000000000E+00  0.00000000000E+00 -0.56721040164E+03  0.74880673281E+03  0.48885977885E+03 0.  0.
        1    1    3    3  502    0 -0.24046651314E+03 -0.43739174152E+02 -0.27908422252E+03  0.37097878994E+03  0.50400001928E-02 0.  1.
       -1    1    3    3    0  502  0.24046651314E+03  0.43739174152E+02 -0.28812617911E+03  0.37782794287E+03  0.50400001928E-02 0. -1.
</event>
<event>
 5   0  0.1413361E-01  0.5157517E+03  0.7818609E-02  0.1009747E+00
        1   -1    0    0  501    0  0.00000000000E+00  0.00000000000E+00  0.66884559771E+03  0.66884559773E+03  0.50400001928E-02 0.  1.
       -1   -1    0    0    0  501  0.00000000000E+00  0.00000000000E+00 -0.99424952610E+02  0.99424952737E+02  0.50400001928E-02 0. -1.
    10030    2    1    2    0    0  0.00000000000E+00  0.00000000000E+00  0.56942064510E+03  0.76827055047E+03  0.51575165307E+03 0.  0.
        3    1    3    3  502    0  0.48327911862E+02 -0.15319523830E+03  0.58521213183E+03  0.60685881187E+03  0.10100000352E+00 0.  1.
       -3    1    3    3    0  502 -0.48327911862E+02  0.15319523830E+03 -0.15791486726E+02  0.16141173860E+03  0.10100000352E+00 0. -1.
</event>
<event>
 5   0  0.2488968E-01  0.4985278E+03  0.7818609E-02  0.1014164E+00
       -2   -1    0    0    0  501  0.00000000000E+00  0.00000000000E+00  0.49842828935E+03  0.49842828935E+03  0.25500000920E-02 0. -1.
        2   -1    0    0  501    0  0.00000000000E+00  0.00000000000E+00 -0.12465682766E+03  0.12465682768E+03  0.25500000920E-02 0.  1.
    10030    2    1    2    0    0  0.00000000000E+00  0.00000000000E+00  0.37377146169E+03  0.62308511704E+03  0.49852779009E+03 0.  0.
        2    1    3    3  502    0 -0.62888883322E+01 -0.20869194416E+03  0.35707024308E+03  0.41363152222E+03  0.25500000920E-02 0. -1.
       -2    1    3    3    0  502  0.62888883322E+01  0.20869194416E+03  0.16701218613E+02  0.20945359482E+03  0.25500000920E-02 0.  1.
</event>
<event>
 5   0  0.2413301E-01  0.5054631E+03  0.7818609E-02  0.1012363E+00
       -2   -1    0    0    0  501  0.00000000000E+00  0.00000000000E+00  0.88838789244E+02  0.88838789281E+02  0.25500000920E-02 0. -1.
        2   -1    0    0  501    0  0.00000000000E+00  0.00000000000E+00 -0.71897913461E+03  0.71897913461E+03  0.25500000920E-02 0.  1.
    10030    2    1    2    0    0  0.00000000000E+00  0.00000000000E+00 -0.63014034537E+03  0.80781792390E+03  0.50546309787E+03 0.  0.
        4    1    3    3  502    0 -0.25121044602E+03 -0.95266407972E+01 -0.35656665389E+03  0.43627839351E+03  0.12699999809E+01 0.  1.
       -4    1    3    3    0  502  0.25121044602E+03  0.95266407972E+01 -0.27357369147E+03  0.37153953039E+03  0.12699999809E+01 0. -1.
</event>
<event>
 5   0  0.1413361E-01  0.5094219E+03  0.7818609E-02  0.1011349E+00
       -1   -1    0    0    0  501  0.00000000000E+00  0.00000000000E+00  0.23153448824E+03  0.23153448829E+03  0.50400001928E-02 0. -1.
        1   -1    0    0  501    0  0.00000000000E+00  0.00000000000E+00 -0.28020737490E+03  0.28020737494E+03  0.50400001928E-02 0.  1.
    10030    2    1    2    0    0  0.00000000000E+00  0.00000000000E+00 -0.48672886661E+02  0.51174186324E+03  0.50942191226E+03 0.  0.
        3    1    3    3  502    0  0.14416552451E+03  0.18208119644E+03  0.80736266538E+02  0.24587723662E+03  0.10100000352E+00 0.  1.
       -3    1    3    3    0  502 -0.14416552451E+03 -0.18208119644E+03 -0.12940915320E+03  0.26586462662E+03  0.10100000352E+00 0. -1.
</event>
<event>
 5   0  0.2488968E-01  0.4960213E+03  0.7818609E-02  0.1014823E+00
        2   -1    0    0  501    0  0.00000000000E+00  0.00000000000E+00  0.26897533997E+03  0.26897533998E+03  0.25500000920E-02 0. -1.
       -2   -1    0    0    0  501  0.00000000000E+00  0.00000000000E+00 -0.22868003820E+03  0.22868003821E+03  0.25500000920E-02 0.  1.
    10030    2    1    2    0    0  0.00000000000E+00  0.00000000000E+00  0.40295301768E+02  0.49765537820E+03  0.49602133432E+03 0.  0.
        2    1    3    3  502    0  0.23105495558E+03 -0.88074828239E+02  0.96076141702E+00  0.24727412104E+03  0.25500000920E-02 0. -1.
       -2    1    3    3    0  502 -0.23105495558E+03  0.88074828239E+02  0.39334540351E+02  0.25038125716E+03  0.25500000920E-02 0.  1.
</event>
<event>
 5   0  0.2413301E-01  0.4886940E+03  0.7818609E-02  0.1016773E+00
        2   -1    0    0  501    0  0.00000000000E+00  0.00000000000E+00  0.76165394513E+03  0.76165394514E+03  0.25500000920E-02 0. -1.
       -2   -1    0    0    0  501  0.00000000000E+00  0.00000000000E+00 -0.78389226855E+02  0.78389226897E+02  0.25500000920E-02 0.  1.
    10030    2    1    2    0    0  0.00000000000E+00  0.00000000000E+00  0.68326471828E+03  0.84004317204E+03  0.48869403070E+03 0.  0.
        4    1    3    3  502    0  0.47252898481E+02 -0.30023380351E+02 -0.67210266741E+02  0.87481841761E+02  0.12699999809E+01 0.  1.
       -4    1    3    3    0  502 -0.47252898481E+02  0.30023380351E+02  0.75047498502E+03  0.75256133027E+03  0.12699999809E+01 0. -1.
</event>
<event>
 5   0  0.2466034E-01  0.5051538E+03  0.7818609E-02  0.1012442E+00
       -2   -1    0    0    0  501  0.00000000000E+00  0.00000000000E+00  0.14391250288E+03  0.14391250290E+03  0.25500000920E-02 0. -1.
        2   -1    0    0  501    0  0.00000000000E+00  0.00000000000E+00 -0.44329075359E+03  0.44329075359E+03  0.25500000920E-02 0.  1.
    10030    2    1    2    0    0  0.00000000000E+00  0.00000000000E+00 -0.29937825071E+03  0.58720325650E+03  0.50515376614E+03 0.  0.
        3    1    3    3  502    0 -0.11428985187E+03 -0.12450106764E+01 -0.41150928044E+03  0.42708736621E+03  0.10100000352E+00 0.  1.
       -3    1    3    3    0  502  0.11428985187E+03  0.12450106764E+01  0.11213102973E+03  0.16011589029E+03  0.10100000352E+00 0. -1.
</event>
<event>
 5   0  0.1413361E-01  0.5085549E+03  0.7818609E-02  0.1011570E+00
        1   -1    0    0  501    0  0.00000000000E+00  0.00000000000E+00  0.33930016302E+03  0.33930016306E+03  0.50400001928E-02 0.  1.
       -1   -1    0    0    0  501  0.00000000000E+00  0.00000000000E+00 -0.19055997090E+03  0.19055997097E+03  0.50400001928E-02 0. -1.
    10030    2    1    2    0    0  0.00000000000E+00  0.00000000000E+00  0.14874019212E+03  0.52986013403E+03  0.50855493005E+03 0.  0.
        3    1    3    3  502    0 -0.24581919784E+03 -0.55611228539E+02  0.10950728822E+03  0.27479363737E+03  0.10100000352E+00 0. -1.
       -3    1    3    3    0  502  0.24581919784E+03  0.55611228539E+02  0.39232903898E+02  0.25506649665E+03  0.10100000352E+00 0.  1.
</event>
<event>
 5   0  0.2488968E-01  0.4942124E+03  0.7818609E-02  0.1015301E+00
       -2   -1    0    0    0  501  0.00000000000E+00  0.00000000000E+00  0.47490550934E+02  0.47490551003E+02  0.25500000920E-02 0. -1.
        2   -1    0    0  501    0  0.00000000000E+00  0.00000000000E+00 -0.12857607294E+04  0.12857607294E+04  0.25500000920E-02 0.  1.
    10030    2    1    2    0    0  0.00000000000E+00  0.00000000000E+00 -0.12382701785E+04  0.13332512804E+04  0.49421244604E+03 0.  0.
        2    1    3    3  502    0 -0.40115507579E+02 -0.24037189505E+03 -0.50877246129E+03  0.56412526911E+03  0.25500000920E-02 0.  1.
       -2    1    3    3    0  502  0.40115507579E+02  0.24037189505E+03 -0.72949771717E+03  0.76912601129E+03  0.25500000920E-02 0. -1.
</event>
<event>
 5   0  0.1448458E-01  0.5020738E+03  0.7818609E-02  0.1013239E+00
        1   -1    0    0  501    0  0.00000000000E+00  0.00000000000E+00  0.50164573342E+03  0.50164573345E+03  0.50400001928E-02 0.  1.
       -1   -1    0    0    0  501  0.00000000000E+00  0.00000000000E+00 -0.12562557005E+03  0.12562557015E+03  0.50400001928E-02 0. -1.
    10030    2    1    2    0    0  0.00000000000E+00  0.00000000000E+00  0.37602016337E+03  0.62727130360E+03  0.50207382431E+03 0.  0.
        5    1    3    3  502    0 -0.14008065704E+03 -0.68976008948E+02  0.43352507052E+03  0.46081054356E+03  0.46999998093E+01 0.  1.
       -5    1    3    3    0  502  0.14008065704E+03  0.68976008948E+02 -0.57504907152E+02  0.16646076004E+03  0.46999998093E+01 0. -1.
</event>
<event>
 5   0  0.1453602E-01  0.5003516E+03  0.7818609E-02  0.1013687E+00
       -1   -1    0    0    0  501  0.00000000000E+00  0.00000000000E+00  0.63169478678E+02  0.63169478879E+02  0.50400001928E-02 0. -1.
        1   -1    0    0  501    0  0.00000000000E+00  0.00000000000E+00 -0.99079368356E+03  0.99079368358E+03  0.50400001928E-02 0.  1.
    10030    2    1    2    0    0  0.00000000000E+00  0.00000000000E+00 -0.92762420489E+03  0.10539631625E+04  0.50035155873E+03 0.  0.
        2    1    3    3  502    0  0.11947481855E+03 -0.20429993058E+03 -0.29300515181E+03  0.37664932351E+03  0.25500000920E-02 0. -1.
       -2    1    3    3    0  502 -0.11947481855E+03  0.20429993058E+03 -0.63461905307E+03  0.67731383895E+03  0.25500000920E-02 0.  1.
</event>
<event>
 5   0  0.2488968E-01  0.4046357E+03  0.7818609E-02  0.1042186E+00
       -2   -1    0    0    0  501  0.00000000000E+00  0.00000000000E+00  0.52024643493E+03  0.52024643494E+03  0.25500000920E-02 0. -1.
        2   -1    0    0  501    0  0.00000000000E+00  0.00000000000E+00 -0.78679088236E+02  0.78679088278E+02  0.25500000920E-02 0.  1.
    10030    2    1    2    0    0  0.00000000000E+00  0.00000000000E+00  0.44156734670E+03  0.59892552322E+03  0.40463571356E+03 0.  0.
        2    1    3    3  502    0  0.14270924587E+02  0.29522163758E+02 -0.74719762551E+02  0.81598163972E+02  0.25500000920E-02 0.  1.
       -2    1    3    3    0  502 -0.14270924587E+02 -0.29522163758E+02  0.51628710925E+03  0.51732735924E+03  0.25500000920E-02 0. -1.
</event>
<event>
 5   0  0.1413361E-01  0.5051467E+03  0.7818609E-02  0.1012444E+00
        1   -1    0    0  501    0  0.00000000000E+00  0.00000000000E+00  0.79334821610E+03  0.79334821612E+03  0.50400001928E-02 0. -1.
       -1   -1    0    0    0  501  0.00000000000E+00  0.00000000000E+00 -0.80410222230E+02  0.80410222388E+02  0.50400001928E-02 0.  1.
    10030    2    1    2    0    0  0.00000000000E+00  0.00000000000E+00  0.71293799387E+03  0.87375843851E+03  0.50514673685E+03 0.  0.
        3    1    3    3  502    0 -0.15258472347E+03 -0.15552719997E+03  0.13548184925E+03  0.25656607228E+03  0.10100000352E+00 0.  1.
       -3    1    3    3    0  502  0.15258472347E+03  0.15552719997E+03  0.57745614462E+03  0.61719236623E+03  0.10100000352E+00 0. -1.
</event>
<event>
 5   0  0.1413361E-01  0.5060199E+03  0.7818609E-02  0.1012219E+00
       -1   -1    0    0    0  501  0.00000000000E+00  0.00000000000E+00  0.69832235330E+02  0.69832235512E+02  0.50400001928E-02 0. -1.
        1   -1    0    0  501    0  0.00000000000E+00  0.00000000000E+00 -0.91668300796E+03  0.91668300797E+03  0.50400001928E-02 0.  1.
    10030    2    1    2    0    0  0.00000000000E+00  0.00000000000E+00 -0.84685077263E+03  0.98651524348E+03  0.50601985586E+03 0.  0.
        3    1    3    3  502    0  0.22317313254E+03 -0.67158637749E+02 -0.23144106128E+03  0.32845320026E+03  0.10100000352E+00 0. -1.
       -3    1    3    3    0  502 -0.22317313254E+03  0.67158637749E+02 -0.61540971135E+03  0.65806204323E+03  0.10100000352E+00 0.  1.
</event>
<event>
 5   0  0.1413361E-01  0.5071725E+03  0.7818609E-02  0.1011924E+00
       -1   -1    0    0    0  501  0.00000000000E+00  0.00000000000E+00  0.35635413579E+03  0.35635413582E+03  0.50400001928E-02 0.  1.
        1   -1    0    0  501    0  0.00000000000E+00  0.00000000000E+00 -0.18045528696E+03  0.18045528703E+03  0.50400001928E-02 0. -1.
    10030    2    1    2    0    0  0.00000000000E+00  0.00000000000E+00  0.17589884883E+03  0.53680942285E+03  0.50717250659E+03 0.  0.
        3    1    3    3  502    0 -0.46213349113E+02 -0.59482847510E+01  0.35178436268E+03  0.35485673694E+03  0.10100000352E+00 0.  1.
       -3    1    3    3    0  502  0.46213349113E+02  0.59482847510E+01 -0.17588551385E+03  0.18195268591E+03  0.10100000352E+00 0. -1.
</event>
<event>
 5   0  0.1453602E-01  0.5007361E+03  0.7818609E-02  0.1013587E+00
        1   -1    0    0  501    0  0.00000000000E+00  0.00000000000E+00  0.14734734296E+04  0.14734734296E+04  0.50400001928E-02 0. -1.
       -1   -1    0    0    0  501  0.00000000000E+00  0.00000000000E+00 -0.42541766572E+02  0.42541766871E+02  0.50400001928E-02 0.  1.
    10030    2    1    2    0    0  0.00000000000E+00  0.00000000000E+00  0.14309316630E+04  0.15160151964E+04  0.50073610984E+03 0.  0.
        2    1    3    3  502    0  0.64157574237E+02 -0.18953264441E+03  0.25986541002E+03  0.32797690309E+03  0.25500000920E-02 0.  1.
       -2    1    3    3    0  502 -0.64157574237E+02  0.18953264441E+03  0.11710662530E+04  0.11880382934E+04  0.25500000920E-02 0. -1.
</event>
<event>
 5   0  0.2504064E-01  0.4998517E+03  0.7818609E-02  0.1013818E+00
       -2   -1    0    0    0  501  0.00000000000E+00  0.00000000000E+00  0.84275469020E+02  0.84275469059E+02  0.25500000920E-02 0.  1.
        2   -1    0    0  501    0  0.00000000000E+00  0.00000000000E+00 -0.74117579727E+03  0.74117579728E+03  0.25500000920E-02 0. -1.
    10030    2    1    2    0    0  0.00000000000E+00  0.00000000000E+00 -0.65690032825E+03  0.82545126634E+03  0.49985172985E+03 0.  0.
        5    1    3    3  502    0 -0.22137166105E+03  0.12540392845E+02 -0.13815865095E+03  0.26129021527E+03  0.46999998093E+01 0.  1.
       -5    1    3    3    0  502  0.22137166105E+03 -0.12540392845E+02 -0.51874167730E+03  0.56416105106E+03  0.46999998093E+01 0. -1.
</event>
<event>
 5   0  0.1439814E-01  0.5243861E+03  0.7818609E-02  0.1007603E+00
        1   -1    0    0  501    0  0.00000000000E+00  0.00000000000E+00  0.34487124016E+03  0.34487124019E+03  0.50400001928E-02 0. -1.
       -1   -1    0    0    0  501  0.00000000000E+00  0.00000000000E+00 -0.19933581923E+03  0.19933581930E+03  0.50400001928E-02 0.  1.
    10030    2    1    2    0    0  0.00000000000E+00  0.00000000000E+00  0.14553542092E+03  0.54420705949E+03  0.52438608377E+03 0.  0.
        4    1    3    3  502    0  0.10019616890E+03 -0.95019910774E+02 -0.15853687143E+03  0.21024654149E+03  0.12699999809E+01 0.  1.
       -4    1    3    3    0  502 -0.10019616890E+03  0.95019910774E+02  0.30407229235E+03  0.33396051800E+03  0.12699999809E+01 0. -1.
</event>
<event>
 5   0  0.1413361E-01  0.4975452E+03  0.7818609E-02  0.1014422E+00
       -1   -1    0    0    0  501  0.00000000000E+00  0.00000000000E+00  0.44753041164E+02  0.44753041447E+02  0.50400001928E-02 0.  1.
        1   -1    0    0  501    0  0.00000000000E+00  0.00000000000E+00 -0.13828736992E+04  0.13828736992E+04  0.50400001928E-02 0. -1.
    10030    2    1    2    0    0  0.00000000000E+00  0.00000000000E+00 -0.13381206580E+04  0.14276267407E+04  0.49754518908E+03 0.  0.
        3    1    3    3  502    0 -0.20282102923E+03 -0.80828937084E+02 -0.32692097883E+03  0.39312469214E+03  0.10100000352E+00 0.  1.
       -3    1    3    3    0  502  0.20282102923E+03  0.80828937084E+02 -0.10111996792E+04  0.10345020485E+04  0.10100000352E+00 0. -1.
</event>
<event>
 5   0  0.9868500E-02  0.5102050E+03  0.7818609E-02  0.1011149E+00
        3   -1    0    0  501    0  0.00000000000E+00  0.00000000000E+00  0.82335360950E+03  0.82335361570E+03  0.10100000352E+00 0.  1.
       -3   -1    0    0    0  501  0.00000000000E+00  0.00000000000E+00 -0.79039260630E+02  0.79039325162E+02  0.10100000352E+00 0. -1.
    10030    2    1    2    0    0  0.00000000000E+00  0.00000000000E+00  0.74431434887E+03  0.90239294086E+03  0.51020502720E+03 0.  0.
        3    1    3    3  502    0 -0.22700276474E+03 -0.95454156546E+02  0.48995133652E+03  0.54835579103E+03  0.10100000352E+00 0.  1.
       -3    1    3    3    0  502  0.22700276474E+03  0.95454156546E+02  0.25436301235E+03  0.35403714983E+03  0.10100000352E+00 0. -1.
</event>
<event>
 5   0  0.2488968E-01  0.5039308E+03  0.7818609E-02  0.1012758E+00
        2   -1    0    0  501    0  0.00000000000E+00  0.00000000000E+00  0.57451305643E+03  0.57451305644E+03  0.25500000920E-02 0.  1.
       -2   -1    0    0    0  501  0.00000000000E+00  0.00000000000E+00 -0.11050499885E+03  0.11050499888E+03  0.25500000920E-02 0. -1.
    10030    2    1    2    0    0  0.00000000000E+00  0.00000000000E+00  0.46400805758E+03  0.68501805532E+03  0.50393080737E+03 0.  0.
        2    1    3    3  502    0 -0.12031689599E+02 -0.20859589421E+03  0.42342415769E+03  0.47217054753E+03  0.25500000920E-02 0.  1.
       -2    1    3    3    0  502  0.12031689599E+02  0.20859589421E+03  0.40583899895E+02  0.21284750779E+03  0.25500000920E-02 0. -1.
</event>
<event>
 5   0  0.9868500E-02  0.4941238E+03  0.7818609E-02  0.1015324E+00
        3   -1    0    0  501    0  0.00000000000E+00  0.00000000000E+00  0.82263880292E+02  0.82263942294E+02  0.10100000352E+00 0. -1.
       -3   -1    0    0    0  501  0.00000000000E+00  0.00000000000E+00 -0.74199702947E+03  0.74199703635E+03  0.10100000352E+00 0.  1.
    10030    2    1    2    0    0  0.00000000000E+00  0.00000000000E+00 -0.65973314918E+03  0.82426097864E+03  0.49412380309E+03 0.  0.
        5    1    3    3  502    0  0.99249310207E+02  0.50699180388E+02 -0.69759921415E+03  0.70646131250E+03  0.46999998093E+01 0.  1.
       -5    1    3    3    0  502 -0.99249310207E+02 -0.50699180388E+02  0.37866064974E+02  0.11779966614E+03  0.46999998093E+01 0. -1.
</event>
<event>
 5   0  0.9868500E-02  0.5554624E+03  0.7818609E-02  0.1000237E+00
        4   -1    0    0  501    0  0.00000000000E+00  0.00000000000E+00  0.67258414382E+03  0.67258534285E+03  0.12699999809E+01 0. -1.
       -4   -1    0    0    0  501  0.00000000000E+00  0.00000000000E+00 -0.11467916255E+03  0.11468619456E+03  0.12699999809E+01 0.  1.
    10030    2    1    2    0    0  0.00000000000E+00  0.00000000000E+00  0.55790498127E+03  0.78727153742E+03  0.55546242492E+03 0.  0.
        3    1    3    3  502    0  0.27149310949E+03 -0.57498548484E+02  0.26342486746E+03  0.38263201981E+03  0.10100000352E+00 0.  1.
       -3    1    3    3    0  502 -0.27149310949E+03  0.57498548484E+02  0.29448011381E+03  0.40463951761E+03  0.10100000352E+00 0. -1.
</event>
<event>
 5   0  0.2504064E-01  0.4953652E+03  0.7818609E-02  0.1014996E+00
       -2   -1    0    0    0  501  0.00000000000E+00  0.00000000000E+00  0.39748960822E+02  0.39748960904E+02  0.25500000920E-02 0.  1.
        2   -1    0    0  501    0  0.00000000000E+00  0.00000000000E+00 -0.15433527491E+04  0.15433527491E+04  0.25500000920E-02 0. -1.
    10030    2    1    2    0    0  0.00000000000E+00  0.00000000000E+00 -0.15036037883E+04  0.15831017100E+04  0.49536519064E+03 0.  0.
        5    1    3    3  502    0  0.22600882890E+03  0.86690481643E+02 -0.91876201999E+03  0.95012681771E+03  0.46999998093E+01 0. -1.
       -5    1    3    3    0  502 -0.22600882890E+03 -0.86690481643E+02 -0.58484176830E+03  0.63297489231E+03  0.46999998093E+01 0.  1.
</event>
<event>
 5   0  0.1529146E-01  0.4996550E+03  0.7818609E-02  0.1013869E+00
        1   -1    0    0  501    0  0.00000000000E+00  0.00000000000E+00  0.21435517284E+03  0.21435517290E+03  0.50400001928E-02 0. -1.
       -1   -1    0    0    0  501  0.00000000000E+00  0.00000000000E+00 -0.29116997576E+03  0.29116997580E+03  0.50400001928E-02 0.  1.
    10030    2    1    2    0    0  0.00000000000E+00  0.00000000000E+00 -0.76814802920E+02  0.50552514870E+03  0.49965504303E+03 0.  0.
        1    1    3    3  502    0 -0.76971109300E+02 -0.23767455268E+03 -0.38190826696E+02  0.25272966571E+03  0.50400001928E-02 0.  1.
       -1    1    3    3    0  502  0.76971109300E+02  0.23767455268E+03 -0.38623976224E+02  0.25279548300E+03  0.50400001928E-02 0. -1.
</event>
<event>
 5   0  0.2466034E-01  0.5006958E+03  0.7818609E-02  0.1013597E+00
       -2   -1    0    0    0  501  0.00000000000E+00  0.00000000000E+00  0.14252812767E+03  0.14252812769E+03  0.25500000920E-02 0. -1.
        2   -1    0    0  501    0  0.00000000000E+00  0.00000000000E+00 -0.43973116896E+03  0.43973116897E+03  0.25500000920E-02 0.  1.
    10030    2    1    2    0    0  0.00000000000E+00  0.00000000000E+00 -0.29720304129E+03  0.58225929666E+03  0.50069575671E+03 0.  0.
        3    1    3    3  502    0  0.12490555018E+03  0.20208993054E+03 -0.24040669641E+03  0.33798983176E+03  0.10100000352E+00 0.  1.
       -3    1    3    3    0  502 -0.12490555018E+03 -0.20208993054E+03 -0.56796344881E+02  0.24426946490E+03  0.10100000352E+00 0. -1.
</event>
<event>
 5   0  0.2504064E-01  0.5055358E+03  0.7818609E-02  0.1012344E+00
        2   -1    0    0  501    0  0.00000000000E+00  0.00000000000E+00  0.16306338378E+03  0.16306338380E+03  0.25500000920E-02 0. -1.
       -2   -1    0    0    0  501  0.00000000000E+00  0.00000000000E+00 -0.39182074806E+03  0.39182074807E+03  0.25500000920E-02 0.  1.
    10030    2    1    2    0    0  0.00000000000E+00  0.00000000000E+00 -0.22875736428E+03  0.55488413187E+03  0.50553582275E+03 0.  0.
        5    1    3    3  502    0 -0.10767560677E+03 -0.26931676731E+02  0.13483130571E+03  0.17470238264E+03  0.46999998093E+01 0. -1.
       -5    1    3    3    0  502  0.10767560677E+03  0.26931676731E+02 -0.36358866999E+03  0.38018174923E+03  0.46999998093E+01 0.  1.
</event>
<event>
 5   0  0.1529146E-01  0.5104727E+03  0.7818609E-02  0.1011081E+00
       -1   -1    0    0    0  501  0.00000000000E+00  0.00000000000E+00  0.17560823629E+03  0.17560823636E+03  0.50400001928E-02 0.  1.
        1   -1    0    0  501    0  0.00000000000E+00  0.00000000000E+00 -0.37097115599E+03  0.37097115602E+03  0.50400001928E-02 0. -1.
    10030    2    1    2    0    0  0.00000000000E+00  0.00000000000E+00 -0.19536291970E+03  0.54657939238E+03  0.51047268466E+03 0.  0.
        1    1    3    3  502    0  0.25032174480E+03 -0.47915730801E+02 -0.82973124493E+02  0.26803252152E+03  0.50400001928E-02 0.  1.
       -1    1    3    3    0  502 -0.25032174480E+03  0.47915730801E+02 -0.11238979521E+03  0.27854687087E+03  0.50400001928E-02 0. -1.
</event>
<event>
 5   0  0.2488968E-01  0.4878914E+03  0.7818609E-02  0.1016989E+00
       -2   -1    0    0    0  501  0.00000000000E+00  0.00000000000E+00  0.64235837876E+02  0.64235837927E+02  0.25500000920E-02 0.  1.
        2   -1    0    0  501    0  0.00000000000E+00  0.00000000000E+00 -0.92642217662E+03  0.92642217662E+03  0.25500000920E-02 0. -1.
    10030    2    1    2    0    0  0.00000000000E+00  0.00000000000E+00 -0.86218633874E+03  0.99065801455E+03  0.48789140090E+03 0.  0.
        2    1    3    3  502    0  0.20660936881E+03 -0.11301249430E+03 -0.30186967272E+03  0.38286362384E+03  0.25500000920E-02 0. -1.
       -2    1    3    3    0  502 -0.20660936881E+03  0.11301249430E+03 -0.56031666602E+03  0.60779439070E+03  0.25500000920E-02 0.  1.
</event>
<event>
 5   0  0.2504064E-01  0.4960394E+03  0.7818609E-02  0.1014818E+00
        2   -1    0    0  501    0  0.00000000000E+00  0.00000000000E+00  0.67493092459E+03  0.67493092460E+03  0.25500000920E-02 0.  1.
       -2   -1    0    0    0  501  0.00000000000E+00  0.00000000000E+00 -0.91140822913E+02  0.91140822948E+02  0.25500000920E-02 0. -1.
    10030    2    1    2    0    0  0.00000000000E+00  0.00000000000E+00  0.58379010168E+03  0.76607174755E+03  0.49603935284E+03 0.  0.
        5    1    3    3  502    0 -0.19915040362E+03 -0.31997088542E+02  0.51466559471E+03  0.55279965748E+03  0.46999998093E+01 0.  1.
       -5    1    3    3    0  502  0.19915040362E+03  0.31997088542E+02  0.69124506975E+02  0.21327209007E+03  0.46999998093E+01 0. -1.
</event>
<event>
 5   0  0.1453602E-01  0.4986458E+03  0.7818609E-02  0.1014133E+00
        1   -1    0    0  501    0  0.00000000000E+00  0.00000000000E+00  0.20604384525E+03  0.20604384531E+03  0.50400001928E-02 0.  1.
       -1   -1    0    0    0  501  0.00000000000E+00  0.00000000000E+00 -0.30169259138E+03  0.30169259143E+03  0.50400001928E-02 0. -1.
    10030    2    1    2    0    0  0.00000000000E+00  0.00000000000E+00 -0.95648746138E+02  0.50773643673E+03  0.49864577262E+03 0.  0.
        2    1    3    3  502    0 -0.32641974594E+02 -0.12010443558E+03  0.17214958388E+03  0.21242893680E+03  0.25500000920E-02 0.  1.
       -2    1    3    3    0  502  0.32641974594E+02  0.12010443558E+03 -0.26779833002E+03  0.29530749994E+03  0.25500000920E-02 0. -1.
</event>
<event>
 5   0  0.2504064E-01  0.5003970E+03  0.7818609E-02  0.1013675E+00
       -2   -1    0    0    0  501  0.00000000000E+00  0.00000000000E+00  0.23065484595E+03  0.23065484596E+03  0.25500000920E-02 0.  1.
        2   -1    0    0  501    0  0.00000000000E+00  0.00000000000E+00 -0.27139815762E+03  0.27139815764E+03  0.25500000920E-02 0. -1.
    10030    2    1    2    0    0  0.00000000000E+00  0.00000000000E+00 -0.40743311675E+02  0.50205300360E+03  0.50039704333E+03 0.  0.
        5    1    3    3  502    0  0.18862743986E+03  0.41971122538E+02 -0.17975365783E+03  0.26396089426E+03  0.46999998093E+01 0. -1.
       -5    1    3    3    0  502 -0.18862743986E+03 -0.41971122538E+02  0.13901034616E+03  0.23809210934E+03  0.46999998093E+01 0.  1.
</event>
<event>
 5   0  0.1439814E-01  0.5028308E+03  0.7818609E-02  0.1013043E+00
        1   -1    0    0  501    0  0.00000000000E+00  0.00000000000E+00  0.83982906252E+03  0.83982906254E+03  0.50400001928E-02 0. -1.
       -1   -1    0    0    0  501  0.00000000000E+00  0.00000000000E+00 -0.75264959164E+02  0.75264959333E+02  0.50400001928E-02 0.  1.
    10030    2    1    2    0    0  0.00000000000E+00  0.00000000000E+00  0.76456410336E+03  0.91509402187E+03  0.50283078736E+03 0.  0.
        4    1    3    3  502    0 -0.17172276711E+02 -0.24799249170E+03  0.45068948528E+03  0.51470164957E+03  0.12699999809E+01 0.  1.
       -4    1    3    3    0  502  0.17172276711E+02  0.24799249170E+03  0.31387461807E+03  0.40039237230E+03  0.12699999809E+01 0. -1.
</event>
<event>
 5   0  0.1448458E-01  0.4957885E+03  0.7818609E-02  0.1014884E+00
       -1   -1    0    0    0  501  0.00000000000E+00  0.00000000000E+00  0.25250682856E+02  0.25250683359E+02  0.50400001928E-02 0. -1.
        1   -1    0    0  501    0  0.00000000000E+00  0.00000000000E+00 -0.24336592358E+04  0.24336592358E+04  0.50400001928E-02 0.  1.
    10030    2    1    2    0    0  0.00000000000E+00  0.00000000000E+00 -0.24084085530E+04  0.24589099192E+04  0.49578849590E+03 0.  0.
        5    1    3    3  502    0  0.63288230583E+02  0.77875971195E+02 -0.23281779763E+04  0.23303443621E+04  0.46999998093E+01 0.  1.
       -5    1    3    3    0  502 -0.63288230583E+02 -0.77875971195E+02 -0.80230576689E+02  0.12856555703E+03  0.46999998093E+01 0. -1.
</event>
<event>
 5   0  0.1448458E-01  0.5058760E+03  0.7818609E-02  0.1012256E+00
        1   -1    0    0  501    0  0.00000000000E+00  0.00000000000E+00  0.14772725016E+03  0.14772725025E+03  0.50400001928E-02 0. -1.
       -1   -1    0    0    0  501  0.00000000000E+00  0.00000000000E+00 -0.43307939057E+03  0.43307939060E+03  0.50400001928E-02 0.  1.
    10030    2    1    2    0    0  0.00000000000E+00  0.00000000000E+00 -0.28535214041E+03  0.58080664084E+03  0.50587598284E+03 0.  0.
        5    1    3    3  502    0  0.97237694193E+02 -0.23251557945E+03 -0.11867860134E+03  0.27861328804E+03  0.46999998093E+01 0. -1.
       -5    1    3    3    0  502 -0.97237694193E+02  0.23251557945E+03 -0.16667353907E+03  0.30219335281E+03  0.46999998093E+01 0.  1.
</event>
<event>
 5   0  0.1448458E-01  0.4850123E+03  0.7818609E-02  0.1017767E+00
        1   -1    0    0  501    0  0.00000000000E+00  0.00000000000E+00  0.22437973119E+03  0.22437973125E+03  0.50400001928E-02 0. -1.
       -1   -1    0    0    0  501  0.00000000000E+00  0.00000000000E+00 -0.26209694092E+03  0.26209694097E+03  0.50400001928E-02 0.  1.
    10030    2    1    2    0    0  0.00000000000E+00  0.00000000000E+00 -0.37717209730E+02  0.48647667222E+03  0.48501233459E+03 0.  0.
        5    1    3    3  502    0  0.10763445824E+03  0.19778490594E+03  0.71318930458E+02  0.23624674698E+03  0.46999998093E+01 0.  1.
       -5    1    3    3    0  502 -0.10763445824E+03 -0.19778490594E+03 -0.10903614019E+03  0.25022992524E+03  0.46999998093E+01 0. -1.
</event>
<event>
 5   0  0.2466034E-01  0.4984214E+03  0.7818609E-02  0.1014192E+00
        2   -1    0    0  501    0  0.00000000000E+00  0.00000000000E+00  0.16308120973E+03  0.16308120975E+03  0.25500000920E-02 0. -1.
       -2   -1    0    0    0  501  0.00000000000E+00  0.00000000000E+00 -0.38082845641E+03  0.38082845642E+03  0.25500000920E-02 0.  1.
    10030    2    1    2    0    0  0.00000000000E+00  0.00000000000E+00 -0.21774724669E+03  0.54390966617E+03  0.49842136944E+03 0.  0.
        3    1    3    3  502    0 -0.10515674439E+03 -0.22578218132E+03 -0.11803120627E+03  0.27562095375E+03  0.10100000352E+00 0. -1.
       -3    1    3    3    0  502  0.10515674439E+03  0.22578218132E+03 -0.99716040419E+02  0.26828871242E+03  0.10100000352E+00 0.  1.
</event>
<event>
 5   0  0.1413361E-01  0.4743469E+03  0.7818609E-02  0.1020700E+00
        1   -1    0    0  501    0  0.00000000000E+00  0.00000000000E+00  0.12901185517E+04  0.12901185517E+04  0.50400001928E-02 0. -1.
       -1   -1    0    0    0  501  0.00000000000E+00  0.00000000000E+00 -0.43601613305E+02  0.43601613596E+02  0.50400001928E-02 0.  1.
    10030    2    1    2    0    0  0.00000000000E+00  0.00000000000E+00  0.12465169384E+04  0.13337201653E+04  0.47434692119E+03 0.  0.
        3    1    3    3  502    0 -0.18500880371E+03  0.13157661057E+03  0.81623555579E+03  0.84721966139E+03  0.10100000352E+00 0. -1.
       -3    1    3    3    0  502  0.18500880371E+03 -0.13157661057E+03  0.43028138262E+03  0.48650050394E+03  0.10100000352E+00 0.  1.
</event>
<event>
 5   0  0.1448458E-01  0.4924060E+03  0.7818609E-02  0.1015780E+00
        1   -1    0    0  501    0  0.00000000000E+00  0.00000000000E+00  0.21326994501E+03  0.21326994507E+03  0.50400001928E-02 0. -1.
       -1   -1    0    0    0  501  0.00000000000E+00  0.00000000000E+00 -0.28422161067E+03  0.28422161071E+03  0.50400001928E-02 0.  1.
    10030    2    1    2    0    0  0.00000000000E+00  0.00000000000E+00 -0.70951665657E+02  0.49749155579E+03  0.49240604100E+03 0.  0.
        5    1    3    3  502    0  0.12601560012E+03  0.11552006400E+02  0.17784565264E+03  0.21832211635E+03  0.46999998093E+01 0. -1.
       -5    1    3    3    0  502 -0.12601560012E+03 -0.11552006400E+02 -0.24879731830E+03  0.27916943944E+03  0.46999998093E+01 0.  1.
</event>
<event>
 5   0  0.2466034E-01  0.4884904E+03  0.7818609E-02  0.1016828E+00
       -2   -1    0    0    0  501  0.00000000000E+00  0.00000000000E+00  0.16615146462E+03  0.16615146464E+03  0.25500000920E-02 0. -1.
        2   -1    0    0  501    0  0.00000000000E+00  0.00000000000E+00 -0.35904411539E+03  0.35904411540E+03  0.25500000920E-02 0.  1.
    10030    2    1    2    0    0  0.00000000000E+00  0.00000000000E+00 -0.19289265077E+03  0.52519558004E+03  0.48849035054E+03 0.  0.
        3    1    3    3  502    0  0.14559808910E+03 -0.15838245136E+03 -0.22077218966E+03  0.30825991367E+03  0.10100000352E+00 0.  1.
       -3    1    3    3    0  502 -0.14559808910E+03  0.15838245136E+03  0.27879538890E+02  0.21693566636E+03  0.10100000352E+00 0. -1.
</event>
<event>
 5   0  0.9868500E-02  0.4988411E+03  0.7818609E-02  0.1014082E+00
        3   -1    0    0  501    0  0.00000000000E+00  0.00000000000E+00  0.14368274736E+03  0.14368278286E+03  0.10100000352E+00 0. -1.
       -3   -1    0    0    0  501  0.00000000000E+00  0.00000000000E+00 -0.43297189356E+03  0.43297190534E+03  0.10100000352E+00 0.  1.
    10030    2    1    2    0    0  0.00000000000E+00  0.00000000000E+00 -0.28928914620E+03  0.57665468820E+03  0.49884107621E+03 0.  0.
        3    1    3    3  502    0 -0.15838467490E+03  0.60983121530E+02  0.66638897366E+02  0.18233320926E+03  0.10100000352E+00 0. -1.
       -3    1    3    3    0  502  0.15838467490E+03 -0.60983121530E+02 -0.35592804357E+03  0.39432147894E+03  0.10100000352E+00 0.  1.
</event>
<event>
 5   0  0.2511944E-01  0.4928664E+03  0.7818609E-02  0.1015658E+00
        2   -1    0    0  501    0  0.00000000000E+00  0.00000000000E+00  0.38617492645E+03  0.38617492646E+03  0.25500000920E-02 0.  1.
       -2   -1    0    0    0  501  0.00000000000E+00  0.00000000000E+00 -0.15725857342E+03  0.15725857344E+03  0.25500000920E-02 0. -1.
    10030    2    1    2    0    0  0.00000000000E+00  0.00000000000E+00  0.22891635303E+03  0.54343349989E+03  0.49286638364E+03 0.  0.
        1    1    3    3  502    0  0.98000866454E+02 -0.12714919926E+03 -0.91695897892E+02  0.18487624621E+03  0.50400001928E-02 0. -1.
       -1    1    3    3    0  502 -0.98000866454E+02  0.12714919926E+03  0.32061225092E+03  0.35855725368E+03  0.50400001928E-02 0.  1.
</event>
<event>
 5   0  0.2413301E-01  0.4939894E+03  0.7818609E-02  0.1015360E+00
        2   -1    0    0  501    0  0.00000000000E+00  0.00000000000E+00  0.14820545922E+04  0.14820545922E+04  0.25500000920E-02 0.  1.
       -2   -1    0    0    0  501  0.00000000000E+00  0.00000000000E+00 -0.41163390222E+02  0.41163390301E+02  0.25500000920E-02 0. -1.
    10030    2    1    2    0    0  0.00000000000E+00  0.00000000000E+00  0.14408912020E+04  0.15232179825E+04  0.49398943945E+03 0.  0.
        4    1    3    3  502    0  0.99832848745E+02  0.22539583802E+03  0.67318673477E+03  0.71690436898E+03  0.12699999809E+01 0. -1.
       -4    1    3    3    0  502 -0.99832848745E+02 -0.22539583802E+03  0.76770446721E+03  0.80631361352E+03  0.12699999809E+01 0.  1.
</event>
<event>
 5   0  0.9868500E-02  0.5066380E+03  0.7818609E-02  0.1012061E+00
        3   -1    0    0  501    0  0.00000000000E+00  0.00000000000E+00  0.44755734060E+03  0.44755735199E+03  0.10100000352E+00 0.  1.
       -3   -1    0    0    0  501  0.00000000000E+00  0.00000000000E+00 -0.14337941225E+03  0.14337944782E+03  0.10100000352E+00 0. -1.
    10030    2    1    2    0    0  0.00000000000E+00  0.00000000000E+00  0.30417792835E+03  0.59093679982E+03  0.50663802590E+03 0.  0.
        3    1    3    3  502    0 -0.75691473221E+02 -0.12136879766E+03 -0.91769742606E+02  0.16994493232E+03  0.10100000352E+00 0. -1.
       -3    1    3    3    0  502  0.75691473221E+02  0.12136879766E+03  0.39594767095E+03  0.42099186749E+03  0.10100000352E+00 0.  1.
</event>
<event>
 5   0  0.1453602E-01  0.5057798E+03  0.7818609E-02  0.1012281E+00
        1   -1    0    0  501    0  0.00000000000E+00  0.00000000000E+00  0.63695782787E+03  0.63695782788E+03  0.50400001928E-02 0.  1.
       -1   -1    0    0    0  501  0.00000000000E+00  0.00000000000E+00 -0.10040427560E+03  0.10040427573E+03  0.50400001928E-02 0. -1.
    10030    2    1    2    0    0  0.00000000000E+00  0.00000000000E+00  0.53655355226E+03  0.73736210361E+03  0.50577975187E+03 0.  0.
        2    1    3    3  502    0 -0.36736602813E+01  0.62436106330E+02  0.62550456542E+03  0.62862367480E+03  0.25500000920E-02 0.  1.
       -2    1    3    3    0  502  0.36736602813E+01 -0.62436106330E+02 -0.88951013154E+02  0.10873842881E+03  0.25500000920E-02 0. -1.
</event>
<event>
 5   0  0.9868500E-02  0.5364207E+03  0.7818609E-02  0.1004687E+00
        3   -1    0    0  501    0  0.00000000000E+00  0.00000000000E+00  0.32778239522E+02  0.32778395128E+02  0.10100000352E+00 0. -1.
       -3   -1    0    0    0  501  0.00000000000E+00  0.00000000000E+00 -0.21946455385E+04  0.21946455408E+04  0.10100000352E+00 0.  1.
    10030    2    1    2    0    0  0.00000000000E+00  0.00000000000E+00 -0.21618672990E+04  0.22274239359E+04  0.53642070435E+03 0.  0.
        5    1    3    3  502    0  0.87184649075E+02 -0.48855639836E+02 -0.47610399222E+02  0.11080106809E+03  0.46999998093E+01 0. -1.
       -5    1    3    3    0  502 -0.87184649075E+02  0.48855639836E+02 -0.21142568997E+04  0.21166228678E+04  0.46999998093E+01 0.  1.
</event>
<event>
 5   0  0.9868500E-02  0.5079692E+03  0.7818609E-02  0.1011720E+00
        4   -1    0    0  501    0  0.00000000000E+00  0.00000000000E+00  0.25127181643E+03  0.25127502588E+03  0.12699999809E+01 0. -1.
       -4   -1    0    0    0  501  0.00000000000E+00  0.00000000000E+00 -0.25672024617E+03  0.25672338751E+03  0.12699999809E+01 0.  1.
    10030    2    1    2    0    0  0.00000000000E+00  0.00000000000E+00 -0.54484297442E+01  0.50799841339E+03  0.50796919455E+03 0.  0.
        2    1    3    3  502    0  0.19068974123E+03  0.16343806562E+03 -0.40589263014E+02  0.25440532027E+03  0.25500000920E-02 0.  1.
       -2    1    3    3    0  502 -0.19068974123E+03 -0.16343806562E+03  0.35140833270E+02  0.25359309311E+03  0.25500000920E-02 0. -1.
</event>
<event>
 5   0  0.1439814E-01  0.4925057E+03  0.7818609E-02  0.1015754E+00
        1   -1    0    0  501    0  0.00000000000E+00  0.00000000000E+00  0.59722499923E+03  0.59722499925E+03  0.50400001928E-02 0.  1.
       -1   -1    0    0    0  501  0.00000000000E+00  0.00000000000E+00 -0.10153704583E+03  0.10153704595E+03  0.50400001928E-02 0. -1.
    10030    2    1    2    0    0  0.00000000000E+00  0.00000000000E+00  0.49568795341E+03  0.69876204521E+03  0.49250568390E+03 0.  0.
        4    1    3    3  502    0  0.10846350524E+03 -0.16031421272E+03  0.46382587214E+03  0.50259430094E+03  0.12699999809E+01 0.  1.
       -4    1    3    3    0  502 -0.10846350524E+03  0.16031421272E+03  0.31862081265E+02  0.19616774427E+03  0.12699999809E+01 0. -1.
</event>
<event>
 5   0  0.2511944E-01  0.5034501E+03  0.7818609E-02  0.1012882E+00
        2   -1    0    0  501    0  0.00000000000E+00  0.00000000000E+00  0.27539641430E+03  0.27539641432E+03  0.25500000920E-02 0.  1.
       -2   -1    0    0    0  501  0.00000000000E+00  0.00000000000E+00 -0.23008828898E+03  0.23008828899E+03  0.25500000920E-02 0. -1.
    10030    2    1    2    0    0  0.00000000000E+00  0.00000000000E+00  0.45308125326E+02  0.50548470331E+03  0.50345005617E+03 0.  0.
        1    1    3    3  502    0 -0.15929622790E+03 -0.42233791888E+01  0.21830658227E+03  0.27027927972E+03  0.50400001928E-02 0.  1.
       -1    1    3    3    0  502  0.15929622790E+03  0.42233791888E+01 -0.17299845695E+03  0.23520542359E+03  0.50400001928E-02 0. -1.
</event>
<event>
 5   0  0.9868500E-02  0.4912841E+03  0.7818609E-02  0.1016079E+00
        4   -1    0    0  501    0  0.00000000000E+00  0.00000000000E+00  0.13065827645E+03  0.13066444851E+03  0.12699999809E+01 0. -1.
       -4   -1    0    0    0  501  0.00000000000E+00  0.00000000000E+00 -0.46179748386E+03  0.46179923019E+03  0.12699999809E+01 0.  1.
    10030    2    1    2    0    0  0.00000000000E+00  0.00000000000E+00 -0.33113920742E+03  0.59246367870E+03  0.49128406842E+03 0.  0.
        2    1    3    3  502    0  0.14131695716E+03  0.17922854056E+03 -0.56056014866E+02  0.23502261368E+03  0.25500000920E-02 0. -1.
       -2    1    3    3    0  502 -0.14131695716E+03 -0.17922854056E+03 -0.27508319255E+03  0.35744106502E+03  0.25500000920E-02 0.  1.
</event>
<event>
 5   0  0.2488968E-01  0.4879359E+03  0.7818609E-02  0.1016977E+00
        2   -1    0    0  501    0  0.00000000000E+00  0.00000000000E+00  0.32541666717E+03  0.32541666718E+03  0.25500000920E-02 0.  1.
       -2   -1    0    0    0  501  0.00000000000E+00  0.00000000000E+00 -0.18290507607E+03  0.18290507609E+03  0.25500000920E-02 0. -1.
    10030    2    1    2    0    0  0.00000000000E+00  0.00000000000E+00  0.14251159110E+03  0.50832174327E+03  0.48793589854E+03 0.  0.
        2    1    3    3  502    0  0.57506638291E+02 -0.19951080852E+03  0.20470442444E+03  0.29157413732E+03  0.25500000920E-02 0.  1.
       -2    1    3    3    0  502 -0.57506638291E+02  0.19951080852E+03 -0.62192833336E+02  0.21674760596E+03  0.25500000920E-02 0. -1.
</event>
<event>
 5   0  0.1529146E-01  0.5013363E+03  0.7818609E-02  0.1013431E+00
        1   -1    0    0  501    0  0.00000000000E+00  0.00000000000E+00  0.99478337649E+03  0.99478337650E+03  0.50400001928E-02 0.  1.
       -1   -1    0    0    0  501  0.00000000000E+00  0.00000000000E+00 -0.63164026584E+02  0.63164026785E+02  0.50400001928E-02 0. -1.
    10030    2    1    2    0    0  0.00000000000E+00  0.00000000000E+00  0.93161934990E+03  0.10579474033E+04  0.50133630928E+03 0.  0.
        1    1    3    3  502    0  0.12956294253E+02 -0.61844200666E+02 -0.46082460020E+02  0.78205906833E+02  0.50400001928E-02 0. -1.
       -1    1    3    3    0  502 -0.12956294253E+02  0.61844200666E+02  0.97770180992E+03  0.97974149645E+03  0.50400001928E-02 0.  1.
</event>
<event>
 5   0  0.1439814E-01  0.4891530E+03  0.7818609E-02  0.1016650E+00
        1   -1    0    0  501    0  0.00000000000E+00  0.00000000000E+00  0.60231045799E+03  0.60231045801E+03  0.50400001928E-02 0. -1.
       -1   -1    0    0    0  501  0.00000000000E+00  0.00000000000E+00 -0.99313681913E+02  0.99313682041E+02  0.50400001928E-02 0.  1.
    10030    2    1    2    0    0  0.00000000000E+00  0.00000000000E+00  0.50299677608E+03  0.70162414005E+03  0.48915302019E+03 0.  0.
        4    1    3    3  502    0 -0.94497236795E+02  0.94623488302E+02  0.54522028330E+03  0.56138231404E+03  0.12699999809E+01 0. -1.
       -4    1    3    3    0  502  0.94497236795E+02 -0.94623488302E+02 -0.42223507221E+02  0.14024182601E+03  0.12699999809E+01 0.  1.
</event>
<event>
 5   0  0.2488968E-01  0.4879257E+03  0.7818609E-02  0.1016979E+00
       -2   -1    0    0    0  501  0.00000000000E+00  0.00000000000E+00  0.48068090233E+02  0.48068090301E+02  0.25500000920E-02 0.  1.
        2   -1    0    0  501    0  0.00000000000E+00  0.00000000000E+00 -0.12381994213E+04  0.12381994213E+04  0.25500000920E-02 0. -1.
    10030    2    1    2    0    0  0.00000000000E+00  0.00000000000E+00 -0.11901313311E+04  0.12862675116E+04  0.48792573844E+03 0.  0.
        2    1    3    3  502    0  0.20006659140E+03 -0.68136088218E+02 -0.27383130418E+03  0.34590858715E+03  0.25500000920E-02 0.  1.
       -2    1    3    3    0  502 -0.20006659140E+03  0.68136088218E+02 -0.91630002693E+03  0.94035892449E+03  0.25500000920E-02 0. -1.
</event>
<event>
 5   0  0.2504064E-01  0.4984802E+03  0.7818609E-02  0.1014176E+00
       -2   -1    0    0    0  501  0.00000000000E+00  0.00000000000E+00  0.86713172235E+02  0.86713172272E+02  0.25500000920E-02 0. -1.
        2   -1    0    0  501    0  0.00000000000E+00  0.00000000000E+00 -0.71639213129E+03  0.71639213129E+03  0.25500000920E-02 0.  1.
    10030    2    1    2    0    0  0.00000000000E+00  0.00000000000E+00 -0.62967895905E+03  0.80310530357E+03  0.49848022743E+03 0.  0.
        5    1    3    3  502    0 -0.22629835646E+03 -0.10430211762E+03 -0.31009657772E+03  0.39783395455E+03  0.46999998093E+01 0. -1.
       -5    1    3    3    0  502  0.22629835646E+03  0.10430211762E+03 -0.31958238133E+03  0.40527134902E+03  0.46999998093E+01 0.  1.
</event>
<event>
 5   0  0.1439814E-01  0.5030620E+03  0.7818609E-02  0.1012983E+00
        1   -1    0    0  501    0  0.00000000000E+00  0.00000000000E+00  0.16543698264E+04  0.16543698264E+04  0.50400001928E-02 0. -1.
       -1   -1    0    0    0  501  0.00000000000E+00  0.00000000000E+00 -0.38242870803E+02  0.38242871135E+02  0.50400001928E-02 0.  1.
    10030    2    1    2    0    0  0.00000000000E+00  0.00000000000E+00  0.16161269556E+04  0.16926126975E+04  0.50306203124E+03 0.  0.
        4    1    3    3  502    0  0.76137850145E+02  0.21067155307E+03  0.42315969424E+03  0.47879558814E+03  0.12699999809E+01 0.  1.
       -4    1    3    3    0  502 -0.76137850145E+02 -0.21067155307E+03  0.11929672614E+04  0.12138171094E+04  0.12699999809E+01 0. -1.
</event>
<event>
 5   0  0.1453602E-01  0.5047978E+03  0.7818609E-02  0.1012534E+00
        1   -1    0    0  501    0  0.00000000000E+00  0.00000000000E+00  0.51018079348E+03  0.51018079350E+03  0.50400001928E-02 0.  1.
       -1   -1    0    0    0  501  0.00000000000E+00  0.00000000000E+00 -0.12486788792E+03  0.12486788802E+03  0.50400001928E-02 0. -1.
    10030    2    1    2    0    0  0.00000000000E+00  0.00000000000E+00  0.38531290556E+03  0.63504868152E+03  0.50479777408E+03 0.  0.
        2    1    3    3  502    0  0.21797573894E+02  0.23047900432E+03  0.66167014219E+02  0.24077744795E+03  0.25500000920E-02 0. -1.
       -2    1    3    3    0  502 -0.21797573894E+02 -0.23047900432E+03  0.31914589134E+03  0.39427123358E+03  0.25500000920E-02 0.  1.
</event>
<event>
 5   0  0.9868500E-02  0.3930203E+03  0.7818609E-02  0.1046224E+00
        3   -1    0    0  501    0  0.00000000000E+00  0.00000000000E+00  0.84632857840E+02  0.84632918107E+02  0.10100000352E+00 0.  1.
       -3   -1    0    0    0  501  0.00000000000E+00  0.00000000000E+00 -0.45627931582E+03  0.45627932700E+03  0.10100000352E+00 0. -1.
    10030    2    1    2    0    0  0.00000000000E+00  0.00000000000E+00 -0.37164645798E+03  0.54091224510E+03  0.39302031395E+03 0.  0.
        4    1    3    3  502    0  0.96409549395E+02  0.33261643242E+02  0.45351430458E+02  0.11162214507E+03  0.12699999809E+01 0.  1.
       -4    1    3    3    0  502 -0.96409549395E+02 -0.33261643242E+02 -0.41699788844E+03  0.42929010003E+03  0.12699999809E+01 0. -1.
</event>
<event>
 5   0  0.2413301E-01  0.5036946E+03  0.7818609E-02  0.1012819E+00
        2   -1    0    0  501    0  0.00000000000E+00  0.00000000000E+00  0.11139524305E+04  0.11139524305E+04  0.25500000920E-02 0. -1.
       -2   -1    0    0    0  501  0.00000000000E+00  0.00000000000E+00 -0.56938744337E+02  0.56938744394E+02  0.25500000920E-02 0.  1.
    10030    2    1    2    0    0  0.00000000000E+00  0.00000000000E+00  0.10570136861E+04  0.11708911749E+04  0.50369456093E+03 0.  0.
        4    1    3    3  502    0  0.18244855464E+03 -0.10290171522E+02  0.12565815256E+03  0.22177679528E+03  0.12699999809E+01 0.  1.
       -4    1    3    3    0  502 -0.18244855464E+03  0.10290171522E+02  0.93135553359E+03  0.94911437960E+03  0.12699999809E+01 0. -1.
</event>
<event>
 5   0  0.1448458E-01  0.5058365E+03  0.7818609E-02  0.1012267E+00
        1   -1    0    0  501    0  0.00000000000E+00  0.00000000000E+00  0.60151362155E+03  0.60151362157E+03  0.50400001928E-02 0. -1.
       -1   -1    0    0    0  501  0.00000000000E+00  0.00000000000E+00 -0.10634445151E+03  0.10634445162E+03  0.50400001928E-02 0.  1.
    10030    2    1    2    0    0  0.00000000000E+00  0.00000000000E+00  0.49516917004E+03  0.70785807320E+03  0.50583648032E+03 0.  0.
        5    1    3    3  502    0 -0.17930661530E+03  0.11443520777E+03  0.56225830489E+02  0.22006751937E+03  0.46999998093E+01 0. -1.
       -5    1    3    3    0  502  0.17930661530E+03 -0.11443520777E+03  0.43894333956E+03  0.48779055383E+03  0.46999998093E+01 0.  1.
</event>
<event>
 5   0  0.2413301E-01  0.4972113E+03  0.7818609E-02  0.1014509E+00
       -2   -1    0    0    0  501  0.00000000000E+00  0.00000000000E+00  0.66893491605E+02  0.66893491654E+02  0.25500000920E-02 0. -1.
        2   -1    0    0  501    0  0.00000000000E+00  0.00000000000E+00 -0.92392813580E+03  0.92392813581E+03  0.25500000920E-02 0.  1.
    10030    2    1    2    0    0  0.00000000000E+00  0.00000000000E+00 -0.85703464420E+03  0.99082162746E+03  0.49721133946E+03 0.  0.
        4    1    3    3  502    0  0.30571742319E+02  0.23629782779E+03 -0.56987493880E+03  0.61768143376E+03  0.12699999809E+01 0. -1.
       -4    1    3    3    0  502 -0.30571742319E+02 -0.23629782779E+03 -0.28715970540E+03  0.37314019370E+03  0.12699999809E+01 0.  1.
</event>
<event>
 5   0  0.2413301E-01  0.4926386E+03  0.7818609E-02  0.1015718E+00
        2   -1    0    0  501    0  0.00000000000E+00  0.00000000000E+00  0.78622764102E+03  0.78622764102E+03  0.25500000920E-02 0.  1.
       -2   -1    0    0    0  501  0.00000000000E+00  0.00000000000E+00 -0.77170000273E+02  0.77170000315E+02  0.25500000920E-02 0. -1.
    10030    2    1    2    0    0  0.00000000000E+00  0.00000000000E+00  0.70905764075E+03  0.86339764134E+03  0.49263855834E+03 0.  0.
        4    1    3    3  502    0  0.40736097503E+02  0.68197384318E+02 -0.54098331403E+02  0.96117403358E+02  0.12699999809E+01 0. -1.
       -4    1    3    3    0  502 -0.40736097503E+02 -0.68197384318E+02  0.76315597215E+03  0.76728023798E+03  0.12699999809E+01 0.  1.
</event>
<event>
 5   0  0.2504064E-01  0.4948870E+03  0.7818609E-02  0.1015122E+00
       -2   -1    0    0    0  501  0.00000000000E+00  0.00000000000E+00  0.91292741554E+02  0.91292741590E+02  0.25500000920E-02 0. -1.
        2   -1    0    0  501    0  0.00000000000E+00  0.00000000000E+00 -0.67068075603E+03  0.67068075604E+03  0.25500000920E-02 0.  1.
    10030    2    1    2    0    0  0.00000000000E+00  0.00000000000E+00 -0.57938801448E+03  0.76197349763E+03  0.49488699696E+03 0.  0.
        5    1    3    3  502    0 -0.20623224095E+03 -0.50913076102E+02 -0.94436327345E+02  0.23251707130E+03  0.46999998093E+01 0.  1.
       -5    1    3    3    0  502  0.20623224095E+03  0.50913076102E+02 -0.48495168714E+03  0.52945642633E+03  0.46999998093E+01 0. -1.
</event>
<event>
 5   0  0.1453602E-01  0.5009710E+03  0.7818609E-02  0.1013526E+00
       -1   -1    0    0    0  501  0.00000000000E+00  0.00000000000E+00  0.68672341366E+03  0.68672341368E+03  0.50400001928E-02 0. -1.
        1   -1    0    0  501    0  0.00000000000E+00  0.00000000000E+00 -0.91365733103E+02  0.91365733242E+02  0.50400001928E-02 0.  1.
    10030    2    1    2    0    0  0.00000000000E+00  0.00000000000E+00  0.59535768055E+03  0.77808914692E+03  0.50097100990E+03 0.  0.
        2    1    3    3  502    0  0.51066801012E+02  0.15339145869E+03  0.51615970559E+00  0.16166949060E+03  0.25500000920E-02 0.  1.
       -2    1    3    3    0  502 -0.51066801012E+02 -0.15339145869E+03  0.59484152085E+03  0.61641965632E+03  0.25500000920E-02 0. -1.
</event>
<event>
 5   0  0.1439814E-01  0.3235172E+03  0.7818609E-02  0.1074042E+00
       -1   -1    0    0    0  501  0.00000000000E+00  0.00000000000E+00  0.28352431662E+02  0.28352432110E+02  0.50400001928E-02 0. -1.
        1   -1    0    0  501    0  0.00000000000E+00  0.00000000000E+00 -0.92287849839E+03  0.92287849841E+03  0.50400001928E-02 0.  1.
    10030    2    1    2    0    0  0.00000000000E+00  0.00000000000E+00 -0.89452606673E+03  0.95123093052E+03  0.32351723155E+03 0.  0.
        4    1    3    3  502    0 -0.37766049877E+02  0.15155127885E+03 -0.57097061244E+03  0.59194857701E+03  0.12699999809E+01 0. -1.
       -4    1    3    3    0  502  0.37766049877E+02 -0.15155127885E+03 -0.32355545429E+03  0.35928235351E+03  0.12699999809E+01 0.  1.
</event>
<event>
 5   0  0.1448458E-01  0.4996890E+03  0.7818609E-02  0.1013860E+00
       -1   -1    0    0    0  501  0.00000000000E+00  0.00000000000E+00  0.19449621002E+03  0.19449621009E+03  0.50400001928E-02 0. -1.
        1   -1    0    0  501    0  0.00000000000E+00  0.00000000000E+00 -0.32094338444E+03  0.32094338448E+03  0.50400001928E-02 0.  1.
    10030    2    1    2    0    0  0.00000000000E+00  0.00000000000E+00 -0.12644717441E+03  0.51543959457E+03  0.49968899100E+03 0.  0.
        5    1    3    3  502    0  0.24426241841E+03 -0.49134788738E+02 -0.81728548065E+02  0.26225941752E+03  0.46999998093E+01 0. -1.
       -5    1    3    3    0  502 -0.24426241841E+03  0.49134788738E+02 -0.44718626348E+02  0.25318017705E+03  0.46999998093E+01 0.  1.
</event>
<event>
 5   0  0.2511944E-01  0.4992133E+03  0.7818609E-02  0.1013984E+00
       -2   -1    0    0    0  501  0.00000000000E+00  0.00000000000E+00  0.16263532121E+03  0.16263532123E+03  0.25500000920E-02 0. -1.
        2   -1    0    0  501    0  0.00000000000E+00  0.00000000000E+00 -0.38308700940E+03  0.38308700941E+03  0.25500000920E-02 0.  1.
    10030    2    1    2    0    0  0.00000000000E+00  0.00000000000E+00 -0.22045168818E+03  0.54572233064E+03  0.49921329643E+03 0.  0.
        1    1    3    3  502    0  0.13015952880E+03 -0.14997344017E+03  0.55091387236E+02  0.20607910293E+03  0.50400001928E-02 0. -1.
       -1    1    3    3    0  502 -0.13015952880E+03  0.14997344017E+03 -0.27554307542E+03  0.33964322771E+03  0.50400001928E-02 0.  1.
</event>
<event>
 5   0  0.9868500E-02  0.5024139E+03  0.7818609E-02  0.1013151E+00
        4   -1    0    0  501    0  0.00000000000E+00  0.00000000000E+00  0.13754982045E+03  0.13755568329E+03  0.12699999809E+01 0.  1.
       -4   -1    0    0    0  501  0.00000000000E+00  0.00000000000E+00 -0.45876227790E+03  0.45876403578E+03  0.12699999809E+01 0. -1.
    10030    2    1    2    0    0  0.00000000000E+00  0.00000000000E+00 -0.32121245746E+03  0.59631971907E+03  0.50241393744E+03 0.  0.
        2    1    3    3  502    0  0.98827859147E+02 -0.22927440395E+03 -0.19356819653E+03  0.31591509107E+03  0.25500000920E-02 0. -1.
       -2    1    3    3    0  502 -0.98827859147E+02  0.22927440395E+03 -0.12764426093E+03  0.28040462800E+03  0.25500000920E-02 0.  1.
</event>
<event>
 5   0  0.2413301E-01  0.5478847E+03  0.7818609E-02  0.1001985E+00
       -2   -1    0    0    0  501  0.00000000000E+00  0.00000000000E+00  0.50569620670E+03  0.50569620671E+03  0.25500000920E-02 0.  1.
        2   -1    0    0  501    0  0.00000000000E+00  0.00000000000E+00 -0.14839819217E+03  0.14839819220E+03  0.25500000920E-02 0. -1.
    10030    2    1    2    0    0  0.00000000000E+00  0.00000000000E+00  0.35729801453E+03  0.65409439891E+03  0.54788466988E+03 0.  0.
        4    1    3    3  502    0  0.11488554781E+03 -0.18910347019E+03  0.37146284450E+03  0.43237144826E+03  0.12699999809E+01 0.  1.
       -4    1    3    3    0  502 -0.11488554781E+03  0.18910347019E+03 -0.14164829967E+02  0.22172295064E+03  0.12699999809E+01 0. -1.
</event>
<event>
 5   0  0.1448458E-01  0.5042889E+03  0.7818609E-02  0.1012665E+00
        1   -1    0    0  501    0  0.00000000000E+00  0.00000000000E+00  0.83000815968E+02  0.83000816121E+02  0.50400001928E-02 0. -1.
       -1   -1    0    0    0  501  0.00000000000E+00  0.00000000000E+00 -0.76597829280E+03  0.76597829282E+03  0.50400001928E-02 0.  1.
    10030    2    1    2    0    0  0.00000000000E+00  0.00000000000E+00 -0.68297747683E+03  0.84897910894E+03  0.50428889890E+03 0.  0.
        5    1    3    3  502    0  0.15360855455E+03  0.12637984771E+03 -0.60222899763E+03  0.63424704140E+03  0.46999998093E+01 0.  1.
       -5    1    3    3    0  502 -0.15360855455E+03 -0.12637984771E+03 -0.80748479205E+02  0.21473206754E+03  0.46999998093E+01 0. -1.
</event>
<event>
 5   0  0.1529146E-01  0.4963304E+03  0.7818609E-02  0.1014741E+00
        1   -1    0    0  501    0  0.00000000000E+00  0.00000000000E+00  0.17569316994E+03  0.17569317001E+03  0.50400001928E-02 0. -1.
       -1   -1    0    0    0  501  0.00000000000E+00  0.00000000000E+00 -0.35053142910E+03  0.35053142913E+03  0.50400001928E-02 0.  1.
    10030    2    1    2    0    0  0.00000000000E+00  0.00000000000E+00 -0.17483825916E+03  0.52622459915E+03  0.49633044626E+03 0.  0.
        1    1    3    3  502    0 -0.15762196200E+03 -0.13349807094E+03  0.58413849033E+02  0.21465925472E+03  0.50400001928E-02 0. -1.
       -1    1    3    3    0  502  0.15762196200E+03  0.13349807094E+03 -0.23325210819E+03  0.31156534443E+03  0.50400001928E-02 0.  1.
</event>
<event>
 5   0  0.9868500E-02  0.4965341E+03  0.7818609E-02  0.1014688E+00
        4   -1    0    0  501    0  0.00000000000E+00  0.00000000000E+00  0.29556355139E+03  0.29556627989E+03  0.12699999809E+01 0. -1.
       -4   -1    0    0    0  501  0.00000000000E+00  0.00000000000E+00 -0.20853340281E+03  0.20853727002E+03  0.12699999809E+01 0.  1.
    10030    2    1    2    0    0  0.00000000000E+00  0.00000000000E+00  0.87030148580E+02  0.50410354991E+03  0.49653413001E+03 0.  0.
        3    1    3    3  502    0 -0.13525990261E+03 -0.19029845463E+03  0.12922830458E+03  0.26684959808E+03  0.10100000352E+00 0. -1.
       -3    1    3    3    0  502  0.13525990261E+03  0.19029845463E+03 -0.42198156001E+02  0.23725395183E+03  0.10100000352E+00 0.  1.
</event>
<event>
 5   0  0.9868500E-02  0.4914287E+03  0.7818609E-02  0.1016041E+00
       -3   -1    0    0    0  501  0.00000000000E+00  0.00000000000E+00  0.11361829980E+03  0.11361834469E+03  0.10100000352E+00 0. -1.
        3   -1    0    0  501    0  0.00000000000E+00  0.00000000000E+00 -0.53138914796E+03  0.53138915756E+03  0.10100000352E+00 0.  1.
    10030    2    1    2    0    0  0.00000000000E+00  0.00000000000E+00 -0.41777084816E+03  0.64500750225E+03  0.49142872971E+03 0.  0.
        5    1    3    3  502    0 -0.22398741595E+03 -0.10656448301E+02 -0.34059245763E+03  0.40781029240E+03  0.46999998093E+01 0.  1.
       -5    1    3    3    0  502  0.22398741595E+03  0.10656448301E+02 -0.77178390528E+02  0.23719720985E+03  0.46999998093E+01 0. -1.
</event>
<event>
 5   0  0.1453602E-01  0.4824661E+03  0.7818609E-02  0.1018460E+00
       -1   -1    0    0    0  501  0.00000000000E+00  0.00000000000E+00  0.28684652901E+03  0.28684652906E+03  0.50400001928E-02 0. -1.
        1   -1    0    0  501    0  0.00000000000E+00  0.00000000000E+00 -0.20287287094E+03  0.20287287100E+03  0.50400001928E-02 0.  1.
    10030    2    1    2    0    0  0.00000000000E+00  0.00000000000E+00  0.83973658074E+02  0.48971940006E+03  0.48246607709E+03 0.  0.
        2    1    3    3  502    0 -0.11180821901E+03 -0.14152757859E+03 -0.12061590885E+03  0.21697771963E+03  0.25500000920E-02 0.  1.
       -2    1    3    3    0  502  0.11180821901E+03  0.14152757859E+03  0.20458956693E+03  0.27274168043E+03  0.25500000920E-02 0. -1.
</event>
<event>
 5   0  0.1413361E-01  0.5024251E+03  0.7818609E-02  0.1013148E+00
       -1   -1    0    0    0  501  0.00000000000E+00  0.00000000000E+00  0.50549652889E+03  0.50549652892E+03  0.50400001928E-02 0.  1.
        1   -1    0    0  501    0  0.00000000000E+00  0.00000000000E+00 -0.12484308077E+03  0.12484308087E+03  0.50400001928E-02 0. -1.
    10030    2    1    2    0    0  0.00000000000E+00  0.00000000000E+00  0.38065344812E+03  0.63033960978E+03  0.50242509501E+03 0.  0.
        3    1    3    3  502    0  0.42019280139E+02  0.15628210221E+02  0.50043711665E+03  0.50244121923E+03  0.10100000352E+00 0.  1.
       -3    1    3    3    0  502 -0.42019280139E+02 -0.15628210221E+02 -0.11978366853E+03  0.12789839055E+03  0.10100000352E+00 0. -1.
</event>
<event>
 5   0  0.2511944E-01  0.4992815E+03  0.7818609E-02  0.1013967E+00
       -2   -1    0    0    0  501  0.00000000000E+00  0.00000000000E+00  0.39084245216E+02  0.39084245299E+02  0.25500000920E-02 0. -1.
        2   -1    0    0  501    0  0.00000000000E+00  0.00000000000E+00 -0.15945169536E+04  0.15945169536E+04  0.25500000920E-02 0.  1.
    10030    2    1    2    0    0  0.00000000000E+00  0.00000000000E+00 -0.15554327084E+04  0.16336011989E+04  0.49928145043E+03 0.  0.
        1    1    3    3  502    0 -0.99779088336E+02  0.20263997356E+03 -0.11255502110E+04  0.11479904629E+04  0.50400001928E-02 0.  1.
       -1    1    3    3    0  502  0.99779088336E+02 -0.20263997356E+03 -0.42988249737E+03  0.48561073601E+03  0.50400001928E-02 0. -1.
</event>
<event>
 5   0  0.1453602E-01  0.4271618E+03  0.7818609E-02  0.1034760E+00
        1   -1    0    0  501    0  0.00000000000E+00  0.00000000000E+00  0.37539714444E+03  0.37539714447E+03  0.50400001928E-02 0. -1.
       -1   -1    0    0    0  501  0.00000000000E+00  0.00000000000E+00 -0.12151613569E+03  0.12151613579E+03  0.50400001928E-02 0.  1.
    10030    2    1    2    0    0  0.00000000000E+00  0.00000000000E+00  0.25388100875E+03  0.49691328027E+03  0.42716184462E+03 0.  0.
        2    1    3    3  502    0  0.17389182336E+03 -0.93191490519E+02  0.22211579237E+03  0.29708322969E+03  0.25500000920E-02 0. -1.
       -2    1    3    3    0  502 -0.17389182336E+03  0.93191490519E+02  0.31765216383E+02  0.19983005058E+03  0.25500000920E-02 0.  1.
</event>
<event>
 5   0  0.1439814E-01  0.4926027E+03  0.7818609E-02  0.1015728E+00
       -1   -1    0    0    0  501  0.00000000000E+00  0.00000000000E+00  0.81024720768E+02  0.81024720925E+02  0.50400001928E-02 0. -1.
        1   -1    0    0  501    0  0.00000000000E+00  0.00000000000E+00 -0.74871406710E+03  0.74871406711E+03  0.50400001928E-02 0.  1.
    10030    2    1    2    0    0  0.00000000000E+00  0.00000000000E+00 -0.66768934633E+03  0.82973878804E+03  0.49260267272E+03 0.  0.
        4    1    3    3  502    0  0.32275821238E+02  0.15670523966E+03 -0.18432611712E+02  0.16105786180E+03  0.12699999809E+01 0. -1.
       -4    1    3    3    0  502 -0.32275821238E+02 -0.15670523966E+03 -0.64925673462E+03  0.66868092624E+03  0.12699999809E+01 0.  1.
</event>
<event>
 5   0  0.2413301E-01  0.4972603E+03  0.7818609E-02  0.1014497E+00
       -2   -1    0    0    0  501  0.00000000000E+00  0.00000000000E+00  0.29032824450E+03  0.29032824451E+03  0.25500000920E-02 0. -1.
        2   -1    0    0  501    0  0.00000000000E+00  0.00000000000E+00 -0.21292087032E+03  0.21292087033E+03  0.25500000920E-02 0.  1.
    10030    2    1    2    0    0  0.00000000000E+00  0.00000000000E+00  0.77407374186E+02  0.50324911485E+03  0.49726026386E+03 0.  0.
        4    1    3    3  502    0  0.87184762939E+02  0.23196239625E+02 -0.19576759822E+03  0.21555930468E+03  0.12699999809E+01 0.  1.
       -4    1    3    3    0  502 -0.87184762939E+02 -0.23196239625E+02  0.27317497241E+03  0.28768981016E+03  0.12699999809E+01 0. -1.
</event>
<event>
 5   0  0.1448458E-01  0.4964327E+03  0.7818609E-02  0.1014714E+00
       -1   -1    0    0    0  501  0.00000000000E+00  0.00000000000E+00  0.17159001543E+03  0.17159001551E+03  0.50400001928E-02 0.  1.
        1   -1    0    0  501    0  0.00000000000E+00  0.00000000000E+00 -0.35906139966E+03  0.35906139969E+03  0.50400001928E-02 0. -1.
    10030    2    1    2    0    0  0.00000000000E+00  0.00000000000E+00 -0.18747138423E+03  0.53065141520E+03  0.49643267877E+03 0.  0.
        5    1    3    3  502    0  0.15658838620E+03 -0.14212131117E+03 -0.23257668846E+03  0.31437620106E+03  0.46999998093E+01 0. -1.
       -5    1    3    3    0  502 -0.15658838620E+03  0.14212131117E+03  0.45105304237E+02  0.21627521414E+03  0.46999998093E+01 0.  1.
</event>
<event>
 5   0  0.1448458E-01  0.5077572E+03  0.7818609E-02  0.1011774E+00
       -1   -1    0    0    0  501  0.00000000000E+00  0.00000000000E+00  0.77560776102E+03  0.77560776103E+03  0.50400001928E-02 0. -1.
        1   -1    0    0  501    0  0.00000000000E+00  0.00000000000E+00 -0.83101734095E+02  0.83101734247E+02  0.50400001928E-02 0.  1.
    10030    2    1    2    0    0  0.00000000000E+00  0.00000000000E+00  0.69250602692E+03  0.85870949528E+03  0.50775722542E+03 0.  0.
        5    1    3    3  502    0 -0.21790736601E+03 -0.11391715602E+03  0.45283126868E+03  0.51530475109E+03  0.46999998093E+01 0. -1.
       -5    1    3    3    0  502  0.21790736601E+03  0.11391715602E+03  0.23967475824E+03  0.34340474419E+03  0.46999998093E+01 0.  1.
</event>
<event>
 5   0  0.9868500E-02  0.4937459E+03  0.7818609E-02  0.1015424E+00
        3   -1    0    0  501    0  0.00000000000E+00  0.00000000000E+00  0.15526255832E+04  0.15526255865E+04  0.10100000352E+00 0.  1.
       -3   -1    0    0    0  501  0.00000000000E+00  0.00000000000E+00 -0.39253601824E+02  0.39253731761E+02  0.10100000352E+00 0. -1.
    10030    2    1    2    0    0  0.00000000000E+00  0.00000000000E+00  0.15133719814E+04  0.15918793183E+04  0.49374589603E+03 0.  0.
        4    1    3    3  502    0 -0.18830591960E+03  0.22340902933E+02  0.24705183973E+03  0.31143933553E+03  0.12699999809E+01 0. -1.
       -4    1    3    3    0  502  0.18830591960E+03 -0.22340902933E+02  0.12663201417E+04  0.12804399828E+04  0.12699999809E+01 0.  1.
</event>
<event>
 5   0  0.1453602E-01  0.5459002E+03  0.7818609E-02  0.1002447E+00
       -1   -1    0    0    0  501  0.00000000000E+00  0.00000000000E+00  0.56647352490E+03  0.56647352492E+03  0.50400001928E-02 0.  1.
        1   -1    0    0  501    0  0.00000000000E+00  0.00000000000E+00 -0.13151853183E+03  0.13151853193E+03  0.50400001928E-02 0. -1.
    10030    2    1    2    0    0  0.00000000000E+00  0.00000000000E+00  0.43495499307E+03  0.69799205685E+03  0.54590023395E+03 0.  0.
        2    1    3    3  502    0 -0.33474360954E+01  0.62074832134E+02 -0.12234660101E+03  0.13723403695E+03  0.25500000920E-02 0. -1.
       -2    1    3    3    0  502  0.33474360954E+01 -0.62074832134E+02  0.55730159408E+03  0.56075801990E+03  0.25500000920E-02 0.  1.
</event>
<event>
 5   0  0.2511944E-01  0.4967151E+03  0.7818609E-02  0.1014640E+00
       -2   -1    0    0    0  501  0.00000000000E+00  0.00000000000E+00  0.51923823485E+02  0.51923823547E+02  0.25500000920E-02 0. -1.
        2   -1    0    0  501    0  0.00000000000E+00  0.00000000000E+00 -0.11879222023E+04  0.11879222023E+04  0.25500000920E-02 0.  1.
    10030    2    1    2    0    0  0.00000000000E+00  0.00000000000E+00 -0.11359983788E+04  0.12398460258E+04  0.49671506032E+03 0.  0.
        1    1    3    3  502    0 -0.66058920643E+02  0.62003726953E+01 -0.11653906895E+04  0.11672778953E+04  0.50400001928E-02 0.  1.
       -1    1    3    3    0  502  0.66058920643E+02 -0.62003726953E+01  0.29392310700E+02  0.72568130552E+02  0.50400001928E-02 0. -1.
</event>
<event>
 5   0  0.1453602E-01  0.5036060E+03  0.7818609E-02  0.1012842E+00
        1   -1    0    0  501    0  0.00000000000E+00  0.00000000000E+00  0.10657755494E+03  0.10657755505E+03  0.50400001928E-02 0.  1.
       -1   -1    0    0    0  501  0.00000000000E+00  0.00000000000E+00 -0.59491660545E+03  0.59491660548E+03  0.50400001928E-02 0. -1.
    10030    2    1    2    0    0  0.00000000000E+00  0.00000000000E+00 -0.48833905052E+03  0.70149416053E+03  0.50360602558E+03 0.  0.
        2    1    3    3  502    0  0.21575685485E+03  0.10167339165E+03 -0.13172656088E+03  0.27247088988E+03  0.25500000920E-02 0.  1.
       -2    1    3    3    0  502 -0.21575685485E+03 -0.10167339165E+03 -0.35661248964E+03  0.42902327065E+03  0.25500000920E-02 0. -1.
</event>
<event>
 5   0  0.2511944E-01  0.4716289E+03  0.7818609E-02  0.1021461E+00
       -2   -1    0    0    0  501  0.00000000000E+00  0.00000000000E+00  0.30895890070E+03  0.30895890071E+03  0.25500000920E-02 0. -1.
        2   -1    0    0  501    0  0.00000000000E+00  0.00000000000E+00 -0.17998657729E+03  0.17998657731E+03  0.25500000920E-02 0.  1.
    10030    2    1    2    0    0  0.00000000000E+00  0.00000000000E+00  0.12897232341E+03  0.48894547802E+03  0.47162890101E+03 0.  0.
        1    1    3    3  502    0 -0.42274233574E+02 -0.91327103788E+02  0.28557846004E+03  0.30279169007E+03  0.50400001928E-02 0. -1.
       -1    1    3    3    0  502  0.42274233574E+02  0.91327103788E+02 -0.15660613663E+03  0.18615378795E+03  0.50400001928E-02 0.  1.
</event>
<event>
 5   0  0.2466034E-01  0.4655360E+03  0.7818609E-02  0.1023188E+00
       -2   -1    0    0    0  501  0.00000000000E+00  0.00000000000E+00  0.76191957452E+02  0.76191957494E+02  0.25500000920E-02 0.  1.
        2   -1    0    0  501    0  0.00000000000E+00  0.00000000000E+00 -0.71111098221E+03  0.71111098221E+03  0.25500000920E-02 0. -1.
    10030    2    1    2    0    0  0.00000000000E+00  0.00000000000E+00 -0.63491902475E+03  0.78730293970E+03  0.46553598236E+03 0.  0.
        3    1    3    3  502    0  0.41955387764E+02  0.87643612054E+02 -0.67517114764E+03  0.68212736795E+03  0.10100000352E+00 0. -1.
       -3    1    3    3    0  502 -0.41955387764E+02 -0.87643612054E+02  0.40252122887E+02  0.10517557176E+03  0.10100000352E+00 0.  1.
</event>
<event>
 5   0  0.2466034E-01  0.5003328E+03  0.7818609E-02  0.1013692E+00
       -2   -1    0    0    0  501  0.00000000000E+00  0.00000000000E+00  0.97996327574E+02  0.97996327607E+02  0.25500000920E-02 0.  1.
        2   -1    0    0  501    0  0.00000000000E+00  0.00000000000E+00 -0.63862834128E+03  0.63862834128E+03  0.25500000920E-02 0. -1.
    10030    2    1    2    0    0  0.00000000000E+00  0.00000000000E+00 -0.54063201371E+03  0.73662466889E+03  0.50033281781E+03 0.  0.
        3    1    3    3  502    0 -0.18970141470E+03 -0.13981469478E+03 -0.14671159643E+03  0.27759516988E+03  0.10100000352E+00 0.  1.
       -3    1    3    3    0  502  0.18970141470E+03  0.13981469478E+03 -0.39392041727E+03  0.45902949901E+03  0.10100000352E+00 0. -1.
</event>
<event>
 5   0  0.1529146E-01  0.3495366E+03  0.7818609E-02  0.1062805E+00
        1   -1    0    0  501    0  0.00000000000E+00  0.00000000000E+00  0.79354624896E+03  0.79354624897E+03  0.50400001928E-02 0.  1.
       -1   -1    0    0    0  501  0.00000000000E+00  0.00000000000E+00 -0.38490457865E+02  0.38490458195E+02  0.50400001928E-02 0. -1.
    10030    2    1    2    0    0  0.00000000000E+00  0.00000000000E+00  0.75505579109E+03  0.83203670717E+03  0.34953659953E+03 0.  0.
        1    1    3    3  502    0 -0.53135894104E+02  0.15155243081E+03  0.21342881683E+03  0.26710189518E+03  0.50400001928E-02 0. -1.
       -1    1    3    3    0  502  0.53135894104E+02 -0.15155243081E+03  0.54162697426E+03  0.56493481199E+03  0.50400001928E-02 0.  1.
</event>
<event>
 5   0  0.1413361E-01  0.4921793E+03  0.7818609E-02  0.1015841E+00
        1   -1    0    0  501    0  0.00000000000E+00  0.00000000000E+00  0.13784701928E+04  0.13784701928E+04  0.50400001928E-02 0.  1.
       -1   -1    0    0    0  501  0.00000000000E+00  0.00000000000E+00 -0.43932839483E+02  0.43932839772E+02  0.50400001928E-02 0. -1.
    10030    2    1    2    0    0  0.00000000000E+00  0.00000000000E+00  0.13345373534E+04  0.14224030326E+04  0.49217927598E+03 0.  0.
        3    1    3    3  502    0 -0.58171851762E+02  0.16207339565E+03  0.15918264447E+03  0.23450133138E+03  0.10100000352E+00 0. -1.
       -3    1    3    3    0  502  0.58171851762E+02 -0.16207339565E+03  0.11753547089E+04  0.11879017012E+04  0.10100000352E+00 0.  1.
</event>
<event>
 5   0  0.2466034E-01  0.5086583E+03  0.7818609E-02  0.1011543E+00
       -2   -1    0    0    0  501  0.00000000000E+00  0.00000000000E+00  0.14387711021E+03  0.14387711023E+03  0.25500000920E-02 0.  1.
        2   -1    0    0  501    0  0.00000000000E+00  0.00000000000E+00 -0.44957329453E+03  0.44957329453E+03  0.25500000920E-02 0. -1.
    10030    2    1    2    0    0  0.00000000000E+00  0.00000000000E+00 -0.30569618431E+03  0.59345040477E+03  0.50865826034E+03 0.  0.
        3    1    3    3  502    0 -0.22457930990E+03  0.77623368094E+02 -0.47057222166E+02  0.24223056386E+03  0.10100000352E+00 0.  1.
       -3    1    3    3    0  502  0.22457930990E+03 -0.77623368094E+02 -0.25863896215E+03  0.35121984091E+03  0.10100000352E+00 0. -1.
</event>
<event>
 5   0  0.9868500E-02  0.5451307E+03  0.7818609E-02  0.1002627E+00
       -3   -1    0    0    0  501  0.00000000000E+00  0.00000000000E+00  0.55075381436E+03  0.55075382362E+03  0.10100000352E+00 0.  1.
        3   -1    0    0  501    0  0.00000000000E+00  0.00000000000E+00 -0.13489122073E+03  0.13489125854E+03  0.10100000352E+00 0. -1.
    10030    2    1    2    0    0  0.00000000000E+00  0.00000000000E+00  0.41586259362E+03  0.68564508216E+03  0.54513070168E+03 0.  0.
        3    1    3    3  502    0  0.12088267753E+03 -0.17566244972E+03 -0.55994138667E+01  0.21331029419E+03  0.10100000352E+00 0. -1.
       -3    1    3    3    0  502 -0.12088267753E+03  0.17566244972E+03  0.42146200749E+03  0.47233478797E+03  0.10100000352E+00 0.  1.
</event>
<event>
 5   0  0.1413361E-01  0.6149793E+03  0.7818609E-02  0.9874807E-01
        1   -1    0    0  501    0  0.00000000000E+00  0.00000000000E+00  0.50632682194E+03  0.50632682196E+03  0.50400001928E-02 0.  1.
       -1   -1    0    0    0  501  0.00000000000E+00  0.00000000000E+00 -0.18673684276E+03  0.18673684282E+03  0.50400001928E-02 0. -1.
    10030    2    1    2    0    0  0.00000000000E+00  0.00000000000E+00  0.31958997918E+03  0.69306366478E+03  0.61497925872E+03 0.  0.
        3    1    3    3  502    0  0.72838531626E+02 -0.26638574410E+03  0.74118443128E+01  0.27626393537E+03  0.10100000352E+00 0. -1.
       -3    1    3    3    0  502 -0.72838531626E+02  0.26638574410E+03  0.31217813487E+03  0.41679972941E+03  0.10100000352E+00 0.  1.
</event>
<event>
 5   0  0.2488968E-01  0.5091446E+03  0.7818609E-02  0.1011419E+00
       -2   -1    0    0    0  501  0.00000000000E+00  0.00000000000E+00  0.41848940225E+03  0.41848940226E+03  0.25500000920E-02 0. -1.
        2   -1    0    0  501    0  0.00000000000E+00  0.00000000000E+00 -0.15485948034E+03  0.15485948036E+03  0.25500000920E-02 0.  1.
    10030    2    1    2    0    0  0.00000000000E+00  0.00000000000E+00  0.26362992192E+03  0.57334888262E+03  0.50914458209E+03 0.  0.
        2    1    3    3  502    0 -0.21873774327E+03 -0.62708252636E+02  0.32787518903E+01  0.22757257195E+03  0.25500000920E-02 0.  1.
       -2    1    3    3    0  502  0.21873774327E+03  0.62708252636E+02  0.26035117003E+03  0.34577631067E+03  0.25500000920E-02 0. -1.
</event>
<event>
 5   0  0.1529146E-01  0.4972513E+03  0.7818609E-02  0.1014499E+00
        1   -1    0    0  501    0  0.00000000000E+00  0.00000000000E+00  0.10033140600E+04  0.10033140600E+04  0.50400001928E-02 0. -1.
       -1   -1    0    0    0  501  0.00000000000E+00  0.00000000000E+00 -0.61610523895E+02  0.61610524101E+02  0.50400001928E-02 0.  1.
    10030    2    1    2    0    0  0.00000000000E+00  0.00000000000E+00  0.94170353608E+03  0.10649245841E+04  0.49725126438E+03 0.  0.
        1    1    3    3  502    0  0.14669985842E+03 -0.19362767046E+03  0.58421992998E+03  0.63271277041E+03  0.50400001928E-02 0. -1.
       -1    1    3    3    0  502 -0.14669985842E+03  0.19362767046E+03  0.35748360610E+03  0.43221181368E+03  0.50400001928E-02 0.  1.
</event>
<event>
 5   0  0.1529146E-01  0.4328554E+03  0.7818609E-02  0.1032962E+00
       -1   -1    0    0    0  501  0.00000000000E+00  0.00000000000E+00  0.11093370102E+03  0.11093370113E+03  0.50400001928E-02 0.  1.
        1   -1    0    0  501    0  0.00000000000E+00  0.00000000000E+00 -0.42224274098E+03  0.42224274101E+03  0.50400001928E-02 0. -1.
    10030    2    1    2    0    0  0.00000000000E+00  0.00000000000E+00 -0.31130903997E+03  0.53317644214E+03  0.43285540322E+03 0.  0.
        1    1    3    3  502    0 -0.20564511052E+03 -0.10320197274E+02 -0.73535996856E+02  0.21864116907E+03  0.50400001928E-02 0.  1.
       -1    1    3    3    0  502  0.20564511052E+03  0.10320197274E+02 -0.23777304311E+03  0.31453527307E+03  0.50400001928E-02 0. -1.
</event>
<event>
 5   0  0.1453602E-01  0.4863288E+03  0.7818609E-02  0.1017410E+00
       -1   -1    0    0    0  501  0.00000000000E+00  0.00000000000E+00  0.21106760547E+02  0.21106761149E+02  0.50400001928E-02 0. -1.
        1   -1    0    0  501    0  0.00000000000E+00  0.00000000000E+00 -0.28014212454E+04  0.28014212454E+04  0.50400001928E-02 0.  1.
    10030    2    1    2    0    0  0.00000000000E+00  0.00000000000E+00 -0.27803144849E+04  0.28225280066E+04  0.48632881171E+03 0.  0.
        2    1    3    3  502    0  0.53601572668E+02 -0.22248661893E+03 -0.91313663555E+03  0.94137768159E+03  0.25500000920E-02 0. -1.
       -2    1    3    3    0  502 -0.53601572668E+02  0.22248661893E+03 -0.18671778493E+04  0.18811503250E+04  0.25500000920E-02 0.  1.
</event>
<event>
 5   0  0.2413301E-01  0.5027519E+03  0.7818609E-02  0.1013063E+00
        2   -1    0    0  501    0  0.00000000000E+00  0.00000000000E+00  0.31690986999E+03  0.31690987000E+03  0.25500000920E-02 0.  1.
       -2   -1    0    0    0  501  0.00000000000E+00  0.00000000000E+00 -0.19939377704E+03  0.19939377706E+03  0.25500000920E-02 0. -1.
    10030    2    1    2    0    0  0.00000000000E+00  0.00000000000E+00  0.11751609295E+03  0.51630364706E+03  0.50275185118E+03 0.  0.
        4    1    3    3  502    0 -0.11345552294E+01 -0.78185184153E+02  0.30409942141E+03  0.31399407834E+03  0.12699999809E+01 0.  1.
       -4    1    3    3    0  502  0.11345552294E+01  0.78185184153E+02 -0.18658332846E+03  0.20230956872E+03  0.12699999809E+01 0. -1.
</event>
<event>
 5   0  0.1413361E-01  0.5122678E+03  0.7818609E-02  0.1010626E+00
       -1   -1    0    0    0  501  0.00000000000E+00  0.00000000000E+00  0.12127751701E+03  0.12127751712E+03  0.50400001928E-02 0. -1.
        1   -1    0    0  501    0  0.00000000000E+00  0.00000000000E+00 -0.54094594056E+03  0.54094594058E+03  0.50400001928E-02 0.  1.
    10030    2    1    2    0    0  0.00000000000E+00  0.00000000000E+00 -0.41966842355E+03  0.66222345769E+03  0.51226782273E+03 0.  0.
        3    1    3    3  502    0 -0.13939655059E+03 -0.62091014560E+02 -0.47576549187E+03  0.49963937581E+03  0.10100000352E+00 0.  1.
       -3    1    3    3    0  502  0.13939655059E+03  0.62091014560E+02  0.56097068328E+02  0.16258408188E+03  0.10100000352E+00 0. -1.
</event>
<event>
 5   0  0.1448458E-01  0.4915269E+03  0.7818609E-02  0.1016014E+00
        1   -1    0    0  501    0  0.00000000000E+00  0.00000000000E+00  0.38146368702E+03  0.38146368705E+03  0.50400001928E-02 0. -1.
       -1   -1    0    0    0  501  0.00000000000E+00  0.00000000000E+00 -0.15833664463E+03  0.15833664471E+03  0.50400001928E-02 0.  1.
    10030    2    1    2    0    0  0.00000000000E+00  0.00000000000E+00  0.22312704239E+03  0.53980033176E+03  0.49152692818E+03 0.  0.
        5    1    3    3  502    0 -0.34130045486E+02  0.14821080322E+02 -0.15517535375E+03  0.15964336766E+03  0.46999998093E+01 0.  1.
       -5    1    3    3    0  502  0.34130045486E+02 -0.14821080322E+02  0.37830239614E+03  0.38015696410E+03  0.46999998093E+01 0. -1.
</event>
<event>
 5   0  0.1453602E-01  0.4787587E+03  0.7818609E-02  0.1019477E+00
       -1   -1    0    0    0  501  0.00000000000E+00  0.00000000000E+00  0.21518762911E+03  0.21518762917E+03  0.50400001928E-02 0.  1.
        1   -1    0    0  501    0  0.00000000000E+00  0.00000000000E+00 -0.26629071295E+03  0.26629071300E+03  0.50400001928E-02 0. -1.
    10030    2    1    2    0    0  0.00000000000E+00  0.00000000000E+00 -0.51103083837E+02  0.48147834217E+03  0.47875867491E+03 0.  0.
        2    1    3    3  502    0  0.23011397509E+03  0.33371333519E+02 -0.82763898737E+02  0.24681156856E+03  0.25500000920E-02 0. -1.
       -2    1    3    3    0  502 -0.23011397509E+03 -0.33371333519E+02  0.31660814900E+02  0.23466677361E+03  0.25500000920E-02 0.  1.
</event>
<event>
 5   0  0.2488968E-01  0.5025413E+03  0.7818609E-02  0.1013118E+00
       -2   -1    0    0    0  501  0.00000000000E+00  0.00000000000E+00  0.46019711984E+03  0.46019711984E+03  0.25500000920E-02 0. -1.
        2   -1    0    0  501    0  0.00000000000E+00  0.00000000000E+00 -0.13719544579E+03  0.13719544582E+03  0.25500000920E-02 0.  1.
    10030    2    1    2    0    0  0.00000000000E+00  0.00000000000E+00  0.32300167404E+03  0.59739256566E+03  0.50254133768E+03 0.  0.
        2    1    3    3  502    0 -0.76379789901E+02  0.18689589604E+03 -0.16306689615E+02  0.20255827901E+03  0.25500000920E-02 0.  1.
       -2    1    3    3    0  502  0.76379789901E+02 -0.18689589604E+03  0.33930836366E+03  0.39483428665E+03  0.25500000920E-02 0. -1.
</event>
<event>
 5   0  0.9868500E-02  0.4893604E+03  0.7818609E-02  0.1016594E+00
       -3   -1    0    0    0  501  0.00000000000E+00  0.00000000000E+00  0.26544811025E+03  0.26544812947E+03  0.10100000352E+00 0. -1.
        3   -1    0    0  501    0  0.00000000000E+00  0.00000000000E+00 -0.22553709206E+03  0.22553711467E+03  0.10100000352E+00 0.  1.
    10030    2    1    2    0    0  0.00000000000E+00  0.00000000000E+00  0.39911018196E+02  0.49098524414E+03  0.48936041993E+03 0.  0.
        2    1    3    3  502    0  0.11618518739E+03  0.83363135225E+02 -0.17924841202E+03  0.22929981095E+03  0.25500000920E-02 0.  1.
       -2    1    3    3    0  502 -0.11618518739E+03 -0.83363135225E+02  0.21915943022E+03  0.26168543319E+03  0.25500000920E-02 0. -1.
</event>
<event>
 5   0  0.2413301E-01  0.5027191E+03  0.7818609E-02  0.1013072E+00
       -2   -1    0    0    0  501  0.00000000000E+00  0.00000000000E+00  0.12149139394E+03  0.12149139397E+03  0.25500000920E-02 0.  1.
        2   -1    0    0  501    0  0.00000000000E+00  0.00000000000E+00 -0.52005015159E+03  0.52005015159E+03  0.25500000920E-02 0. -1.
    10030    2    1    2    0    0  0.00000000000E+00  0.00000000000E+00 -0.39855875764E+03  0.64154154556E+03  0.50271907801E+03 0.  0.
        4    1    3    3  502    0  0.14446455318E+03  0.91694213907E+02 -0.43424978152E+03  0.46674652826E+03  0.12699999809E+01 0. -1.
       -4    1    3    3    0  502 -0.14446455318E+03 -0.91694213907E+02  0.35691023877E+02  0.17479501731E+03  0.12699999809E+01 0.  1.
</event>
<event>
 5   0  0.2413301E-01  0.4782464E+03  0.7818609E-02  0.1019618E+00
        2   -1    0    0  501    0  0.00000000000E+00  0.00000000000E+00  0.20378403266E+03  0.20378403268E+03  0.25500000920E-02 0.  1.
       -2   -1    0    0    0  501  0.00000000000E+00  0.00000000000E+00 -0.28059067696E+03  0.28059067697E+03  0.25500000920E-02 0. -1.
    10030    2    1    2    0    0  0.00000000000E+00  0.00000000000E+00 -0.76806644302E+02  0.48437470965E+03  0.47824637870E+03 0.  0.
        4    1    3    3  502    0  0.12036504684E+03 -0.16843938059E+03 -0.15959751969E+03  0.26140495524E+03  0.12699999809E+01 0.  1.
       -4    1    3    3    0  502 -0.12036504684E+03  0.16843938059E+03  0.82790875391E+02  0.22296975441E+03  0.12699999809E+01 0. -1.
</event>
<event>
 5   0  0.1439814E-01  0.5034844E+03  0.7818609E-02  0.1012873E+00
        1   -1    0    0  501    0  0.00000000000E+00  0.00000000000E+00  0.36575198455E+03  0.36575198458E+03  0.50400001928E-02 0. -1.
       -1   -1    0    0    0  501  0.00000000000E+00  0.00000000000E+00 -0.17327078663E+03  0.17327078670E+03  0.50400001928E-02 0.  1.
    10030    2    1    2    0    0  0.00000000000E+00  0.00000000000E+00  0.19248119792E+03  0.53902277128E+03  0.50348439540E+03 0.  0.
        4    1    3    3  502    0  0.15497915031E+03  0.16467386523E+03  0.21466733106E+03  0.31180072939E+03  0.12699999809E+01 0. -1.
       -4    1    3    3    0  502 -0.15497915031E+03 -0.16467386523E+03 -0.22186133140E+02  0.22722204190E+03  0.12699999809E+01 0.  1.
</event>
<event>
 5   0  0.2488968E-01  0.5103947E+03  0.7818609E-02  0.1011101E+00
       -2   -1    0    0    0  501  0.00000000000E+00  0.00000000000E+00  0.12858266952E+03  0.12858266954E+03  0.25500000920E-02 0. -1.
        2   -1    0    0  501    0  0.00000000000E+00  0.00000000000E+00 -0.50648877849E+03  0.50648877849E+03  0.25500000920E-02 0.  1.
    10030    2    1    2    0    0  0.00000000000E+00  0.00000000000E+00 -0.37790610897E+03  0.63507144804E+03  0.51039466780E+03 0.  0.
        2    1    3    3  502    0  0.27446284278E+02  0.50569201792E+02  0.12040674368E+03  0.13344784232E+03  0.25500000920E-02 0. -1.
       -2    1    3    3    0  502 -0.27446284278E+02 -0.50569201792E+02 -0.49831285265E+03  0.50162360571E+03  0.25500000920E-02 0.  1.
</event>
<event>
 5   0  0.9868500E-02  0.4895179E+03  0.7818609E-02  0.1016552E+00
       -3   -1    0    0    0  501  0.00000000000E+00  0.00000000000E+00  0.31516676608E+03  0.31516678227E+03  0.10100000352E+00 0.  1.
        3   -1    0    0  501    0  0.00000000000E+00  0.00000000000E+00 -0.19008014260E+03  0.19008016944E+03  0.10100000352E+00 0. -1.
    10030    2    1    2    0    0  0.00000000000E+00  0.00000000000E+00  0.12508662348E+03  0.50524695170E+03  0.48951794536E+03 0.  0.
        4    1    3    3  502    0  0.14789357656E+03  0.18237994679E+03  0.13383056529E+03  0.27027243309E+03  0.12699999809E+01 0.  1.
       -4    1    3    3    0  502 -0.14789357656E+03 -0.18237994679E+03 -0.87439418055E+01  0.23497451862E+03  0.12699999809E+01 0. -1.
</event>
<event>
 5   0  0.2413301E-01  0.5033197E+03  0.7818609E-02  0.1012916E+00
        2   -1    0    0  501    0  0.00000000000E+00  0.00000000000E+00  0.71645314005E+03  0.71645314005E+03  0.25500000920E-02 0. -1.
       -2   -1    0    0    0  501  0.00000000000E+00  0.00000000000E+00 -0.88397531676E+02  0.88397531713E+02  0.25500000920E-02 0.  1.
    10030    2    1    2    0    0  0.00000000000E+00  0.00000000000E+00  0.62805560837E+03  0.80485067177E+03  0.50331973599E+03 0.  0.
        4    1    3    3  502    0 -0.23418627319E+03 -0.41722346281E+02  0.18267773820E+03  0.29992788077E+03  0.12699999809E+01 0.  1.
       -4    1    3    3    0  502  0.23418627319E+03  0.41722346281E+02  0.44537787018E+03  0.50492279100E+03  0.12699999809E+01 0. -1.
</event>
<event>
 5   0  0.2504064E-01  0.5188632E+03  0.7818609E-02  0.1008969E+00
       -2   -1    0    0    0  501  0.00000000000E+00  0.00000000000E+00  0.12867063738E+03  0.12867063741E+03  0.25500000920E-02 0.  1.
        2   -1    0    0  501    0  0.00000000000E+00  0.00000000000E+00 -0.52307773618E+03  0.52307773618E+03  0.25500000920E-02 0. -1.
    10030    2    1    2    0    0  0.00000000000E+00  0.00000000000E+00 -0.39440709879E+03  0.65174837359E+03  0.51886316395E+03 0.  0.
        5    1    3    3  502    0  0.81823125366E+02 -0.24357605018E+03 -0.15264551141E+03  0.29890978274E+03  0.46999998093E+01 0.  1.
       -5    1    3    3    0  502 -0.81823125366E+02  0.24357605018E+03 -0.24176158738E+03  0.35283859085E+03  0.46999998093E+01 0. -1.
</event>
<event>
 5   0  0.9868500E-02  0.4556044E+03  0.7818609E-02  0.1026064E+00
       -4   -1    0    0    0  501  0.00000000000E+00  0.00000000000E+00  0.77238787321E+03  0.77238891731E+03  0.12699999809E+01 0.  1.
        4   -1    0    0  501    0  0.00000000000E+00  0.00000000000E+00 -0.67179160272E+02  0.67191163666E+02  0.12699999809E+01 0. -1.
    10030    2    1    2    0    0  0.00000000000E+00  0.00000000000E+00  0.70520871294E+03  0.83958008097E+03  0.45560441566E+03 0.  0.
        4    1    3    3  502    0  0.39878821518E+02  0.21508023207E+03  0.46976835532E+03  0.51820241914E+03  0.12699999809E+01 0.  1.
       -4    1    3    3    0  502 -0.39878821518E+02 -0.21508023207E+03  0.23544035761E+03  0.32137766184E+03  0.12699999809E+01 0. -1.
</event>
<event>
 5   0  0.2504064E-01  0.4989972E+03  0.7818609E-02  0.1014041E+00
        2   -1    0    0  501    0  0.00000000000E+00  0.00000000000E+00  0.52790522121E+03  0.52790522121E+03  0.25500000920E-02 0. -1.
       -2   -1    0    0    0  501  0.00000000000E+00  0.00000000000E+00 -0.11791806327E+03  0.11791806330E+03  0.25500000920E-02 0.  1.
    10030    2    1    2    0    0  0.00000000000E+00  0.00000000000E+00  0.40998715794E+03  0.64582328451E+03  0.49899723961E+03 0.  0.
        5    1    3    3  502    0  0.24592947879E+03 -0.38931154041E+02  0.22464425035E+03  0.33538645248E+03  0.46999998093E+01 0.  1.
       -5    1    3    3    0  502 -0.24592947879E+03  0.38931154041E+02  0.18534290759E+03  0.31043683204E+03  0.46999998093E+01 0. -1.
</event>
<event>
 5   0  0.1448458E-01  0.4993241E+03  0.7818609E-02  0.1013955E+00
        1   -1    0    0  501    0  0.00000000000E+00  0.00000000000E+00  0.36617183037E+03  0.36617183040E+03  0.50400001928E-02 0.  1.
       -1   -1    0    0    0  501  0.00000000000E+00  0.00000000000E+00 -0.17022376767E+03  0.17022376774E+03  0.50400001928E-02 0. -1.
    10030    2    1    2    0    0  0.00000000000E+00  0.00000000000E+00  0.19594806270E+03  0.53639559814E+03  0.49932413764E+03 0.  0.
        5    1    3    3  502    0  0.96866965750E+02 -0.18956995705E+02  0.34426988494E+03  0.35817093742E+03  0.46999998093E+01 0.  1.
       -5    1    3    3    0  502 -0.96866965750E+02  0.18956995705E+02 -0.14832182224E+03  0.17822466072E+03  0.46999998093E+01 0. -1.
</event>
<event>
 5   0  0.1453602E-01  0.4835441E+03  0.7818609E-02  0.1018166E+00
        1   -1    0    0  501    0  0.00000000000E+00  0.00000000000E+00  0.34984336699E+03  0.34984336702E+03  0.50400001928E-02 0.  1.
       -1   -1    0    0    0  501  0.00000000000E+00  0.00000000000E+00 -0.16708541059E+03  0.16708541067E+03  0.50400001928E-02 0. -1.
    10030    2    1    2    0    0  0.00000000000E+00  0.00000000000E+00  0.18275795639E+03  0.51692877769E+03  0.48354409373E+03 0.  0.
        2    1    3    3  502    0 -0.78227257010E+02 -0.38982060068E+02  0.33236339469E+03  0.34366339765E+03  0.25500000920E-02 0.  1.
       -2    1    3    3    0  502  0.78227257010E+02  0.38982060068E+02 -0.14960543830E+03  0.17326538004E+03  0.25500000920E-02 0. -1.
</event>
<event>
 5   0  0.2511944E-01  0.5112638E+03  0.7818609E-02  0.1010880E+00
        2   -1    0    0  501    0  0.00000000000E+00  0.00000000000E+00  0.26656314567E+03  0.26656314568E+03  0.25500000920E-02 0. -1.
       -2   -1    0    0    0  501  0.00000000000E+00  0.00000000000E+00 -0.24514887828E+03  0.24514887829E+03  0.25500000920E-02 0.  1.
    10030    2    1    2    0    0  0.00000000000E+00  0.00000000000E+00  0.21414267393E+02  0.51171202397E+03  0.51126375251E+03 0.  0.
        1    1    3    3  502    0  0.24581742303E+03 -0.78080898221E+01 -0.59071168056E+02  0.25293591017E+03  0.50400001928E-02 0.  1.
       -1    1    3    3    0  502 -0.24581742303E+03  0.78080898221E+01  0.80485435449E+02  0.25877611381E+03  0.50400001928E-02 0. -1.
</event>
<event>
 5   0  0.1439814E-01  0.5396469E+03  0.7818609E-02  0.1003919E+00
        1   -1    0    0  501    0  0.00000000000E+00  0.00000000000E+00  0.22774774343E+03  0.22774774349E+03  0.50400001928E-02 0.  1.
       -1   -1    0    0    0  501  0.00000000000E+00  0.00000000000E+00 -0.31967253040E+03  0.31967253044E+03  0.50400001928E-02 0. -1.
    10030    2    1    2    0    0  0.00000000000E+00  0.00000000000E+00 -0.91924786971E+02  0.54742027393E+03  0.53964691220E+03 0.  0.
        4    1    3    3  502    0  0.21687770310E+03  0.97119364059E+02  0.83686981073E+02  0.25193894633E+03  0.12699999809E+01 0.  1.
       -4    1    3    3    0  502 -0.21687770310E+03 -0.97119364059E+02 -0.17561176804E+03  0.29548132759E+03  0.12699999809E+01 0. -1.
</event>
<event>
 5   0  0.2466034E-01  0.5109917E+03  0.7818609E-02  0.1010949E+00
       -2   -1    0    0    0  501  0.00000000000E+00  0.00000000000E+00  0.80434651083E+02  0.80434651123E+02  0.25500000920E-02 0. -1.
        2   -1    0    0  501    0  0.00000000000E+00  0.00000000000E+00 -0.81156731361E+03  0.81156731361E+03  0.25500000920E-02 0.  1.
    10030    2    1    2    0    0  0.00000000000E+00  0.00000000000E+00 -0.73113266253E+03  0.89200196474E+03  0.51099171704E+03 0.  0.
        3    1    3    3  502    0  0.16476245294E+03  0.26361313529E+02 -0.27812880427E+02  0.16916013498E+03  0.10100000352E+00 0. -1.
       -3    1    3    3    0  502 -0.16476245294E+03 -0.26361313529E+02 -0.70331978210E+03  0.72284182976E+03  0.10100000352E+00 0.  1.
</event>
<event>
 5   0  0.1413361E-01  0.5664987E+03  0.7818609E-02  0.9977457E-01
        1   -1    0    0  501    0  0.00000000000E+00  0.00000000000E+00  0.85073770337E+03  0.85073770339E+03  0.50400001928E-02 0.  1.
       -1   -1    0    0    0  501  0.00000000000E+00  0.00000000000E+00 -0.94306600268E+02  0.94306600403E+02  0.50400001928E-02 0. -1.
    10030    2    1    2    0    0  0.00000000000E+00  0.00000000000E+00  0.75643110311E+03  0.94504430379E+03  0.56649865170E+03 0.  0.
        3    1    3    3  502    0 -0.21471477490E+03  0.11287381149E+03  0.13424879940E+03  0.27724660903E+03  0.10100000352E+00 0. -1.
       -3    1    3    3    0  502  0.21471477490E+03 -0.11287381149E+03  0.62218230371E+03  0.66779769476E+03  0.10100000352E+00 0.  1.
</event>
<event>
 5   0  0.1413361E-01  0.5026313E+03  0.7818609E-02  0.1013094E+00
        1   -1    0    0  501    0  0.00000000000E+00  0.00000000000E+00  0.66359487515E+03  0.66359487517E+03  0.50400001928E-02 0.  1.
       -1   -1    0    0    0  501  0.00000000000E+00  0.00000000000E+00 -0.95177880275E+02  0.95177880409E+02  0.50400001928E-02 0. -1.
    10030    2    1    2    0    0  0.00000000000E+00  0.00000000000E+00  0.56841699487E+03  0.75877275558E+03  0.50263129085E+03 0.  0.
        3    1    3    3  502    0  0.21990786775E+03 -0.12164669650E+03  0.28642425341E+03  0.38104625993E+03  0.10100000352E+00 0. -1.
       -3    1    3    3    0  502 -0.21990786775E+03  0.12164669650E+03  0.28199274147E+03  0.37772649564E+03  0.10100000352E+00 0.  1.
</event>
<event>
 5   0  0.1448458E-01  0.4943141E+03  0.7818609E-02  0.1015274E+00
       -1   -1    0    0    0  501  0.00000000000E+00  0.00000000000E+00  0.10123539799E+04  0.10123539799E+04  0.50400001928E-02 0.  1.
        1   -1    0    0  501    0  0.00000000000E+00  0.00000000000E+00 -0.60341162790E+02  0.60341163001E+02  0.50400001928E-02 0. -1.
    10030    2    1    2    0    0  0.00000000000E+00  0.00000000000E+00  0.95201281708E+03  0.10726951429E+04  0.49431413664E+03 0.  0.
        5    1    3    3  502    0 -0.14019337181E+03  0.59858432821E+01  0.34598876820E+02  0.14460008331E+03  0.46999998093E+01 0. -1.
       -5    1    3    3    0  502  0.14019337181E+03 -0.59858432821E+01  0.91741394026E+03  0.92809505957E+03  0.46999998093E+01 0.  1.
</event>
<event>
 5   0  0.2488968E-01  0.4829732E+03  0.7818609E-02  0.1018321E+00
        2   -1    0    0  501    0  0.00000000000E+00  0.00000000000E+00  0.45392020683E+03  0.45392020684E+03  0.25500000920E-02 0. -1.
       -2   -1    0    0    0  501  0.00000000000E+00  0.00000000000E+00 -0.12847145140E+03  0.12847145143E+03  0.25500000920E-02 0.  1.
    10030    2    1    2    0    0  0.00000000000E+00  0.00000000000E+00  0.32544875543E+03  0.58239165826E+03  0.48297324067E+03 0.  0.
        2    1    3    3  502    0  0.23330519843E+03 -0.61958705358E+02  0.17086638891E+03  0.29574570098E+03  0.25500000920E-02 0.  1.
       -2    1    3    3    0  502 -0.23330519843E+03  0.61958705358E+02  0.15458236652E+03  0.28664595728E+03  0.25500000920E-02 0. -1.
</event>
<event>
 5   0  0.2504064E-01  0.5148862E+03  0.7818609E-02  0.1009965E+00
       -2   -1    0    0    0  501  0.00000000000E+00  0.00000000000E+00  0.96227929986E+02  0.96227930020E+02  0.25500000920E-02 0. -1.
        2   -1    0    0  501    0  0.00000000000E+00  0.00000000000E+00 -0.68874950796E+03  0.68874950796E+03  0.25500000920E-02 0.  1.
    10030    2    1    2    0    0  0.00000000000E+00  0.00000000000E+00 -0.59252157797E+03  0.78497743798E+03  0.51488616002E+03 0.  0.
        5    1    3    3  502    0  0.13009633334E+03 -0.18546028587E+03 -0.10994998469E+03  0.25185643275E+03  0.46999998093E+01 0. -1.
       -5    1    3    3    0  502 -0.13009633334E+03  0.18546028587E+03 -0.48257159328E+03  0.53312100524E+03  0.46999998093E+01 0.  1.
</event>
<event>
 5   0  0.1439814E-01  0.5097118E+03  0.7818609E-02  0.1011275E+00
       -1   -1    0    0    0  501  0.00000000000E+00  0.00000000000E+00  0.44453063315E+02  0.44453063601E+02  0.50400001928E-02 0. -1.
        1   -1    0    0  501    0  0.00000000000E+00  0.00000000000E+00 -0.14611259314E+04  0.14611259314E+04  0.50400001928E-02 0.  1.
    10030    2    1    2    0    0  0.00000000000E+00  0.00000000000E+00 -0.14166728681E+04  0.15055789950E+04  0.50971177645E+03 0.  0.
        4    1    3    3  502    0 -0.89239587689E+02  0.67918778306E+02 -0.32356776421E+02  0.11672719622E+03  0.12699999809E+01 0. -1.
       -4    1    3    3    0  502  0.89239587689E+02 -0.67918778306E+02 -0.13843160917E+04  0.13888517988E+04  0.12699999809E+01 0.  1.
</event>
<event>
 5   0  0.2413301E-01  0.5000067E+03  0.7818609E-02  0.1013777E+00
        2   -1    0    0  501    0  0.00000000000E+00  0.00000000000E+00  0.52589805209E+03  0.52589805210E+03  0.25500000920E-02 0. -1.
       -2   -1    0    0    0  501  0.00000000000E+00  0.00000000000E+00 -0.11884752713E+03  0.11884752716E+03  0.25500000920E-02 0.  1.
    10030    2    1    2    0    0  0.00000000000E+00  0.00000000000E+00  0.40705052496E+03  0.64474557926E+03  0.50000673206E+03 0.  0.
        4    1    3    3  502    0  0.14826720811E+03 -0.18950579838E+03  0.11602653117E+03  0.26713176796E+03  0.12699999809E+01 0. -1.
       -4    1    3    3    0  502 -0.14826720811E+03  0.18950579838E+03  0.29102399379E+03  0.37761381130E+03  0.12699999809E+01 0.  1.
</event>
<event>
 5   0  0.1448458E-01  0.5215067E+03  0.7818609E-02  0.1008313E+00
       -1   -1    0    0    0  501  0.00000000000E+00  0.00000000000E+00  0.92699341663E+02  0.92699341800E+02  0.50400001928E-02 0. -1.
        1   -1    0    0  501    0  0.00000000000E+00  0.00000000000E+00 -0.73347120709E+03  0.73347120711E+03  0.50400001928E-02 0.  1.
    10030    2    1    2    0    0  0.00000000000E+00  0.00000000000E+00 -0.64077186543E+03  0.82617054891E+03  0.52150665610E+03 0.  0.
        5    1    3    3  502    0  0.91972128019E+02 -0.41126997760E+02  0.60547020360E+02  0.11763644822E+03  0.46999998093E+01 0. -1.
       -5    1    3    3    0  502 -0.91972128019E+02  0.41126997760E+02 -0.70131888579E+03  0.70853410069E+03  0.46999998093E+01 0.  1.
</event>
<event>
 5   0  0.2488968E-01  0.4906071E+03  0.7818609E-02  0.1016260E+00
       -2   -1    0    0    0  501  0.00000000000E+00  0.00000000000E+00  0.50472104111E+03  0.50472104111E+03  0.25500000920E-02 0. -1.
        2   -1    0    0  501    0  0.00000000000E+00  0.00000000000E+00 -0.11922195819E+03  0.11922195821E+03  0.25500000920E-02 0.  1.
    10030    2    1    2    0    0  0.00000000000E+00  0.00000000000E+00  0.38549908292E+03  0.62394299933E+03  0.49060709685E+03 0.  0.
        2    1    3    3  502    0 -0.50567406013E+01  0.14748403129E+03 -0.56456265364E+02  0.15800132916E+03  0.25500000920E-02 0.  1.
       -2    1    3    3    0  502  0.50567406013E+01 -0.14748403129E+03  0.44195534828E+03  0.46594167016E+03  0.25500000920E-02 0. -1.
</event>
<event>
 5   0  0.2466034E-01  0.5018558E+03  0.7818609E-02  0.1013296E+00
        2   -1    0    0  501    0  0.00000000000E+00  0.00000000000E+00  0.12460870042E+04  0.12460870042E+04  0.25500000920E-02 0.  1.
       -2   -1    0    0    0  501  0.00000000000E+00  0.00000000000E+00 -0.50530029824E+02  0.50530029888E+02  0.25500000920E-02 0. -1.
    10030    2    1    2    0    0  0.00000000000E+00  0.00000000000E+00  0.11955569744E+04  0.12966170341E+04  0.50185581008E+03 0.  0.
        3    1    3    3  502    0 -0.48946620282E+02  0.31258602133E+02  0.12284838116E+04  0.12298558279E+04  0.10100000352E+00 0.  1.
       -3    1    3    3    0  502  0.48946620282E+02 -0.31258602133E+02 -0.32926837212E+02  0.66761206207E+02  0.10100000352E+00 0. -1.
</event>
<event>
 5   0  0.1453602E-01  0.4787924E+03  0.7818609E-02  0.1019468E+00
        1   -1    0    0  501    0  0.00000000000E+00  0.00000000000E+00  0.87203644162E+03  0.87203644164E+03  0.50400001928E-02 0.  1.
       -1   -1    0    0    0  501  0.00000000000E+00  0.00000000000E+00 -0.65720340688E+02  0.65720340882E+02  0.50400001928E-02 0. -1.
    10030    2    1    2    0    0  0.00000000000E+00  0.00000000000E+00  0.80631610093E+03  0.93775678252E+03  0.47879236474E+03 0.  0.
        2    1    3    3  502    0 -0.23008766498E+03  0.66059191477E+02  0.40810586760E+03  0.47313269759E+03  0.25500000920E-02 0. -1.
       -2    1    3    3    0  502  0.23008766498E+03 -0.66059191477E+02  0.39821023333E+03  0.46462408493E+03  0.25500000920E-02 0.  1.
</event>
<event>
 5   0  0.1448458E-01  0.5053589E+03  0.7818609E-02  0.1012390E+00
        1   -1    0    0  501    0  0.00000000000E+00  0.00000000000E+00  0.92742917434E+03  0.92742917435E+03  0.50400001928E-02 0.  1.
       -1   -1    0    0    0  501  0.00000000000E+00  0.00000000000E+00 -0.68842897212E+02  0.68842897397E+02  0.50400001928E-02 0. -1.
    10030    2    1    2    0    0  0.00000000000E+00  0.00000000000E+00  0.85858627713E+03  0.99627207175E+03  0.50535892757E+03 0.  0.
        5    1    3    3  502    0 -0.21379992800E+03  0.13374241255E+03  0.39956597524E+03  0.47251719619E+03  0.46999998093E+01 0.  1.
       -5    1    3    3    0  502  0.21379992800E+03 -0.13374241255E+03  0.45902030189E+03  0.52375487556E+03  0.46999998093E+01 0. -1.
</event>
<event>
 5   0  0.2466034E-01  0.4875597E+03  0.7818609E-02  0.1017078E+00
        2   -1    0    0  501    0  0.00000000000E+00  0.00000000000E+00  0.93893673073E+03  0.93893673073E+03  0.25500000920E-02 0.  1.
       -2   -1    0    0    0  501  0.00000000000E+00  0.00000000000E+00 -0.63293522161E+02  0.63293522212E+02  0.25500000920E-02 0. -1.
    10030    2    1    2    0    0  0.00000000000E+00  0.00000000000E+00  0.87564320857E+03  0.10022302529E+04  0.48755968989E+03 0.  0.
        3    1    3    3  502    0 -0.16162629071E+03  0.33482367513E+02  0.80659784772E+03  0.82331295686E+03  0.10100000352E+00 0.  1.
       -3    1    3    3    0  502  0.16162629071E+03 -0.33482367513E+02  0.69045360849E+02  0.17891729609E+03  0.10100000352E+00 0. -1.
</event>
<event>
 5   0  0.2466034E-01  0.5156368E+03  0.7818609E-02  0.1009776E+00
        2   -1    0    0  501    0  0.00000000000E+00  0.00000000000E+00  0.14069468129E+04  0.14069468129E+04  0.25500000920E-02 0.  1.
       -2   -1    0    0    0  501  0.00000000000E+00  0.00000000000E+00 -0.47244377674E+02  0.47244377743E+02  0.25500000920E-02 0. -1.
    10030    2    1    2    0    0  0.00000000000E+00  0.00000000000E+00  0.13597024353E+04  0.14541911907E+04  0.51563679717E+03 0.  0.
        3    1    3    3  502    0  0.43568687415E+02 -0.80898708629E+02  0.49980821829E+00  0.91886297075E+02  0.10100000352E+00 0. -1.
       -3    1    3    3    0  502 -0.43568687415E+02  0.80898708629E+02  0.13592026271E+04  0.13623048936E+04  0.10100000352E+00 0.  1.
</event>
<event>
 5   0  0.2488968E-01  0.5048062E+03  0.7818609E-02  0.1012532E+00
       -2   -1    0    0    0  501  0.00000000000E+00  0.00000000000E+00  0.83398317446E+03  0.83398317446E+03  0.25500000920E-02 0.  1.
        2   -1    0    0  501    0  0.00000000000E+00  0.00000000000E+00 -0.76389207562E+02  0.76389207605E+02  0.25500000920E-02 0. -1.
    10030    2    1    2    0    0  0.00000000000E+00  0.00000000000E+00  0.75759396690E+03  0.91037238207E+03  0.50480615622E+03 0.  0.
        2    1    3    3  502    0  0.19533955282E+03  0.13515804239E+03  0.22490285504E+03  0.32711852826E+03  0.25500000920E-02 0. -1.
       -2    1    3    3    0  502 -0.19533955282E+03 -0.13515804239E+03  0.53269111186E+03  0.58325385381E+03  0.25500000920E-02 0.  1.
</event>
<event>
 5   0  0.1529146E-01  0.4908021E+03  0.7818609E-02  0.1016208E+00
        1   -1    0    0  501    0  0.00000000000E+00  0.00000000000E+00  0.32590100847E+03  0.32590100851E+03  0.50400001928E-02 0.  1.
       -1   -1    0    0    0  501  0.00000000000E+00  0.00000000000E+00 -0.18478518184E+03  0.18478518191E+03  0.50400001928E-02 0. -1.
    10030    2    1    2    0    0  0.00000000000E+00  0.00000000000E+00  0.14111582662E+03  0.51068619042E+03  0.49080210733E+03 0.  0.
        1    1    3    3  502    0 -0.91678471316E+02 -0.19617141577E+03  0.19070685546E+03  0.28854336106E+03  0.50400001928E-02 0.  1.
       -1    1    3    3    0  502  0.91678471316E+02  0.19617141577E+03 -0.49591028842E+02  0.22214282936E+03  0.50400001928E-02 0. -1.
</event>
<event>
 5   0  0.2413301E-01  0.4856670E+03  0.7818609E-02  0.1017589E+00
       -2   -1    0    0    0  501  0.00000000000E+00  0.00000000000E+00  0.13254224223E+03  0.13254224226E+03  0.25500000920E-02 0.  1.
        2   -1    0    0  501    0  0.00000000000E+00  0.00000000000E+00 -0.44490041120E+03  0.44490041121E+03  0.25500000920E-02 0. -1.
    10030    2    1    2    0    0  0.00000000000E+00  0.00000000000E+00 -0.31235816897E+03  0.57744265347E+03  0.48566695618E+03 0.  0.
        4    1    3    3  502    0 -0.21204406495E+03 -0.11708311873E+03 -0.13574601310E+03  0.27766839061E+03  0.12699999809E+01 0. -1.
       -4    1    3    3    0  502  0.21204406495E+03  0.11708311873E+03 -0.17661215587E+03  0.29977426286E+03  0.12699999809E+01 0.  1.
</event>
<event>
 5   0  0.2466034E-01  0.5039197E+03  0.7818609E-02  0.1012761E+00
        2   -1    0    0  501    0  0.00000000000E+00  0.00000000000E+00  0.94967882686E+03  0.94967882686E+03  0.25500000920E-02 0.  1.
       -2   -1    0    0    0  501  0.00000000000E+00  0.00000000000E+00 -0.66847614535E+02  0.66847614584E+02  0.25500000920E-02 0. -1.
    10030    2    1    2    0    0  0.00000000000E+00  0.00000000000E+00  0.88283121232E+03  0.10165264414E+04  0.50391969272E+03 0.  0.
        3    1    3    3  502    0 -0.71428441693E+02 -0.62033915414E+02  0.91248960621E+03  0.91738079367E+03  0.10100000352E+00 0.  1.
       -3    1    3    3    0  502  0.71428441693E+02  0.62033915414E+02 -0.29658393889E+02  0.99145647778E+02  0.10100000352E+00 0. -1.
</event>
<event>
 5   0  0.9868500E-02  0.4963892E+03  0.7818609E-02  0.1014726E+00
       -4   -1    0    0    0  501  0.00000000000E+00  0.00000000000E+00  0.92383055549E+02  0.92391784551E+02  0.12699999809E+01 0.  1.
        4   -1    0    0  501    0  0.00000000000E+00  0.00000000000E+00 -0.66675423974E+03  0.66675544925E+03  0.12699999809E+01 0. -1.
    10030    2    1    2    0    0  0.00000000000E+00  0.00000000000E+00 -0.57437118419E+03  0.75914723380E+03  0.49638922769E+03 0.  0.
        3    1    3    3  502    0  0.21793298865E+03  0.38322634999E+02 -0.11526490544E+03  0.24949833772E+03  0.10100000352E+00 0.  1.
       -3    1    3    3    0  502 -0.21793298865E+03 -0.38322634999E+02 -0.45910627874E+03  0.50964889608E+03  0.10100000352E+00 0. -1.
</event>
<event>
 5   0  0.1439814E-01  0.4967532E+03  0.7818609E-02  0.1014630E+00
       -1   -1    0    0    0  501  0.00000000000E+00  0.00000000000E+00  0.80318311844E+02  0.80318312002E+02  0.50400001928E-02 0. -1.
        1   -1    0    0  501    0  0.00000000000E+00  0.00000000000E+00 -0.76808058529E+03  0.76808058531E+03  0.50400001928E-02 0.  1.
    10030    2    1    2    0    0  0.00000000000E+00  0.00000000000E+00 -0.68776227345E+03  0.84839889731E+03  0.49675320249E+03 0.  0.
        4    1    3    3  502    0 -0.50533480953E+01  0.52034992210E+02 -0.75857151996E+03  0.76037197511E+03  0.12699999809E+01 0.  1.
       -4    1    3    3    0  502  0.50533480953E+01 -0.52034992210E+02  0.70809246509E+02  0.88026922202E+02  0.12699999809E+01 0. -1.
</event>
<event>
 5   0  0.2511944E-01  0.4948978E+03  0.7818609E-02  0.1015119E+00
       -2   -1    0    0    0  501  0.00000000000E+00  0.00000000000E+00  0.29448079592E+02  0.29448079702E+02  0.25500000920E-02 0. -1.
        2   -1    0    0  501    0  0.00000000000E+00  0.00000000000E+00 -0.20792849878E+04  0.20792849878E+04  0.25500000920E-02 0.  1.
    10030    2    1    2    0    0  0.00000000000E+00  0.00000000000E+00 -0.20498369082E+04  0.21087330675E+04  0.49489776695E+03 0.  0.
        1    1    3    3  502    0 -0.33077147392E+02 -0.10932477467E+03 -0.19602418588E+04  0.19635666908E+04  0.50400001928E-02 0.  1.
       -1    1    3    3    0  502  0.33077147392E+02  0.10932477467E+03 -0.89595049429E+02  0.14516637677E+03  0.50400001928E-02 0. -1.
</event>
<event>
 5   0  0.1448458E-01  0.5304202E+03  0.7818609E-02  0.1006130E+00
       -1   -1    0    0    0  501  0.00000000000E+00  0.00000000000E+00  0.42868233194E+03  0.42868233197E+03  0.50400001928E-02 0. -1.
        1   -1    0    0  501    0  0.00000000000E+00  0.00000000000E+00 -0.16407579480E+03  0.16407579487E+03  0.50400001928E-02 0.  1.
    10030    2    1    2    0    0  0.00000000000E+00  0.00000000000E+00  0.26460653714E+03  0.59275812684E+03  0.53042018951E+03 0.  0.
        5    1    3    3  502    0  0.10279281628E+03  0.20998604673E+03  0.27212265156E+03  0.35879427307E+03  0.46999998093E+01 0. -1.
       -5    1    3    3    0  502 -0.10279281628E+03 -0.20998604673E+03 -0.75161144173E+01  0.23396385377E+03  0.46999998093E+01 0.  1.
</event>
<event>
 5   0  0.1439814E-01  0.4987935E+03  0.7818609E-02  0.1014094E+00
        1   -1    0    0  501    0  0.00000000000E+00  0.00000000000E+00  0.58380749601E+03  0.58380749603E+03  0.50400001928E-02 0. -1.
       -1   -1    0    0    0  501  0.00000000000E+00  0.00000000000E+00 -0.10653979142E+03  0.10653979154E+03  0.50400001928E-02 0.  1.
    10030    2    1    2    0    0  0.00000000000E+00  0.00000000000E+00  0.47726770459E+03  0.69034728758E+03  0.49879345988E+03 0.  0.
        4    1    3    3  502    0  0.60753920826E+02  0.23027467246E+03  0.13618116017E+03  0.27434355279E+03  0.12699999809E+01 0.  1.
       -4    1    3    3    0  502 -0.60753920826E+02 -0.23027467246E+03  0.34108654441E+03  0.41600373478E+03  0.12699999809E+01 0. -1.
</event>
<event>
 5   0  0.2466034E-01  0.5041252E+03  0.7818609E-02  0.1012708E+00
        2   -1    0    0  501    0  0.00000000000E+00  0.00000000000E+00  0.83410974007E+03  0.83410974008E+03  0.25500000920E-02 0. -1.
       -2   -1    0    0    0  501  0.00000000000E+00  0.00000000000E+00 -0.76171684134E+02  0.76171684177E+02  0.25500000920E-02 0.  1.
    10030    2    1    2    0    0  0.00000000000E+00  0.00000000000E+00  0.75793805594E+03  0.91028142426E+03  0.50412515777E+03 0.  0.
        3    1    3    3  502    0 -0.14719563155E+03 -0.56882591302E+02  0.24058816052E+02  0.15962775439E+03  0.10100000352E+00 0.  1.
       -3    1    3    3    0  502  0.14719563155E+03  0.56882591302E+02  0.73387923989E+03  0.75065366987E+03  0.10100000352E+00 0. -1.
</event>
<event>
 5   0  0.1439814E-01  0.5184925E+03  0.7818609E-02  0.1009062E+00
        1   -1    0    0  501    0  0.00000000000E+00  0.00000000000E+00  0.36019285158E+03  0.36019285162E+03  0.50400001928E-02 0.  1.
       -1   -1    0    0    0  501  0.00000000000E+00  0.00000000000E+00 -0.18659065370E+03  0.18659065376E+03  0.50400001928E-02 0. -1.
    10030    2    1    2    0    0  0.00000000000E+00  0.00000000000E+00  0.17360219789E+03  0.54678350538E+03  0.51849250587E+03 0.  0.
        4    1    3    3  502    0 -0.43042768943E+02  0.60590780282E+02  0.34871343938E+03  0.35654817110E+03  0.12699999809E+01 0.  1.
       -4    1    3    3    0  502  0.43042768943E+02 -0.60590780282E+02 -0.17511124149E+03  0.19023533428E+03  0.12699999809E+01 0. -1.
</event>
<event>
 5   0  0.1529146E-01  0.5027976E+03  0.7818609E-02  0.1013051E+00
       -1   -1    0    0    0  501  0.00000000000E+00  0.00000000000E+00  0.12991694658E+03  0.12991694668E+03  0.50400001928E-02 0. -1.
        1   -1    0    0  501    0  0.00000000000E+00  0.00000000000E+00 -0.48647505107E+03  0.48647505110E+03  0.50400001928E-02 0.  1.
    10030    2    1    2    0    0  0.00000000000E+00  0.00000000000E+00 -0.35655810449E+03  0.61639199778E+03  0.50279758656E+03 0.  0.
        1    1    3    3  502    0  0.65437392925E+02  0.65710795485E+02  0.10818205462E+03  0.14248971192E+03  0.50400001928E-02 0. -1.
       -1    1    3    3    0  502 -0.65437392925E+02 -0.65710795485E+02 -0.46474015910E+03  0.47390228586E+03  0.50400001928E-02 0.  1.
</event>
<event>
 5   0  0.1453602E-01  0.4823483E+03  0.7818609E-02  0.1018492E+00
        1   -1    0    0  501    0  0.00000000000E+00  0.00000000000E+00  0.34603208792E+03  0.34603208796E+03  0.50400001928E-02 0. -1.
       -1   -1    0    0    0  501  0.00000000000E+00  0.00000000000E+00 -0.16809124977E+03  0.16809124984E+03  0.50400001928E-02 0.  1.
    10030    2    1    2    0    0  0.00000000000E+00  0.00000000000E+00  0.17794083816E+03  0.51412333781E+03  0.48234828142E+03 0.  0.
        2    1    3    3  502    0  0.22322478393E+03  0.76820023782E+02  0.14155976015E+03  0.27526312124E+03  0.25500000920E-02 0. -1.
       -2    1    3    3    0  502 -0.22322478393E+03 -0.76820023782E+02  0.36381078006E+02  0.23886021657E+03  0.25500000920E-02 0.  1.
</event>
<event>
 5   0  0.2511944E-01  0.4996657E+03  0.7818609E-02  0.1013866E+00
        2   -1    0    0  501    0  0.00000000000E+00  0.00000000000E+00  0.16517683079E+04  0.16517683079E+04  0.25500000920E-02 0. -1.
       -2   -1    0    0    0  501  0.00000000000E+00  0.00000000000E+00 -0.37787654646E+02  0.37787654732E+02  0.25500000920E-02 0.  1.
    10030    2    1    2    0    0  0.00000000000E+00  0.00000000000E+00  0.16139806533E+04  0.16895559627E+04  0.49966569003E+03 0.  0.
        1    1    3    3  502    0  0.17547063116E+02 -0.22260907437E+03  0.11858512448E+04  0.12066921207E+04  0.50400001928E-02 0. -1.
       -1    1    3    3    0  502 -0.17547063116E+02  0.22260907437E+03  0.42812940853E+03  0.48286384197E+03  0.50400001928E-02 0.  1.
</event>
<event>
 5   0  0.1448458E-01  0.4903385E+03  0.7818609E-02  0.1016332E+00
        1   -1    0    0  501    0  0.00000000000E+00  0.00000000000E+00  0.13650957044E+03  0.13650957053E+03  0.50400001928E-02 0.  1.
       -1   -1    0    0    0  501  0.00000000000E+00  0.00000000000E+00 -0.44032043897E+03  0.44032043900E+03  0.50400001928E-02 0. -1.
    10030    2    1    2    0    0  0.00000000000E+00  0.00000000000E+00 -0.30381086853E+03  0.57683000954E+03  0.49033847092E+03 0.  0.
        5    1    3    3  502    0 -0.24000569353E+03  0.41827756708E+02 -0.12004346479E+03  0.27163360911E+03  0.46999998093E+01 0.  1.
       -5    1    3    3    0  502  0.24000569353E+03 -0.41827756708E+02 -0.18376740374E+03  0.30519640043E+03  0.46999998093E+01 0. -1.
</event>
<event>
 5   0  0.2466034E-01  0.5257611E+03  0.7818609E-02  0.1007265E+00
       -2   -1    0    0    0  501  0.00000000000E+00  0.00000000000E+00  0.11404945416E+03  0.11404945419E+03  0.25500000920E-02 0.  1.
        2   -1    0    0  501    0  0.00000000000E+00  0.00000000000E+00 -0.60593163700E+03  0.60593163701E+03  0.25500000920E-02 0. -1.
    10030    2    1    2    0    0  0.00000000000E+00  0.00000000000E+00 -0.49188218284E+03  0.71998109120E+03  0.52576105779E+03 0.  0.
        3    1    3    3  502    0  0.97681780841E+02 -0.21629191048E+03 -0.91117840191E+02  0.25421721391E+03  0.10100000352E+00 0.  1.
       -3    1    3    3    0  502 -0.97681780841E+02  0.21629191048E+03 -0.40076434265E+03  0.46576387729E+03  0.10100000352E+00 0. -1.
</event>
<event>
 5   0  0.2488968E-01  0.4843397E+03  0.7818609E-02  0.1017949E+00
       -2   -1    0    0    0  501  0.00000000000E+00  0.00000000000E+00  0.19365142702E+03  0.19365142704E+03  0.25500000920E-02 0. -1.
        2   -1    0    0  501    0  0.00000000000E+00  0.00000000000E+00 -0.30284433635E+03  0.30284433636E+03  0.25500000920E-02 0.  1.
    10030    2    1    2    0    0  0.00000000000E+00  0.00000000000E+00 -0.10919290932E+03  0.49649576340E+03  0.48433970684E+03 0.  0.
        2    1    3    3  502    0 -0.15353438469E+03 -0.14425879904E+03  0.67828039432E+02  0.22132340889E+03  0.25500000920E-02 0. -1.
       -2    1    3    3    0  502  0.15353438469E+03  0.14425879904E+03 -0.17702094875E+03  0.27517235451E+03  0.25500000920E-02 0.  1.
</event>
<event>
 5   0  0.2511944E-01  0.5028738E+03  0.7818609E-02  0.1013032E+00
        2   -1    0    0  501    0  0.00000000000E+00  0.00000000000E+00  0.13587534155E+04  0.13587534155E+04  0.25500000920E-02 0.  1.
       -2   -1    0    0    0  501  0.00000000000E+00  0.00000000000E+00 -0.46528317700E+02  0.46528317769E+02  0.25500000920E-02 0. -1.
    10030    2    1    2    0    0  0.00000000000E+00  0.00000000000E+00  0.13122250978E+04  0.14052817333E+04  0.50287378394E+03 0.  0.
        1    1    3    3  502    0  0.12546101861E+03  0.99505016379E+02  0.11978337485E+04  0.12084897205E+04  0.50400001928E-02 0.  1.
       -1    1    3    3    0  502 -0.12546101861E+03 -0.99505016379E+02  0.11439134933E+03  0.19679201280E+03  0.50400001928E-02 0. -1.
</event>
<event>
 5   0  0.2466034E-01  0.4975880E+03  0.7818609E-02  0.1014410E+00
       -2   -1    0    0    0  501  0.00000000000E+00  0.00000000000E+00  0.71013840015E+02  0.71013840060E+02  0.25500000920E-02 0.  1.
        2   -1    0    0  501    0  0.00000000000E+00  0.00000000000E+00 -0.87163922623E+03  0.87163922624E+03  0.25500000920E-02 0. -1.
    10030    2    1    2    0    0  0.00000000000E+00  0.00000000000E+00 -0.80062538622E+03  0.94265306630E+03  0.49758797648E+03 0.  0.
        3    1    3    3  502    0 -0.10050408903E+03  0.22666454298E+03 -0.43916274144E+03  0.50432312125E+03  0.10100000352E+00 0.  1.
       -3    1    3    3    0  502  0.10050408903E+03 -0.22666454298E+03 -0.36146264478E+03  0.43832994505E+03  0.10100000352E+00 0. -1.
</event>
<event>
 5   0  0.1529146E-01  0.5023435E+03  0.7818609E-02  0.1013169E+00
        1   -1    0    0  501    0  0.00000000000E+00  0.00000000000E+00  0.28503326970E+03  0.28503326974E+03  0.50400001928E-02 0.  1.
       -1   -1    0    0    0  501  0.00000000000E+00  0.00000000000E+00 -0.22133291045E+03  0.22133291051E+03  0.50400001928E-02 0. -1.
    10030    2    1    2    0    0  0.00000000000E+00  0.00000000000E+00  0.63700359248E+02  0.50636618025E+03  0.50234348083E+03 0.  0.
        1    1    3    3  502    0  0.52392512641E+02 -0.90939004023E+02  0.26187122559E+03  0.28211950775E+03  0.50400001928E-02 0.  1.
       -1    1    3    3    0  502 -0.52392512641E+02  0.90939004023E+02 -0.19817086634E+03  0.22424667250E+03  0.50400001928E-02 0. -1.
</event>
<event>
 5   0  0.1448458E-01  0.5065179E+03  0.7818609E-02  0.1012092E+00
        1   -1    0    0  501    0  0.00000000000E+00  0.00000000000E+00  0.10263264490E+04  0.10263264490E+04  0.50400001928E-02 0. -1.
       -1   -1    0    0    0  501  0.00000000000E+00  0.00000000000E+00 -0.62494822743E+02  0.62494822946E+02  0.50400001928E-02 0.  1.
    10030    2    1    2    0    0  0.00000000000E+00  0.00000000000E+00  0.96383162626E+03  0.10888212720E+04  0.50651787579E+03 0.  0.
        5    1    3    3  502    0 -0.12969369434E+03 -0.10736500167E+03  0.75357241788E+02  0.18452236131E+03  0.46999998093E+01 0.  1.
       -5    1    3    3    0  502  0.12969369434E+03  0.10736500167E+03  0.88847438447E+03  0.90429891065E+03  0.46999998093E+01 0. -1.
</event>
<event>
 5   0  0.1448458E-01  0.5093589E+03  0.7818609E-02  0.1011365E+00
       -1   -1    0    0    0  501  0.00000000000E+00  0.00000000000E+00  0.12791315466E+03  0.12791315476E+03  0.50400001928E-02 0. -1.
        1   -1    0    0  501    0  0.00000000000E+00  0.00000000000E+00 -0.50707544347E+03  0.50707544350E+03  0.50400001928E-02 0.  1.
    10030    2    1    2    0    0  0.00000000000E+00  0.00000000000E+00 -0.37916228882E+03  0.63498859825E+03  0.50935888983E+03 0.  0.
        5    1    3    3  502    0 -0.16246292009E+03 -0.16554111208E+03 -0.58585916444E+02  0.23927486244E+03  0.46999998093E+01 0. -1.
       -5    1    3    3    0  502  0.16246292009E+03  0.16554111208E+03 -0.32057637237E+03  0.39571373581E+03  0.46999998093E+01 0.  1.
</event>
<event>
 5   0  0.9868500E-02  0.4999686E+03  0.7818609E-02  0.1013787E+00
        3   -1    0    0  501    0  0.00000000000E+00  0.00000000000E+00  0.89489085252E+02  0.89489142248E+02  0.10100000352E+00 0.  1.
       -3   -1    0    0    0  501  0.00000000000E+00  0.00000000000E+00 -0.69832129139E+03  0.69832129869E+03  0.10100000352E+00 0. -1.
    10030    2    1    2    0    0  0.00000000000E+00  0.00000000000E+00 -0.60883220613E+03  0.78781044094E+03  0.49996863464E+03 0.  0.
        5    1    3    3  502    0 -0.13728329388E+03  0.18169841947E+03 -0.14211658487E+03  0.26847761938E+03  0.46999998093E+01 0.  1.
       -5    1    3    3    0  502  0.13728329388E+03 -0.18169841947E+03 -0.46671562127E+03  0.51933282156E+03  0.46999998093E+01 0. -1.
</event>
<event>
 5   0  0.2413301E-01  0.5021670E+03  0.7818609E-02  0.1013215E+00
        2   -1    0    0  501    0  0.00000000000E+00  0.00000000000E+00  0.33187282753E+03  0.33187282753E+03  0.25500000920E-02 0. -1.
       -2   -1    0    0    0  501  0.00000000000E+00  0.00000000000E+00 -0.18996109954E+03  0.18996109956E+03  0.25500000920E-02 0.  1.
    10030    2    1    2    0    0  0.00000000000E+00  0.00000000000E+00  0.14191172798E+03  0.52183392709E+03  0.50216701298E+03 0.  0.
        4    1    3    3  502    0 -0.33550969578E+02  0.17096309062E+03 -0.11692106180E+03  0.20982419667E+03  0.12699999809E+01 0.  1.
       -4    1    3    3    0  502  0.33550969578E+02 -0.17096309062E+03  0.25883278978E+03  0.31200973043E+03  0.12699999809E+01 0. -1.
</event>
<event>
 5   0  0.2488968E-01  0.4813138E+03  0.7818609E-02  0.1018775E+00
       -2   -1    0    0    0  501  0.00000000000E+00  0.00000000000E+00  0.30882489407E+02  0.30882489512E+02  0.25500000920E-02 0.  1.
        2   -1    0    0  501    0  0.00000000000E+00  0.00000000000E+00 -0.18753589427E+04  0.18753589427E+04  0.25500000920E-02 0. -1.
    10030    2    1    2    0    0  0.00000000000E+00  0.00000000000E+00 -0.18444764533E+04  0.19062414322E+04  0.48131383851E+03 0.  0.
        2    1    3    3  502    0 -0.48498953912E+02 -0.60429862000E+02 -0.18246042840E+04  0.18262488084E+04  0.25500000920E-02 0. -1.
       -2    1    3    3    0  502  0.48498953912E+02  0.60429862000E+02 -0.19872169259E+02  0.79992623844E+02  0.25500000920E-02 0.  1.
</event>
<event>
 5   0  0.1453602E-01  0.5054590E+03  0.7818609E-02  0.1012364E+00
        1   -1    0    0  501    0  0.00000000000E+00  0.00000000000E+00  0.22192734879E+03  0.22192734885E+03  0.50400001928E-02 0. -1.
       -1   -1    0    0    0  501  0.00000000000E+00  0.00000000000E+00 -0.28780676609E+03  0.28780676614E+03  0.50400001928E-02 0.  1.
    10030    2    1    2    0    0  0.00000000000E+00  0.00000000000E+00 -0.65879417301E+02  0.50973411498E+03  0.50545897000E+03 0.  0.
        2    1    3    3  502    0 -0.24652228477E+03 -0.51656589590E+02 -0.53864966708E+02  0.25757149451E+03  0.25500000920E-02 0.  1.
       -2    1    3    3    0  502  0.24652228477E+03  0.51656589590E+02 -0.12014450593E+02  0.25216262048E+03  0.25500000920E-02 0. -1.
</event>
<event>
 5   0  0.9868500E-02  0.4996778E+03  0.7818609E-02  0.1013863E+00
        3   -1    0    0  501    0  0.00000000000E+00  0.00000000000E+00  0.61801660481E+03  0.61801661306E+03  0.10100000352E+00 0.  1.
       -3   -1    0    0    0  501  0.00000000000E+00  0.00000000000E+00 -0.10099965893E+03  0.10099970943E+03  0.10100000352E+00 0. -1.
    10030    2    1    2    0    0  0.00000000000E+00  0.00000000000E+00  0.51701694588E+03  0.71901632249E+03  0.49967784589E+03 0.  0.
        3    1    3    3  502    0 -0.19365271043E+03 -0.87788558941E+02  0.44728811686E+03  0.49525233267E+03  0.10100000352E+00 0.  1.
       -3    1    3    3    0  502  0.19365271043E+03  0.87788558941E+02  0.69728829023E+02  0.22376398981E+03  0.10100000352E+00 0. -1.
</event>
<event>
 5   0  0.9868500E-02  0.5018550E+03  0.7818609E-02  0.1013296E+00
        4   -1    0    0  501    0  0.00000000000E+00  0.00000000000E+00  0.18929889536E+03  0.18930315551E+03  0.12699999809E+01 0.  1.
       -4   -1    0    0    0  501  0.00000000000E+00  0.00000000000E+00 -0.33261084256E+03  0.33261326716E+03  0.12699999809E+01 0. -1.
    10030    2    1    2    0    0  0.00000000000E+00  0.00000000000E+00 -0.14331194720E+03  0.52191642267E+03  0.50185499703E+03 0.  0.
        1    1    3    3  502    0  0.36204707491E+02 -0.12158339641E+03  0.15349624916E+03  0.19913412982E+03  0.50400001928E-02 0.  1.
       -1    1    3    3    0  502 -0.36204707491E+02  0.12158339641E+03 -0.29680819636E+03  0.32278229285E+03  0.50400001928E-02 0. -1.
</event>
<event>
 5   0  0.2511944E-01  0.5079228E+03  0.7818609E-02  0.1011731E+00
        2   -1    0    0  501    0  0.00000000000E+00  0.00000000000E+00  0.89239116416E+03  0.89239116417E+03  0.25500000920E-02 0. -1.
       -2   -1    0    0    0  501  0.00000000000E+00  0.00000000000E+00 -0.72273680862E+02  0.72273680907E+02  0.25500000920E-02 0.  1.
    10030    2    1    2    0    0  0.00000000000E+00  0.00000000000E+00  0.82011748330E+03  0.96466484508E+03  0.50792280605E+03 0.  0.
        1    1    3    3  502    0  0.81263984808E+02  0.21484524606E+03  0.61579140415E+03  0.65723768032E+03  0.50400001928E-02 0.  1.
       -1    1    3    3    0  502 -0.81263984808E+02 -0.21484524606E+03  0.20432607915E+03  0.30742716475E+03  0.50400001928E-02 0. -1.
</event>
<event>
 5   0  0.1439814E-01  0.5135486E+03  0.7818609E-02  0.1010302E+00
        1   -1    0    0  501    0  0.00000000000E+00  0.00000000000E+00  0.58799524819E+03  0.58799524821E+03  0.50400001928E-02 0. -1.
       -1   -1    0    0    0  501  0.00000000000E+00  0.00000000000E+00 -0.11213192707E+03  0.11213192719E+03  0.50400001928E-02 0.  1.
    10030    2    1    2    0    0  0.00000000000E+00  0.00000000000E+00  0.47586332112E+03  0.70012717540E+03  0.51354859687E+03 0.  0.
        4    1    3    3  502    0 -0.49269533308E+02  0.25164618224E+03  0.21973567899E+03  0.33769612001E+03  0.12699999809E+01 0. -1.
       -4    1    3    3    0  502  0.49269533308E+02 -0.25164618224E+03  0.25612764213E+03  0.36243105539E+03  0.12699999809E+01 0.  1.
</event>
<event>
 5   0  0.1448458E-01  0.4974240E+03  0.7818609E-02  0.1014453E+00
        1   -1    0    0  501    0  0.00000000000E+00  0.00000000000E+00  0.62169995151E+02  0.62169995355E+02  0.50400001928E-02 0. -1.
       -1   -1    0    0    0  501  0.00000000000E+00  0.00000000000E+00 -0.99497620605E+03  0.99497620607E+03  0.50400001928E-02 0.  1.
    10030    2    1    2    0    0  0.00000000000E+00  0.00000000000E+00 -0.93280621090E+03  0.10571462014E+04  0.49742402845E+03 0.  0.
        5    1    3    3  502    0 -0.38773221478E+02 -0.21420555288E+03 -0.21094770873E+03  0.30316399424E+03  0.46999998093E+01 0. -1.
       -5    1    3    3    0  502  0.38773221478E+02  0.21420555288E+03 -0.72185850217E+03  0.75398220718E+03  0.46999998093E+01 0.  1.
</event>
<event>
 5   0  0.1529146E-01  0.5029262E+03  0.7818609E-02  0.1013018E+00
        1   -1    0    0  501    0  0.00000000000E+00  0.00000000000E+00  0.38865521787E+03  0.38865521790E+03  0.50400001928E-02 0. -1.
       -1   -1    0    0    0  501  0.00000000000E+00  0.00000000000E+00 -0.16269868323E+03  0.16269868331E+03  0.50400001928E-02 0.  1.
    10030    2    1    2    0    0  0.00000000000E+00  0.00000000000E+00  0.22595653464E+03  0.55135390121E+03  0.50292620615E+03 0.  0.
        1    1    3    3  502    0  0.93178408964E+02 -0.15082983843E+03  0.30848075294E+03  0.35579801997E+03  0.50400001928E-02 0. -1.
       -1    1    3    3    0  502 -0.93178408964E+02  0.15082983843E+03 -0.82524218297E+02  0.19555588124E+03  0.50400001928E-02 0.  1.
</event>
<event>
 5   0  0.1413361E-01  0.5008381E+03  0.7818609E-02  0.1013560E+00
       -1   -1    0    0    0  501  0.00000000000E+00  0.00000000000E+00  0.48586867974E+02  0.48586868235E+02  0.50400001928E-02 0.  1.
        1   -1    0    0  501    0  0.00000000000E+00  0.00000000000E+00 -0.12906719230E+04  0.12906719230E+04  0.50400001928E-02 0. -1.
    10030    2    1    2    0    0  0.00000000000E+00  0.00000000000E+00 -0.12420850550E+04  0.13392587912E+04  0.50083812356E+03 0.  0.
        3    1    3    3  502    0 -0.73429041140E+02 -0.32995755396E+00  0.19151684886E+02  0.75886297773E+02  0.10100000352E+00 0.  1.
       -3    1    3    3    0  502  0.73429041140E+02  0.32995755396E+00 -0.12612367399E+04  0.12633724935E+04  0.10100000352E+00 0. -1.
</event>
<event>
 5   0  0.9868500E-02  0.4447363E+03  0.7818609E-02  0.1029303E+00
       -3   -1    0    0    0  501  0.00000000000E+00  0.00000000000E+00  0.92059973903E+03  0.92059974457E+03  0.10100000352E+00 0. -1.
        3   -1    0    0  501    0  0.00000000000E+00  0.00000000000E+00 -0.53712327498E+02  0.53712422458E+02  0.10100000352E+00 0.  1.
    10030    2    1    2    0    0  0.00000000000E+00  0.00000000000E+00  0.86688741153E+03  0.97431216703E+03  0.44473634273E+03 0.  0.
        3    1    3    3  502    0 -0.12469275911E+03  0.13909968370E+03  0.16918106750E+03  0.25203025608E+03  0.10100000352E+00 0.  1.
       -3    1    3    3    0  502  0.12469275911E+03 -0.13909968370E+03  0.69770634403E+03  0.72228191095E+03  0.10100000352E+00 0. -1.
</event>
<event>
 5   0  0.2466034E-01  0.4959586E+03  0.7818609E-02  0.1014839E+00
        2   -1    0    0  501    0  0.00000000000E+00  0.00000000000E+00  0.34209498804E+03  0.34209498805E+03  0.25500000920E-02 0.  1.
       -2   -1    0    0    0  501  0.00000000000E+00  0.00000000000E+00 -0.17975630720E+03  0.17975630722E+03  0.25500000920E-02 0. -1.
    10030    2    1    2    0    0  0.00000000000E+00  0.00000000000E+00  0.16233868084E+03  0.52185129527E+03  0.49595859412E+03 0.  0.
        3    1    3    3  502    0 -0.10021492998E+03 -0.16782416810E+03 -0.79393982937E+02  0.21097724597E+03  0.10100000352E+00 0. -1.
       -3    1    3    3    0  502  0.10021492998E+03  0.16782416810E+03  0.24173266378E+03  0.31087404930E+03  0.10100000352E+00 0.  1.
</event>
<event>
 5   0  0.2511944E-01  0.4983097E+03  0.7818609E-02  0.1014221E+00
        2   -1    0    0  501    0  0.00000000000E+00  0.00000000000E+00  0.21977592961E+04  0.21977592961E+04  0.25500000920E-02 0.  1.
       -2   -1    0    0    0  501  0.00000000000E+00  0.00000000000E+00 -0.28246105394E+02  0.28246105510E+02  0.25500000920E-02 0. -1.
    10030    2    1    2    0    0  0.00000000000E+00  0.00000000000E+00  0.21695131907E+04  0.22260054016E+04  0.49830970626E+03 0.  0.
        1    1    3    3  502    0 -0.77528141939E+02  0.98259779622E+02  0.12238110712E+03  0.17505065692E+03  0.50400001928E-02 0. -1.
       -1    1    3    3    0  502  0.77528141939E+02 -0.98259779622E+02  0.20471320836E+04  0.20509547447E+04  0.50400001928E-02 0.  1.
</event>
<event>
 5   0  0.1448458E-01  0.4797411E+03  0.7818609E-02  0.1019206E+00
       -1   -1    0    0    0  501  0.00000000000E+00  0.00000000000E+00  0.23067185969E+03  0.23067185974E+03  0.50400001928E-02 0.  1.
        1   -1    0    0  501    0  0.00000000000E+00  0.00000000000E+00 -0.24943601313E+03  0.24943601318E+03  0.50400001928E-02 0. -1.
    10030    2    1    2    0    0  0.00000000000E+00  0.00000000000E+00 -0.18764153440E+02  0.48010787292E+03  0.47974105117E+03 0.  0.
        5    1    3    3  502    0 -0.14193687554E+03  0.88048635375E+02  0.16284582321E+03  0.23332271849E+03  0.46999998093E+01 0.  1.
       -5    1    3    3    0  502  0.14193687554E+03 -0.88048635375E+02 -0.18160997665E+03  0.24678515443E+03  0.46999998093E+01 0. -1.
</event>
<event>
 5   0  0.2413301E-01  0.5081086E+03  0.7818609E-02  0.1011684E+00
       -2   -1    0    0    0  501  0.00000000000E+00  0.00000000000E+00  0.86911283408E+02  0.86911283446E+02  0.25500000920E-02 0. -1.
        2   -1    0    0  501    0  0.00000000000E+00  0.00000000000E+00 -0.74263774654E+03  0.74263774654E+03  0.25500000920E-02 0.  1.
    10030    2    1    2    0    0  0.00000000000E+00  0.00000000000E+00 -0.65572646313E+03  0.82954902999E+03  0.50810864852E+03 0.  0.
        4    1    3    3  502    0  0.82758698452E+02 -0.18829714267E+03 -0.57132189719E+03  0.60721918548E+03  0.12699999809E+01 0. -1.
       -4    1    3    3    0  502 -0.82758698452E+02  0.18829714267E+03 -0.84404565938E+02  0.22232984451E+03  0.12699999809E+01 0.  1.
</event>
<event>
 5   0  0.1453602E-01  0.5098226E+03  0.7818609E-02  0.1011246E+00
       -1   -1    0    0    0  501  0.00000000000E+00  0.00000000000E+00  0.73744595091E+03  0.73744595093E+03  0.50400001928E-02 0. -1.
        1   -1    0    0  501    0  0.00000000000E+00  0.00000000000E+00 -0.88114631687E+02  0.88114631831E+02  0.50400001928E-02 0.  1.
    10030    2    1    2    0    0  0.00000000000E+00  0.00000000000E+00  0.64933131923E+03  0.82556058276E+03  0.50982262963E+03 0.  0.
        2    1    3    3  502    0 -0.35401588125E+02  0.33618677081E+02  0.72980474097E+03  0.73143588088E+03  0.25500000920E-02 0. -1.
       -2    1    3    3    0  502  0.35401588125E+02 -0.33618677081E+02 -0.80473421744E+02  0.94124701881E+02  0.25500000920E-02 0.  1.
</event>
<event>
 5   0  0.2504064E-01  0.6037813E+03  0.7818609E-02  0.9897592E-01
        2   -1    0    0  501    0  0.00000000000E+00  0.00000000000E+00  0.10865884180E+04  0.10865884180E+04  0.25500000920E-02 0.  1.
       -2   -1    0    0    0  501  0.00000000000E+00  0.00000000000E+00 -0.83875339968E+02  0.83875340007E+02  0.25500000920E-02 0. -1.
    10030    2    1    2    0    0  0.00000000000E+00  0.00000000000E+00  0.10027130780E+04  0.11704637580E+04  0.60378132793E+03 0.  0.
        5    1    3    3  502    0 -0.27786544648E+03  0.53160322172E+02  0.29729505332E+03  0.41041645305E+03  0.46999998093E+01 0. -1.
       -5    1    3    3    0  502  0.27786544648E+03 -0.53160322172E+02  0.70541802471E+03  0.76004730497E+03  0.46999998093E+01 0.  1.
</event>
<event>
 5   0  0.2504064E-01  0.5021531E+03  0.7818609E-02  0.1013218E+00
       -2   -1    0    0    0  501  0.00000000000E+00  0.00000000000E+00  0.12725100739E+03  0.12725100742E+03  0.25500000920E-02 0. -1.
        2   -1    0    0  501    0  0.00000000000E+00  0.00000000000E+00 -0.49539446587E+03  0.49539446588E+03  0.25500000920E-02 0.  1.
    10030    2    1    2    0    0  0.00000000000E+00  0.00000000000E+00 -0.36814345848E+03  0.62264547330E+03  0.50215314337E+03 0.  0.
        5    1    3    3  502    0 -0.12276719601E+02 -0.31842900973E+02 -0.49245006727E+03  0.49365356977E+03  0.46999998093E+01 0.  1.
       -5    1    3    3    0  502  0.12276719601E+02  0.31842900973E+02  0.12430660880E+03  0.12899190353E+03  0.46999998093E+01 0. -1.
</event>
<event>
 5   0  0.2466034E-01  0.5031735E+03  0.7818609E-02  0.1012954E+00
       -2   -1    0    0    0  501  0.00000000000E+00  0.00000000000E+00  0.16449139585E+03  0.16449139587E+03  0.25500000920E-02 0. -1.
        2   -1    0    0  501    0  0.00000000000E+00  0.00000000000E+00 -0.38479763712E+03  0.38479763713E+03  0.25500000920E-02 0.  1.
    10030    2    1    2    0    0  0.00000000000E+00  0.00000000000E+00 -0.22030624127E+03  0.54928903300E+03  0.50317353054E+03 0.  0.
        3    1    3    3  502    0 -0.19316666281E+03  0.60384422185E+02 -0.27330357715E+03  0.34008012813E+03  0.10100000352E+00 0.  1.
       -3    1    3    3    0  502  0.19316666281E+03 -0.60384422185E+02  0.52997335885E+02  0.20920890487E+03  0.10100000352E+00 0. -1.
</event>
<event>
 5   0  0.2504064E-01  0.4878870E+03  0.7818609E-02  0.1016990E+00
        2   -1    0    0  501    0  0.00000000000E+00  0.00000000000E+00  0.50622887057E+03  0.50622887058E+03  0.25500000920E-02 0. -1.
       -2   -1    0    0    0  501  0.00000000000E+00  0.00000000000E+00 -0.11755242074E+03  0.11755242076E+03  0.25500000920E-02 0.  1.
    10030    2    1    2    0    0  0.00000000000E+00  0.00000000000E+00  0.38867644984E+03  0.62378129134E+03  0.48788699180E+03 0.  0.
        5    1    3    3  502    0  0.72535048733E+02  0.61407594591E+02  0.48152298846E+03  0.49083470169E+03  0.46999998093E+01 0. -1.
       -5    1    3    3    0  502 -0.72535048733E+02 -0.61407594591E+02 -0.92846538623E+02  0.13294658965E+03  0.46999998093E+01 0.  1.
</event>
<event>
 5   0  0.2488968E-01  0.4781274E+03  0.7818609E-02  0.1019651E+00
        2   -1    0    0  501    0  0.00000000000E+00  0.00000000000E+00  0.10267668618E+04  0.10267668618E+04  0.25500000920E-02 0.  1.
       -2   -1    0    0    0  501  0.00000000000E+00  0.00000000000E+00 -0.55661570271E+02  0.55661570330E+02  0.25500000920E-02 0. -1.
    10030    2    1    2    0    0  0.00000000000E+00  0.00000000000E+00  0.97110529151E+03  0.10824284321E+04  0.47812741341E+03 0.  0.
        2    1    3    3  502    0  0.16548362286E+03 -0.74412956258E+02  0.13316041563E+03  0.22506402154E+03  0.25500000920E-02 0.  1.
       -2    1    3    3    0  502 -0.16548362286E+03  0.74412956258E+02  0.83794487588E+03  0.85736441057E+03  0.25500000920E-02 0. -1.
</event>
<event>
 5   0  0.2504064E-01  0.4923913E+03  0.7818609E-02  0.1015784E+00
       -2   -1    0    0    0  501  0.00000000000E+00  0.00000000000E+00  0.93510497083E+02  0.93510497118E+02  0.25500000920E-02 0. -1.
        2   -1    0    0  501    0  0.00000000000E+00  0.00000000000E+00 -0.64818698898E+03  0.64818698898E+03  0.25500000920E-02 0.  1.
    10030    2    1    2    0    0  0.00000000000E+00  0.00000000000E+00 -0.55467649189E+03  0.74169748610E+03  0.49239125726E+03 0.  0.
        5    1    3    3  502    0 -0.50984942763E+02 -0.16532802780E+03 -0.54108308300E+03  0.56808961782E+03  0.46999998093E+01 0.  1.
       -5    1    3    3    0  502  0.50984942763E+02  0.16532802780E+03 -0.13593408890E+02  0.17360786828E+03  0.46999998093E+01 0. -1.
</event>
<event>
 5   0  0.2488968E-01  0.5202675E+03  0.7818609E-02  0.1008620E+00
        2   -1    0    0  501    0  0.00000000000E+00  0.00000000000E+00  0.22031183240E+03  0.22031183241E+03  0.25500000920E-02 0.  1.
       -2   -1    0    0    0  501  0.00000000000E+00  0.00000000000E+00 -0.30715357397E+03  0.30715357398E+03  0.25500000920E-02 0. -1.
    10030    2    1    2    0    0  0.00000000000E+00  0.00000000000E+00 -0.86841741571E+02  0.52746540640E+03  0.52026749549E+03 0.  0.
        2    1    3    3  502    0  0.22039453178E+03  0.37971060056E+02  0.91285781179E+02  0.24155464163E+03  0.25500000920E-02 0.  1.
       -2    1    3    3    0  502 -0.22039453178E+03 -0.37971060056E+02 -0.17812752275E+03  0.28591076477E+03  0.25500000920E-02 0. -1.
</event>
<event>
 5   0  0.2413301E-01  0.4936072E+03  0.7818609E-02  0.1015461E+00
        2   -1    0    0  501    0  0.00000000000E+00  0.00000000000E+00  0.28906099366E+04  0.28906099366E+04  0.25500000920E-02 0. -1.
       -2   -1    0    0    0  501  0.00000000000E+00  0.00000000000E+00 -0.21072376743E+02  0.21072376898E+02  0.25500000920E-02 0.  1.
    10030    2    1    2    0    0  0.00000000000E+00  0.00000000000E+00  0.28695375598E+04  0.29116823135E+04  0.49360721967E+03 0.  0.
        4    1    3    3  502    0  0.24087077642E+03 -0.52018523992E+02  0.13543739260E+04  0.13766099673E+04  0.12699999809E+01 0.  1.
       -4    1    3    3    0  502 -0.24087077642E+03  0.52018523992E+02  0.15151636339E+04  0.15350723462E+04  0.12699999809E+01 0. -1.
</event>
<event>
 5   0  0.2511944E-01  0.4760953E+03  0.7818609E-02  0.1020214E+00
       -2   -1    0    0    0  501  0.00000000000E+00  0.00000000000E+00  0.28711114164E+03  0.28711114165E+03  0.25500000920E-02 0. -1.
        2   -1    0    0  501    0  0.00000000000E+00  0.00000000000E+00 -0.19736846069E+03  0.19736846071E+03  0.25500000920E-02 0.  1.
    10030    2    1    2    0    0  0.00000000000E+00  0.00000000000E+00  0.89742680950E+02  0.48447960236E+03  0.47609530172E+03 0.  0.
        1    1    3    3  502    0  0.18976006573E+03  0.14349002963E+03  0.36454470608E+02  0.24068070052E+03  0.50400001928E-02 0. -1.
       -1    1    3    3    0  502 -0.18976006573E+03 -0.14349002963E+03  0.53288210342E+02  0.24379890184E+03  0.50400001928E-02 0.  1.
</event>
<event>
 5   0  0.1529146E-01  0.4985842E+03  0.7818609E-02  0.1014149E+00
        1   -1    0    0  501    0  0.00000000000E+00  0.00000000000E+00  0.40044121696E+03  0.40044121699E+03  0.50400001928E-02 0. -1.
       -1   -1    0    0    0  501  0.00000000000E+00  0.00000000000E+00 -0.15519519617E+03  0.15519519625E+03  0.50400001928E-02 0.  1.
    10030    2    1    2    0    0  0.00000000000E+00  0.00000000000E+00  0.24524602079E+03  0.55563641324E+03  0.49858420854E+03 0.  0.
        1    1    3    3  502    0 -0.16122185080E+03 -0.11680955112E+03 -0.44576899140E+02  0.20401974505E+03  0.50400001928E-02 0.  1.
       -1    1    3    3    0  502  0.16122185080E+03  0.11680955112E+03  0.28982291993E+03  0.35161666819E+03  0.50400001928E-02 0. -1.
</event>
<event>
 5   0  0.1448458E-01  0.4813663E+03  0.7818609E-02  0.1018760E+00
       -1   -1    0    0    0  501  0.00000000000E+00  0.00000000000E+00  0.29964708763E+03  0.29964708767E+03  0.50400001928E-02 0. -1.
        1   -1    0    0  501    0  0.00000000000E+00  0.00000000000E+00 -0.19332202477E+03  0.19332202484E+03  0.50400001928E-02 0.  1.
    10030    2    1    2    0    0  0.00000000000E+00  0.00000000000E+00  0.10632506286E+03  0.49296911251E+03  0.48136631259E+03 0.  0.
        5    1    3    3  502    0 -0.18502200158E+03  0.14029356491E+03 -0.11533494549E+02  0.23253072253E+03  0.46999998093E+01 0.  1.
       -5    1    3    3    0  502  0.18502200158E+03 -0.14029356491E+03  0.11785855741E+03  0.26043838998E+03  0.46999998093E+01 0. -1.
</event>
<event>
 5   0  0.1453602E-01  0.5090487E+03  0.7818609E-02  0.1011444E+00
       -1   -1    0    0    0  501  0.00000000000E+00  0.00000000000E+00  0.14311217974E+03  0.14311217983E+03  0.50400001928E-02 0. -1.
        1   -1    0    0  501    0  0.00000000000E+00  0.00000000000E+00 -0.45267031576E+03  0.45267031579E+03  0.50400001928E-02 0.  1.
    10030    2    1    2    0    0  0.00000000000E+00  0.00000000000E+00 -0.30955813602E+03  0.59578249562E+03  0.50904866419E+03 0.  0.
        2    1    3    3  502    0  0.17129484032E+03  0.55940817392E+02  0.55601638870E+02  0.18858112213E+03  0.25500000920E-02 0. -1.
       -2    1    3    3    0  502 -0.17129484032E+03 -0.55940817392E+02 -0.36515977489E+03  0.40720137349E+03  0.25500000920E-02 0.  1.
</event>
<event>
 5   0  0.1448458E-01  0.4887624E+03  0.7818609E-02  0.1016754E+00
        1   -1    0    0  501    0  0.00000000000E+00  0.00000000000E+00  0.11108081996E+03  0.11108082008E+03  0.50400001928E-02 0. -1.
       -1   -1    0    0    0  501  0.00000000000E+00  0.00000000000E+00 -0.53764621292E+03  0.53764621294E+03  0.50400001928E-02 0.  1.
    10030    2    1    2    0    0  0.00000000000E+00  0.00000000000E+00 -0.42656539295E+03  0.64872703302E+03  0.48876244629E+03 0.  0.
        5    1    3    3  502    0  0.79621570481E+02 -0.52628855959E+02  0.85255232457E+02  0.12806223341E+03  0.46999998093E+01 0. -1.
       -5    1    3    3    0  502 -0.79621570481E+02  0.52628855959E+02 -0.51182062541E+03  0.52066479961E+03  0.46999998093E+01 0.  1.
</event>
<event>
 5   0  0.2466034E-01  0.5010943E+03  0.7818609E-02  0.1013494E+00
        2   -1    0    0  501    0  0.00000000000E+00  0.00000000000E+00  0.92842495932E+03  0.92842495932E+03  0.25500000920E-02 0.  1.
       -2   -1    0    0    0  501  0.00000000000E+00  0.00000000000E+00 -0.67613304322E+02  0.67613304370E+02  0.25500000920E-02 0. -1.
    10030    2    1    2    0    0  0.00000000000E+00  0.00000000000E+00  0.86081165500E+03  0.99603826369E+03  0.50109431982E+03 0.  0.
        3    1    3    3  502    0 -0.23811280540E+03  0.35048061230E+02  0.29200820130E+03  0.37841098626E+03  0.10100000352E+00 0.  1.
       -3    1    3    3    0  502  0.23811280540E+03 -0.35048061230E+02  0.56880345370E+03  0.61762727743E+03  0.10100000352E+00 0. -1.
</event>
<event>
 5   0  0.2413301E-01  0.4931785E+03  0.7818609E-02  0.1015575E+00
       -2   -1    0    0    0  501  0.00000000000E+00  0.00000000000E+00  0.25926839155E+03  0.25926839156E+03  0.25500000920E-02 0.  1.
        2   -1    0    0  501    0  0.00000000000E+00  0.00000000000E+00 -0.23453012488E+03  0.23453012490E+03  0.25500000920E-02 0. -1.
    10030    2    1    2    0    0  0.00000000000E+00  0.00000000000E+00  0.24738266664E+02  0.49379851646E+03  0.49317845961E+03 0.  0.
        4    1    3    3  502    0 -0.13704034529E+03  0.18701025600E+03 -0.71711103710E+02  0.24268701527E+03  0.12699999809E+01 0. -1.
       -4    1    3    3    0  502  0.13704034529E+03 -0.18701025600E+03  0.96449370374E+02  0.25111150119E+03  0.12699999809E+01 0.  1.
</event>
<event>
 5   0  0.1439814E-01  0.5059959E+03  0.7818609E-02  0.1012226E+00
       -1   -1    0    0    0  501  0.00000000000E+00  0.00000000000E+00  0.59075907154E+02  0.59075907369E+02  0.50400001928E-02 0.  1.
        1   -1    0    0  501    0  0.00000000000E+00  0.00000000000E+00 -0.10834866090E+04  0.10834866090E+04  0.50400001928E-02 0. -1.
    10030    2    1    2    0    0  0.00000000000E+00  0.00000000000E+00 -0.10244107018E+04  0.11425625164E+04  0.50599586736E+03 0.  0.
        4    1    3    3  502    0  0.74644469002E+02 -0.21388542581E+03 -0.25786092861E+03  0.34323846453E+03  0.12699999809E+01 0.  1.
       -4    1    3    3    0  502 -0.74644469002E+02  0.21388542581E+03 -0.76654977323E+03  0.79932405185E+03  0.12699999809E+01 0. -1.
</event>
<event>
 5   0  0.1453602E-01  0.4999952E+03  0.7818609E-02  0.1013780E+00
       -1   -1    0    0    0  501  0.00000000000E+00  0.00000000000E+00  0.59784776117E+02  0.59784776329E+02  0.50400001928E-02 0. -1.
        1   -1    0    0  501    0  0.00000000000E+00  0.00000000000E+00 -0.10453964667E+04  0.10453964667E+04  0.50400001928E-02 0.  1.
    10030    2    1    2    0    0  0.00000000000E+00  0.00000000000E+00 -0.98561169058E+03  0.11051812430E+04  0.49999517533E+03 0.  0.
        2    1    3    3  502    0  0.15997907766E+03 -0.13998716539E+03 -0.20199894290E+03  0.29324611626E+03  0.25500000920E-02 0. -1.
       -2    1    3    3    0  502 -0.15997907766E+03  0.13998716539E+03 -0.78361274767E+03  0.81193512677E+03  0.25500000920E-02 0.  1.
</event>
<event>
 5   0  0.1453602E-01  0.4780143E+03  0.7818609E-02  0.1019682E+00
        1   -1    0    0  501    0  0.00000000000E+00  0.00000000000E+00  0.13043887801E+04  0.13043887801E+04  0.50400001928E-02 0. -1.
       -1   -1    0    0    0  501  0.00000000000E+00  0.00000000000E+00 -0.43794004030E+02  0.43794004320E+02  0.50400001928E-02 0.  1.
    10030    2    1    2    0    0  0.00000000000E+00  0.00000000000E+00  0.12605947760E+04  0.13481827844E+04  0.47801425792E+03 0.  0.
        2    1    3    3  502    0 -0.14764687121E+03  0.97005210765E+02  0.17627021879E+03  0.24956121400E+03  0.25500000920E-02 0.  1.
       -2    1    3    3    0  502  0.14764687121E+03 -0.97005210765E+02  0.10843245573E+04  0.10986215704E+04  0.25500000920E-02 0. -1.
</event>
<event>
 5   0  0.2488968E-01  0.4948704E+03  0.7818609E-02  0.1015127E+00
       -2   -1    0    0    0  501  0.00000000000E+00  0.00000000000E+00  0.53885962476E+03  0.53885962476E+03  0.25500000920E-02 0.  1.
        2   -1    0    0  501    0  0.00000000000E+00  0.00000000000E+00 -0.11361805269E+03  0.11361805272E+03  0.25500000920E-02 0. -1.
    10030    2    1    2    0    0  0.00000000000E+00  0.00000000000E+00  0.42524157207E+03  0.65247767748E+03  0.49487041233E+03 0.  0.
        2    1    3    3  502    0 -0.50546222764E+02 -0.14886409761E+03  0.46454655807E+03  0.49042730839E+03  0.25500000920E-02 0.  1.
       -2    1    3    3    0  502  0.50546222764E+02  0.14886409761E+03 -0.39304986007E+02  0.16205036909E+03  0.25500000920E-02 0. -1.
</event>
<event>
 5   0  0.1439814E-01  0.4933834E+03  0.7818609E-02  0.1015521E+00
        1   -1    0    0  501    0  0.00000000000E+00  0.00000000000E+00  0.37102836273E+03  0.37102836276E+03  0.50400001928E-02 0.  1.
       -1   -1    0    0    0  501  0.00000000000E+00  0.00000000000E+00 -0.16402195041E+03  0.16402195048E+03  0.50400001928E-02 0. -1.
    10030    2    1    2    0    0  0.00000000000E+00  0.00000000000E+00  0.20700641232E+03  0.53505031324E+03  0.49338340361E+03 0.  0.
        4    1    3    3  502    0 -0.23500283270E+02 -0.24418358289E+03  0.13172598557E+03  0.27844430977E+03  0.12699999809E+01 0.  1.
       -4    1    3    3    0  502  0.23500283270E+02  0.24418358289E+03  0.75280426751E+02  0.25660600348E+03  0.12699999809E+01 0. -1.
</event>
<event>
 5   0  0.1453602E-01  0.4846688E+03  0.7818609E-02  0.1017860E+00
        1   -1    0    0  501    0  0.00000000000E+00  0.00000000000E+00  0.25364454928E+03  0.25364454933E+03  0.50400001928E-02 0.  1.
       -1   -1    0    0    0  501  0.00000000000E+00  0.00000000000E+00 -0.23152857359E+03  0.23152857365E+03  0.50400001928E-02 0. -1.
    10030    2    1    2    0    0  0.00000000000E+00  0.00000000000E+00  0.22115975688E+02  0.48517312298E+03  0.48466879710E+03 0.  0.
        2    1    3    3  502    0  0.18853250231E+03  0.75707351879E+02 -0.12117735998E+03  0.23655878790E+03  0.25500000920E-02 0. -1.
       -2    1    3    3    0  502 -0.18853250231E+03 -0.75707351879E+02  0.14329333567E+03  0.24861433508E+03  0.25500000920E-02 0.  1.
</event>
<event>
 5   0  0.1413361E-01  0.4443796E+03  0.7818609E-02  0.1029411E+00
        1   -1    0    0  501    0  0.00000000000E+00  0.00000000000E+00  0.89188593531E+03  0.89188593532E+03  0.50400001928E-02 0.  1.
       -1   -1    0    0    0  501  0.00000000000E+00  0.00000000000E+00 -0.55352713915E+02  0.55352714144E+02  0.50400001928E-02 0. -1.
    10030    2    1    2    0    0  0.00000000000E+00  0.00000000000E+00  0.83653322139E+03  0.94723864946E+03  0.44437959961E+03 0.  0.
        3    1    3    3  502    0 -0.32215881452E+01  0.22100119118E+03  0.46670558808E+03  0.51639715460E+03  0.10100000352E+00 0. -1.
       -3    1    3    3    0  502  0.32215881452E+01 -0.22100119118E+03  0.36982763331E+03  0.43084149486E+03  0.10100000352E+00 0.  1.
</event>
<event>
 5   0  0.1439814E-01  0.5013160E+03  0.7818609E-02  0.1013436E+00
       -1   -1    0    0    0  501  0.00000000000E+00  0.00000000000E+00  0.26085477759E+03  0.26085477764E+03  0.50400001928E-02 0.  1.
        1   -1    0    0  501    0  0.00000000000E+00  0.00000000000E+00 -0.24085984944E+03  0.24085984949E+03  0.50400001928E-02 0. -1.
    10030    2    1    2    0    0  0.00000000000E+00  0.00000000000E+00  0.19994928146E+02  0.50171462713E+03  0.50131603797E+03 0.  0.
        4    1    3    3  502    0  0.24956273202E+03  0.23104398105E+02  0.64649044020E+01  0.25071652980E+03  0.12699999809E+01 0.  1.
       -4    1    3    3    0  502 -0.24956273202E+03 -0.23104398105E+02  0.13530023744E+02  0.25099809734E+03  0.12699999809E+01 0. -1.
</event>
<event>
 5   0  0.2413301E-01  0.5493018E+03  0.7818609E-02  0.1001656E+00
       -2   -1    0    0    0  501  0.00000000000E+00  0.00000000000E+00  0.19757433110E+03  0.19757433112E+03  0.25500000920E-02 0.  1.
        2   -1    0    0  501    0  0.00000000000E+00  0.00000000000E+00 -0.38179607289E+03  0.38179607290E+03  0.25500000920E-02 0. -1.
    10030    2    1    2    0    0  0.00000000000E+00  0.00000000000E+00 -0.18422174179E+03  0.57937040401E+03  0.54930175214E+03 0.  0.
        4    1    3    3  502    0 -0.18979528997E+03 -0.51030353404E+02 -0.29445917526E+03  0.35402565989E+03  0.12699999809E+01 0. -1.
       -4    1    3    3    0  502  0.18979528997E+03  0.51030353404E+02  0.11023743348E+03  0.22534474412E+03  0.12699999809E+01 0.  1.
</event>
<event>
 5   0  0.2488968E-01  0.4781986E+03  0.7818609E-02  0.1019631E+00
       -2   -1    0    0    0  501  0.00000000000E+00  0.00000000000E+00  0.10680360529E+03  0.10680360532E+03  0.25500000920E-02 0. -1.
        2   -1    0    0  501    0  0.00000000000E+00  0.00000000000E+00 -0.53526731925E+03  0.53526731925E+03  0.25500000920E-02 0.  1.
    10030    2    1    2    0    0  0.00000000000E+00  0.00000000000E+00 -0.42846371396E+03  0.64207092457E+03  0.47819861773E+03 0.  0.
        2    1    3    3  502    0 -0.52080838528E+02  0.16173039881E+02 -0.52680545251E+03  0.52962058661E+03  0.25500000920E-02 0.  1.
       -2    1    3    3    0  502  0.52080838528E+02 -0.16173039881E+02  0.98341738547E+02  0.11245033796E+03  0.25500000920E-02 0. -1.
</event>
<event>
 5   0  0.2504064E-01  0.4888899E+03  0.7818609E-02  0.1016720E+00
        2   -1    0    0  501    0  0.00000000000E+00  0.00000000000E+00  0.89606633451E+03  0.89606633451E+03  0.25500000920E-02 0. -1.
       -2   -1    0    0    0  501  0.00000000000E+00  0.00000000000E+00 -0.66684062836E+02  0.66684062885E+02  0.25500000920E-02 0.  1.
    10030    2    1    2    0    0  0.00000000000E+00  0.00000000000E+00  0.82938227167E+03  0.96275039739E+03  0.48888994173E+03 0.  0.
        5    1    3    3  502    0 -0.11684971586E+03 -0.73787295606E+02  0.17736247725E+02  0.13940977574E+03  0.46999998093E+01 0.  1.
       -5    1    3    3    0  502  0.11684971586E+03  0.73787295606E+02  0.81164602394E+03  0.82334062166E+03  0.46999998093E+01 0. -1.
</event>
<event>
 5   0  0.2466034E-01  0.5029538E+03  0.7818609E-02  0.1013011E+00
        2   -1    0    0  501    0  0.00000000000E+00  0.00000000000E+00  0.30864304158E+03  0.30864304159E+03  0.25500000920E-02 0. -1.
       -2   -1    0    0    0  501  0.00000000000E+00  0.00000000000E+00 -0.20489890885E+03  0.20489890887E+03  0.25500000920E-02 0.  1.
    10030    2    1    2    0    0  0.00000000000E+00  0.00000000000E+00  0.10374413273E+03  0.51354195046E+03  0.50295376508E+03 0.  0.
        3    1    3    3  502    0 -0.22753518667E+03  0.10698266843E+03  0.56775214155E+02  0.25776149376E+03  0.10100000352E+00 0. -1.
       -3    1    3    3    0  502  0.22753518667E+03 -0.10698266843E+03  0.46968918576E+02  0.25578045671E+03  0.10100000352E+00 0.  1.
</event>
<event>
 5   0  0.2511944E-01  0.4950042E+03  0.7818609E-02  0.1015091E+00
        2   -1    0    0  501    0  0.00000000000E+00  0.00000000000E+00  0.15222339068E+03  0.15222339070E+03  0.25500000920E-02 0. -1.
       -2   -1    0    0    0  501  0.00000000000E+00  0.00000000000E+00 -0.40241713020E+03  0.40241713021E+03  0.25500000920E-02 0.  1.
    10030    2    1    2    0    0  0.00000000000E+00  0.00000000000E+00 -0.25019373952E+03  0.55464052092E+03  0.49500424256E+03 0.  0.
        1    1    3    3  502    0  0.23666929793E+03 -0.26482135590E+02 -0.20062428588E+03  0.31139005155E+03  0.50400001928E-02 0. -1.
       -1    1    3    3    0  502 -0.23666929793E+03  0.26482135590E+02 -0.49569453637E+02  0.24325046937E+03  0.50400001928E-02 0.  1.
</event>
<event>
 5   0  0.1413361E-01  0.5308936E+03  0.7818609E-02  0.1006016E+00
        1   -1    0    0  501    0  0.00000000000E+00  0.00000000000E+00  0.13240691529E+03  0.13240691539E+03  0.50400001928E-02 0. -1.
       -1   -1    0    0    0  501  0.00000000000E+00  0.00000000000E+00 -0.53216252680E+03  0.53216252682E+03  0.50400001928E-02 0.  1.
    10030    2    1    2    0    0  0.00000000000E+00  0.00000000000E+00 -0.39975561151E+03  0.66456944221E+03  0.53089358123E+03 0.  0.
        3    1    3    3  502    0  0.19068486498E+03  0.13336365097E+03 -0.35977169031E+03  0.42846500496E+03  0.10100000352E+00 0.  1.
       -3    1    3    3    0  502 -0.19068486498E+03 -0.13336365097E+03 -0.39983921202E+02  0.23610443725E+03  0.10100000352E+00 0. -1.
</event>
<event>
 5   0  0.1529146E-01  0.5057243E+03  0.7818609E-02  0.1012295E+00
        1   -1    0    0  501    0  0.00000000000E+00  0.00000000000E+00  0.37070442577E+03  0.37070442580E+03  0.50400001928E-02 0.  1.
       -1   -1    0    0    0  501  0.00000000000E+00  0.00000000000E+00 -0.17248048338E+03  0.17248048346E+03  0.50400001928E-02 0. -1.
    10030    2    1    2    0    0  0.00000000000E+00  0.00000000000E+00  0.19822394239E+03  0.54318490926E+03  0.50572434617E+03 0.  0.
        1    1    3    3  502    0 -0.20302110388E+03  0.47108212374E+02 -0.54681366635E+02  0.21546880094E+03  0.50400001928E-02 0. -1.
       -1    1    3    3    0  502  0.20302110388E+03 -0.47108212374E+02  0.25290530902E+03  0.32771610832E+03  0.50400001928E-02 0.  1.
</event>
<event>
 5   0  0.2504064E-01  0.4972561E+03  0.7818609E-02  0.1014498E+00
        2   -1    0    0  501    0  0.00000000000E+00  0.00000000000E+00  0.13762662011E+04  0.13762662011E+04  0.25500000920E-02 0.  1.
       -2   -1    0    0    0  501  0.00000000000E+00  0.00000000000E+00 -0.44915668161E+02  0.44915668233E+02  0.25500000920E-02 0. -1.
    10030    2    1    2    0    0  0.00000000000E+00  0.00000000000E+00  0.13313505329E+04  0.14211818693E+04  0.49725613538E+03 0.  0.
        5    1    3    3  502    0  0.14632633439E+02 -0.96137273526E+02  0.13195210351E+04  0.13231078343E+04  0.46999998093E+01 0.  1.
       -5    1    3    3    0  502 -0.14632633439E+02  0.96137273526E+02  0.11829497878E+02  0.98074034997E+02  0.46999998093E+01 0. -1.
</event>
<event>
 5   0  0.1453602E-01  0.4960059E+03  0.7818609E-02  0.1014827E+00
       -1   -1    0    0    0  501  0.00000000000E+00  0.00000000000E+00  0.59325500848E+02  0.59325501062E+02  0.50400001928E-02 0.  1.
        1   -1    0    0  501    0  0.00000000000E+00  0.00000000000E+00 -0.10367459377E+04  0.10367459377E+04  0.50400001928E-02 0. -1.
    10030    2    1    2    0    0  0.00000000000E+00  0.00000000000E+00 -0.97742043684E+03  0.10960714388E+04  0.49600593597E+03 0.  0.
        2    1    3    3  502    0 -0.52495628683E+02 -0.21666861733E+03 -0.24862037583E+03  0.33393588015E+03  0.25500000920E-02 0.  1.
       -2    1    3    3    0  502  0.52495628683E+02  0.21666861733E+03 -0.72880006101E+03  0.76213555862E+03  0.25500000920E-02 0. -1.
</event>
<event>
 5   0  0.2511944E-01  0.4735496E+03  0.7818609E-02  0.1020923E+00
       -2   -1    0    0    0  501  0.00000000000E+00  0.00000000000E+00  0.96345755952E+02  0.96345755986E+02  0.25500000920E-02 0. -1.
        2   -1    0    0  501    0  0.00000000000E+00  0.00000000000E+00 -0.58188664523E+03  0.58188664524E+03  0.25500000920E-02 0.  1.
    10030    2    1    2    0    0  0.00000000000E+00  0.00000000000E+00 -0.48554088928E+03  0.67823240122E+03  0.47354961188E+03 0.  0.
        1    1    3    3  502    0 -0.49949193973E+02 -0.22877554800E+03 -0.29298306718E+03  0.37506299608E+03  0.50400001928E-02 0.  1.
       -1    1    3    3    0  502  0.49949193973E+02  0.22877554800E+03 -0.19255782210E+03  0.30316940515E+03  0.50400001928E-02 0. -1.
</event>
<event>
 5   0  0.9868500E-02  0.4985912E+03  0.7818609E-02  0.1014147E+00
        3   -1    0    0  501    0  0.00000000000E+00  0.00000000000E+00  0.25038782317E+03  0.25038784354E+03  0.10100000352E+00 0. -1.
       -3   -1    0    0    0  501  0.00000000000E+00  0.00000000000E+00 -0.24820807352E+03  0.24820809407E+03  0.10100000352E+00 0.  1.
    10030    2    1    2    0    0  0.00000000000E+00  0.00000000000E+00  0.21797496488E+01  0.49859593761E+03  0.49859117290E+03 0.  0.
        1    1    3    3  502    0 -0.12254058638E+03 -0.21683505724E+03 -0.96177966877E+01  0.24925115727E+03  0.50400001928E-02 0. -1.
       -1    1    3    3    0  502  0.12254058638E+03  0.21683505724E+03  0.11797546337E+02  0.24934478035E+03  0.50400001928E-02 0.  1.
</event>
<event>
 5   0  0.2466034E-01  0.5067803E+03  0.7818609E-02  0.1012024E+00
       -2   -1    0    0    0  501  0.00000000000E+00  0.00000000000E+00  0.42045210453E+03  0.42045210454E+03  0.25500000920E-02 0. -1.
        2   -1    0    0  501    0  0.00000000000E+00  0.00000000000E+00 -0.15270838484E+03  0.15270838486E+03  0.25500000920E-02 0.  1.
    10030    2    1    2    0    0  0.00000000000E+00  0.00000000000E+00  0.26774371969E+03  0.57316048941E+03  0.50678027505E+03 0.  0.
        3    1    3    3  502    0  0.17236667403E+03  0.69338189150E+02  0.32874440007E+03  0.37761216290E+03  0.10100000352E+00 0. -1.
       -3    1    3    3    0  502 -0.17236667403E+03 -0.69338189150E+02 -0.61000680378E+02  0.19554832651E+03  0.10100000352E+00 0.  1.
</event>
<event>
 5   0  0.9868500E-02  0.5080388E+03  0.7818609E-02  0.1011702E+00
        3   -1    0    0  501    0  0.00000000000E+00  0.00000000000E+00  0.67529718764E+02  0.67529794293E+02  0.10100000352E+00 0. -1.
       -3   -1    0    0    0  501  0.00000000000E+00  0.00000000000E+00 -0.95551723058E+03  0.95551723592E+03  0.10100000352E+00 0.  1.
    10030    2    1    2    0    0  0.00000000000E+00  0.00000000000E+00 -0.88798751182E+03  0.10230470302E+04  0.50803878285E+03 0.  0.
        4    1    3    3  502    0 -0.18003469246E+03  0.11117019903E+03 -0.72701207411E+03  0.75717862651E+03  0.12699999809E+01 0.  1.
       -4    1    3    3    0  502  0.18003469246E+03 -0.11117019903E+03 -0.16097543771E+03  0.26586840370E+03  0.12699999809E+01 0. -1.
</event>
<event>
 5   0  0.1529146E-01  0.4889759E+03  0.7818609E-02  0.1016697E+00
       -1   -1    0    0    0  501  0.00000000000E+00  0.00000000000E+00  0.20346711146E+03  0.20346711152E+03  0.50400001928E-02 0.  1.
        1   -1    0    0  501    0  0.00000000000E+00  0.00000000000E+00 -0.29377892627E+03  0.29377892631E+03  0.50400001928E-02 0. -1.
    10030    2    1    2    0    0  0.00000000000E+00  0.00000000000E+00 -0.90311814809E+02  0.49724603783E+03  0.48897586673E+03 0.  0.
        1    1    3    3  502    0  0.17175215202E+03 -0.14730071582E+02  0.13115049524E+03  0.21660154469E+03  0.50400001928E-02 0.  1.
       -1    1    3    3    0  502 -0.17175215202E+03  0.14730071582E+02 -0.22146231005E+03  0.28064449314E+03  0.50400001928E-02 0. -1.
</event>
<event>
 5   0  0.2466034E-01  0.4946588E+03  0.7818609E-02  0.1015183E+00
        2   -1    0    0  501    0  0.00000000000E+00  0.00000000000E+00  0.12224866198E+04  0.12224866198E+04  0.25500000920E-02 0.  1.
       -2   -1    0    0    0  501  0.00000000000E+00  0.00000000000E+00 -0.50038864946E+02  0.50038865011E+02  0.25500000920E-02 0. -1.
    10030    2    1    2    0    0  0.00000000000E+00  0.00000000000E+00  0.11724477548E+04  0.12725254848E+04  0.49465884368E+03 0.  0.
        3    1    3    3  502    0  0.72764787444E+02  0.23270710792E+03  0.47939347335E+03  0.53783401237E+03  0.10100000352E+00 0. -1.
       -3    1    3    3    0  502 -0.72764787444E+02 -0.23270710792E+03  0.69305428146E+03  0.73469147240E+03  0.10100000352E+00 0.  1.
</event>
<event>
 5   0  0.2511944E-01  0.5131521E+03  0.7818609E-02  0.1010402E+00
        2   -1    0    0  501    0  0.00000000000E+00  0.00000000000E+00  0.22051622315E+04  0.22051622315E+04  0.25500000920E-02 0.  1.
       -2   -1    0    0    0  501  0.00000000000E+00  0.00000000000E+00 -0.29853250992E+02  0.29853251101E+02  0.25500000920E-02 0. -1.
    10030    2    1    2    0    0  0.00000000000E+00  0.00000000000E+00  0.21753089805E+04  0.22350154826E+04  0.51315206985E+03 0.  0.
        1    1    3    3  502    0 -0.13930513913E+03  0.10852761124E+03  0.18983688769E+04  0.19065645956E+04  0.50400001928E-02 0.  1.
       -1    1    3    3    0  502  0.13930513913E+03 -0.10852761124E+03  0.27694010356E+03  0.32845088701E+03  0.50400001928E-02 0. -1.
</event>
<event>
 5   0  0.1453602E-01  0.4866966E+03  0.7818609E-02  0.1017311E+00
        1   -1    0    0  501    0  0.00000000000E+00  0.00000000000E+00  0.28003512911E+03  0.28003512916E+03  0.50400001928E-02 0. -1.
       -1   -1    0    0    0  501  0.00000000000E+00  0.00000000000E+00 -0.21146777326E+03  0.21146777333E+03  0.50400001928E-02 0.  1.
    10030    2    1    2    0    0  0.00000000000E+00  0.00000000000E+00  0.68567355845E+02  0.49150290248E+03  0.48669664151E+03 0.  0.
        2    1    3    3  502    0 -0.10412350448E+03 -0.70295246969E+02 -0.17618576258E+03  0.21638980770E+03  0.25500000920E-02 0.  1.
       -2    1    3    3    0  502  0.10412350448E+03  0.70295246969E+02  0.24475311843E+03  0.27511309478E+03  0.25500000920E-02 0. -1.
</event>
<event>
 5   0  0.2413301E-01  0.4976440E+03  0.7818609E-02  0.1014396E+00
       -2   -1    0    0    0  501  0.00000000000E+00  0.00000000000E+00  0.26653123496E+02  0.26653123618E+02  0.25500000920E-02 0. -1.
        2   -1    0    0  501    0  0.00000000000E+00  0.00000000000E+00 -0.23228940619E+04  0.23228940619E+04  0.25500000920E-02 0.  1.
    10030    2    1    2    0    0  0.00000000000E+00  0.00000000000E+00 -0.22962409384E+04  0.23495471855E+04  0.49764397894E+03 0.  0.
        4    1    3    3  502    0  0.24062085279E+03  0.59414622980E+02 -0.12518049693E+04  0.12761057113E+04  0.12699999809E+01 0.  1.
       -4    1    3    3    0  502 -0.24062085279E+03 -0.59414622980E+02 -0.10444359691E+04  0.10734414742E+04  0.12699999809E+01 0. -1.
</event>
<event>
 5   0  0.2488968E-01  0.4760204E+03  0.7818609E-02  0.1020235E+00
       -2   -1    0    0    0  501  0.00000000000E+00  0.00000000000E+00  0.47603554823E+02  0.47603554892E+02  0.25500000920E-02 0. -1.
        2   -1    0    0  501    0  0.00000000000E+00  0.00000000000E+00 -0.11900128817E+04  0.11900128817E+04  0.25500000920E-02 0.  1.
    10030    2    1    2    0    0  0.00000000000E+00  0.00000000000E+00 -0.11424093269E+04  0.12376164366E+04  0.47602035040E+03 0.  0.
        2    1    3    3  502    0 -0.77837064794E+02 -0.21986495532E+03 -0.69451988868E+03  0.73263707456E+03  0.25500000920E-02 0.  1.
       -2    1    3    3    0  502  0.77837064794E+02  0.21986495532E+03 -0.44788943822E+03  0.50497936206E+03  0.25500000920E-02 0. -1.
</event>
<event>
 5   0  0.1413361E-01  0.5036984E+03  0.7818609E-02  0.1012818E+00
       -1   -1    0    0    0  501  0.00000000000E+00  0.00000000000E+00  0.32077843659E+03  0.32077843663E+03  0.50400001928E-02 0.  1.
        1   -1    0    0  501    0  0.00000000000E+00  0.00000000000E+00 -0.19773155565E+03  0.19773155571E+03  0.50400001928E-02 0. -1.
    10030    2    1    2    0    0  0.00000000000E+00  0.00000000000E+00  0.12304688095E+03  0.51850999234E+03  0.50369839909E+03 0.  0.
        3    1    3    3  502    0  0.24913658945E+03  0.36819403829E+02  0.59653316389E+02  0.25881119964E+03  0.10100000352E+00 0. -1.
       -3    1    3    3    0  502 -0.24913658945E+03 -0.36819403829E+02  0.63393564558E+02  0.25969879270E+03  0.10100000352E+00 0.  1.
</event>
<event>
 5   0  0.1439814E-01  0.4937432E+03  0.7818609E-02  0.1015425E+00
        1   -1    0    0  501    0  0.00000000000E+00  0.00000000000E+00  0.98446112168E+03  0.98446112169E+03  0.50400001928E-02 0.  1.
       -1   -1    0    0    0  501  0.00000000000E+00  0.00000000000E+00 -0.61907551335E+02  0.61907551540E+02  0.50400001928E-02 0. -1.
    10030    2    1    2    0    0  0.00000000000E+00  0.00000000000E+00  0.92255357034E+03  0.10463686732E+04  0.49374316215E+03 0.  0.
        4    1    3    3  502    0  0.14725457745E+03 -0.18896584758E+03  0.58758099370E+03  0.63454317362E+03  0.12699999809E+01 0.  1.
       -4    1    3    3    0  502 -0.14725457745E+03  0.18896584758E+03  0.33497257665E+03  0.41182549962E+03  0.12699999809E+01 0. -1.
</event>
<event>
 5   0  0.1448458E-01  0.5021070E+03  0.7818609E-02  0.1013230E+00
       -1   -1    0    0    0  501  0.00000000000E+00  0.00000000000E+00  0.46217350555E+02  0.46217350830E+02  0.50400001928E-02 0.  1.
        1   -1    0    0  501    0  0.00000000000E+00  0.00000000000E+00 -0.13637272346E+04  0.13637272346E+04  0.50400001928E-02 0. -1.
    10030    2    1    2    0    0  0.00000000000E+00  0.00000000000E+00 -0.13175098841E+04  0.14099445855E+04  0.50210700001E+03 0.  0.
        5    1    3    3  502    0  0.93556672599E+02  0.15906260972E+02 -0.62222346910E+01  0.95219043939E+02  0.46999998093E+01 0.  1.
       -5    1    3    3    0  502 -0.93556672599E+02 -0.15906260972E+02 -0.13112876494E+04  0.13147255415E+04  0.46999998093E+01 0. -1.
</event>
<event>
 5   0  0.1439814E-01  0.4960777E+03  0.7818609E-02  0.1014808E+00
        1   -1    0    0  501    0  0.00000000000E+00  0.00000000000E+00  0.19673454553E+04  0.19673454553E+04  0.50400001928E-02 0.  1.
       -1   -1    0    0    0  501  0.00000000000E+00  0.00000000000E+00 -0.31272219903E+02  0.31272220309E+02  0.50400001928E-02 0. -1.
    10030    2    1    2    0    0  0.00000000000E+00  0.00000000000E+00  0.19360732354E+04  0.19986176756E+04  0.49607765568E+03 0.  0.
        4    1    3    3  502    0 -0.24720802516E+03  0.11026757977E+02  0.89963524654E+03  0.93304800885E+03  0.12699999809E+01 0. -1.
       -4    1    3    3    0  502  0.24720802516E+03 -0.11026757977E+02  0.10364379888E+04  0.10655696668E+04  0.12699999809E+01 0.  1.
</event>
<event>
 5   0  0.1529146E-01  0.4914584E+03  0.7818609E-02  0.1016033E+00
       -1   -1    0    0    0  501  0.00000000000E+00  0.00000000000E+00  0.55008575909E+02  0.55008576140E+02  0.50400001928E-02 0.  1.
        1   -1    0    0  501    0  0.00000000000E+00  0.00000000000E+00 -0.10976987185E+04  0.10976987185E+04  0.50400001928E-02 0. -1.
    10030    2    1    2    0    0  0.00000000000E+00  0.00000000000E+00 -0.10426901426E+04  0.11527072947E+04  0.49145841502E+03 0.  0.
        1    1    3    3  502    0  0.97320320419E+02 -0.14496306212E+03 -0.92689872434E+03  0.94320028591E+03  0.50400001928E-02 0. -1.
       -1    1    3    3    0  502 -0.97320320419E+02  0.14496306212E+03 -0.11579141827E+03  0.20950700875E+03  0.50400001928E-02 0.  1.
</event>
<event>
 5   0  0.2504064E-01  0.4798698E+03  0.7818609E-02  0.1019171E+00
       -2   -1    0    0    0  501  0.00000000000E+00  0.00000000000E+00  0.19601072142E+03  0.19601072143E+03  0.25500000920E-02 0.  1.
        2   -1    0    0  501    0  0.00000000000E+00  0.00000000000E+00 -0.29370202710E+03  0.29370202711E+03  0.25500000920E-02 0. -1.
    10030    2    1    2    0    0  0.00000000000E+00  0.00000000000E+00 -0.97691305682E+02  0.48971274854E+03  0.47986975825E+03 0.  0.
        5    1    3    3  502    0 -0.78001256174E+02 -0.31480267615E+02  0.18042102220E+03  0.19912066308E+03  0.46999998093E+01 0.  1.
       -5    1    3    3    0  502  0.78001256174E+02  0.31480267615E+02 -0.27811232789E+03  0.29059208546E+03  0.46999998093E+01 0. -1.
</event>
<event>
 5   0  0.1439814E-01  0.5161094E+03  0.7818609E-02  0.1009658E+00
        1   -1    0    0  501    0  0.00000000000E+00  0.00000000000E+00  0.68880442480E+03  0.68880442482E+03  0.50400001928E-02 0. -1.
       -1   -1    0    0    0  501  0.00000000000E+00  0.00000000000E+00 -0.96678003355E+02  0.96678003486E+02  0.50400001928E-02 0.  1.
    10030    2    1    2    0    0  0.00000000000E+00  0.00000000000E+00  0.59212642145E+03  0.78548242831E+03  0.51610943239E+03 0.  0.
        4    1    3    3  502    0  0.20296590611E+03 -0.57195564718E+01  0.53844102190E+03  0.57545479348E+03  0.12699999809E+01 0. -1.
       -4    1    3    3    0  502 -0.20296590611E+03  0.57195564718E+01  0.53685399546E+02  0.21002763483E+03  0.12699999809E+01 0.  1.
</event>
<event>
 5   0  0.9868500E-02  0.4946040E+03  0.7818609E-02  0.1015197E+00
       -4   -1    0    0    0  501  0.00000000000E+00  0.00000000000E+00  0.19679418553E+03  0.19679828342E+03  0.12699999809E+01 0. -1.
        4   -1    0    0  501    0  0.00000000000E+00  0.00000000000E+00 -0.31076418968E+03  0.31076678472E+03  0.12699999809E+01 0.  1.
    10030    2    1    2    0    0  0.00000000000E+00  0.00000000000E+00 -0.11397000415E+03  0.50756506814E+03  0.49460401995E+03 0.  0.
        4    1    3    3  502    0 -0.43083618771E+02 -0.11583732610E+03  0.16282939730E+03  0.20442482689E+03  0.12699999809E+01 0. -1.
       -4    1    3    3    0  502  0.43083618771E+02  0.11583732610E+03 -0.27679940145E+03  0.30314024125E+03  0.12699999809E+01 0.  1.
</event>
<event>
 5   0  0.2466034E-01  0.4968111E+03  0.7818609E-02  0.1014615E+00
        2   -1    0    0  501    0  0.00000000000E+00  0.00000000000E+00  0.67301559380E+03  0.67301559380E+03  0.25500000920E-02 0. -1.
       -2   -1    0    0    0  501  0.00000000000E+00  0.00000000000E+00 -0.91684820859E+02  0.91684820894E+02  0.25500000920E-02 0.  1.
    10030    2    1    2    0    0  0.00000000000E+00  0.00000000000E+00  0.58133077294E+03  0.76470041470E+03  0.49681108751E+03 0.  0.
        3    1    3    3  502    0 -0.13746216604E+03 -0.24925884773E+02 -0.25486169543E+02  0.14200951328E+03  0.10100000352E+00 0.  1.
       -3    1    3    3    0  502  0.13746216604E+03  0.24925884773E+02  0.60681694248E+03  0.62269090142E+03  0.10100000352E+00 0. -1.
</event>
<event>
 5   0  0.2466034E-01  0.4895639E+03  0.7818609E-02  0.1016539E+00
       -2   -1    0    0    0  501  0.00000000000E+00  0.00000000000E+00  0.93657227346E+02  0.93657227380E+02  0.25500000920E-02 0. -1.
        2   -1    0    0  501    0  0.00000000000E+00  0.00000000000E+00 -0.63976058803E+03  0.63976058804E+03  0.25500000920E-02 0.  1.
    10030    2    1    2    0    0  0.00000000000E+00  0.00000000000E+00 -0.54610336069E+03  0.73341781542E+03  0.48956389922E+03 0.  0.
        3    1    3    3  502    0 -0.84101189457E+02 -0.12307952202E+01 -0.61743217587E+03  0.62313483848E+03  0.10100000352E+00 0.  1.
       -3    1    3    3    0  502  0.84101189457E+02  0.12307952202E+01  0.71328815186E+02  0.11028297694E+03  0.10100000352E+00 0. -1.
</event>
<event>
 5   0  0.1448458E-01  0.4958074E+03  0.7818609E-02  0.1014879E+00
        1   -1    0    0  501    0  0.00000000000E+00  0.00000000000E+00  0.27237912977E+04  0.27237912977E+04  0.50400001928E-02 0.  1.
       -1   -1    0    0    0  501  0.00000000000E+00  0.00000000000E+00 -0.22562758653E+02  0.22562759216E+02  0.50400001928E-02 0. -1.
    10030    2    1    2    0    0  0.00000000000E+00  0.00000000000E+00  0.27012285391E+04  0.27463540570E+04  0.49580740798E+03 0.  0.
        5    1    3    3  502    0 -0.10267492839E+03  0.12724501843E+03  0.31877331343E+03  0.35829031662E+03  0.46999998093E+01 0. -1.
       -5    1    3    3    0  502  0.10267492839E+03 -0.12724501843E+03  0.23824552257E+04  0.23880637403E+04  0.46999998093E+01 0.  1.
</event>
<event>
 5   0  0.2504064E-01  0.4909007E+03  0.7818609E-02  0.1016182E+00
        2   -1    0    0  501    0  0.00000000000E+00  0.00000000000E+00  0.13854621027E+04  0.13854621027E+04  0.25500000920E-02 0. -1.
       -2   -1    0    0    0  501  0.00000000000E+00  0.00000000000E+00 -0.43484319603E+02  0.43484319678E+02  0.25500000920E-02 0.  1.
    10030    2    1    2    0    0  0.00000000000E+00  0.00000000000E+00  0.13419777831E+04  0.14289464224E+04  0.49090071064E+03 0.  0.
        5    1    3    3  502    0 -0.20614238318E+03  0.44745496976E+02  0.10360322678E+04  0.10572992914E+04  0.46999998093E+01 0. -1.
       -5    1    3    3    0  502  0.20614238318E+03 -0.44745496976E+02  0.30594551525E+03  0.37164713095E+03  0.46999998093E+01 0.  1.
</event>
<event>
 5   0  0.2466034E-01  0.4965439E+03  0.7818609E-02  0.1014685E+00
       -2   -1    0    0    0  501  0.00000000000E+00  0.00000000000E+00  0.11953033803E+03  0.11953033806E+03  0.25500000920E-02 0.  1.
        2   -1    0    0  501    0  0.00000000000E+00  0.00000000000E+00 -0.51567621401E+03  0.51567621401E+03  0.25500000920E-02 0. -1.
    10030    2    1    2    0    0  0.00000000000E+00  0.00000000000E+00 -0.39614587597E+03  0.63520655208E+03  0.49654386387E+03 0.  0.
        3    1    3    3  502    0  0.16625114472E+03  0.13611267626E+02  0.37164865429E+02  0.17089747555E+03  0.10100000352E+00 0.  1.
       -3    1    3    3    0  502 -0.16625114472E+03 -0.13611267626E+02 -0.43331074140E+03  0.46430907652E+03  0.10100000352E+00 0. -1.
</event>
<event>
 5   0  0.1529146E-01  0.4468027E+03  0.7818609E-02  0.1028680E+00
       -1   -1    0    0    0  501  0.00000000000E+00  0.00000000000E+00  0.10686852077E+03  0.10686852089E+03  0.50400001928E-02 0. -1.
        1   -1    0    0  501    0  0.00000000000E+00  0.00000000000E+00 -0.46700524583E+03  0.46700524586E+03  0.50400001928E-02 0.  1.
    10030    2    1    2    0    0  0.00000000000E+00  0.00000000000E+00 -0.36013672506E+03  0.57387376675E+03  0.44680268512E+03 0.  0.
        1    1    3    3  502    0  0.15650183628E+03  0.48706582188E+02  0.14902693950E+02  0.16458203492E+03  0.50400001928E-02 0. -1.
       -1    1    3    3    0  502 -0.15650183628E+03 -0.48706582188E+02 -0.37503941901E+03  0.40929173183E+03  0.50400001928E-02 0.  1.
</event>
<event>
 5   0  0.1413361E-01  0.4872226E+03  0.7818609E-02  0.1017169E+00
       -1   -1    0    0    0  501  0.00000000000E+00  0.00000000000E+00  0.73806536173E+02  0.73806536345E+02  0.50400001928E-02 0.  1.
        1   -1    0    0  501    0  0.00000000000E+00  0.00000000000E+00 -0.80408141849E+03  0.80408141850E+03  0.50400001928E-02 0. -1.
    10030    2    1    2    0    0  0.00000000000E+00  0.00000000000E+00 -0.73027488231E+03  0.87788795485E+03  0.48722259546E+03 0.  0.
        3    1    3    3  502    0  0.91674235038E+00 -0.12070547261E+03  0.16133195118E+02  0.12178235390E+03  0.10100000352E+00 0.  1.
       -3    1    3    3    0  502 -0.91674235038E+00  0.12070547261E+03 -0.74640807743E+03  0.75610560095E+03  0.10100000352E+00 0. -1.
</event>
<event>
 5   0  0.1453602E-01  0.4993652E+03  0.7818609E-02  0.1013945E+00
       -1   -1    0    0    0  501  0.00000000000E+00  0.00000000000E+00  0.22082043619E+03  0.22082043625E+03  0.50400001928E-02 0. -1.
        1   -1    0    0  501    0  0.00000000000E+00  0.00000000000E+00 -0.28231720880E+03  0.28231720885E+03  0.50400001928E-02 0.  1.
    10030    2    1    2    0    0  0.00000000000E+00  0.00000000000E+00 -0.61496772611E+02  0.50313764510E+03  0.49936523395E+03 0.  0.
        2    1    3    3  502    0 -0.23741211998E+02 -0.23212379694E+03 -0.12028084700E+03  0.26251206528E+03  0.25500000920E-02 0.  1.
       -2    1    3    3    0  502  0.23741211998E+02  0.23212379694E+03  0.58784074391E+02  0.24062557982E+03  0.25500000920E-02 0. -1.
</event>
<event>
 5   0  0.9868500E-02  0.4118352E+03  0.7818609E-02  0.1039757E+00
        3   -1    0    0  501    0  0.00000000000E+00  0.00000000000E+00  0.53998094409E+02  0.53998188866E+02  0.10100000352E+00 0. -1.
       -3   -1    0    0    0  501  0.00000000000E+00  0.00000000000E+00 -0.78525015781E+03  0.78525016430E+03  0.10100000352E+00 0.  1.
    10030    2    1    2    0    0  0.00000000000E+00  0.00000000000E+00 -0.73125206340E+03  0.83924835317E+03  0.41183518314E+03 0.  0.
        4    1    3    3  502    0  0.12965193229E+02 -0.11724064203E+03 -0.21680052918E+02  0.11993790883E+03  0.12699999809E+01 0. -1.
       -4    1    3    3    0  502 -0.12965193229E+02  0.11724064203E+03 -0.70957201048E+03  0.71931044434E+03  0.12699999809E+01 0.  1.
</event>
<event>
 5   0  0.2511944E-01  0.5107283E+03  0.7818609E-02  0.1011016E+00
       -2   -1    0    0    0  501  0.00000000000E+00  0.00000000000E+00  0.21645346138E+03  0.21645346140E+03  0.25500000920E-02 0. -1.
        2   -1    0    0  501    0  0.00000000000E+00  0.00000000000E+00 -0.30126962869E+03  0.30126962870E+03  0.25500000920E-02 0.  1.
    10030    2    1    2    0    0  0.00000000000E+00  0.00000000000E+00 -0.84816167303E+02  0.51772309010E+03  0.51072831896E+03 0.  0.
        1    1    3    3  502    0 -0.16191453005E+03  0.19445795496E+03 -0.75770128987E+01  0.25315533263E+03  0.50400001928E-02 0.  1.
       -1    1    3    3    0  502  0.16191453005E+03 -0.19445795496E+03 -0.77239154404E+02  0.26456775746E+03  0.50400001928E-02 0. -1.
</event>
<event>
 5   0  0.9868500E-02  0.3867121E+03  0.7818609E-02  0.1048480E+00
        4   -1    0    0  501    0  0.00000000000E+00  0.00000000000E+00  0.13314933087E+03  0.13315538747E+03  0.12699999809E+01 0.  1.
       -4   -1    0    0    0  501  0.00000000000E+00  0.00000000000E+00 -0.28077278519E+03  0.28077565742E+03  0.12699999809E+01 0. -1.
    10030    2    1    2    0    0  0.00000000000E+00  0.00000000000E+00 -0.14762345432E+03  0.41393104489E+03  0.38671207074E+03 0.  0.
        2    1    3    3  502    0  0.16452844492E+03 -0.54117498018E+02  0.18193155439E+02  0.17415310417E+03  0.25500000920E-02 0.  1.
       -2    1    3    3    0  502 -0.16452844492E+03  0.54117498018E+02 -0.16581660976E+03  0.23977794072E+03  0.25500000920E-02 0. -1.
</event>
<event>
 5   0  0.2488968E-01  0.4984690E+03  0.7818609E-02  0.1014179E+00
        2   -1    0    0  501    0  0.00000000000E+00  0.00000000000E+00  0.46000058329E+03  0.46000058330E+03  0.25500000920E-02 0. -1.
       -2   -1    0    0    0  501  0.00000000000E+00  0.00000000000E+00 -0.13503858842E+03  0.13503858845E+03  0.25500000920E-02 0.  1.
    10030    2    1    2    0    0  0.00000000000E+00  0.00000000000E+00  0.32496199487E+03  0.59503917174E+03  0.49846897376E+03 0.  0.
        2    1    3    3  502    0 -0.24624431991E+03  0.38154739943E+02  0.15641991251E+03  0.29420951430E+03  0.25500000920E-02 0. -1.
       -2    1    3    3    0  502  0.24624431991E+03 -0.38154739943E+02  0.16854208236E+03  0.30082965745E+03  0.25500000920E-02 0.  1.
</event>
<event>
 5   0  0.2466034E-01  0.5051645E+03  0.7818609E-02  0.1012440E+00
        2   -1    0    0  501    0  0.00000000000E+00  0.00000000000E+00  0.73189631972E+03  0.73189631972E+03  0.25500000920E-02 0.  1.
       -2   -1    0    0    0  501  0.00000000000E+00  0.00000000000E+00 -0.87167807702E+02  0.87167807740E+02  0.25500000920E-02 0. -1.
    10030    2    1    2    0    0  0.00000000000E+00  0.00000000000E+00  0.64472851202E+03  0.81906412746E+03  0.50516451844E+03 0.  0.
        3    1    3    3  502    0 -0.19765071674E+03 -0.11823996339E+03  0.49048271836E+03  0.54186695967E+03  0.10100000352E+00 0.  1.
       -3    1    3    3    0  502  0.19765071674E+03  0.11823996339E+03  0.15424579366E+03  0.27719716780E+03  0.10100000352E+00 0. -1.
</event>
<event>
 5   0  0.1453602E-01  0.4647965E+03  0.7818609E-02  0.1023399E+00
        1   -1    0    0  501    0  0.00000000000E+00  0.00000000000E+00  0.20408783954E+03  0.20408783960E+03  0.50400001928E-02 0. -1.
       -1   -1    0    0    0  501  0.00000000000E+00  0.00000000000E+00 -0.26463584416E+03  0.26463584421E+03  0.50400001928E-02 0.  1.
    10030    2    1    2    0    0  0.00000000000E+00  0.00000000000E+00 -0.60548004619E+02  0.46872368381E+03  0.46479654785E+03 0.  0.
        2    1    3    3  502    0 -0.11344757270E+03 -0.53227626168E+02 -0.22764537040E+03  0.25985755061E+03  0.25500000920E-02 0.  1.
       -2    1    3    3    0  502  0.11344757270E+03  0.53227626168E+02  0.16709736578E+03  0.20886613320E+03  0.25500000920E-02 0. -1.
</event>
<event>
 5   0  0.1529146E-01  0.5017264E+03  0.7818609E-02  0.1013329E+00
        1   -1    0    0  501    0  0.00000000000E+00  0.00000000000E+00  0.30719675094E+03  0.30719675098E+03  0.50400001928E-02 0.  1.
       -1   -1    0    0    0  501  0.00000000000E+00  0.00000000000E+00 -0.20486003793E+03  0.20486003799E+03  0.50400001928E-02 0. -1.
    10030    2    1    2    0    0  0.00000000000E+00  0.00000000000E+00  0.10233671301E+03  0.51205678897E+03  0.50172637194E+03 0.  0.
        1    1    3    3  502    0  0.19165846154E+03  0.89307591703E+02  0.18894240092E+03  0.28356311944E+03  0.50400001928E-02 0.  1.
       -1    1    3    3    0  502 -0.19165846154E+03 -0.89307591703E+02 -0.86605687901E+02  0.22849366953E+03  0.50400001928E-02 0. -1.
</event>
<event>
 5   0  0.2466034E-01  0.4864389E+03  0.7818609E-02  0.1017380E+00
       -2   -1    0    0    0  501  0.00000000000E+00  0.00000000000E+00  0.20020858314E+03  0.20020858316E+03  0.25500000920E-02 0. -1.
        2   -1    0    0  501    0  0.00000000000E+00  0.00000000000E+00 -0.29547029897E+03  0.29547029898E+03  0.25500000920E-02 0.  1.
    10030    2    1    2    0    0  0.00000000000E+00  0.00000000000E+00 -0.95261715833E+02  0.49567888214E+03  0.48643885504E+03 0.  0.
        3    1    3    3  502    0 -0.20639435970E+03  0.12838273228E+03 -0.56451029127E+02  0.24953453980E+03  0.10100000352E+00 0.  1.
       -3    1    3    3    0  502  0.20639435970E+03 -0.12838273228E+03 -0.38810686706E+02  0.24614434234E+03  0.10100000352E+00 0. -1.
</event>
<event>
 5   0  0.2504064E-01  0.5039975E+03  0.7818609E-02  0.1012741E+00
        2   -1    0    0  501    0  0.00000000000E+00  0.00000000000E+00  0.10402663862E+04  0.10402663862E+04  0.25500000920E-02 0.  1.
       -2   -1    0    0    0  501  0.00000000000E+00  0.00000000000E+00 -0.61045307940E+02  0.61045307994E+02  0.25500000920E-02 0. -1.
    10030    2    1    2    0    0  0.00000000000E+00  0.00000000000E+00  0.97922107822E+03  0.11013116942E+04  0.50399754727E+03 0.  0.
        5    1    3    3  502    0  0.15985322098E+03  0.13198717851E+03  0.80253499433E+03  0.82888972407E+03  0.46999998093E+01 0.  1.
       -5    1    3    3    0  502 -0.15985322098E+03 -0.13198717851E+03  0.17668608389E+03  0.27242197008E+03  0.46999998093E+01 0. -1.
</event>
<event>
 5   0  0.1413361E-01  0.4956179E+03  0.7818609E-02  0.1014929E+00
        1   -1    0    0  501    0  0.00000000000E+00  0.00000000000E+00  0.38702335927E+03  0.38702335930E+03  0.50400001928E-02 0.  1.
       -1   -1    0    0    0  501  0.00000000000E+00  0.00000000000E+00 -0.15867074727E+03  0.15867074735E+03  0.50400001928E-02 0. -1.
    10030    2    1    2    0    0  0.00000000000E+00  0.00000000000E+00  0.22835261200E+03  0.54569410665E+03  0.49561794018E+03 0.  0.
        3    1    3    3  502    0  0.18407802824E+03 -0.16546261043E+03  0.10084149104E+03  0.26726693107E+03  0.10100000352E+00 0. -1.
       -3    1    3    3    0  502 -0.18407802824E+03  0.16546261043E+03  0.12751112096E+03  0.27842717557E+03  0.10100000352E+00 0.  1.
</event>
<event>
 5   0  0.1453602E-01  0.4979592E+03  0.7818609E-02  0.1014313E+00
        1   -1    0    0  501    0  0.00000000000E+00  0.00000000000E+00  0.13040504240E+04  0.13040504240E+04  0.50400001928E-02 0.  1.
       -1   -1    0    0    0  501  0.00000000000E+00  0.00000000000E+00 -0.47537158510E+02  0.47537158777E+02  0.50400001928E-02 0. -1.
    10030    2    1    2    0    0  0.00000000000E+00  0.00000000000E+00  0.12565132655E+04  0.13515875828E+04  0.49795924290E+03 0.  0.
        2    1    3    3  502    0  0.98472781813E+02 -0.39833450042E+00  0.75655378770E+01  0.98763782827E+02  0.25500000920E-02 0. -1.
       -2    1    3    3    0  502 -0.98472781813E+02  0.39833450042E+00  0.12489477276E+04  0.12528238000E+04  0.25500000920E-02 0.  1.
</event>
<event>
 5   0  0.1453602E-01  0.5215739E+03  0.7818609E-02  0.1008296E+00
        1   -1    0    0  501    0  0.00000000000E+00  0.00000000000E+00  0.49429478219E+03  0.49429478221E+03  0.50400001928E-02 0. -1.
       -1   -1    0    0    0  501  0.00000000000E+00  0.00000000000E+00 -0.13758964780E+03  0.13758964790E+03  0.50400001928E-02 0.  1.
    10030    2    1    2    0    0  0.00000000000E+00  0.00000000000E+00  0.35670513438E+03  0.63188443011E+03  0.52157394501E+03 0.  0.
        2    1    3    3  502    0 -0.27214079287E+02 -0.46278476336E+02  0.48752738127E+03  0.49047451613E+03  0.25500000920E-02 0. -1.
       -2    1    3    3    0  502  0.27214079287E+02  0.46278476336E+02 -0.13082224689E+03  0.14140991397E+03  0.25500000920E-02 0.  1.
</event>
<event>
 5   0  0.9868500E-02  0.4968510E+03  0.7818609E-02  0.1014604E+00
        3   -1    0    0  501    0  0.00000000000E+00  0.00000000000E+00  0.81379149437E+03  0.81379150064E+03  0.10100000352E+00 0. -1.
       -3   -1    0    0    0  501  0.00000000000E+00  0.00000000000E+00 -0.75836619049E+02  0.75836686306E+02  0.10100000352E+00 0.  1.
    10030    2    1    2    0    0  0.00000000000E+00  0.00000000000E+00  0.73795487532E+03  0.88962818695E+03  0.49685099677E+03 0.  0.
        5    1    3    3  502    0  0.45447098639E+02 -0.58754672470E+02  0.79335868255E+03  0.79684229273E+03  0.46999998093E+01 0. -1.
       -5    1    3    3    0  502 -0.45447098639E+02  0.58754672470E+02 -0.55403807226E+02  0.92785894214E+02  0.46999998093E+01 0.  1.
</event>
<event>
 5   0  0.2413301E-01  0.5013741E+03  0.7818609E-02  0.1013421E+00
        2   -1    0    0  501    0  0.00000000000E+00  0.00000000000E+00  0.11297264823E+04  0.11297264823E+04  0.25500000920E-02 0. -1.
       -2   -1    0    0    0  501  0.00000000000E+00  0.00000000000E+00 -0.55627622817E+02  0.55627622875E+02  0.25500000920E-02 0.  1.
    10030    2    1    2    0    0  0.00000000000E+00  0.00000000000E+00  0.10740988595E+04  0.11853541052E+04  0.50137410655E+03 0.  0.
        4    1    3    3  502    0 -0.21746930460E+03 -0.12249304558E+03  0.59223950649E+03  0.64268708608E+03  0.12699999809E+01 0. -1.
       -4    1    3    3    0  502  0.21746930460E+03  0.12249304558E+03  0.48185935298E+03  0.54266701909E+03  0.12699999809E+01 0.  1.
</event>
<event>
 5   0  0.9868500E-02  0.5080720E+03  0.7818609E-02  0.1011693E+00
       -3   -1    0    0    0  501  0.00000000000E+00  0.00000000000E+00  0.78243123058E+03  0.78243123710E+03  0.10100000352E+00 0.  1.
        3   -1    0    0  501    0  0.00000000000E+00  0.00000000000E+00 -0.82479138500E+02  0.82479200340E+02  0.10100000352E+00 0. -1.
    10030    2    1    2    0    0  0.00000000000E+00  0.00000000000E+00  0.69995209208E+03  0.86491043744E+03  0.50807197677E+03 0.  0.
        1    1    3    3  502    0  0.56745776723E+00 -0.19377253112E+03  0.62962712715E+03  0.65877039634E+03  0.50400001928E-02 0.  1.
       -1    1    3    3    0  502 -0.56745776723E+00  0.19377253112E+03  0.70324964927E+02  0.20614004110E+03  0.50400001928E-02 0. -1.
</event>
<event>
 5   0  0.1448458E-01  0.4861573E+03  0.7818609E-02  0.1017457E+00
        1   -1    0    0  501    0  0.00000000000E+00  0.00000000000E+00  0.41454950918E+03  0.41454950921E+03  0.50400001928E-02 0. -1.
       -1   -1    0    0    0  501  0.00000000000E+00  0.00000000000E+00 -0.14253357415E+03  0.14253357424E+03  0.50400001928E-02 0.  1.
    10030    2    1    2    0    0  0.00000000000E+00  0.00000000000E+00  0.27201593503E+03  0.55708308345E+03  0.48615727183E+03 0.  0.
        5    1    3    3  502    0 -0.71991529775E+01 -0.19699803114E+03  0.29889011412E+03  0.35807463243E+03  0.46999998093E+01 0. -1.
       -5    1    3    3    0  502  0.71991529775E+01  0.19699803114E+03 -0.26874179085E+02  0.19900845102E+03  0.46999998093E+01 0.  1.
</event>
<event>
 5   0  0.2504064E-01  0.4933714E+03  0.7818609E-02  0.1015524E+00
       -2   -1    0    0    0  501  0.00000000000E+00  0.00000000000E+00  0.15476362872E+03  0.15476362875E+03  0.25500000920E-02 0. -1.
        2   -1    0    0  501    0  0.00000000000E+00  0.00000000000E+00 -0.39320503280E+03  0.39320503281E+03  0.25500000920E-02 0.  1.
    10030    2    1    2    0    0  0.00000000000E+00  0.00000000000E+00 -0.23844140408E+03  0.54796866156E+03  0.49337141270E+03 0.  0.
        5    1    3    3  502    0  0.10899771279E+03  0.24715559126E+02  0.12497431840E+03  0.16772605795E+03  0.46999998093E+01 0. -1.
       -5    1    3    3    0  502 -0.10899771279E+03 -0.24715559126E+02 -0.36341572248E+03  0.38024260361E+03  0.46999998093E+01 0.  1.
</event>
<event>
 5   0  0.1453602E-01  0.4944877E+03  0.7818609E-02  0.1015228E+00
       -1   -1    0    0    0  501  0.00000000000E+00  0.00000000000E+00  0.47658679129E+03  0.47658679131E+03  0.50400001928E-02 0. -1.
        1   -1    0    0  501    0  0.00000000000E+00  0.00000000000E+00 -0.12826525628E+03  0.12826525638E+03  0.50400001928E-02 0.  1.
    10030    2    1    2    0    0  0.00000000000E+00  0.00000000000E+00  0.34832153501E+03  0.60485204769E+03  0.49448772264E+03 0.  0.
        2    1    3    3  502    0 -0.10764710755E+03  0.25736045082E+02 -0.96269972260E+02  0.14669066551E+03  0.25500000920E-02 0.  1.
       -2    1    3    3    0  502  0.10764710755E+03 -0.25736045082E+02  0.44459150727E+03  0.45816138218E+03  0.25500000920E-02 0. -1.
</event>
<event>
 5   0  0.9868500E-02  0.4960022E+03  0.7818609E-02  0.1014828E+00
        3   -1    0    0  501    0  0.00000000000E+00  0.00000000000E+00  0.12761315867E+03  0.12761319864E+03  0.10100000352E+00 0.  1.
       -3   -1    0    0    0  501  0.00000000000E+00  0.00000000000E+00 -0.48196077976E+03  0.48196079034E+03  0.10100000352E+00 0. -1.
    10030    2    1    2    0    0  0.00000000000E+00  0.00000000000E+00 -0.35434762109E+03  0.60957398898E+03  0.49600222930E+03 0.  0.
        3    1    3    3  502    0 -0.32411214220E+02 -0.12854711839E+03  0.80411972143E+02  0.15505142346E+03  0.10100000352E+00 0.  1.
       -3    1    3    3    0  502  0.32411214220E+02  0.12854711839E+03 -0.43475959323E+03  0.45452256551E+03  0.10100000352E+00 0. -1.
</event>
<event>
 5   0  0.9868500E-02  0.4779732E+03  0.7818609E-02  0.1019694E+00
        3   -1    0    0  501    0  0.00000000000E+00  0.00000000000E+00  0.27351226381E+03  0.27351228246E+03  0.10100000352E+00 0. -1.
       -3   -1    0    0    0  501  0.00000000000E+00  0.00000000000E+00 -0.20881914068E+03  0.20881916510E+03  0.10100000352E+00 0.  1.
    10030    2    1    2    0    0  0.00000000000E+00  0.00000000000E+00  0.64693123134E+02  0.48233144757E+03  0.47797324730E+03 0.  0.
        4    1    3    3  502    0  0.36714818671E+02 -0.23030088130E+03  0.85038757337E+02  0.24823311018E+03  0.12699999809E+01 0. -1.
       -4    1    3    3    0  502 -0.36714818671E+02  0.23030088130E+03 -0.20345634203E+02  0.23409833739E+03  0.12699999809E+01 0.  1.
</event>
<event>
 5   0  0.2511944E-01  0.5017366E+03  0.7818609E-02  0.1013327E+00
        2   -1    0    0  501    0  0.00000000000E+00  0.00000000000E+00  0.67327143047E+03  0.67327143048E+03  0.25500000920E-02 0. -1.
       -2   -1    0    0    0  501  0.00000000000E+00  0.00000000000E+00 -0.93476279843E+02  0.93476279878E+02  0.25500000920E-02 0.  1.
    10030    2    1    2    0    0  0.00000000000E+00  0.00000000000E+00  0.57979515063E+03  0.76674771036E+03  0.50173661880E+03 0.  0.
        1    1    3    3  502    0 -0.10884904524E+03  0.21739238015E+02  0.63370311913E+03  0.64335087809E+03  0.50400001928E-02 0. -1.
       -1    1    3    3    0  502  0.10884904524E+03 -0.21739238015E+02 -0.53907968500E+02  0.12339683226E+03  0.50400001928E-02 0.  1.
</event>
<event>
 5   0  0.1413361E-01  0.5280164E+03  0.7818609E-02  0.1006714E+00
        1   -1    0    0  501    0  0.00000000000E+00  0.00000000000E+00  0.20417177318E+04  0.20417177319E+04  0.50400001928E-02 0. -1.
       -1   -1    0    0    0  501  0.00000000000E+00  0.00000000000E+00 -0.34138088015E+02  0.34138088388E+02  0.50400001928E-02 0.  1.
    10030    2    1    2    0    0  0.00000000000E+00  0.00000000000E+00  0.20075796438E+04  0.20758558202E+04  0.52801643923E+03 0.  0.
        3    1    3    3  502    0 -0.58825523928E+02  0.83521216071E+02  0.19608639289E+04  0.19635232603E+04  0.10100000352E+00 0. -1.
       -3    1    3    3    0  502  0.58825523928E+02 -0.83521216071E+02  0.46715714891E+02  0.11233255992E+03  0.10100000352E+00 0.  1.
</event>
<event>
 5   0  0.9868500E-02  0.5009612E+03  0.7818609E-02  0.1013528E+00
        4   -1    0    0  501    0  0.00000000000E+00  0.00000000000E+00  0.29936583670E+03  0.29936853055E+03  0.12699999809E+01 0.  1.
       -4   -1    0    0    0  501  0.00000000000E+00  0.00000000000E+00 -0.20957255225E+03  0.20957640028E+03  0.12699999809E+01 0. -1.
    10030    2    1    2    0    0  0.00000000000E+00  0.00000000000E+00  0.89793284456E+02  0.50894493083E+03  0.50096118481E+03 0.  0.
        1    1    3    3  502    0  0.10051080020E+03  0.31264437855E+02  0.27580869996E+03  0.29521233888E+03  0.50400001928E-02 0.  1.
       -1    1    3    3    0  502 -0.10051080020E+03 -0.31264437855E+02 -0.18601541550E+03  0.21373259195E+03  0.50400001928E-02 0. -1.
</event>
<event>
 5   0  0.2488968E-01  0.4483215E+03  0.7818609E-02  0.1028224E+00
        2   -1    0    0  501    0  0.00000000000E+00  0.00000000000E+00  0.65303644291E+03  0.65303644292E+03  0.25500000920E-02 0.  1.
       -2   -1    0    0    0  501  0.00000000000E+00  0.00000000000E+00 -0.76945237652E+02  0.76945237695E+02  0.25500000920E-02 0. -1.
    10030    2    1    2    0    0  0.00000000000E+00  0.00000000000E+00  0.57609120526E+03  0.72998168061E+03  0.44832151103E+03 0.  0.
        2    1    3    3  502    0  0.94963078231E+02 -0.76631425956E+02 -0.18125558092E+02  0.12336489587E+03  0.25500000920E-02 0. -1.
       -2    1    3    3    0  502 -0.94963078231E+02  0.76631425956E+02  0.59421676335E+03  0.60661678474E+03  0.25500000920E-02 0.  1.
</event>
<event>
 5   0  0.2488968E-01  0.5049973E+03  0.7818609E-02  0.1012483E+00
       -2   -1    0    0    0  501  0.00000000000E+00  0.00000000000E+00  0.16284952139E+03  0.16284952141E+03  0.25500000920E-02 0.  1.
        2   -1    0    0  501    0  0.00000000000E+00  0.00000000000E+00 -0.39149986331E+03  0.39149986332E+03  0.25500000920E-02 0. -1.
    10030    2    1    2    0    0  0.00000000000E+00  0.00000000000E+00 -0.22865034192E+03  0.55434938473E+03  0.50499728860E+03 0.  0.
        2    1    3    3  502    0 -0.32648692425E+02  0.22859964080E+03 -0.22644303762E+03  0.32341951423E+03  0.25500000920E-02 0. -1.
       -2    1    3    3    0  502  0.32648692425E+02 -0.22859964080E+03 -0.22073043023E+01  0.23092987050E+03  0.25500000920E-02 0.  1.
</event>
<event>
 5   0  0.2413301E-01  0.5055427E+03  0.7818609E-02  0.1012342E+00
        2   -1    0    0  501    0  0.00000000000E+00  0.00000000000E+00  0.15715954004E+04  0.15715954004E+04  0.25500000920E-02 0.  1.
       -2   -1    0    0    0  501  0.00000000000E+00  0.00000000000E+00 -0.40655092964E+02  0.40655093044E+02  0.25500000920E-02 0. -1.
    10030    2    1    2    0    0  0.00000000000E+00  0.00000000000E+00  0.15309403074E+04  0.16122504934E+04  0.50554270708E+03 0.  0.
        4    1    3    3  502    0 -0.12310320163E+03  0.22023440094E+03  0.71666945109E+03  0.75978569652E+03  0.12699999809E+01 0. -1.
       -4    1    3    3    0  502  0.12310320163E+03 -0.22023440094E+03  0.81427085631E+03  0.85246479689E+03  0.12699999809E+01 0.  1.
</event>
<event>
 5   0  0.2488968E-01  0.4913572E+03  0.7818609E-02  0.1016060E+00
       -2   -1    0    0    0  501  0.00000000000E+00  0.00000000000E+00  0.11644625563E+03  0.11644625566E+03  0.25500000920E-02 0.  1.
        2   -1    0    0  501    0  0.00000000000E+00  0.00000000000E+00 -0.51833331693E+03  0.51833331693E+03  0.25500000920E-02 0. -1.
    10030    2    1    2    0    0  0.00000000000E+00  0.00000000000E+00 -0.40188706129E+03  0.63477957259E+03  0.49135719772E+03 0.  0.
        2    1    3    3  502    0  0.13122683298E+03  0.10542231258E+03 -0.43212918849E+03  0.46375638134E+03  0.25500000920E-02 0. -1.
       -2    1    3    3    0  502 -0.13122683298E+03 -0.10542231258E+03  0.30242127194E+02  0.17102319126E+03  0.25500000920E-02 0.  1.
</event>
<event>
 5   0  0.2488968E-01  0.5177246E+03  0.7818609E-02  0.1009253E+00
       -2   -1    0    0    0  501  0.00000000000E+00  0.00000000000E+00  0.11521871945E+04  0.11521871945E+04  0.25500000920E-02 0. -1.
        2   -1    0    0  501    0  0.00000000000E+00  0.00000000000E+00 -0.58158679592E+02  0.58158679648E+02  0.25500000920E-02 0.  1.
    10030    2    1    2    0    0  0.00000000000E+00  0.00000000000E+00  0.10940285149E+04  0.12103458742E+04  0.51772458281E+03 0.  0.
        2    1    3    3  502    0  0.21677615034E+03  0.96511518461E+02  0.78887747575E+03  0.82379247648E+03  0.25500000920E-02 0. -1.
       -2    1    3    3    0  502 -0.21677615034E+03 -0.96511518461E+02  0.30515103919E+03  0.38655339771E+03  0.25500000920E-02 0.  1.
</event>
<event>
 5   0  0.2466034E-01  0.5062961E+03  0.7818609E-02  0.1012148E+00
       -2   -1    0    0    0  501  0.00000000000E+00  0.00000000000E+00  0.45182900085E+02  0.45182900157E+02  0.25500000920E-02 0.  1.
        2   -1    0    0  501    0  0.00000000000E+00  0.00000000000E+00 -0.14183227795E+04  0.14183227795E+04  0.25500000920E-02 0. -1.
    10030    2    1    2    0    0  0.00000000000E+00  0.00000000000E+00 -0.13731398794E+04  0.14635056796E+04  0.50629610501E+03 0.  0.
        3    1    3    3  502    0 -0.19123147312E+03 -0.16412825208E+03 -0.75596671991E+03  0.79686463797E+03  0.10100000352E+00 0.  1.
       -3    1    3    3    0  502  0.19123147312E+03  0.16412825208E+03 -0.61717315947E+03  0.66664104165E+03  0.10100000352E+00 0. -1.
</event>
<event>
 5   0  0.1453602E-01  0.4740127E+03  0.7818609E-02  0.1020794E+00
       -1   -1    0    0    0  501  0.00000000000E+00  0.00000000000E+00  0.60423102273E+03  0.60423102275E+03  0.50400001928E-02 0.  1.
        1   -1    0    0  501    0  0.00000000000E+00  0.00000000000E+00 -0.92964470728E+02  0.92964470865E+02  0.50400001928E-02 0. -1.
    10030    2    1    2    0    0  0.00000000000E+00  0.00000000000E+00  0.51126655200E+03  0.69719549362E+03  0.47401273097E+03 0.  0.
        2    1    3    3  502    0  0.59507524623E+02 -0.57729797790E+02  0.58220594982E+03  0.58807962305E+03  0.25500000920E-02 0.  1.
       -2    1    3    3    0  502 -0.59507524623E+02  0.57729797790E+02 -0.70939397816E+02  0.10911587056E+03  0.25500000920E-02 0. -1.
</event>
<event>
 5   0  0.1529146E-01  0.5007844E+03  0.7818609E-02  0.1013574E+00
       -1   -1    0    0    0  501  0.00000000000E+00  0.00000000000E+00  0.14406271832E+03  0.14406271840E+03  0.50400001928E-02 0.  1.
        1   -1    0    0  501    0  0.00000000000E+00  0.00000000000E+00 -0.43520113629E+03  0.43520113631E+03  0.50400001928E-02 0. -1.
    10030    2    1    2    0    0  0.00000000000E+00  0.00000000000E+00 -0.29113841797E+03  0.57926385472E+03  0.50078441965E+03 0.  0.
        1    1    3    3  502    0  0.12361111905E+03 -0.19247668207E+01 -0.39743757823E+03  0.41622114566E+03  0.50400001928E-02 0. -1.
       -1    1    3    3    0  502 -0.12361111905E+03  0.19247668207E+01  0.10629916026E+03  0.16304270906E+03  0.50400001928E-02 0.  1.
</event>
<event>
 5   0  0.1413361E-01  0.5052542E+03  0.7818609E-02  0.1012417E+00
       -1   -1    0    0    0  501  0.00000000000E+00  0.00000000000E+00  0.25498759830E+03  0.25498759835E+03  0.50400001928E-02 0. -1.
        1   -1    0    0  501    0  0.00000000000E+00  0.00000000000E+00 -0.25028845239E+03  0.25028845244E+03  0.50400001928E-02 0.  1.
    10030    2    1    2    0    0  0.00000000000E+00  0.00000000000E+00  0.46991459152E+01  0.50527605079E+03  0.50525419893E+03 0.  0.
        3    1    3    3  502    0 -0.65103157969E+02 -0.17422910508E+03 -0.16861465438E+03  0.25104803147E+03  0.10100000352E+00 0.  1.
       -3    1    3    3    0  502  0.65103157969E+02  0.17422910508E+03  0.17331380030E+03  0.25422801932E+03  0.10100000352E+00 0. -1.
</event>
<event>
 5   0  0.9868500E-02  0.4932121E+03  0.7818609E-02  0.1015566E+00
       -3   -1    0    0    0  501  0.00000000000E+00  0.00000000000E+00  0.11609673947E+04  0.11609673991E+04  0.10100000352E+00 0. -1.
        3   -1    0    0  501    0  0.00000000000E+00  0.00000000000E+00 -0.52382590715E+02  0.52382688085E+02  0.10100000352E+00 0.  1.
    10030    2    1    2    0    0  0.00000000000E+00  0.00000000000E+00  0.11085848040E+04  0.12133500872E+04  0.49321209073E+03 0.  0.
        2    1    3    3  502    0 -0.24261689643E+03  0.12351504384E+02  0.44994759728E+03  0.51133976806E+03  0.25500000920E-02 0. -1.
       -2    1    3    3    0  502  0.24261689643E+03 -0.12351504384E+02  0.65863720675E+03  0.70201031916E+03  0.25500000920E-02 0.  1.
</event>
<event>
 5   0  0.1453602E-01  0.4882551E+03  0.7818609E-02  0.1016891E+00
        1   -1    0    0  501    0  0.00000000000E+00  0.00000000000E+00  0.92787609110E+03  0.92787609111E+03  0.50400001928E-02 0.  1.
       -1   -1    0    0    0  501  0.00000000000E+00  0.00000000000E+00 -0.64230850153E+02  0.64230850350E+02  0.50400001928E-02 0. -1.
    10030    2    1    2    0    0  0.00000000000E+00  0.00000000000E+00  0.86364524095E+03  0.99210694146E+03  0.48825513934E+03 0.  0.
        2    1    3    3  502    0  0.13794065565E+03 -0.18151720358E+03  0.25442392278E+03  0.34162501689E+03  0.25500000920E-02 0. -1.
       -2    1    3    3    0  502 -0.13794065565E+03  0.18151720358E+03  0.60922131817E+03  0.65048192458E+03  0.25500000920E-02 0.  1.
</event>
<event>
 5   0  0.1529146E-01  0.5463190E+03  0.7818609E-02  0.1002350E+00
        1   -1    0    0  501    0  0.00000000000E+00  0.00000000000E+00  0.23947919917E+03  0.23947919923E+03  0.50400001928E-02 0. -1.
       -1   -1    0    0    0  501  0.00000000000E+00  0.00000000000E+00 -0.31157661065E+03  0.31157661069E+03  0.50400001928E-02 0.  1.
    10030    2    1    2    0    0  0.00000000000E+00  0.00000000000E+00 -0.72097411478E+02  0.55105580992E+03  0.54631901752E+03 0.  0.
        1    1    3    3  502    0 -0.25240512403E+03  0.10442387744E+03 -0.37915259537E+02  0.27577211561E+03  0.50400001928E-02 0.  1.
       -1    1    3    3    0  502  0.25240512403E+03 -0.10442387744E+03 -0.34182151941E+02  0.27528369431E+03  0.50400001928E-02 0. -1.
</event>
<event>
 5   0  0.2413301E-01  0.4964262E+03  0.7818609E-02  0.1014716E+00
       -2   -1    0    0    0  501  0.00000000000E+00  0.00000000000E+00  0.44173502857E+02  0.44173502930E+02  0.25500000920E-02 0. -1.
        2   -1    0    0  501    0  0.00000000000E+00  0.00000000000E+00 -0.13947214967E+04  0.13947214968E+04  0.25500000920E-02 0.  1.
    10030    2    1    2    0    0  0.00000000000E+00  0.00000000000E+00 -0.13505479939E+04  0.14388949997E+04  0.49642616400E+03 0.  0.
        4    1    3    3  502    0 -0.73348306148E+02  0.16234091384E+03 -0.11762512863E+04  0.11896651831E+04  0.12699999809E+01 0.  1.
       -4    1    3    3    0  502  0.73348306148E+02 -0.16234091384E+03 -0.17429670758E+03  0.24922981663E+03  0.12699999809E+01 0. -1.
</event>
<event>
 5   0  0.2413301E-01  0.5183372E+03  0.7818609E-02  0.1009100E+00
       -2   -1    0    0    0  501  0.00000000000E+00  0.00000000000E+00  0.80609241385E+02  0.80609241425E+02  0.25500000920E-02 0.  1.
        2   -1    0    0  501    0  0.00000000000E+00  0.00000000000E+00 -0.83325892882E+03  0.83325892883E+03  0.25500000920E-02 0. -1.
    10030    2    1    2    0    0  0.00000000000E+00  0.00000000000E+00 -0.75264968744E+03  0.91386817025E+03  0.51833722672E+03 0.  0.
        4    1    3    3  502    0 -0.67355031396E+02 -0.13348332463E+03 -0.31008383192E+01  0.14955175127E+03  0.12699999809E+01 0.  1.
       -4    1    3    3    0  502  0.67355031396E+02  0.13348332463E+03 -0.74954884912E+03  0.76431641898E+03  0.12699999809E+01 0. -1.
</event>
<event>
 5   0  0.2488968E-01  0.4967461E+03  0.7818609E-02  0.1014632E+00
        2   -1    0    0  501    0  0.00000000000E+00  0.00000000000E+00  0.15466162850E+04  0.15466162850E+04  0.25500000920E-02 0. -1.
       -2   -1    0    0    0  501  0.00000000000E+00  0.00000000000E+00 -0.39886532351E+02  0.39886532432E+02  0.25500000920E-02 0.  1.
    10030    2    1    2    0    0  0.00000000000E+00  0.00000000000E+00  0.15067297526E+04  0.15865028174E+04  0.49674605404E+03 0.  0.
        2    1    3    3  502    0  0.10834193381E+01  0.13864681721E+03  0.95218907729E+02  0.16819855563E+03  0.25500000920E-02 0.  1.
       -2    1    3    3    0  502 -0.10834193381E+01 -0.13864681721E+03  0.14115108449E+04  0.14183042618E+04  0.25500000920E-02 0. -1.
</event>
<event>
 5   0  0.1448458E-01  0.5057000E+03  0.7818609E-02  0.1012302E+00
        1   -1    0    0  501    0  0.00000000000E+00  0.00000000000E+00  0.83017319015E+03  0.83017319017E+03  0.50400001928E-02 0.  1.
       -1   -1    0    0    0  501  0.00000000000E+00  0.00000000000E+00 -0.77011799529E+02  0.77011799694E+02  0.50400001928E-02 0. -1.
    10030    2    1    2    0    0  0.00000000000E+00  0.00000000000E+00  0.75316139062E+03  0.90718498986E+03  0.50570003510E+03 0.  0.
        5    1    3    3  502    0  0.24632034864E+03  0.49538126765E+01  0.47826263836E+03  0.53801068359E+03  0.46999998093E+01 0.  1.
       -5    1    3    3    0  502 -0.24632034864E+03 -0.49538126765E+01  0.27489875227E+03  0.36917430627E+03  0.46999998093E+01 0. -1.
</event>
<event>
 5   0  0.1439814E-01  0.5020857E+03  0.7818609E-02  0.1013236E+00
        1   -1    0    0  501    0  0.00000000000E+00  0.00000000000E+00  0.16678913465E+04  0.16678913465E+04  0.50400001928E-02 0.  1.
       -1   -1    0    0    0  501  0.00000000000E+00  0.00000000000E+00 -0.37785747484E+02  0.37785747820E+02  0.50400001928E-02 0. -1.
    10030    2    1    2    0    0  0.00000000000E+00  0.00000000000E+00  0.16301055990E+04  0.17056770944E+04  0.50208573588E+03 0.  0.
        4    1    3    3  502    0 -0.21511548527E+03 -0.17823379880E+02  0.12504831859E+04  0.12689768146E+04  0.12699999809E+01 0.  1.
       -4    1    3    3    0  502  0.21511548527E+03  0.17823379880E+02  0.37962241312E+03  0.43670027973E+03  0.12699999809E+01 0. -1.
</event>
<event>
 5   0  0.1413361E-01  0.5033071E+03  0.7818609E-02  0.1012919E+00
       -1   -1    0    0    0  501  0.00000000000E+00  0.00000000000E+00  0.50682099372E+02  0.50682099623E+02  0.50400001928E-02 0. -1.
        1   -1    0    0  501    0  0.00000000000E+00  0.00000000000E+00 -0.12495439186E+04  0.12495439186E+04  0.50400001928E-02 0.  1.
    10030    2    1    2    0    0  0.00000000000E+00  0.00000000000E+00 -0.11988618193E+04  0.13002260183E+04  0.50330709998E+03 0.  0.
        3    1    3    3  502    0 -0.20105518450E+03  0.11227498446E+03 -0.33723984132E+03  0.40836206989E+03  0.10100000352E+00 0. -1.
       -3    1    3    3    0  502  0.20105518450E+03 -0.11227498446E+03 -0.86162197793E+03  0.89186394837E+03  0.10100000352E+00 0.  1.
</event>
<event>
 5   0  0.9868500E-02  0.4903976E+03  0.7818609E-02  0.1016316E+00
       -3   -1    0    0    0  501  0.00000000000E+00  0.00000000000E+00  0.11370926470E+03  0.11370930956E+03  0.10100000352E+00 0. -1.
        3   -1    0    0  501    0  0.00000000000E+00  0.00000000000E+00 -0.52873820463E+03  0.52873821428E+03  0.10100000352E+00 0.  1.
    10030    2    1    2    0    0  0.00000000000E+00  0.00000000000E+00 -0.41502893993E+03  0.64244752384E+03  0.49039759370E+03 0.  0.
        2    1    3    3  502    0  0.20601624957E+02 -0.17581271067E+03 -0.42979141834E+03  0.46481738293E+03  0.25500000920E-02 0.  1.
       -2    1    3    3    0  502 -0.20601624957E+02  0.17581271067E+03  0.14762478404E+02  0.17763014091E+03  0.25500000920E-02 0. -1.
</event>
<event>
 5   0  0.1439814E-01  0.4899313E+03  0.7818609E-02  0.1016441E+00
       -1   -1    0    0    0  501  0.00000000000E+00  0.00000000000E+00  0.16972499551E+03  0.16972499559E+03  0.50400001928E-02 0. -1.
        1   -1    0    0  501    0  0.00000000000E+00  0.00000000000E+00 -0.35356117538E+03  0.35356117542E+03  0.50400001928E-02 0.  1.
    10030    2    1    2    0    0  0.00000000000E+00  0.00000000000E+00 -0.18383617987E+03  0.52328617101E+03  0.48993129696E+03 0.  0.
        4    1    3    3  502    0  0.18704446460E+03 -0.15432723554E+03 -0.54856633009E+02  0.24862298859E+03  0.12699999809E+01 0.  1.
       -4    1    3    3    0  502 -0.18704446460E+03  0.15432723554E+03 -0.12897954686E+03  0.27466318242E+03  0.12699999809E+01 0. -1.
</event>
<event>
 5   0  0.1453602E-01  0.4977713E+03  0.7818609E-02  0.1014362E+00
       -1   -1    0    0    0  501  0.00000000000E+00  0.00000000000E+00  0.82014361187E+02  0.82014361342E+02  0.50400001928E-02 0. -1.
        1   -1    0    0  501    0  0.00000000000E+00  0.00000000000E+00 -0.75528304004E+03  0.75528304006E+03  0.50400001928E-02 0.  1.
    10030    2    1    2    0    0  0.00000000000E+00  0.00000000000E+00 -0.67326867885E+03  0.83729740140E+03  0.49777125717E+03 0.  0.
        2    1    3    3  502    0 -0.15544300877E+03  0.12083022930E+03 -0.59274135235E+03  0.62458368861E+03  0.25500000920E-02 0.  1.
       -2    1    3    3    0  502  0.15544300877E+03 -0.12083022930E+03 -0.80527326497E+02  0.21271371278E+03  0.25500000920E-02 0. -1.
</event>
<event>
 5   0  0.2511944E-01  0.5064197E+03  0.7818609E-02  0.1012117E+00
        2   -1    0    0  501    0  0.00000000000E+00  0.00000000000E+00  0.12846044704E+04  0.12846044704E+04  0.25500000920E-02 0. -1.
       -2   -1    0    0    0  501  0.00000000000E+00  0.00000000000E+00 -0.49910476973E+02  0.49910477038E+02  0.25500000920E-02 0.  1.
    10030    2    1    2    0    0  0.00000000000E+00  0.00000000000E+00  0.12346939934E+04  0.13345149474E+04  0.50641967530E+03 0.  0.
        1    1    3    3  502    0  0.17412622980E+03  0.83009270558E+02  0.10495892947E+04  0.10671682953E+04  0.50400001928E-02 0. -1.
       -1    1    3    3    0  502 -0.17412622980E+03 -0.83009270558E+02  0.18510469875E+03  0.26734665217E+03  0.50400001928E-02 0.  1.
</event>
<event>
 5   0  0.2488968E-01  0.5038669E+03  0.7818609E-02  0.1012775E+00
        2   -1    0    0  501    0  0.00000000000E+00  0.00000000000E+00  0.59119255873E+03  0.59119255873E+03  0.25500000920E-02 0. -1.
       -2   -1    0    0    0  501  0.00000000000E+00  0.00000000000E+00 -0.10736004935E+03  0.10736004938E+03  0.25500000920E-02 0.  1.
    10030    2    1    2    0    0  0.00000000000E+00  0.00000000000E+00  0.48383250938E+03  0.69855260811E+03  0.50386689627E+03 0.  0.
        2    1    3    3  502    0 -0.21235513826E+03  0.37406610139E+02  0.61278964325E+02  0.22416304491E+03  0.25500000920E-02 0.  1.
       -2    1    3    3    0  502  0.21235513826E+03 -0.37406610139E+02  0.42255354505E+03  0.47438956320E+03  0.25500000920E-02 0. -1.
</event>
<event>
 5   0  0.2466034E-01  0.5047530E+03  0.7818609E-02  0.1012546E+00
        2   -1    0    0  501    0  0.00000000000E+00  0.00000000000E+00  0.77522759821E+03  0.77522759821E+03  0.25500000920E-02 0. -1.
       -2   -1    0    0    0  501  0.00000000000E+00  0.00000000000E+00 -0.82161529541E+02  0.82161529580E+02  0.25500000920E-02 0.  1.
    10030    2    1    2    0    0  0.00000000000E+00  0.00000000000E+00  0.69306606867E+03  0.85738912779E+03  0.50475295038E+03 0.  0.
        3    1    3    3  502    0  0.24976948005E+03  0.31127194965E+02  0.37786251797E+03  0.45401959002E+03  0.10100000352E+00 0. -1.
       -3    1    3    3    0  502 -0.24976948005E+03 -0.31127194965E+02  0.31520355069E+03  0.40336953777E+03  0.10100000352E+00 0.  1.
</event>
<event>
 5   0  0.2504064E-01  0.4994768E+03  0.7818609E-02  0.1013916E+00
       -2   -1    0    0    0  501  0.00000000000E+00  0.00000000000E+00  0.64509314300E+02  0.64509314350E+02  0.25500000920E-02 0. -1.
        2   -1    0    0  501    0  0.00000000000E+00  0.00000000000E+00 -0.96682591142E+03  0.96682591142E+03  0.25500000920E-02 0.  1.
    10030    2    1    2    0    0  0.00000000000E+00  0.00000000000E+00 -0.90231659712E+03  0.10313352258E+04  0.49947683278E+03 0.  0.
        5    1    3    3  502    0 -0.11855881330E+03  0.21802982764E+03 -0.39446040659E+03  0.46606254979E+03  0.46999998093E+01 0. -1.
       -5    1    3    3    0  502  0.11855881330E+03 -0.21802982764E+03 -0.50785619052E+03  0.56527267598E+03  0.46999998093E+01 0.  1.
</event>
<event>
 5   0  0.9868500E-02  0.5241943E+03  0.7818609E-02  0.1007650E+00
        3   -1    0    0  501    0  0.00000000000E+00  0.00000000000E+00  0.51040998227E+03  0.51040999226E+03  0.10100000352E+00 0. -1.
       -3   -1    0    0    0  501  0.00000000000E+00  0.00000000000E+00 -0.13458767153E+03  0.13458770942E+03  0.10100000352E+00 0.  1.
    10030    2    1    2    0    0  0.00000000000E+00  0.00000000000E+00  0.37582231074E+03  0.64499770169E+03  0.52419426354E+03 0.  0.
        4    1    3    3  502    0 -0.19847330217E+03  0.12913986561E+03  0.49658451678E+02  0.24194282648E+03  0.12699999809E+01 0. -1.
       -4    1    3    3    0  502  0.19847330217E+03 -0.12913986561E+03  0.32616385906E+03  0.40305487520E+03  0.12699999809E+01 0.  1.
</event>
<event>
 5   0  0.1413361E-01  0.5062003E+03  0.7818609E-02  0.1012173E+00
        1   -1    0    0  501    0  0.00000000000E+00  0.00000000000E+00  0.20257268474E+03  0.20257268481E+03  0.50400001928E-02 0.  1.
       -1   -1    0    0    0  501  0.00000000000E+00  0.00000000000E+00 -0.31623063070E+03  0.31623063074E+03  0.50400001928E-02 0. -1.
    10030    2    1    2    0    0  0.00000000000E+00  0.00000000000E+00 -0.11365794596E+03  0.51880331554E+03  0.50620030773E+03 0.  0.
        3    1    3    3  502    0 -0.53981265618E+02  0.12678263150E+03 -0.27441605219E+03  0.30707001252E+03  0.10100000352E+00 0. -1.
       -3    1    3    3    0  502  0.53981265618E+02 -0.12678263150E+03  0.16075810624E+03  0.21173330302E+03  0.10100000352E+00 0.  1.
</event>
<event>
 5   0  0.9868500E-02  0.5025067E+03  0.7818609E-02  0.1013127E+00
       -3   -1    0    0    0  501  0.00000000000E+00  0.00000000000E+00  0.11331834123E+04  0.11331834168E+04  0.10100000352E+00 0.  1.
        3   -1    0    0  501    0  0.00000000000E+00  0.00000000000E+00 -0.55708706861E+02  0.55708798417E+02  0.10100000352E+00 0. -1.
    10030    2    1    2    0    0  0.00000000000E+00  0.00000000000E+00  0.10774747054E+04  0.11888922152E+04  0.50250667512E+03 0.  0.
        3    1    3    3  502    0 -0.23478947590E+03  0.42959396900E+02  0.72437749009E+03  0.76268890520E+03  0.10100000352E+00 0.  1.
       -3    1    3    3    0  502  0.23478947590E+03 -0.42959396900E+02  0.35309721532E+03  0.42620330999E+03  0.10100000352E+00 0. -1.
</event>
<event>
 5   0  0.1453602E-01  0.4939591E+03  0.7818609E-02  0.1015368E+00
        1   -1    0    0  501    0  0.00000000000E+00  0.00000000000E+00  0.17314435947E+04  0.17314435947E+04  0.50400001928E-02 0.  1.
       -1   -1    0    0    0  501  0.00000000000E+00  0.00000000000E+00 -0.35230082401E+02  0.35230082761E+02  0.50400001928E-02 0. -1.
    10030    2    1    2    0    0  0.00000000000E+00  0.00000000000E+00  0.16962135123E+04  0.17666736775E+04  0.49395911102E+03 0.  0.
        2    1    3    3  502    0  0.16529219109E+03 -0.14420486417E+03  0.44216579334E+03  0.49358600070E+03  0.25500000920E-02 0. -1.
       -2    1    3    3    0  502 -0.16529219109E+03  0.14420486417E+03  0.12540477190E+04  0.12730876768E+04  0.25500000920E-02 0.  1.
</event>
<event>
 5   0  0.1413361E-01  0.5021351E+03  0.7818609E-02  0.1013223E+00
        1   -1    0    0  501    0  0.00000000000E+00  0.00000000000E+00  0.82160628689E+03  0.82160628691E+03  0.50400001928E-02 0. -1.
       -1   -1    0    0    0  501  0.00000000000E+00  0.00000000000E+00 -0.76721568302E+02  0.76721568468E+02  0.50400001928E-02 0.  1.
    10030    2    1    2    0    0  0.00000000000E+00  0.00000000000E+00  0.74488471859E+03  0.89832785538E+03  0.50213513296E+03 0.  0.
        3    1    3    3  502    0 -0.17897199622E+03  0.17464301133E+03  0.33228877384E+03  0.41586896525E+03  0.10100000352E+00 0.  1.
       -3    1    3    3    0  502  0.17897199622E+03 -0.17464301133E+03  0.41259594475E+03  0.48245889013E+03  0.10100000352E+00 0. -1.
</event>
<event>
 5   0  0.2488968E-01  0.4916422E+03  0.7818609E-02  0.1015984E+00
        2   -1    0    0  501    0  0.00000000000E+00  0.00000000000E+00  0.44915211875E+03  0.44915211876E+03  0.25500000920E-02 0.  1.
       -2   -1    0    0    0  501  0.00000000000E+00  0.00000000000E+00 -0.13453799434E+03  0.13453799437E+03  0.25500000920E-02 0. -1.
    10030    2    1    2    0    0  0.00000000000E+00  0.00000000000E+00  0.31461412441E+03  0.58369011313E+03  0.49164224888E+03 0.  0.
        2    1    3    3  502    0 -0.10685752160E+03  0.14626243349E+03  0.35460374582E+03  0.39818971098E+03  0.25500000920E-02 0.  1.
       -2    1    3    3    0  502  0.10685752160E+03 -0.14626243349E+03 -0.39989621408E+02  0.18550040215E+03  0.25500000920E-02 0. -1.
</event>
<event>
 5   0  0.2511944E-01  0.5423828E+03  0.7818609E-02  0.1003273E+00
        2   -1    0    0  501    0  0.00000000000E+00  0.00000000000E+00  0.29484982606E+03  0.29484982607E+03  0.25500000920E-02 0. -1.
       -2   -1    0    0    0  501  0.00000000000E+00  0.00000000000E+00 -0.24943130059E+03  0.24943130060E+03  0.25500000920E-02 0.  1.
    10030    2    1    2    0    0  0.00000000000E+00  0.00000000000E+00  0.45418525470E+02  0.54428112667E+03  0.54238280060E+03 0.  0.
        1    1    3    3  502    0 -0.94803448040E+02  0.23627551950E+03  0.11647590890E+03  0.27996509113E+03  0.50400001928E-02 0.  1.
       -1    1    3    3    0  502  0.94803448040E+02 -0.23627551950E+03 -0.71057383429E+02  0.26431603553E+03  0.50400001928E-02 0. -1.
</event>
<event>
 5   0  0.2511944E-01  0.4975879E+03  0.7818609E-02  0.1014410E+00
        2   -1    0    0  501    0  0.00000000000E+00  0.00000000000E+00  0.31989499905E+03  0.31989499906E+03  0.25500000920E-02 0. -1.
       -2   -1    0    0    0  501  0.00000000000E+00  0.00000000000E+00 -0.19349608795E+03  0.19349608797E+03  0.25500000920E-02 0.  1.
    10030    2    1    2    0    0  0.00000000000E+00  0.00000000000E+00  0.12639891110E+03  0.51339108703E+03  0.49758790531E+03 0.  0.
        1    1    3    3  502    0  0.89259307083E+01 -0.18046687597E+03  0.23965889629E+03  0.30014055401E+03  0.50400001928E-02 0. -1.
       -1    1    3    3    0  502 -0.89259307083E+01  0.18046687597E+03 -0.11325998519E+03  0.21325053302E+03  0.50400001928E-02 0.  1.
</event>
<event>
 5   0  0.2466034E-01  0.4810579E+03  0.7818609E-02  0.1018845E+00
       -2   -1    0    0    0  501  0.00000000000E+00  0.00000000000E+00  0.10544096498E+04  0.10544096498E+04  0.25500000920E-02 0.  1.
        2   -1    0    0  501    0  0.00000000000E+00  0.00000000000E+00 -0.54868773910E+02  0.54868773969E+02  0.25500000920E-02 0. -1.
    10030    2    1    2    0    0  0.00000000000E+00  0.00000000000E+00  0.99954087588E+03  0.11092784238E+04  0.48105785397E+03 0.  0.
        3    1    3    3  502    0  0.17137240925E+03 -0.13403865083E+03  0.26326751614E+03  0.34153280636E+03  0.10100000352E+00 0.  1.
       -3    1    3    3    0  502 -0.17137240925E+03  0.13403865083E+03  0.73627335974E+03  0.76774561740E+03  0.10100000352E+00 0. -1.
</event>
<event>
 5   0  0.1439814E-01  0.5000037E+03  0.7818609E-02  0.1013778E+00
        1   -1    0    0  501    0  0.00000000000E+00  0.00000000000E+00  0.50819772535E+03  0.50819772538E+03  0.50400001928E-02 0. -1.
       -1   -1    0    0    0  501  0.00000000000E+00  0.00000000000E+00 -0.12298543814E+03  0.12298543824E+03  0.50400001928E-02 0.  1.
    10030    2    1    2    0    0  0.00000000000E+00  0.00000000000E+00  0.38521228721E+03  0.63118316362E+03  0.50000367981E+03 0.  0.
        4    1    3    3  502    0 -0.95426290903E+02 -0.21427903930E+03  0.30176626223E+03  0.38221221017E+03  0.12699999809E+01 0. -1.
       -4    1    3    3    0  502  0.95426290903E+02  0.21427903930E+03  0.83446024978E+02  0.24897095345E+03  0.12699999809E+01 0.  1.
</event>
<event>
 5   0  0.2466034E-01  0.5052350E+03  0.7818609E-02  0.1012421E+00
       -2   -1    0    0    0  501  0.00000000000E+00  0.00000000000E+00  0.41369229895E+03  0.41369229895E+03  0.25500000920E-02 0. -1.
        2   -1    0    0  501    0  0.00000000000E+00  0.00000000000E+00 -0.15425862559E+03  0.15425862561E+03  0.25500000920E-02 0.  1.
    10030    2    1    2    0    0  0.00000000000E+00  0.00000000000E+00  0.25943367336E+03  0.56795092456E+03  0.50523501644E+03 0.  0.
        3    1    3    3  502    0  0.54804650771E+02  0.15822059520E+03 -0.82914441897E+02  0.18684785620E+03  0.10100000352E+00 0.  1.
       -3    1    3    3    0  502 -0.54804650771E+02 -0.15822059520E+03  0.34234811525E+03  0.38110306836E+03  0.10100000352E+00 0. -1.
</event>
<event>
 5   0  0.1453602E-01  0.4984402E+03  0.7818609E-02  0.1014187E+00
       -1   -1    0    0    0  501  0.00000000000E+00  0.00000000000E+00  0.77921692309E+02  0.77921692472E+02  0.50400001928E-02 0. -1.
        1   -1    0    0  501    0  0.00000000000E+00  0.00000000000E+00 -0.79709071022E+03  0.79709071024E+03  0.50400001928E-02 0.  1.
    10030    2    1    2    0    0  0.00000000000E+00  0.00000000000E+00 -0.71916901791E+03  0.87501240271E+03  0.49844019558E+03 0.  0.
        2    1    3    3  502    0 -0.14518220365E+03 -0.35011290760E+02 -0.70983668730E+03  0.72537699535E+03  0.25500000920E-02 0.  1.
       -2    1    3    3    0  502  0.14518220365E+03  0.35011290760E+02 -0.93323306163E+01  0.14963540737E+03  0.25500000920E-02 0. -1.
</event>
<event>
 5   0  0.9868500E-02  0.5096305E+03  0.7818609E-02  0.1011295E+00
        4   -1    0    0  501    0  0.00000000000E+00  0.00000000000E+00  0.58166340163E+02  0.58180203059E+02  0.12699999809E+01 0. -1.
       -4   -1    0    0    0  501  0.00000000000E+00  0.00000000000E+00 -0.11161480310E+04  0.11161487535E+04  0.12699999809E+01 0.  1.
    10030    2    1    2    0    0  0.00000000000E+00  0.00000000000E+00 -0.10579816909E+04  0.11743289566E+04  0.50963049373E+03 0.  0.
        2    1    3    3  502    0 -0.16796517650E+02  0.19273036256E+03 -0.91113734023E+03  0.93144960595E+03  0.25500000920E-02 0.  1.
       -2    1    3    3    0  502  0.16796517650E+02 -0.19273036256E+03 -0.14684435062E+03  0.24287935065E+03  0.25500000920E-02 0. -1.
</event>
<event>
 5   0  0.2466034E-01  0.4955286E+03  0.7818609E-02  0.1014953E+00
        2   -1    0    0  501    0  0.00000000000E+00  0.00000000000E+00  0.59686237628E+03  0.59686237628E+03  0.25500000920E-02 0.  1.
       -2   -1    0    0    0  501  0.00000000000E+00  0.00000000000E+00 -0.10284974018E+03  0.10284974021E+03  0.25500000920E-02 0. -1.
    10030    2    1    2    0    0  0.00000000000E+00  0.00000000000E+00  0.49401263610E+03  0.69971211649E+03  0.49552856763E+03 0.  0.
        3    1    3    3  502    0 -0.12447566819E+03  0.17730379167E+03  0.77229133257E+02  0.22998951223E+03  0.10100000352E+00 0. -1.
       -3    1    3    3    0  502  0.12447566819E+03 -0.17730379167E+03  0.41678350284E+03  0.46972260426E+03  0.10100000352E+00 0.  1.
</event>
<event>
 5   0  0.1453602E-01  0.5061813E+03  0.7818609E-02  0.1012178E+00
        1   -1    0    0  501    0  0.00000000000E+00  0.00000000000E+00  0.45004071359E+03  0.45004071361E+03  0.50400001928E-02 0.  1.
       -1   -1    0    0    0  501  0.00000000000E+00  0.00000000000E+00 -0.14233131521E+03  0.14233131530E+03  0.50400001928E-02 0. -1.
    10030    2    1    2    0    0  0.00000000000E+00  0.00000000000E+00  0.30770939838E+03  0.59237202891E+03  0.50618133785E+03 0.  0.
        2    1    3    3  502    0 -0.21742534583E+03 -0.72281375707E+02  0.28048589177E+02  0.23083565938E+03  0.25500000920E-02 0. -1.
       -2    1    3    3    0  502  0.21742534583E+03  0.72281375707E+02  0.27966080920E+03  0.36153636953E+03  0.25500000920E-02 0.  1.
</event>
<event>
 5   0  0.1453602E-01  0.4983915E+03  0.7818609E-02  0.1014200E+00
       -1   -1    0    0    0  501  0.00000000000E+00  0.00000000000E+00  0.15134086201E+03  0.15134086210E+03  0.50400001928E-02 0. -1.
        1   -1    0    0  501    0  0.00000000000E+00  0.00000000000E+00 -0.41032218731E+03  0.41032218734E+03  0.50400001928E-02 0.  1.
    10030    2    1    2    0    0  0.00000000000E+00  0.00000000000E+00 -0.25898132529E+03  0.56166304943E+03  0.49839146687E+03 0.  0.
        2    1    3    3  502    0 -0.18691730915E+03  0.13160632510E+03 -0.24128180685E+03  0.33237812140E+03  0.25500000920E-02 0.  1.
       -2    1    3    3    0  502  0.18691730915E+03 -0.13160632510E+03 -0.17699518445E+02  0.22928492803E+03  0.25500000920E-02 0. -1.
</event>
<event>
 5   0  0.9868500E-02  0.4827988E+03  0.7818609E-02  0.1018369E+00
        3   -1    0    0  501    0  0.00000000000E+00  0.00000000000E+00  0.16788415201E+03  0.16788418239E+03  0.10100000352E+00 0.  1.
       -3   -1    0    0    0  501  0.00000000000E+00  0.00000000000E+00 -0.34710630091E+03  0.34710631560E+03  0.10100000352E+00 0. -1.
    10030    2    1    2    0    0  0.00000000000E+00  0.00000000000E+00 -0.17922214890E+03  0.51499049799E+03  0.48279875141E+03 0.  0.
        4    1    3    3  502    0 -0.20915373327E+03 -0.65699779304E+02  0.18172440119E+02  0.21998544411E+03  0.12699999809E+01 0.  1.
       -4    1    3    3    0  502  0.20915373327E+03  0.65699779304E+02 -0.19739458902E+03  0.29500505388E+03  0.12699999809E+01 0. -1.
</event>
<event>
 5   0  0.1448458E-01  0.5086524E+03  0.7818609E-02  0.1011545E+00
        1   -1    0    0  501    0  0.00000000000E+00  0.00000000000E+00  0.33625861094E+03  0.33625861098E+03  0.50400001928E-02 0.  1.
       -1   -1    0    0    0  501  0.00000000000E+00  0.00000000000E+00 -0.19235735170E+03  0.19235735177E+03  0.50400001928E-02 0. -1.
    10030    2    1    2    0    0  0.00000000000E+00  0.00000000000E+00  0.14390125924E+03  0.52861596275E+03  0.50865239964E+03 0.  0.
        5    1    3    3  502    0 -0.12029539514E+03 -0.46193687901E+02 -0.15586732904E+03  0.20229076389E+03  0.46999998093E+01 0. -1.
       -5    1    3    3    0  502  0.12029539514E+03  0.46193687901E+02  0.29976858828E+03  0.32632519886E+03  0.46999998093E+01 0.  1.
</event>
<event>
 5   0  0.2488968E-01  0.4991017E+03  0.7818609E-02  0.1014014E+00
        2   -1    0    0  501    0  0.00000000000E+00  0.00000000000E+00  0.41181574142E+03  0.41181574142E+03  0.25500000920E-02 0.  1.
       -2   -1    0    0    0  501  0.00000000000E+00  0.00000000000E+00 -0.15122208849E+03  0.15122208851E+03  0.25500000920E-02 0. -1.
    10030    2    1    2    0    0  0.00000000000E+00  0.00000000000E+00  0.26059365292E+03  0.56303782994E+03  0.49910173912E+03 0.  0.
        2    1    3    3  502    0  0.15345637586E+03 -0.16620745992E+03  0.24915972487E+03  0.33653283277E+03  0.25500000920E-02 0.  1.
       -2    1    3    3    0  502 -0.15345637586E+03  0.16620745992E+03  0.11433928051E+02  0.22650499717E+03  0.25500000920E-02 0. -1.
</event>
<event>
 5   0  0.2488968E-01  0.4973614E+03  0.7818609E-02  0.1014470E+00
        2   -1    0    0  501    0  0.00000000000E+00  0.00000000000E+00  0.42802995853E+03  0.42802995854E+03  0.25500000920E-02 0.  1.
       -2   -1    0    0    0  501  0.00000000000E+00  0.00000000000E+00 -0.14448077635E+03  0.14448077637E+03  0.25500000920E-02 0. -1.
    10030    2    1    2    0    0  0.00000000000E+00  0.00000000000E+00  0.28354918218E+03  0.57251073491E+03  0.49736144088E+03 0.  0.
        2    1    3    3  502    0  0.20306189863E+03 -0.11523757031E+03  0.24031451127E+03  0.33505954190E+03  0.25500000920E-02 0.  1.
       -2    1    3    3    0  502 -0.20306189863E+03  0.11523757031E+03  0.43234670906E+02  0.23745119301E+03  0.25500000920E-02 0. -1.
</event>
<event>
 5   0  0.1413361E-01  0.5085951E+03  0.7818609E-02  0.1011560E+00
       -1   -1    0    0    0  501  0.00000000000E+00  0.00000000000E+00  0.47695979395E+02  0.47695979662E+02  0.50400001928E-02 0. -1.
        1   -1    0    0  501    0  0.00000000000E+00  0.00000000000E+00 -0.13558214477E+04  0.13558214477E+04  0.50400001928E-02 0.  1.
    10030    2    1    2    0    0  0.00000000000E+00  0.00000000000E+00 -0.13081254683E+04  0.14035174274E+04  0.50859505316E+03 0.  0.
        3    1    3    3  502    0 -0.33914280429E+02 -0.24548957942E+03 -0.81143018995E+03  0.84843047764E+03  0.10100000352E+00 0. -1.
       -3    1    3    3    0  502  0.33914280429E+02  0.24548957942E+03 -0.49669527834E+03  0.55508694972E+03  0.10100000352E+00 0.  1.
</event>
<event>
 5   0  0.2413301E-01  0.4878550E+03  0.7818609E-02  0.1016998E+00
       -2   -1    0    0    0  501  0.00000000000E+00  0.00000000000E+00  0.19126511751E+03  0.19126511753E+03  0.25500000920E-02 0.  1.
        2   -1    0    0  501    0  0.00000000000E+00  0.00000000000E+00 -0.31108972867E+03  0.31108972868E+03  0.25500000920E-02 0. -1.
    10030    2    1    2    0    0  0.00000000000E+00  0.00000000000E+00 -0.11982461116E+03  0.50235484621E+03  0.48785495188E+03 0.  0.
        4    1    3    3  502    0  0.99472732033E+02 -0.87495335620E+02  0.15098904050E+03  0.20087200259E+03  0.12699999809E+01 0.  1.
       -4    1    3    3    0  502 -0.99472732033E+02  0.87495335620E+02 -0.27081365166E+03  0.30148284362E+03  0.12699999809E+01 0. -1.
</event>
<event>
 5   0  0.1529146E-01  0.4738260E+03  0.7818609E-02  0.1020846E+00
        1   -1    0    0  501    0  0.00000000000E+00  0.00000000000E+00  0.44328791457E+03  0.44328791460E+03  0.50400001928E-02 0. -1.
       -1   -1    0    0    0  501  0.00000000000E+00  0.00000000000E+00 -0.12661698281E+03  0.12661698291E+03  0.50400001928E-02 0.  1.
    10030    2    1    2    0    0  0.00000000000E+00  0.00000000000E+00  0.31667093176E+03  0.56990489750E+03  0.47382603683E+03 0.  0.
        1    1    3    3  502    0 -0.87239809896E+02  0.11486558251E+03 -0.67718220116E+02  0.15934441891E+03  0.50400001928E-02 0.  1.
       -1    1    3    3    0  502  0.87239809896E+02 -0.11486558251E+03  0.38438915188E+03  0.41056047859E+03  0.50400001928E-02 0. -1.
</event>
<event>
 5   0  0.2488968E-01  0.4990822E+03  0.7818609E-02  0.1014019E+00
        2   -1    0    0  501    0  0.00000000000E+00  0.00000000000E+00  0.41000942934E+03  0.41000942935E+03  0.25500000920E-02 0.  1.
       -2   -1    0    0    0  501  0.00000000000E+00  0.00000000000E+00 -0.15187639813E+03  0.15187639815E+03  0.25500000920E-02 0. -1.
    10030    2    1    2    0    0  0.00000000000E+00  0.00000000000E+00  0.25813303122E+03  0.56188582750E+03  0.49908217894E+03 0.  0.
        2    1    3    3  502    0  0.19315425263E+03  0.38330795216E+02  0.30162833128E+03  0.36021863556E+03  0.25500000920E-02 0.  1.
       -2    1    3    3    0  502 -0.19315425263E+03 -0.38330795216E+02 -0.43495300061E+02  0.20166719194E+03  0.25500000920E-02 0. -1.
</event>
<event>
 5   0  0.1413361E-01  0.4973036E+03  0.7818609E-02  0.1014485E+00
       -1   -1    0    0    0  501  0.00000000000E+00  0.00000000000E+00  0.46655091476E+02  0.46655091748E+02  0.50400001928E-02 0. -1.
        1   -1    0    0  501    0  0.00000000000E+00  0.00000000000E+00 -0.13252083223E+04  0.13252083223E+04  0.50400001928E-02 0.  1.
    10030    2    1    2    0    0  0.00000000000E+00  0.00000000000E+00 -0.12785532308E+04  0.13718634141E+04  0.49730359217E+03 0.  0.
        3    1    3    3  502    0 -0.10675590221E+02 -0.16745676994E+03 -0.11454782282E+04  0.11577029496E+04  0.10100000352E+00 0.  1.
       -3    1    3    3    0  502  0.10675590221E+02  0.16745676994E+03 -0.13307500269E+03  0.21416046453E+03  0.10100000352E+00 0. -1.
</event>
<event>
 5   0  0.9868500E-02  0.5107778E+03  0.7818609E-02  0.1011003E+00
        3   -1    0    0  501    0  0.00000000000E+00  0.00000000000E+00  0.16929055122E+03  0.16929058135E+03  0.10100000352E+00 0.  1.
       -3   -1    0    0    0  501  0.00000000000E+00  0.00000000000E+00 -0.38527532825E+03  0.38527534149E+03  0.10100000352E+00 0. -1.
    10030    2    1    2    0    0  0.00000000000E+00  0.00000000000E+00 -0.21598477703E+03  0.55456592284E+03  0.51077777836E+03 0.  0.
        4    1    3    3  502    0  0.17622487860E+03  0.15280653997E+03  0.49276695509E+01  0.23330439628E+03  0.12699999809E+01 0.  1.
       -4    1    3    3    0  502 -0.17622487860E+03 -0.15280653997E+03 -0.22091244658E+03  0.32126152656E+03  0.12699999809E+01 0. -1.
</event>
<event>
 5   0  0.2511944E-01  0.4986150E+03  0.7818609E-02  0.1014141E+00
        2   -1    0    0  501    0  0.00000000000E+00  0.00000000000E+00  0.19549876392E+04  0.19549876392E+04  0.25500000920E-02 0. -1.
       -2   -1    0    0    0  501  0.00000000000E+00  0.00000000000E+00 -0.31792640374E+02  0.31792640476E+02  0.25500000920E-02 0.  1.
    10030    2    1    2    0    0  0.00000000000E+00  0.00000000000E+00  0.19231949988E+04  0.19867802797E+04  0.49861495787E+03 0.  0.
        1    1    3    3  502    0  0.66351113425E+02 -0.23704084701E+03  0.80404779424E+03  0.84088268435E+03  0.50400001928E-02 0. -1.
       -1    1    3    3    0  502 -0.66351113425E+02  0.23704084701E+03  0.11191472046E+04  0.11458975953E+04  0.50400001928E-02 0.  1.
</event>
<event>
 5   0  0.9868500E-02  0.4947991E+03  0.7818609E-02  0.1015145E+00
       -4   -1    0    0    0  501  0.00000000000E+00  0.00000000000E+00  0.21007144529E+03  0.21007528418E+03  0.12699999809E+01 0. -1.
        4   -1    0    0  501    0  0.00000000000E+00  0.00000000000E+00 -0.29135268969E+03  0.29135545763E+03  0.12699999809E+01 0.  1.
    10030    2    1    2    0    0  0.00000000000E+00  0.00000000000E+00 -0.81281244404E+02  0.50143074181E+03  0.49479909877E+03 0.  0.
        2    1    3    3  502    0  0.18675368225E+03  0.12509518217E+03 -0.14537369311E+03  0.26769245991E+03  0.25500000920E-02 0.  1.
       -2    1    3    3    0  502 -0.18675368225E+03 -0.12509518217E+03  0.64092448710E+02  0.23373828190E+03  0.25500000920E-02 0. -1.
</event>
<event>
 5   0  0.1529146E-01  0.5050126E+03  0.7818609E-02  0.1012479E+00
        1   -1    0    0  501    0  0.00000000000E+00  0.00000000000E+00  0.10982136331E+04  0.10982136332E+04  0.50400001928E-02 0.  1.
       -1   -1    0    0    0  501  0.00000000000E+00  0.00000000000E+00 -0.58057403487E+02  0.58057403706E+02  0.50400001928E-02 0. -1.
    10030    2    1    2    0    0  0.00000000000E+00  0.00000000000E+00  0.10401562297E+04  0.11562710369E+04  0.50501260241E+03 0.  0.
        1    1    3    3  502    0  0.47804145404E+02 -0.13225696956E+03  0.39906648219E+02  0.14618372999E+03  0.50400001928E-02 0. -1.
       -1    1    3    3    0  502 -0.47804145404E+02  0.13225696956E+03  0.10002495814E+04  0.10100873069E+04  0.50400001928E-02 0.  1.
</event>
<event>
 5   0  0.1453602E-01  0.3461053E+03  0.7818609E-02  0.1064225E+00
        1   -1    0    0  501    0  0.00000000000E+00  0.00000000000E+00  0.42081630438E+03  0.42081630441E+03  0.50400001928E-02 0. -1.
       -1   -1    0    0    0  501  0.00000000000E+00  0.00000000000E+00 -0.71164576503E+02  0.71164576682E+02  0.50400001928E-02 0.  1.
    10030    2    1    2    0    0  0.00000000000E+00  0.00000000000E+00  0.34965172788E+03  0.49198088109E+03  0.34610526802E+03 0.  0.
        2    1    3    3  502    0 -0.14274074055E+01 -0.96084223432E+02 -0.29753349573E+02  0.10059561274E+03  0.25500000920E-02 0.  1.
       -2    1    3    3    0  502  0.14274074055E+01  0.96084223432E+02  0.37940507745E+03  0.39138526835E+03  0.25500000920E-02 0. -1.
</event>
<event>
 5   0  0.1439814E-01  0.5003976E+03  0.7818609E-02  0.1013675E+00
        1   -1    0    0  501    0  0.00000000000E+00  0.00000000000E+00  0.31356199631E+03  0.31356199635E+03  0.50400001928E-02 0. -1.
       -1   -1    0    0    0  501  0.00000000000E+00  0.00000000000E+00 -0.19963972280E+03  0.19963972287E+03  0.50400001928E-02 0.  1.
    10030    2    1    2    0    0  0.00000000000E+00  0.00000000000E+00  0.11392227351E+03  0.51320171922E+03  0.50039756215E+03 0.  0.
        4    1    3    3  502    0  0.18018403941E+03 -0.96543926960E+01 -0.12078933012E+03  0.21714320281E+03  0.12699999809E+01 0.  1.
       -4    1    3    3    0  502 -0.18018403941E+03  0.96543926960E+01  0.23471160363E+03  0.29605851640E+03  0.12699999809E+01 0. -1.
</event>
<event>
 5   0  0.2488968E-01  0.4195530E+03  0.7818609E-02  0.1037212E+00
        2   -1    0    0  501    0  0.00000000000E+00  0.00000000000E+00  0.84125382376E+03  0.84125382376E+03  0.25500000920E-02 0. -1.
       -2   -1    0    0    0  501  0.00000000000E+00  0.00000000000E+00 -0.52310237489E+02  0.52310237551E+02  0.25500000920E-02 0.  1.
    10030    2    1    2    0    0  0.00000000000E+00  0.00000000000E+00  0.78894358627E+03  0.89356406131E+03  0.41955303521E+03 0.  0.
        2    1    3    3  502    0 -0.12862679494E+03  0.12238897142E+03  0.63242178422E+03  0.65687230560E+03  0.25500000920E-02 0.  1.
       -2    1    3    3    0  502  0.12862679494E+03 -0.12238897142E+03  0.15652180205E+03  0.23669175572E+03  0.25500000920E-02 0. -1.
</event>
<event>
 5   0  0.2488968E-01  0.5013203E+03  0.7818609E-02  0.1013435E+00
       -2   -1    0    0    0  501  0.00000000000E+00  0.00000000000E+00  0.50099574125E+02  0.50099574190E+02  0.25500000920E-02 0.  1.
        2   -1    0    0  501    0  0.00000000000E+00  0.00000000000E+00 -0.12541126725E+04  0.12541126725E+04  0.25500000920E-02 0. -1.
    10030    2    1    2    0    0  0.00000000000E+00  0.00000000000E+00 -0.12040130984E+04  0.13042122467E+04  0.50132030018E+03 0.  0.
        2    1    3    3  502    0  0.95007580666E+01 -0.23843768568E+02  0.46671837760E+02  0.53263966711E+02  0.25500000920E-02 0.  1.
       -2    1    3    3    0  502 -0.95007580666E+01  0.23843768568E+02 -0.12506849362E+04  0.12509482800E+04  0.25500000920E-02 0. -1.
</event>
<event>
 5   0  0.2413301E-01  0.5009392E+03  0.7818609E-02  0.1013534E+00
        2   -1    0    0  501    0  0.00000000000E+00  0.00000000000E+00  0.88583612629E+03  0.88583612629E+03  0.25500000920E-02 0.  1.
       -2   -1    0    0    0  501  0.00000000000E+00  0.00000000000E+00 -0.70820114551E+02  0.70820114597E+02  0.25500000920E-02 0. -1.
    10030    2    1    2    0    0  0.00000000000E+00  0.00000000000E+00  0.81501601173E+03  0.95665624089E+03  0.50093918178E+03 0.  0.
        4    1    3    3  502    0 -0.15690442934E+03 -0.16324998010E+02  0.35979803098E+02  0.16180749252E+03  0.12699999809E+01 0. -1.
       -4    1    3    3    0  502  0.15690442934E+03  0.16324998010E+02  0.77903620864E+03  0.79484874836E+03  0.12699999809E+01 0.  1.
</event>
<event>
 5   0  0.9868500E-02  0.4995842E+03  0.7818609E-02  0.1013888E+00
        3   -1    0    0  501    0  0.00000000000E+00  0.00000000000E+00  0.10987727944E+03  0.10987732586E+03  0.10100000352E+00 0. -1.
       -3   -1    0    0    0  501  0.00000000000E+00  0.00000000000E+00 -0.56787050128E+03  0.56787051026E+03  0.10100000352E+00 0.  1.
    10030    2    1    2    0    0  0.00000000000E+00  0.00000000000E+00 -0.45799322184E+03  0.67774783612E+03  0.49958416520E+03 0.  0.
        1    1    3    3  502    0 -0.61107557225E+02  0.13920463093E+03  0.39888928204E+02  0.15717248309E+03  0.50400001928E-02 0. -1.
       -1    1    3    3    0  502  0.61107557225E+02 -0.13920463093E+03 -0.49788215004E+03  0.52057535303E+03  0.50400001928E-02 0.  1.
</event>
<event>
 5   0  0.2504064E-01  0.5098251E+03  0.7818609E-02  0.1011246E+00
        2   -1    0    0  501    0  0.00000000000E+00  0.00000000000E+00  0.34846021486E+03  0.34846021487E+03  0.25500000920E-02 0.  1.
       -2   -1    0    0    0  501  0.00000000000E+00  0.00000000000E+00 -0.18647872229E+03  0.18647872231E+03  0.25500000920E-02 0. -1.
    10030    2    1    2    0    0  0.00000000000E+00  0.00000000000E+00  0.16198149257E+03  0.53493893717E+03  0.50982512940E+03 0.  0.
        5    1    3    3  502    0  0.19717604075E+03 -0.92801973256E+02  0.21966670825E+03  0.30946106378E+03  0.46999998093E+01 0.  1.
       -5    1    3    3    0  502 -0.19717604075E+03  0.92801973256E+02 -0.57685215674E+02  0.22547787340E+03  0.46999998093E+01 0. -1.
</event>
<event>
 5   0  0.2488968E-01  0.4886142E+03  0.7818609E-02  0.1016794E+00
        2   -1    0    0  501    0  0.00000000000E+00  0.00000000000E+00  0.13809101975E+03  0.13809101977E+03  0.25500000920E-02 0. -1.
       -2   -1    0    0    0  501  0.00000000000E+00  0.00000000000E+00 -0.43222183694E+03  0.43222183695E+03  0.25500000920E-02 0.  1.
    10030    2    1    2    0    0  0.00000000000E+00  0.00000000000E+00 -0.29413081720E+03  0.57031285672E+03  0.48861418002E+03 0.  0.
        2    1    3    3  502    0 -0.16579268730E+03  0.33151951029E+02 -0.35290319660E+03  0.39131436620E+03  0.25500000920E-02 0.  1.
       -2    1    3    3    0  502  0.16579268730E+03 -0.33151951029E+02  0.58772379402E+02  0.17899849052E+03  0.25500000920E-02 0. -1.
</event>
<event>
 5   0  0.2511944E-01  0.5013725E+03  0.7818609E-02  0.1013421E+00
       -2   -1    0    0    0  501  0.00000000000E+00  0.00000000000E+00  0.32556661245E+02  0.32556661345E+02  0.25500000920E-02 0. -1.
        2   -1    0    0  501    0  0.00000000000E+00  0.00000000000E+00 -0.19302839876E+04  0.19302839876E+04  0.25500000920E-02 0.  1.
    10030    2    1    2    0    0  0.00000000000E+00  0.00000000000E+00 -0.18977273264E+04  0.19628406489E+04  0.50137252414E+03 0.  0.
        1    1    3    3  502    0 -0.57389498391E+02  0.13123139684E+03 -0.14341053105E+03  0.20268649310E+03  0.50400001928E-02 0. -1.
       -1    1    3    3    0  502  0.57389498391E+02 -0.13123139684E+03 -0.17543167953E+04  0.17601541558E+04  0.50400001928E-02 0.  1.
</event>
<event>
 5   0  0.2413301E-01  0.4944603E+03  0.7818609E-02  0.1015235E+00
       -2   -1    0    0    0  501  0.00000000000E+00  0.00000000000E+00  0.26953905807E+03  0.26953905808E+03  0.25500000920E-02 0. -1.
        2   -1    0    0  501    0  0.00000000000E+00  0.00000000000E+00 -0.22676771731E+03  0.22676771732E+03  0.25500000920E-02 0.  1.
    10030    2    1    2    0    0  0.00000000000E+00  0.00000000000E+00  0.42771340759E+02  0.49630677540E+03  0.49446033989E+03 0.  0.
        4    1    3    3  502    0  0.23921990148E+02 -0.18152153577E+03 -0.14536360468E+03  0.23378306189E+03  0.12699999809E+01 0.  1.
       -4    1    3    3    0  502 -0.23921990148E+02  0.18152153577E+03  0.18813494544E+03  0.26252371351E+03  0.12699999809E+01 0. -1.
</event>
<event>
 5   0  0.2413301E-01  0.5085203E+03  0.7818609E-02  0.1011579E+00
        2   -1    0    0  501    0  0.00000000000E+00  0.00000000000E+00  0.36658661199E+03  0.36658661200E+03  0.25500000920E-02 0.  1.
       -2   -1    0    0    0  501  0.00000000000E+00  0.00000000000E+00 -0.17635184304E+03  0.17635184306E+03  0.25500000920E-02 0. -1.
    10030    2    1    2    0    0  0.00000000000E+00  0.00000000000E+00  0.19023476895E+03  0.54293845505E+03  0.50852030309E+03 0.  0.
        4    1    3    3  502    0  0.92151224092E+01  0.48495646248E+02  0.36141785703E+03  0.36477558370E+03  0.12699999809E+01 0.  1.
       -4    1    3    3    0  502 -0.92151224092E+01 -0.48495646248E+02 -0.17118308807E+03  0.17816287135E+03  0.12699999809E+01 0. -1.
</event>
<event>
 5   0  0.2504064E-01  0.4970007E+03  0.7818609E-02  0.1014565E+00
       -2   -1    0    0    0  501  0.00000000000E+00  0.00000000000E+00  0.21101207753E+03  0.21101207755E+03  0.25500000920E-02 0.  1.
        2   -1    0    0  501    0  0.00000000000E+00  0.00000000000E+00 -0.29264877100E+03  0.29264877101E+03  0.25500000920E-02 0. -1.
    10030    2    1    2    0    0  0.00000000000E+00  0.00000000000E+00 -0.81636693470E+02  0.50366084856E+03  0.49700070488E+03 0.  0.
        5    1    3    3  502    0 -0.11489033954E+03 -0.10763762651E+03 -0.23560409607E+03  0.28340259145E+03  0.46999998093E+01 0. -1.
       -5    1    3    3    0  502  0.11489033954E+03  0.10763762651E+03  0.15396740260E+03  0.22025825710E+03  0.46999998093E+01 0.  1.
</event>
<event>
 5   0  0.1453602E-01  0.5058737E+03  0.7818609E-02  0.1012257E+00
       -1   -1    0    0    0  501  0.00000000000E+00  0.00000000000E+00  0.22334348465E+03  0.22334348471E+03  0.50400001928E-02 0.  1.
        1   -1    0    0  501    0  0.00000000000E+00  0.00000000000E+00 -0.28645137426E+03  0.28645137430E+03  0.50400001928E-02 0. -1.
    10030    2    1    2    0    0  0.00000000000E+00  0.00000000000E+00 -0.63107889604E+02  0.50979485901E+03  0.50587369228E+03 0.  0.
        2    1    3    3  502    0 -0.19131236531E+03  0.16453834022E+03 -0.13990091709E+02  0.25272318690E+03  0.25500000920E-02 0.  1.
       -2    1    3    3    0  502  0.19131236531E+03 -0.16453834022E+03 -0.49117797895E+02  0.25707167211E+03  0.25500000920E-02 0. -1.
</event>
<event>
 5   0  0.2504064E-01  0.5156569E+03  0.7818609E-02  0.1009771E+00
       -2   -1    0    0    0  501  0.00000000000E+00  0.00000000000E+00  0.13740498693E+03  0.13740498695E+03  0.25500000920E-02 0. -1.
        2   -1    0    0  501    0  0.00000000000E+00  0.00000000000E+00 -0.48379263784E+03  0.48379263785E+03  0.25500000920E-02 0.  1.
    10030    2    1    2    0    0  0.00000000000E+00  0.00000000000E+00 -0.34638765091E+03  0.62119762480E+03  0.51565694445E+03 0.  0.
        5    1    3    3  502    0  0.71410228604E+02  0.52407975894E+02 -0.46483255430E+03  0.47322025551E+03  0.46999998093E+01 0.  1.
       -5    1    3    3    0  502 -0.71410228604E+02 -0.52407975894E+02  0.11844490339E+03  0.14797736929E+03  0.46999998093E+01 0. -1.
</event>
<event>
 5   0  0.2466034E-01  0.4984741E+03  0.7818609E-02  0.1014178E+00
        2   -1    0    0  501    0  0.00000000000E+00  0.00000000000E+00  0.15526950281E+04  0.15526950281E+04  0.25500000920E-02 0.  1.
       -2   -1    0    0    0  501  0.00000000000E+00  0.00000000000E+00 -0.40007280290E+02  0.40007280371E+02  0.25500000920E-02 0. -1.
    10030    2    1    2    0    0  0.00000000000E+00  0.00000000000E+00  0.15126877478E+04  0.15927023084E+04  0.49847409264E+03 0.  0.
        3    1    3    3  502    0  0.59512825389E+01  0.13041854521E+03  0.77986819252E+02  0.15207356403E+03  0.10100000352E+00 0. -1.
       -3    1    3    3    0  502 -0.59512825389E+01 -0.13041854521E+03  0.14347009285E+04  0.14406287444E+04  0.10100000352E+00 0.  1.
</event>
<event>
 5   0  0.9868500E-02  0.4972592E+03  0.7818609E-02  0.1014497E+00
       -4   -1    0    0    0  501  0.00000000000E+00  0.00000000000E+00  0.39135603300E+02  0.39156204433E+02  0.12699999809E+01 0. -1.
        4   -1    0    0  501    0  0.00000000000E+00  0.00000000000E+00 -0.15791145360E+04  0.15791150467E+04  0.12699999809E+01 0.  1.
    10030    2    1    2    0    0  0.00000000000E+00  0.00000000000E+00 -0.15399789327E+04  0.16182712512E+04  0.49725921719E+03 0.  0.
        4    1    3    3  502    0 -0.65254656298E+01  0.23859193170E+03 -0.99654627063E+03  0.10247315619E+04  0.12699999809E+01 0. -1.
       -4    1    3    3    0  502  0.65254656298E+01 -0.23859193170E+03 -0.54343266211E+03  0.59353968926E+03  0.12699999809E+01 0.  1.
</event>
<event>
 5   0  0.1439814E-01  0.4966378E+03  0.7818609E-02  0.1014660E+00
       -1   -1    0    0    0  501  0.00000000000E+00  0.00000000000E+00  0.32724481157E+03  0.32724481161E+03  0.50400001928E-02 0. -1.
        1   -1    0    0  501    0  0.00000000000E+00  0.00000000000E+00 -0.18842859643E+03  0.18842859650E+03  0.50400001928E-02 0.  1.
    10030    2    1    2    0    0  0.00000000000E+00  0.00000000000E+00  0.13881621514E+03  0.51567340811E+03  0.49663781798E+03 0.  0.
        4    1    3    3  502    0 -0.65234412548E+02 -0.23169545832E+03  0.13275769149E+03  0.27489003535E+03  0.12699999809E+01 0. -1.
       -4    1    3    3    0  502  0.65234412548E+02  0.23169545832E+03  0.60585236492E+01  0.24078337276E+03  0.12699999809E+01 0.  1.
</event>
<event>
 5   0  0.1448458E-01  0.5905537E+03  0.7818609E-02  0.9925200E-01
        1   -1    0    0  501    0  0.00000000000E+00  0.00000000000E+00  0.40282732917E+03  0.40282732920E+03  0.50400001928E-02 0. -1.
       -1   -1    0    0    0  501  0.00000000000E+00  0.00000000000E+00 -0.21644115192E+03  0.21644115197E+03  0.50400001928E-02 0.  1.
    10030    2    1    2    0    0  0.00000000000E+00  0.00000000000E+00  0.18638617725E+03  0.61926848118E+03  0.59055367640E+03 0.  0.
        5    1    3    3  502    0  0.61440241824E+02 -0.98165836881E+00 -0.20962217934E+03  0.21849351257E+03  0.46999998093E+01 0.  1.
       -5    1    3    3    0  502 -0.61440241824E+02  0.98165836881E+00  0.39600835659E+03  0.40077496860E+03  0.46999998093E+01 0. -1.
</event>
<event>
 5   0  0.1413361E-01  0.4843752E+03  0.7818609E-02  0.1017940E+00
        1   -1    0    0  501    0  0.00000000000E+00  0.00000000000E+00  0.73190340506E+03  0.73190340508E+03  0.50400001928E-02 0. -1.
       -1   -1    0    0    0  501  0.00000000000E+00  0.00000000000E+00 -0.80140142842E+02  0.80140143001E+02  0.50400001928E-02 0.  1.
    10030    2    1    2    0    0  0.00000000000E+00  0.00000000000E+00  0.65176326222E+03  0.81204354808E+03  0.48437524090E+03 0.  0.
        3    1    3    3  502    0  0.17718903700E+03  0.32897785247E+01  0.49145959154E+02  0.18390789264E+03  0.10100000352E+00 0.  1.
       -3    1    3    3    0  502 -0.17718903700E+03 -0.32897785247E+01  0.60261730307E+03  0.62813565544E+03  0.10100000352E+00 0. -1.
</event>
<event>
 5   0  0.9868500E-02  0.4984597E+03  0.7818609E-02  0.1014182E+00
       -3   -1    0    0    0  501  0.00000000000E+00  0.00000000000E+00  0.14623415649E+03  0.14623419137E+03  0.10100000352E+00 0.  1.
        3   -1    0    0  501    0  0.00000000000E+00  0.00000000000E+00 -0.42476736168E+03  0.42476737369E+03  0.10100000352E+00 0. -1.
    10030    2    1    2    0    0  0.00000000000E+00  0.00000000000E+00 -0.27853320519E+03  0.57100156506E+03  0.49845966828E+03 0.  0.
        3    1    3    3  502    0  0.16660390739E+03  0.34720141631E+02  0.69311961180E+02  0.18375665527E+03  0.10100000352E+00 0.  1.
       -3    1    3    3    0  502 -0.16660390739E+03 -0.34720141631E+02 -0.34784516637E+03  0.38724490979E+03  0.10100000352E+00 0. -1.
</event>
<event>
 5   0  0.9868500E-02  0.4936584E+03  0.7818609E-02  0.1015448E+00
        3   -1    0    0  501    0  0.00000000000E+00  0.00000000000E+00  0.51639134767E+03  0.51639135755E+03  0.10100000352E+00 0. -1.
       -3   -1    0    0    0  501  0.00000000000E+00  0.00000000000E+00 -0.11798154100E+03  0.11798158423E+03  0.10100000352E+00 0.  1.
    10030    2    1    2    0    0  0.00000000000E+00  0.00000000000E+00  0.39840980667E+03  0.63437294178E+03  0.49365843983E+03 0.  0.
        2    1    3    3  502    0 -0.21054484054E+03 -0.98990726711E+02  0.30514407904E+03  0.38372021426E+03  0.25500000920E-02 0. -1.
       -2    1    3    3    0  502  0.21054484054E+03  0.98990726711E+02  0.93265727629E+02  0.25065272752E+03  0.25500000920E-02 0.  1.
</event>
<event>
 5   0  0.2511944E-01  0.5077412E+03  0.7818609E-02  0.1011778E+00
        2   -1    0    0  501    0  0.00000000000E+00  0.00000000000E+00  0.32576044202E+03  0.32576044203E+03  0.25500000920E-02 0. -1.
       -2   -1    0    0    0  501  0.00000000000E+00  0.00000000000E+00 -0.19784564070E+03  0.19784564072E+03  0.25500000920E-02 0.  1.
    10030    2    1    2    0    0  0.00000000000E+00  0.00000000000E+00  0.12791480131E+03  0.52360608275E+03  0.50774120720E+03 0.  0.
        1    1    3    3  502    0 -0.17886145966E+03 -0.13605870868E+03 -0.57829604276E+02  0.23205097956E+03  0.50400001928E-02 0.  1.
       -1    1    3    3    0  502  0.17886145966E+03  0.13605870868E+03  0.18574440559E+03  0.29155510318E+03  0.50400001928E-02 0. -1.
</event>
<event>
 5   0  0.2511944E-01  0.4907052E+03  0.7818609E-02  0.1016234E+00
       -2   -1    0    0    0  501  0.00000000000E+00  0.00000000000E+00  0.43862188941E+03  0.43862188942E+03  0.25500000920E-02 0.  1.
        2   -1    0    0  501    0  0.00000000000E+00  0.00000000000E+00 -0.13724325947E+03  0.13724325949E+03  0.25500000920E-02 0. -1.
    10030    2    1    2    0    0  0.00000000000E+00  0.00000000000E+00  0.30137862994E+03  0.57586514891E+03  0.49070519779E+03 0.  0.
        1    1    3    3  502    0 -0.16031131572E+03  0.11329033798E+03  0.32341790993E+03  0.37832996592E+03  0.50400001928E-02 0.  1.
       -1    1    3    3    0  502  0.16031131572E+03 -0.11329033798E+03 -0.22039279986E+02  0.19753518298E+03  0.50400001928E-02 0. -1.
</event>
<event>
 5   0  0.1439814E-01  0.3875849E+03  0.7818609E-02  0.1048165E+00
       -1   -1    0    0    0  501  0.00000000000E+00  0.00000000000E+00  0.94017955667E+02  0.94017955802E+02  0.50400001928E-02 0.  1.
        1   -1    0    0  501    0  0.00000000000E+00  0.00000000000E+00 -0.39945034934E+03  0.39945034938E+03  0.50400001928E-02 0. -1.
    10030    2    1    2    0    0  0.00000000000E+00  0.00000000000E+00 -0.30543239368E+03  0.49346830518E+03  0.38758485665E+03 0.  0.
        4    1    3    3  502    0 -0.58257102960E+02  0.68352169730E+02  0.65916443078E+02  0.11141139762E+03  0.12699999809E+01 0.  1.
       -4    1    3    3    0  502  0.58257102960E+02 -0.68352169730E+02 -0.37134883675E+03  0.38205690756E+03  0.12699999809E+01 0. -1.
</event>
<event>
 5   0  0.2488968E-01  0.5053501E+03  0.7818609E-02  0.1012392E+00
       -2   -1    0    0    0  501  0.00000000000E+00  0.00000000000E+00  0.37822828420E+02  0.37822828506E+02  0.25500000920E-02 0. -1.
        2   -1    0    0  501    0  0.00000000000E+00  0.00000000000E+00 -0.16879936222E+04  0.16879936222E+04  0.25500000920E-02 0.  1.
    10030    2    1    2    0    0  0.00000000000E+00  0.00000000000E+00 -0.16501707938E+04  0.17258164507E+04  0.50535014879E+03 0.  0.
        2    1    3    3  502    0 -0.10663905963E+02  0.10591936567E+03 -0.16076708013E+04  0.16111914958E+04  0.25500000920E-02 0.  1.
       -2    1    3    3    0  502  0.10663905963E+02 -0.10591936567E+03 -0.42499992503E+02  0.11462495489E+03  0.25500000920E-02 0. -1.
</event>
<event>
 5   0  0.1448458E-01  0.5001434E+03  0.7818609E-02  0.1013741E+00
        1   -1    0    0  501    0  0.00000000000E+00  0.00000000000E+00  0.62959230341E+03  0.62959230343E+03  0.50400001928E-02 0.  1.
       -1   -1    0    0    0  501  0.00000000000E+00  0.00000000000E+00 -0.99327546224E+02  0.99327546352E+02  0.50400001928E-02 0. -1.
    10030    2    1    2    0    0  0.00000000000E+00  0.00000000000E+00  0.53026475719E+03  0.72891984978E+03  0.50014341413E+03 0.  0.
        5    1    3    3  502    0 -0.56302571534E+01  0.65112419318E+02  0.61685881306E+03  0.62032911603E+03  0.46999998093E+01 0.  1.
       -5    1    3    3    0  502  0.56302571534E+01 -0.65112419318E+02 -0.86594055877E+02  0.10859073375E+03  0.46999998093E+01 0. -1.
</event>
<event>
 5   0  0.2504064E-01  0.4979862E+03  0.7818609E-02  0.1014306E+00
       -2   -1    0    0    0  501  0.00000000000E+00  0.00000000000E+00  0.11022436258E+03  0.11022436261E+03  0.25500000920E-02 0.  1.
        2   -1    0    0  501    0  0.00000000000E+00  0.00000000000E+00 -0.56246706861E+03  0.56246706862E+03  0.25500000920E-02 0. -1.
    10030    2    1    2    0    0  0.00000000000E+00  0.00000000000E+00 -0.45224270603E+03  0.67269143123E+03  0.49798624126E+03 0.  0.
        5    1    3    3  502    0 -0.15257726375E+02 -0.23414444950E+03 -0.33848405758E+03  0.41188586851E+03  0.46999998093E+01 0.  1.
       -5    1    3    3    0  502  0.15257726375E+02  0.23414444950E+03 -0.11375864846E+03  0.26080556272E+03  0.46999998093E+01 0. -1.
</event>
<event>
 5   0  0.2504064E-01  0.4939233E+03  0.7818609E-02  0.1015377E+00
        2   -1    0    0  501    0  0.00000000000E+00  0.00000000000E+00  0.73527901212E+03  0.73527901212E+03  0.25500000920E-02 0. -1.
       -2   -1    0    0    0  501  0.00000000000E+00  0.00000000000E+00 -0.82948184164E+02  0.82948184203E+02  0.25500000920E-02 0.  1.
    10030    2    1    2    0    0  0.00000000000E+00  0.00000000000E+00  0.65233082795E+03  0.81822719632E+03  0.49392330954E+03 0.  0.
        5    1    3    3  502    0 -0.18057111530E+03  0.16210880301E+03  0.25056297620E+03  0.34883962897E+03  0.46999998093E+01 0.  1.
       -5    1    3    3    0  502  0.18057111530E+03 -0.16210880301E+03  0.40176785175E+03  0.46938756736E+03  0.46999998093E+01 0. -1.
</event>
<event>
 5   0  0.1529146E-01  0.4921889E+03  0.7818609E-02  0.1015838E+00
        1   -1    0    0  501    0  0.00000000000E+00  0.00000000000E+00  0.11216716182E+03  0.11216716194E+03  0.50400001928E-02 0.  1.
       -1   -1    0    0    0  501  0.00000000000E+00  0.00000000000E+00 -0.53993049490E+03  0.53993049492E+03  0.50400001928E-02 0. -1.
    10030    2    1    2    0    0  0.00000000000E+00  0.00000000000E+00 -0.42776333308E+03  0.65209765686E+03  0.49218887122E+03 0.  0.
        1    1    3    3  502    0 -0.15525462516E+03 -0.61804976952E+02 -0.45323899376E+03  0.48306256251E+03  0.50400001928E-02 0. -1.
       -1    1    3    3    0  502  0.15525462516E+03  0.61804976952E+02  0.25475660683E+02  0.16903509435E+03  0.50400001928E-02 0.  1.
</event>
<event>
 5   0  0.1439814E-01  0.5081455E+03  0.7818609E-02  0.1011674E+00
       -1   -1    0    0    0  501  0.00000000000E+00  0.00000000000E+00  0.53631713223E+03  0.53631713225E+03  0.50400001928E-02 0.  1.
        1   -1    0    0  501    0  0.00000000000E+00  0.00000000000E+00 -0.12036340855E+03  0.12036340866E+03  0.50400001928E-02 0. -1.
    10030    2    1    2    0    0  0.00000000000E+00  0.00000000000E+00  0.41595372367E+03  0.65668054091E+03  0.50814548366E+03 0.  0.
        4    1    3    3  502    0 -0.18365141521E+03  0.12701361374E+03  0.36461316321E+03  0.42755663025E+03  0.12699999809E+01 0.  1.
       -4    1    3    3    0  502  0.18365141521E+03 -0.12701361374E+03  0.51340560462E+02  0.22912391065E+03  0.12699999809E+01 0. -1.
</event>
<event>
 5   0  0.2466034E-01  0.3958820E+03  0.7818609E-02  0.1045215E+00
        2   -1    0    0  501    0  0.00000000000E+00  0.00000000000E+00  0.21997624439E+03  0.21997624440E+03  0.25500000920E-02 0.  1.
       -2   -1    0    0    0  501  0.00000000000E+00  0.00000000000E+00 -0.17811308748E+03  0.17811308750E+03  0.25500000920E-02 0. -1.
    10030    2    1    2    0    0  0.00000000000E+00  0.00000000000E+00  0.41863156909E+02  0.39808933190E+03  0.39588204337E+03 0.  0.
        3    1    3    3  502    0  0.89057970298E+02  0.34481560386E+02  0.19527744859E+03  0.21737891390E+03  0.10100000352E+00 0.  1.
       -3    1    3    3    0  502 -0.89057970298E+02 -0.34481560386E+02 -0.15341429168E+03  0.18071041800E+03  0.10100000352E+00 0. -1.
</event>
<event>
 5   0  0.2511944E-01  0.5090237E+03  0.7818609E-02  0.1011450E+00
       -2   -1    0    0    0  501  0.00000000000E+00  0.00000000000E+00  0.26990849476E+03  0.26990849477E+03  0.25500000920E-02 0. -1.
        2   -1    0    0  501    0  0.00000000000E+00  0.00000000000E+00 -0.23999351479E+03  0.23999351481E+03  0.25500000920E-02 0.  1.
    10030    2    1    2    0    0  0.00000000000E+00  0.00000000000E+00  0.29914979968E+02  0.50990200958E+03  0.50902372572E+03 0.  0.
        1    1    3    3  502    0 -0.95703348184E+02  0.16027478401E+03 -0.15834144645E+03  0.24478388618E+03  0.50400001928E-02 0.  1.
       -1    1    3    3    0  502  0.95703348184E+02 -0.16027478401E+03  0.18825642641E+03  0.26511812340E+03  0.50400001928E-02 0. -1.
</event>
<event>
 5   0  0.2504064E-01  0.5017281E+03  0.7818609E-02  0.1013329E+00
       -2   -1    0    0    0  501  0.00000000000E+00  0.00000000000E+00  0.46559520450E+03  0.46559520450E+03  0.25500000920E-02 0. -1.
        2   -1    0    0  501    0  0.00000000000E+00  0.00000000000E+00 -0.13516628608E+03  0.13516628610E+03  0.25500000920E-02 0.  1.
    10030    2    1    2    0    0  0.00000000000E+00  0.00000000000E+00  0.33042891842E+03  0.60076149060E+03  0.50172811210E+03 0.  0.
        5    1    3    3  502    0 -0.25331647772E+02  0.15840937226E+03  0.39608145090E+03  0.42736147152E+03  0.46999998093E+01 0. -1.
       -5    1    3    3    0  502  0.25331647772E+02 -0.15840937226E+03 -0.65652532483E+02  0.17340001908E+03  0.46999998093E+01 0.  1.
</event>
<event>
 5   0  0.9868500E-02  0.4988338E+03  0.7818609E-02  0.1014084E+00
       -4   -1    0    0    0  501  0.00000000000E+00  0.00000000000E+00  0.41620829410E+03  0.41621023171E+03  0.12699999809E+01 0.  1.
        4   -1    0    0  501    0  0.00000000000E+00  0.00000000000E+00 -0.14946055281E+03  0.14946594845E+03  0.12699999809E+01 0. -1.
    10030    2    1    2    0    0  0.00000000000E+00  0.00000000000E+00  0.26674774129E+03  0.56567618016E+03  0.49883382334E+03 0.  0.
        4    1    3    3  502    0  0.16998975132E+03  0.27952373523E+02 -0.71152622673E+02  0.18639248738E+03  0.12699999809E+01 0. -1.
       -4    1    3    3    0  502 -0.16998975132E+03 -0.27952373523E+02  0.33790036397E+03  0.37928369278E+03  0.12699999809E+01 0.  1.
</event>
<event>
 5   0  0.2466034E-01  0.5026539E+03  0.7818609E-02  0.1013089E+00
        2   -1    0    0  501    0  0.00000000000E+00  0.00000000000E+00  0.14699300797E+04  0.14699300797E+04  0.25500000920E-02 0. -1.
       -2   -1    0    0    0  501  0.00000000000E+00  0.00000000000E+00 -0.42971596951E+02  0.42971597027E+02  0.25500000920E-02 0.  1.
    10030    2    1    2    0    0  0.00000000000E+00  0.00000000000E+00  0.14269584828E+04  0.15129016768E+04  0.50265392863E+03 0.  0.
        3    1    3    3  502    0  0.14780124276E+03  0.15645789916E+03  0.32288581321E+03  0.38804579645E+03  0.10100000352E+00 0. -1.
       -3    1    3    3    0  502 -0.14780124276E+03 -0.15645789916E+03  0.11040726696E+04  0.11248558803E+04  0.10100000352E+00 0.  1.
</event>
<event>
 5   0  0.2413301E-01  0.5022775E+03  0.7818609E-02  0.1013186E+00
        2   -1    0    0  501    0  0.00000000000E+00  0.00000000000E+00  0.10729482386E+04  0.10729482386E+04  0.25500000920E-02 0. -1.
       -2   -1    0    0    0  501  0.00000000000E+00  0.00000000000E+00 -0.58782576374E+02  0.58782576429E+02  0.25500000920E-02 0.  1.
    10030    2    1    2    0    0  0.00000000000E+00  0.00000000000E+00  0.10141656622E+04  0.11317308150E+04  0.50227746043E+03 0.  0.
        4    1    3    3  502    0 -0.11834937086E+03 -0.10897866705E+03  0.94158296687E+03  0.95522930224E+03  0.12699999809E+01 0. -1.
       -4    1    3    3    0  502  0.11834937086E+03  0.10897866705E+03  0.72582695361E+02  0.17650151280E+03  0.12699999809E+01 0.  1.
</event>
<event>
 5   0  0.1448458E-01  0.4918780E+03  0.7818609E-02  0.1015921E+00
        1   -1    0    0  501    0  0.00000000000E+00  0.00000000000E+00  0.12131462244E+03  0.12131462255E+03  0.50400001928E-02 0. -1.
       -1   -1    0    0    0  501  0.00000000000E+00  0.00000000000E+00 -0.49858783127E+03  0.49858783129E+03  0.50400001928E-02 0.  1.
    10030    2    1    2    0    0  0.00000000000E+00  0.00000000000E+00 -0.37727320882E+03  0.61990245384E+03  0.49187801148E+03 0.  0.
        5    1    3    3  502    0 -0.21814484742E+02  0.45252638906E+01  0.11998343127E+03  0.12212478673E+03  0.46999998093E+01 0. -1.
       -5    1    3    3    0  502  0.21814484742E+02 -0.45252638906E+01 -0.49725664009E+03  0.49777766711E+03  0.46999998093E+01 0.  1.
</event>
<event>
 5   0  0.2466034E-01  0.5029492E+03  0.7818609E-02  0.1013012E+00
       -2   -1    0    0    0  501  0.00000000000E+00  0.00000000000E+00  0.54644635607E+02  0.54644635667E+02  0.25500000920E-02 0. -1.
        2   -1    0    0  501    0  0.00000000000E+00  0.00000000000E+00 -0.11572858907E+04  0.11572858907E+04  0.25500000920E-02 0.  1.
    10030    2    1    2    0    0  0.00000000000E+00  0.00000000000E+00 -0.11026412551E+04  0.12119305264E+04  0.50294916574E+03 0.  0.
        3    1    3    3  502    0  0.19889827742E+03  0.12763804087E+03 -0.34421054362E+03  0.41753191827E+03  0.10100000352E+00 0. -1.
       -3    1    3    3    0  502 -0.19889827742E+03 -0.12763804087E+03 -0.75843071150E+03  0.79439860812E+03  0.10100000352E+00 0.  1.
</event>
<event>
 5   0  0.2413301E-01  0.4997842E+03  0.7818609E-02  0.1013835E+00
       -2   -1    0    0    0  501  0.00000000000E+00  0.00000000000E+00  0.59217854912E+02  0.59217854967E+02  0.25500000920E-02 0.  1.
        2   -1    0    0  501    0  0.00000000000E+00  0.00000000000E+00 -0.10545141687E+04  0.10545141687E+04  0.25500000920E-02 0. -1.
    10030    2    1    2    0    0  0.00000000000E+00  0.00000000000E+00 -0.99529631380E+03  0.11137320237E+04  0.49978422175E+03 0.  0.
        4    1    3    3  502    0  0.47253375537E+02 -0.14582508835E+03 -0.57870630751E+02  0.16385499899E+03  0.12699999809E+01 0.  1.
       -4    1    3    3    0  502 -0.47253375537E+02  0.14582508835E+03 -0.93742568305E+03  0.94987702469E+03  0.12699999809E+01 0. -1.
</event>
<event>
 5   0  0.2511944E-01  0.4993977E+03  0.7818609E-02  0.1013936E+00
       -2   -1    0    0    0  501  0.00000000000E+00  0.00000000000E+00  0.10039628729E+03  0.10039628732E+03  0.25500000920E-02 0. -1.
        2   -1    0    0  501    0  0.00000000000E+00  0.00000000000E+00 -0.62103418075E+03  0.62103418076E+03  0.25500000920E-02 0.  1.
    10030    2    1    2    0    0  0.00000000000E+00  0.00000000000E+00 -0.52063789347E+03  0.72143046808E+03  0.49939774144E+03 0.  0.
        1    1    3    3  502    0  0.21670761003E+01 -0.77418636593E+02 -0.60324417047E+03  0.60819558592E+03  0.50400001928E-02 0.  1.
       -1    1    3    3    0  502 -0.21670761003E+01  0.77418636593E+02  0.82606277001E+02  0.11323488215E+03  0.50400001928E-02 0. -1.
</event>
<event>
 5   0  0.1439814E-01  0.5239911E+03  0.7818609E-02  0.1007700E+00
       -1   -1    0    0    0  501  0.00000000000E+00  0.00000000000E+00  0.80717099464E+02  0.80717099621E+02  0.50400001928E-02 0.  1.
        1   -1    0    0  501    0  0.00000000000E+00  0.00000000000E+00 -0.85039796561E+03  0.85039796562E+03  0.50400001928E-02 0. -1.
    10030    2    1    2    0    0  0.00000000000E+00  0.00000000000E+00 -0.76968086614E+03  0.93111506524E+03  0.52399105814E+03 0.  0.
        4    1    3    3  502    0  0.29652065066E+02 -0.21374352200E+03 -0.12082763720E+03  0.24731855767E+03  0.12699999809E+01 0.  1.
       -4    1    3    3    0  502 -0.29652065066E+02  0.21374352200E+03 -0.64885322894E+03  0.68379650757E+03  0.12699999809E+01 0. -1.
</event>
<event>
 5   0  0.2466034E-01  0.4946493E+03  0.7818609E-02  0.1015185E+00
        2   -1    0    0  501    0  0.00000000000E+00  0.00000000000E+00  0.10580019337E+04  0.10580019337E+04  0.25500000920E-02 0.  1.
       -2   -1    0    0    0  501  0.00000000000E+00  0.00000000000E+00 -0.57816044807E+02  0.57816044863E+02  0.25500000920E-02 0. -1.
    10030    2    1    2    0    0  0.00000000000E+00  0.00000000000E+00  0.10001858888E+04  0.11158179785E+04  0.49464931915E+03 0.  0.
        3    1    3    3  502    0 -0.98848566964E+02 -0.54208168384E+02  0.35152004997E+01  0.11279154022E+03  0.10100000352E+00 0. -1.
       -3    1    3    3    0  502  0.98848566964E+02  0.54208168384E+02  0.99667068834E+03  0.10030264383E+04  0.10100000352E+00 0.  1.
</event>
<event>
 5   0  0.2504064E-01  0.4988532E+03  0.7818609E-02  0.1014079E+00
       -2   -1    0    0    0  501  0.00000000000E+00  0.00000000000E+00  0.81273480889E+02  0.81273480929E+02  0.25500000920E-02 0. -1.
        2   -1    0    0  501    0  0.00000000000E+00  0.00000000000E+00 -0.76548493224E+03  0.76548493225E+03  0.25500000920E-02 0.  1.
    10030    2    1    2    0    0  0.00000000000E+00  0.00000000000E+00 -0.68421145136E+03  0.84675841318E+03  0.49885318494E+03 0.  0.
        5    1    3    3  502    0 -0.64212063386E+02 -0.24094198809E+03 -0.33546533183E+03  0.41801352797E+03  0.46999998093E+01 0.  1.
       -5    1    3    3    0  502  0.64212063386E+02  0.24094198809E+03 -0.34874611952E+03  0.42874488521E+03  0.46999998093E+01 0. -1.
</event>
<event>
 5   0  0.1529146E-01  0.5032368E+03  0.7818609E-02  0.1012938E+00
       -1   -1    0    0    0  501  0.00000000000E+00  0.00000000000E+00  0.31384331323E+03  0.31384331327E+03  0.50400001928E-02 0.  1.
        1   -1    0    0  501    0  0.00000000000E+00  0.00000000000E+00 -0.20173063181E+03  0.20173063187E+03  0.50400001928E-02 0. -1.
    10030    2    1    2    0    0  0.00000000000E+00  0.00000000000E+00  0.11211268142E+03  0.51557394514E+03  0.50323676294E+03 0.  0.
        1    1    3    3  502    0 -0.30041284801E+02 -0.45377626800E+02 -0.19562902610E+03  0.20305743937E+03  0.50400001928E-02 0. -1.
       -1    1    3    3    0  502  0.30041284801E+02  0.45377626800E+02  0.30774170752E+03  0.31251650577E+03  0.50400001928E-02 0.  1.
</event>
<event>
 5   0  0.1448458E-01  0.4952576E+03  0.7818609E-02  0.1015024E+00
        1   -1    0    0  501    0  0.00000000000E+00  0.00000000000E+00  0.19148092717E+04  0.19148092718E+04  0.50400001928E-02 0.  1.
       -1   -1    0    0    0  501  0.00000000000E+00  0.00000000000E+00 -0.32024088484E+02  0.32024088881E+02  0.50400001928E-02 0. -1.
    10030    2    1    2    0    0  0.00000000000E+00  0.00000000000E+00  0.18827851833E+04  0.19468333606E+04  0.49525759738E+03 0.  0.
        5    1    3    3  502    0  0.88469146188E+01  0.34086123438E+00 -0.31226280392E+02  0.32795650169E+02  0.46999998093E+01 0. -1.
       -5    1    3    3    0  502 -0.88469146188E+01 -0.34086123438E+00  0.19140114637E+04  0.19140377105E+04  0.46999998093E+01 0.  1.
</event>
<event>
 5   0  0.1439814E-01  0.4958926E+03  0.7818609E-02  0.1014857E+00
        1   -1    0    0  501    0  0.00000000000E+00  0.00000000000E+00  0.15105326394E+04  0.15105326394E+04  0.50400001928E-02 0.  1.
       -1   -1    0    0    0  501  0.00000000000E+00  0.00000000000E+00 -0.40699139238E+02  0.40699139550E+02  0.50400001928E-02 0. -1.
    10030    2    1    2    0    0  0.00000000000E+00  0.00000000000E+00  0.14698335002E+04  0.15512317790E+04  0.49589264348E+03 0.  0.
        4    1    3    3  502    0 -0.15461593393E+02 -0.24272392386E+03  0.58418610094E+03  0.63279457766E+03  0.12699999809E+01 0. -1.
       -4    1    3    3    0  502  0.15461593393E+02  0.24272392386E+03  0.88564739923E+03  0.91843720131E+03  0.12699999809E+01 0.  1.
</event>
<event>
 5   0  0.2413301E-01  0.4974947E+03  0.7818609E-02  0.1014435E+00
       -2   -1    0    0    0  501  0.00000000000E+00  0.00000000000E+00  0.10516044168E+03  0.10516044171E+03  0.25500000920E-02 0.  1.
        2   -1    0    0  501    0  0.00000000000E+00  0.00000000000E+00 -0.58838904302E+03  0.58838904302E+03  0.25500000920E-02 0. -1.
    10030    2    1    2    0    0  0.00000000000E+00  0.00000000000E+00 -0.48322860134E+03  0.69354948473E+03  0.49749473024E+03 0.  0.
        4    1    3    3  502    0 -0.87181303692E+02  0.19751654142E+03 -0.41382897205E+03  0.46676481750E+03  0.12699999809E+01 0. -1.
       -4    1    3    3    0  502  0.87181303692E+02 -0.19751654142E+03 -0.69399629291E+02  0.22678466723E+03  0.12699999809E+01 0.  1.
</event>
<event>
 5   0  0.1413361E-01  0.4997659E+03  0.7818609E-02  0.1013840E+00
       -1   -1    0    0    0  501  0.00000000000E+00  0.00000000000E+00  0.49353090224E+03  0.49353090227E+03  0.50400001928E-02 0.  1.
        1   -1    0    0  501    0  0.00000000000E+00  0.00000000000E+00 -0.12651992716E+03  0.12651992726E+03  0.50400001928E-02 0. -1.
    10030    2    1    2    0    0  0.00000000000E+00  0.00000000000E+00  0.36701097508E+03  0.62005082953E+03  0.49976592058E+03 0.  0.
        3    1    3    3  502    0 -0.12516624502E+03 -0.35093966105E+02 -0.81267052848E+02  0.15330531442E+03  0.10100000352E+00 0. -1.
       -3    1    3    3    0  502  0.12516624502E+03  0.35093966105E+02  0.44827802793E+03  0.46674551511E+03  0.10100000352E+00 0.  1.
</event>
<event>
 5   0  0.2504064E-01  0.5042079E+03  0.7818609E-02  0.1012686E+00
        2   -1    0    0  501    0  0.00000000000E+00  0.00000000000E+00  0.19028064222E+04  0.19028064222E+04  0.25500000920E-02 0.  1.
       -2   -1    0    0    0  501  0.00000000000E+00  0.00000000000E+00 -0.33401399642E+02  0.33401399739E+02  0.25500000920E-02 0. -1.
    10030    2    1    2    0    0  0.00000000000E+00  0.00000000000E+00  0.18694050225E+04  0.19362078219E+04  0.50420788508E+03 0.  0.
        5    1    3    3  502    0 -0.33402724838E+02  0.22398900455E+03  0.50972503479E+03  0.55778895407E+03  0.46999998093E+01 0. -1.
       -5    1    3    3    0  502  0.33402724838E+02 -0.22398900455E+03  0.13596799877E+04  0.13784188679E+04  0.46999998093E+01 0.  1.
</event>
<event>
 5   0  0.2488968E-01  0.4951486E+03  0.7818609E-02  0.1015053E+00
       -2   -1    0    0    0  501  0.00000000000E+00  0.00000000000E+00  0.67962321450E+02  0.67962321498E+02  0.25500000920E-02 0. -1.
        2   -1    0    0  501    0  0.00000000000E+00  0.00000000000E+00 -0.90186769649E+03  0.90186769650E+03  0.25500000920E-02 0.  1.
    10030    2    1    2    0    0  0.00000000000E+00  0.00000000000E+00 -0.83390537504E+03  0.96983001799E+03  0.49514855274E+03 0.  0.
        2    1    3    3  502    0  0.34298006864E+02  0.21786459480E+03 -0.19664262483E+03  0.29548207534E+03  0.25500000920E-02 0. -1.
       -2    1    3    3    0  502 -0.34298006864E+02 -0.21786459480E+03 -0.63726275022E+03  0.67434794265E+03  0.25500000920E-02 0.  1.
</event>
<event>
 5   0  0.2504064E-01  0.4960479E+03  0.7818609E-02  0.1014816E+00
       -2   -1    0    0    0  501  0.00000000000E+00  0.00000000000E+00  0.50492835258E+02  0.50492835323E+02  0.25500000920E-02 0.  1.
        2   -1    0    0  501    0  0.00000000000E+00  0.00000000000E+00 -0.12183092625E+04  0.12183092626E+04  0.25500000920E-02 0. -1.
    10030    2    1    2    0    0  0.00000000000E+00  0.00000000000E+00 -0.11678164273E+04  0.12688020979E+04  0.49604793692E+03 0.  0.
        5    1    3    3  502    0  0.45396961856E+02  0.38470497667E+02  0.31846805155E+02  0.67654802736E+02  0.46999998093E+01 0.  1.
       -5    1    3    3    0  502 -0.45396961856E+02 -0.38470497667E+02 -0.11996632324E+04  0.12011472951E+04  0.46999998093E+01 0. -1.
</event>
<event>
 5   0  0.1413361E-01  0.5016056E+03  0.7818609E-02  0.1013361E+00
        1   -1    0    0  501    0  0.00000000000E+00  0.00000000000E+00  0.66089089057E+03  0.66089089059E+03  0.50400001928E-02 0. -1.
       -1   -1    0    0    0  501  0.00000000000E+00  0.00000000000E+00 -0.95177648487E+02  0.95177648620E+02  0.50400001928E-02 0.  1.
    10030    2    1    2    0    0  0.00000000000E+00  0.00000000000E+00  0.56571324208E+03  0.75606853921E+03  0.50160558581E+03 0.  0.
        3    1    3    3  502    0 -0.43749095761E+02  0.21552336291E+03  0.46459517295E+03  0.51401652529E+03  0.10100000352E+00 0. -1.
       -3    1    3    3    0  502  0.43749095761E+02 -0.21552336291E+03  0.10111806913E+03  0.24205201392E+03  0.10100000352E+00 0.  1.
</event>
<event>
 5   0  0.1453602E-01  0.5006103E+03  0.7818609E-02  0.1013620E+00
       -1   -1    0    0    0  501  0.00000000000E+00  0.00000000000E+00  0.11891583731E+03  0.11891583742E+03  0.50400001928E-02 0. -1.
        1   -1    0    0  501    0  0.00000000000E+00  0.00000000000E+00 -0.52686554737E+03  0.52686554739E+03  0.50400001928E-02 0.  1.
    10030    2    1    2    0    0  0.00000000000E+00  0.00000000000E+00 -0.40794971006E+03  0.64578138481E+03  0.50061025861E+03 0.  0.
        2    1    3    3  502    0  0.12196254425E+02 -0.72637906402E+02 -0.51256972998E+03  0.51783466682E+03  0.25500000920E-02 0.  1.
       -2    1    3    3    0  502 -0.12196254425E+02  0.72637906402E+02  0.10462001992E+03  0.12794671798E+03  0.25500000920E-02 0. -1.
</event>
<event>
 5   0  0.2466034E-01  0.4649240E+03  0.7818609E-02  0.1023363E+00
       -2   -1    0    0    0  501  0.00000000000E+00  0.00000000000E+00  0.13291535033E+03  0.13291535036E+03  0.25500000920E-02 0.  1.
        2   -1    0    0  501    0  0.00000000000E+00  0.00000000000E+00 -0.40656390473E+03  0.40656390474E+03  0.25500000920E-02 0. -1.
    10030    2    1    2    0    0  0.00000000000E+00  0.00000000000E+00 -0.27364855440E+03  0.53947925510E+03  0.46492401030E+03 0.  0.
        3    1    3    3  502    0  0.13973163465E+03 -0.18334994600E+03 -0.17156618652E+03  0.28736231308E+03  0.10100000352E+00 0. -1.
       -3    1    3    3    0  502 -0.13973163465E+03  0.18334994600E+03 -0.10208236787E+03  0.25211694202E+03  0.10100000352E+00 0.  1.
</event>
<event>
 5   0  0.1453602E-01  0.4992870E+03  0.7818609E-02  0.1013965E+00
        1   -1    0    0  501    0  0.00000000000E+00  0.00000000000E+00  0.74189072164E+02  0.74189072336E+02  0.50400001928E-02 0.  1.
       -1   -1    0    0    0  501  0.00000000000E+00  0.00000000000E+00 -0.84004135210E+03  0.84004135211E+03  0.50400001928E-02 0. -1.
    10030    2    1    2    0    0  0.00000000000E+00  0.00000000000E+00 -0.76585227993E+03  0.91423042445E+03  0.49928704600E+03 0.  0.
        2    1    3    3  502    0 -0.53097345427E+01 -0.24862252798E+03 -0.42306521627E+03  0.49073978025E+03  0.25500000920E-02 0.  1.
       -2    1    3    3    0  502  0.53097345427E+01  0.24862252798E+03 -0.34278706366E+03  0.42349064419E+03  0.25500000920E-02 0. -1.
</event>
<event>
 5   0  0.2413301E-01  0.5015008E+03  0.7818609E-02  0.1013388E+00
       -2   -1    0    0    0  501  0.00000000000E+00  0.00000000000E+00  0.13066989144E+04  0.13066989144E+04  0.25500000920E-02 0. -1.
        2   -1    0    0  501    0  0.00000000000E+00  0.00000000000E+00 -0.48118026621E+02  0.48118026689E+02  0.25500000920E-02 0.  1.
    10030    2    1    2    0    0  0.00000000000E+00  0.00000000000E+00  0.12585808878E+04  0.13548169411E+04  0.50150084026E+03 0.  0.
        4    1    3    3  502    0  0.12597426804E+03 -0.14473827252E+03  0.19321818054E+03  0.27231151634E+03  0.12699999809E+01 0.  1.
       -4    1    3    3    0  502 -0.12597426804E+03  0.14473827252E+03  0.10653627072E+04  0.10825054247E+04  0.12699999809E+01 0. -1.
</event>
<event>
 5   0  0.9868500E-02  0.4725075E+03  0.7818609E-02  0.1021215E+00
       -3   -1    0    0    0  501  0.00000000000E+00  0.00000000000E+00  0.18679127097E+03  0.18679129827E+03  0.10100000352E+00 0.  1.
        3   -1    0    0  501    0  0.00000000000E+00  0.00000000000E+00 -0.29881388848E+03  0.29881390555E+03  0.10100000352E+00 0. -1.
    10030    2    1    2    0    0  0.00000000000E+00  0.00000000000E+00 -0.11202261752E+03  0.48560520383E+03  0.47250751015E+03 0.  0.
        3    1    3    3  502    0 -0.11002801731E+03 -0.12197023153E+03 -0.23052076472E+03  0.28305959645E+03  0.10100000352E+00 0. -1.
       -3    1    3    3    0  502  0.11002801731E+03  0.12197023153E+03  0.11849814721E+03  0.20254560737E+03  0.10100000352E+00 0.  1.
</event>
<event>
 5   0  0.1439814E-01  0.5039930E+03  0.7818609E-02  0.1012742E+00
        1   -1    0    0  501    0  0.00000000000E+00  0.00000000000E+00  0.43427197347E+03  0.43427197350E+03  0.50400001928E-02 0. -1.
       -1   -1    0    0    0  501  0.00000000000E+00  0.00000000000E+00 -0.14622685268E+03  0.14622685277E+03  0.50400001928E-02 0.  1.
    10030    2    1    2    0    0  0.00000000000E+00  0.00000000000E+00  0.28804512078E+03  0.58049882627E+03  0.50399295202E+03 0.  0.
        4    1    3    3  502    0 -0.17530604023E+03  0.12746346323E+03 -0.40249846893E+01  0.21678781239E+03  0.12699999809E+01 0.  1.
       -4    1    3    3    0  502  0.17530604023E+03 -0.12746346323E+03  0.29207010547E+03  0.36371101387E+03  0.12699999809E+01 0. -1.
</event>
<event>
 5   0  0.1529146E-01  0.5001358E+03  0.7818609E-02  0.1013743E+00
        1   -1    0    0  501    0  0.00000000000E+00  0.00000000000E+00  0.59467912658E+03  0.59467912660E+03  0.50400001928E-02 0. -1.
       -1   -1    0    0    0  501  0.00000000000E+00  0.00000000000E+00 -0.10515579925E+03  0.10515579937E+03  0.50400001928E-02 0.  1.
    10030    2    1    2    0    0  0.00000000000E+00  0.00000000000E+00  0.48952332733E+03  0.69983492597E+03  0.50013581716E+03 0.  0.
        1    1    3    3  502    0 -0.38904411438E+02 -0.23868113327E+03  0.33383085087E+03  0.41221993356E+03  0.50400001928E-02 0. -1.
       -1    1    3    3    0  502  0.38904411438E+02  0.23868113327E+03  0.15569247646E+03  0.28761499241E+03  0.50400001928E-02 0.  1.
</event>
<event>
 5   0  0.1413361E-01  0.6027161E+03  0.7818609E-02  0.9899787E-01
        1   -1    0    0  501    0  0.00000000000E+00  0.00000000000E+00  0.16236255832E+04  0.16236255832E+04  0.50400001928E-02 0.  1.
       -1   -1    0    0    0  501  0.00000000000E+00  0.00000000000E+00 -0.55934494826E+02  0.55934495053E+02  0.50400001928E-02 0. -1.
    10030    2    1    2    0    0  0.00000000000E+00  0.00000000000E+00  0.15676910884E+04  0.16795600783E+04  0.60271610889E+03 0.  0.
        3    1    3    3  502    0  0.25474147060E+03  0.15745478637E+03  0.69011124339E+03  0.75228901696E+03  0.10100000352E+00 0.  1.
       -3    1    3    3    0  502 -0.25474147060E+03 -0.15745478637E+03  0.87757984498E+03  0.92727106129E+03  0.10100000352E+00 0. -1.
</event>
<event>
 5   0  0.1529146E-01  0.4984960E+03  0.7818609E-02  0.1014172E+00
       -1   -1    0    0    0  501  0.00000000000E+00  0.00000000000E+00  0.49188335960E+03  0.49188335962E+03  0.50400001928E-02 0. -1.
        1   -1    0    0  501    0  0.00000000000E+00  0.00000000000E+00 -0.12629938433E+03  0.12629938443E+03  0.50400001928E-02 0.  1.
    10030    2    1    2    0    0  0.00000000000E+00  0.00000000000E+00  0.36558397527E+03  0.61818274405E+03  0.49849600006E+03 0.  0.
        1    1    3    3  502    0  0.20223914665E+03  0.87089098416E+01  0.24527027106E+01  0.20244143184E+03  0.50400001928E-02 0.  1.
       -1    1    3    3    0  502 -0.20223914665E+03 -0.87089098416E+01  0.36313127256E+03  0.41574131222E+03  0.50400001928E-02 0. -1.
</event>
<event>
 5   0  0.2488968E-01  0.5013763E+03  0.7818609E-02  0.1013420E+00
        2   -1    0    0  501    0  0.00000000000E+00  0.00000000000E+00  0.33771373771E+03  0.33771373772E+03  0.25500000920E-02 0. -1.
       -2   -1    0    0    0  501  0.00000000000E+00  0.00000000000E+00 -0.18608821328E+03  0.18608821330E+03  0.25500000920E-02 0.  1.
    10030    2    1    2    0    0  0.00000000000E+00  0.00000000000E+00  0.15162552443E+03  0.52380195102E+03  0.50137629005E+03 0.  0.
        2    1    3    3  502    0  0.18721953585E+03  0.15060389493E+03  0.15050796690E+03  0.28352307821E+03  0.25500000920E-02 0. -1.
       -2    1    3    3    0  502 -0.18721953585E+03 -0.15060389493E+03  0.11175575290E+01  0.24027887280E+03  0.25500000920E-02 0.  1.
</event>
<event>
 5   0  0.1439814E-01  0.4596935E+03  0.7818609E-02  0.1024870E+00
       -1   -1    0    0    0  501  0.00000000000E+00  0.00000000000E+00  0.19225508344E+03  0.19225508351E+03  0.50400001928E-02 0. -1.
        1   -1    0    0  501    0  0.00000000000E+00  0.00000000000E+00 -0.27478875814E+03  0.27478875818E+03  0.50400001928E-02 0.  1.
    10030    2    1    2    0    0  0.00000000000E+00  0.00000000000E+00 -0.82533674697E+02  0.46704384169E+03  0.45969353117E+03 0.  0.
        4    1    3    3  502    0 -0.16450372908E+03  0.14152786656E+02 -0.20371764588E+03  0.26222942320E+03  0.12699999809E+01 0.  1.
       -4    1    3    3    0  502  0.16450372908E+03 -0.14152786656E+02  0.12118397118E+03  0.20481441849E+03  0.12699999809E+01 0. -1.
</event>
<event>
 5   0  0.2504064E-01  0.4145015E+03  0.7818609E-02  0.1038871E+00
        2   -1    0    0  501    0  0.00000000000E+00  0.00000000000E+00  0.55161508930E+03  0.55161508930E+03  0.25500000920E-02 0.  1.
       -2   -1    0    0    0  501  0.00000000000E+00  0.00000000000E+00 -0.77867456014E+02  0.77867456055E+02  0.25500000920E-02 0. -1.
    10030    2    1    2    0    0  0.00000000000E+00  0.00000000000E+00  0.47374763328E+03  0.62948254536E+03  0.41450145340E+03 0.  0.
        5    1    3    3  502    0 -0.97450120526E+02  0.10327969412E+03  0.77259554403E+01  0.14228493101E+03  0.46999998093E+01 0. -1.
       -5    1    3    3    0  502  0.97450120526E+02 -0.10327969412E+03  0.46602167784E+03  0.48719761435E+03  0.46999998093E+01 0.  1.
</event>
<event>
 5   0  0.1448458E-01  0.5070031E+03  0.7818609E-02  0.1011967E+00
        1   -1    0    0  501    0  0.00000000000E+00  0.00000000000E+00  0.10515151336E+04  0.10515151336E+04  0.50400001928E-02 0. -1.
       -1   -1    0    0    0  501  0.00000000000E+00  0.00000000000E+00 -0.61114701057E+02  0.61114701265E+02  0.50400001928E-02 0.  1.
    10030    2    1    2    0    0  0.00000000000E+00  0.00000000000E+00  0.99040043254E+03  0.11126298349E+04  0.50700308941E+03 0.  0.
        5    1    3    3  502    0 -0.27285686282E+02 -0.70491295673E+01 -0.57570167274E+02  0.64269845664E+02  0.46999998093E+01 0.  1.
       -5    1    3    3    0  502  0.27285686282E+02  0.70491295673E+01  0.10479705998E+04  0.10483599892E+04  0.46999998093E+01 0. -1.
</event>
<event>
 5   0  0.2413301E-01  0.4920028E+03  0.7818609E-02  0.1015888E+00
       -2   -1    0    0    0  501  0.00000000000E+00  0.00000000000E+00  0.72590702872E+02  0.72590702916E+02  0.25500000920E-02 0. -1.
        2   -1    0    0  501    0  0.00000000000E+00  0.00000000000E+00 -0.83366991560E+03  0.83366991561E+03  0.25500000920E-02 0.  1.
    10030    2    1    2    0    0  0.00000000000E+00  0.00000000000E+00 -0.76107921273E+03  0.90626061852E+03  0.49200278519E+03 0.  0.
        4    1    3    3  502    0 -0.14594997751E+03  0.84756485308E+02 -0.71019798225E+03  0.72997797544E+03  0.12699999809E+01 0.  1.
       -4    1    3    3    0  502  0.14594997751E+03 -0.84756485308E+02 -0.50881230479E+02  0.17628264308E+03  0.12699999809E+01 0. -1.
</event>
<event>
 5   0  0.1529146E-01  0.5088693E+03  0.7818609E-02  0.1011489E+00
       -1   -1    0    0    0  501  0.00000000000E+00  0.00000000000E+00  0.15955898063E+03  0.15955898071E+03  0.50400001928E-02 0. -1.
        1   -1    0    0  501    0  0.00000000000E+00  0.00000000000E+00 -0.40572456670E+03  0.40572456673E+03  0.50400001928E-02 0.  1.
    10030    2    1    2    0    0  0.00000000000E+00  0.00000000000E+00 -0.24616558607E+03  0.56528354744E+03  0.50886932826E+03 0.  0.
        1    1    3    3  502    0 -0.22842483258E+03 -0.10663625780E+03 -0.84797478523E+02  0.26596956218E+03  0.50400001928E-02 0. -1.
       -1    1    3    3    0  502  0.22842483258E+03  0.10663625780E+03 -0.16136810754E+03  0.29931398526E+03  0.50400001928E-02 0.  1.
</event>
<event>
 5   0  0.2504064E-01  0.4941624E+03  0.7818609E-02  0.1015314E+00
        2   -1    0    0  501    0  0.00000000000E+00  0.00000000000E+00  0.25938390223E+04  0.25938390223E+04  0.25500000920E-02 0. -1.
       -2   -1    0    0    0  501  0.00000000000E+00  0.00000000000E+00 -0.23536204735E+02  0.23536204873E+02  0.25500000920E-02 0.  1.
    10030    2    1    2    0    0  0.00000000000E+00  0.00000000000E+00  0.25703028175E+04  0.26173752272E+04  0.49416242860E+03 0.  0.
        5    1    3    3  502    0  0.15556333359E+03  0.10216000218E+03  0.42471374365E+03  0.46372456355E+03  0.46999998093E+01 0.  1.
       -5    1    3    3    0  502 -0.15556333359E+03 -0.10216000218E+03  0.21455890739E+04  0.21536506636E+04  0.46999998093E+01 0. -1.
</event>
<event>
 5   0  0.1448458E-01  0.5110916E+03  0.7818609E-02  0.1010924E+00
        1   -1    0    0  501    0  0.00000000000E+00  0.00000000000E+00  0.94890158022E+03  0.94890158024E+03  0.50400001928E-02 0. -1.
       -1   -1    0    0    0  501  0.00000000000E+00  0.00000000000E+00 -0.68820270816E+02  0.68820271000E+02  0.50400001928E-02 0.  1.
    10030    2    1    2    0    0  0.00000000000E+00  0.00000000000E+00  0.88008130941E+03  0.10177218512E+04  0.51109163104E+03 0.  0.
        5    1    3    3  502    0  0.19451256772E+03  0.12168561993E+03  0.21617500745E+03  0.31527171288E+03  0.46999998093E+01 0.  1.
       -5    1    3    3    0  502 -0.19451256772E+03 -0.12168561993E+03  0.66390630196E+03  0.70245013836E+03  0.46999998093E+01 0. -1.
</event>
<event>
 5   0  0.2511944E-01  0.5051179E+03  0.7818609E-02  0.1012452E+00
        2   -1    0    0  501    0  0.00000000000E+00  0.00000000000E+00  0.41807232453E+03  0.41807232454E+03  0.25500000920E-02 0. -1.
       -2   -1    0    0    0  501  0.00000000000E+00  0.00000000000E+00 -0.15257176163E+03  0.15257176165E+03  0.25500000920E-02 0.  1.
    10030    2    1    2    0    0  0.00000000000E+00  0.00000000000E+00  0.26550056291E+03  0.57064408619E+03  0.50511793098E+03 0.  0.
        1    1    3    3  502    0  0.85509446168E+02  0.22442786867E+03  0.22103011621E+03  0.32639553599E+03  0.50400001928E-02 0.  1.
       -1    1    3    3    0  502 -0.85509446168E+02 -0.22442786867E+03  0.44470446696E+02  0.24424855020E+03  0.50400001928E-02 0. -1.
</event>
<event>
 5   0  0.2466034E-01  0.5168017E+03  0.7818609E-02  0.1009484E+00
        2   -1    0    0  501    0  0.00000000000E+00  0.00000000000E+00  0.15953475480E+03  0.15953475482E+03  0.25500000920E-02 0. -1.
       -2   -1    0    0    0  501  0.00000000000E+00  0.00000000000E+00 -0.41853575548E+03  0.41853575549E+03  0.25500000920E-02 0.  1.
    10030    2    1    2    0    0  0.00000000000E+00  0.00000000000E+00 -0.25900100068E+03  0.57807051031E+03  0.51680169943E+03 0.  0.
        3    1    3    3  502    0  0.54434142472E+02 -0.63706772205E+02  0.14391523907E+03  0.16653298451E+03  0.10100000352E+00 0. -1.
       -3    1    3    3    0  502 -0.54434142472E+02  0.63706772205E+02 -0.40291623974E+03  0.41153752580E+03  0.10100000352E+00 0.  1.
</event>
<event>
 5   0  0.1439814E-01  0.4760534E+03  0.7818609E-02  0.1020225E+00
        1   -1    0    0  501    0  0.00000000000E+00  0.00000000000E+00  0.60676114965E+03  0.60676114967E+03  0.50400001928E-02 0. -1.
       -1   -1    0    0    0  501  0.00000000000E+00  0.00000000000E+00 -0.93375623144E+02  0.93375623280E+02  0.50400001928E-02 0.  1.
    10030    2    1    2    0    0  0.00000000000E+00  0.00000000000E+00  0.51338552651E+03  0.70013677295E+03  0.47605336047E+03 0.  0.
        4    1    3    3  502    0 -0.20403928101E+02 -0.37195014806E+02  0.60115097563E+03  0.60264740754E+03  0.12699999809E+01 0. -1.
       -4    1    3    3    0  502  0.20403928101E+02  0.37195014806E+02 -0.87765449127E+02  0.97489365414E+02  0.12699999809E+01 0.  1.
</event>
<event>
 5   0  0.9868500E-02  0.5101330E+03  0.7818609E-02  0.1011167E+00
        4   -1    0    0  501    0  0.00000000000E+00  0.00000000000E+00  0.54230487601E+02  0.54245356348E+02  0.12699999809E+01 0.  1.
       -4   -1    0    0    0  501  0.00000000000E+00  0.00000000000E+00 -0.11994946310E+04  0.11994953033E+04  0.12699999809E+01 0. -1.
    10030    2    1    2    0    0  0.00000000000E+00  0.00000000000E+00 -0.11452641434E+04  0.12537406597E+04  0.51013300576E+03 0.  0.
        3    1    3    3  502    0  0.12188126452E+02  0.18808043394E+03 -0.99500973203E+03  0.10127029066E+04  0.10100000352E+00 0. -1.
       -3    1    3    3    0  502 -0.12188126452E+02 -0.18808043394E+03 -0.15025441139E+03  0.24103775306E+03  0.10100000352E+00 0.  1.
</event>
<event>
 5   0  0.2511944E-01  0.5055306E+03  0.7818609E-02  0.1012345E+00
        2   -1    0    0  501    0  0.00000000000E+00  0.00000000000E+00  0.99941400642E+03  0.99941400643E+03  0.25500000920E-02 0. -1.
       -2   -1    0    0    0  501  0.00000000000E+00  0.00000000000E+00 -0.63927750160E+02  0.63927750211E+02  0.25500000920E-02 0.  1.
    10030    2    1    2    0    0  0.00000000000E+00  0.00000000000E+00  0.93548625626E+03  0.10633417566E+04  0.50553056856E+03 0.  0.
        1    1    3    3  502    0 -0.13434975536E+03  0.19216658329E+03  0.26916854064E+03  0.35697276618E+03  0.50400001928E-02 0.  1.
       -1    1    3    3    0  502  0.13434975536E+03 -0.19216658329E+03  0.66631771563E+03  0.70636899046E+03  0.50400001928E-02 0. -1.
</event>
<event>
 5   0  0.2466034E-01  0.4585309E+03  0.7818609E-02  0.1025208E+00
        2   -1    0    0  501    0  0.00000000000E+00  0.00000000000E+00  0.15811801544E+04  0.15811801544E+04  0.25500000920E-02 0.  1.
       -2   -1    0    0    0  501  0.00000000000E+00  0.00000000000E+00 -0.33242668514E+02  0.33242668612E+02  0.25500000920E-02 0. -1.
    10030    2    1    2    0    0  0.00000000000E+00  0.00000000000E+00  0.15479374859E+04  0.16144228230E+04  0.45853090545E+03 0.  0.
        3    1    3    3  502    0 -0.14869222776E+03  0.11450994258E+03  0.12376103363E+04  0.12517592661E+04  0.10100000352E+00 0.  1.
       -3    1    3    3    0  502  0.14869222776E+03 -0.11450994258E+03  0.31032714960E+03  0.36266355693E+03  0.10100000352E+00 0. -1.
</event>
<event>
 5   0  0.1448458E-01  0.5102919E+03  0.7818609E-02  0.1011127E+00
       -1   -1    0    0    0  501  0.00000000000E+00  0.00000000000E+00  0.70372394519E+02  0.70372394699E+02  0.50400001928E-02 0.  1.
        1   -1    0    0  501    0  0.00000000000E+00  0.00000000000E+00 -0.92507075075E+03  0.92507075077E+03  0.50400001928E-02 0. -1.
    10030    2    1    2    0    0  0.00000000000E+00  0.00000000000E+00 -0.85469835623E+03  0.99544314546E+03  0.51029185346E+03 0.  0.
        5    1    3    3  502    0 -0.15343853662E+03 -0.15518248066E+03 -0.16964290214E+03  0.27645214969E+03  0.46999998093E+01 0.  1.
       -5    1    3    3    0  502  0.15343853662E+03  0.15518248066E+03 -0.68505545409E+03  0.71899099577E+03  0.46999998093E+01 0. -1.
</event>
<event>
 5   0  0.2466034E-01  0.5029941E+03  0.7818609E-02  0.1013000E+00
       -2   -1    0    0    0  501  0.00000000000E+00  0.00000000000E+00  0.68375387257E+02  0.68375387304E+02  0.25500000920E-02 0. -1.
        2   -1    0    0  501    0  0.00000000000E+00  0.00000000000E+00 -0.92505181316E+03  0.92505181317E+03  0.25500000920E-02 0.  1.
    10030    2    1    2    0    0  0.00000000000E+00  0.00000000000E+00 -0.85667642591E+03  0.99342720047E+03  0.50299413906E+03 0.  0.
        3    1    3    3  502    0  0.80914837490E+02 -0.19446324468E+03 -0.69977051246E+03  0.73078173538E+03  0.10100000352E+00 0.  1.
       -3    1    3    3    0  502 -0.80914837490E+02  0.19446324468E+03 -0.15690591345E+03  0.26264546509E+03  0.10100000352E+00 0. -1.
</event>
<event>
 5   0  0.1453602E-01  0.4981542E+03  0.7818609E-02  0.1014262E+00
        1   -1    0    0  501    0  0.00000000000E+00  0.00000000000E+00  0.17865155142E+04  0.17865155142E+04  0.50400001928E-02 0.  1.
       -1   -1    0    0    0  501  0.00000000000E+00  0.00000000000E+00 -0.34726478258E+02  0.34726478624E+02  0.50400001928E-02 0. -1.
    10030    2    1    2    0    0  0.00000000000E+00  0.00000000000E+00  0.17517890359E+04  0.18212419928E+04  0.49815416289E+03 0.  0.
        2    1    3    3  502    0 -0.15178649148E+03  0.17094949456E+03  0.12373843805E+04  0.12583254642E+04  0.25500000920E-02 0.  1.
       -2    1    3    3    0  502  0.15178649148E+03 -0.17094949456E+03  0.51440465545E+03  0.56291652866E+03  0.25500000920E-02 0. -1.
</event>
<event>
 5   0  0.1439814E-01  0.5067502E+03  0.7818609E-02  0.1012032E+00
       -1   -1    0    0    0  501  0.00000000000E+00  0.00000000000E+00  0.46772764826E+03  0.46772764829E+03  0.50400001928E-02 0. -1.
        1   -1    0    0  501    0  0.00000000000E+00  0.00000000000E+00 -0.13725710465E+03  0.13725710474E+03  0.50400001928E-02 0.  1.
    10030    2    1    2    0    0  0.00000000000E+00  0.00000000000E+00  0.33047054361E+03  0.60498475303E+03  0.50675020593E+03 0.  0.
        4    1    3    3  502    0 -0.91626180733E+02 -0.18154846393E+03  0.34566943825E+03  0.40105383079E+03  0.12699999809E+01 0. -1.
       -4    1    3    3    0  502  0.91626180733E+02  0.18154846393E+03 -0.15198894636E+02  0.20393092225E+03  0.12699999809E+01 0.  1.
</event>
<event>
 5   0  0.2466034E-01  0.4819850E+03  0.7818609E-02  0.1018591E+00
       -2   -1    0    0    0  501  0.00000000000E+00  0.00000000000E+00  0.59846542504E+03  0.59846542504E+03  0.25500000920E-02 0. -1.
        2   -1    0    0  501    0  0.00000000000E+00  0.00000000000E+00 -0.97043831204E+02  0.97043831238E+02  0.25500000920E-02 0.  1.
    10030    2    1    2    0    0  0.00000000000E+00  0.00000000000E+00  0.50142159383E+03  0.69550925628E+03  0.48198496949E+03 0.  0.
        3    1    3    3  502    0 -0.22515395063E+03  0.76275179717E+02  0.19362222200E+03  0.30659709650E+03  0.10100000352E+00 0.  1.
       -3    1    3    3    0  502  0.22515395063E+03 -0.76275179717E+02  0.30779937183E+03  0.38891215978E+03  0.10100000352E+00 0. -1.
</event>
<event>
 5   0  0.1413361E-01  0.4993883E+03  0.7818609E-02  0.1013939E+00
        1   -1    0    0  501    0  0.00000000000E+00  0.00000000000E+00  0.39078763015E+03  0.39078763019E+03  0.50400001928E-02 0. -1.
       -1   -1    0    0    0  501  0.00000000000E+00  0.00000000000E+00 -0.15954234226E+03  0.15954234234E+03  0.50400001928E-02 0.  1.
    10030    2    1    2    0    0  0.00000000000E+00  0.00000000000E+00  0.23124528790E+03  0.55032997253E+03  0.49938832134E+03 0.  0.
        3    1    3    3  502    0 -0.24133296412E+03 -0.85055809191E+00  0.18622723403E+03  0.30483260310E+03  0.10100000352E+00 0. -1.
       -3    1    3    3    0  502  0.24133296412E+03  0.85055809191E+00  0.45018053861E+02  0.24549736942E+03  0.10100000352E+00 0.  1.
</event>
<event>
 5   0  0.1529146E-01  0.4956047E+03  0.7818609E-02  0.1014933E+00
       -1   -1    0    0    0  501  0.00000000000E+00  0.00000000000E+00  0.71078431180E+02  0.71078431359E+02  0.50400001928E-02 0.  1.
        1   -1    0    0  501    0  0.00000000000E+00  0.00000000000E+00 -0.86391911080E+03  0.86391911082E+03  0.50400001928E-02 0. -1.
    10030    2    1    2    0    0  0.00000000000E+00  0.00000000000E+00 -0.79284067962E+03  0.93499754218E+03  0.49560474232E+03 0.  0.
        1    1    3    3  502    0  0.30525476116E+01  0.24660562929E+03 -0.35089312961E+03  0.42889350995E+03  0.50400001928E-02 0.  1.
       -1    1    3    3    0  502 -0.30525476116E+01 -0.24660562929E+03 -0.44194755001E+03  0.50610403222E+03  0.50400001928E-02 0. -1.
</event>
<event>
 5   0  0.1439814E-01  0.5128441E+03  0.7818609E-02  0.1010480E+00
        1   -1    0    0  501    0  0.00000000000E+00  0.00000000000E+00  0.13812515292E+04  0.13812515292E+04  0.50400001928E-02 0. -1.
       -1   -1    0    0    0  501  0.00000000000E+00  0.00000000000E+00 -0.47603392005E+02  0.47603392272E+02  0.50400001928E-02 0.  1.
    10030    2    1    2    0    0  0.00000000000E+00  0.00000000000E+00  0.13336481372E+04  0.14288549214E+04  0.51284406284E+03 0.  0.
        4    1    3    3  502    0  0.86990543393E+02  0.94413764180E+02  0.12852549088E+04  0.12916513101E+04  0.12699999809E+01 0. -1.
       -4    1    3    3    0  502 -0.86990543393E+02 -0.94413764180E+02  0.48393228381E+02  0.13720361132E+03  0.12699999809E+01 0.  1.
</event>
<event>
 5   0  0.2488968E-01  0.5019316E+03  0.7818609E-02  0.1013276E+00
        2   -1    0    0  501    0  0.00000000000E+00  0.00000000000E+00  0.24112127218E+03  0.24112127219E+03  0.25500000920E-02 0. -1.
       -2   -1    0    0    0  501  0.00000000000E+00  0.00000000000E+00 -0.26121222879E+03  0.26121222881E+03  0.25500000920E-02 0.  1.
    10030    2    1    2    0    0  0.00000000000E+00  0.00000000000E+00 -0.20090956618E+02  0.50233350100E+03  0.50193156873E+03 0.  0.
        2    1    3    3  502    0  0.10298387590E+03  0.17848525574E+03  0.13332131828E+03  0.24543275887E+03  0.25500000920E-02 0. -1.
       -2    1    3    3    0  502 -0.10298387590E+03 -0.17848525574E+03 -0.15341227489E+03  0.25690074213E+03  0.25500000920E-02 0.  1.
</event>
<event>
 5   0  0.2488968E-01  0.3729478E+03  0.7818609E-02  0.1053572E+00
       -2   -1    0    0    0  501  0.00000000000E+00  0.00000000000E+00  0.54721774352E+02  0.54721774412E+02  0.25500000920E-02 0. -1.
        2   -1    0    0  501    0  0.00000000000E+00  0.00000000000E+00 -0.63544192515E+03  0.63544192516E+03  0.25500000920E-02 0.  1.
    10030    2    1    2    0    0  0.00000000000E+00  0.00000000000E+00 -0.58072015080E+03  0.69016369957E+03  0.37294776934E+03 0.  0.
        2    1    3    3  502    0 -0.84662039671E+02 -0.56684870367E+02 -0.13420669477E+01  0.10189522383E+03  0.25500000920E-02 0. -1.
       -2    1    3    3    0  502  0.84662039671E+02  0.56684870367E+02 -0.57937808385E+03  0.58826847573E+03  0.25500000920E-02 0.  1.
</event>
<event>
 5   0  0.2488968E-01  0.4854076E+03  0.7818609E-02  0.1017660E+00
        2   -1    0    0  501    0  0.00000000000E+00  0.00000000000E+00  0.56251491658E+03  0.56251491659E+03  0.25500000920E-02 0.  1.
       -2   -1    0    0    0  501  0.00000000000E+00  0.00000000000E+00 -0.10471744668E+03  0.10471744671E+03  0.25500000920E-02 0. -1.
    10030    2    1    2    0    0  0.00000000000E+00  0.00000000000E+00  0.45779746991E+03  0.66723236330E+03  0.48540756399E+03 0.  0.
        2    1    3    3  502    0 -0.87998736680E+02  0.22223139031E+03  0.28680366965E+03  0.37334556838E+03  0.25500000920E-02 0.  1.
       -2    1    3    3    0  502  0.87998736680E+02 -0.22223139031E+03  0.17099380026E+03  0.29388679492E+03  0.25500000920E-02 0. -1.
</event>
<event>
 5   0  0.9868500E-02  0.4948237E+03  0.7818609E-02  0.1015139E+00
        4   -1    0    0  501    0  0.00000000000E+00  0.00000000000E+00  0.16570607032E+03  0.16571093700E+03  0.12699999809E+01 0. -1.
       -4   -1    0    0    0  501  0.00000000000E+00  0.00000000000E+00 -0.36939345468E+03  0.36939563785E+03  0.12699999809E+01 0.  1.
    10030    2    1    2    0    0  0.00000000000E+00  0.00000000000E+00 -0.20368738436E+03  0.53510657485E+03  0.49482370183E+03 0.  0.
        5    1    3    3  502    0  0.79510391420E+02  0.23387825538E+03 -0.11592665802E+03  0.27291394381E+03  0.46999998093E+01 0.  1.
       -5    1    3    3    0  502 -0.79510391420E+02 -0.23387825538E+03 -0.87760726339E+02  0.26219263104E+03  0.46999998093E+01 0. -1.
</event>
<event>
 5   0  0.1439814E-01  0.4949627E+03  0.7818609E-02  0.1015102E+00
        1   -1    0    0  501    0  0.00000000000E+00  0.00000000000E+00  0.56222150838E+03  0.56222150841E+03  0.50400001928E-02 0.  1.
       -1   -1    0    0    0  501  0.00000000000E+00  0.00000000000E+00 -0.10893751522E+03  0.10893751534E+03  0.50400001928E-02 0. -1.
    10030    2    1    2    0    0  0.00000000000E+00  0.00000000000E+00  0.45328399316E+03  0.67115902375E+03  0.49496268213E+03 0.  0.
        4    1    3    3  502    0  0.60008574026E+02 -0.23116408009E+03  0.31459833151E+03  0.39498301732E+03  0.12699999809E+01 0.  1.
       -4    1    3    3    0  502 -0.60008574026E+02  0.23116408009E+03  0.13868566165E+03  0.27617600643E+03  0.12699999809E+01 0. -1.
</event>
<event>
 5   0  0.1413361E-01  0.5126666E+03  0.7818609E-02  0.1010525E+00
       -1   -1    0    0    0  501  0.00000000000E+00  0.00000000000E+00  0.26012654165E+03  0.26012654170E+03  0.50400001928E-02 0. -1.
        1   -1    0    0  501    0  0.00000000000E+00  0.00000000000E+00 -0.25259532988E+03  0.25259532993E+03  0.50400001928E-02 0.  1.
    10030    2    1    2    0    0  0.00000000000E+00  0.00000000000E+00  0.75312117663E+01  0.51272187163E+03  0.51266655683E+03 0.  0.
        3    1    3    3  502    0 -0.89420508845E+02  0.26157624896E+02  0.24259357165E+03  0.25986900537E+03  0.10100000352E+00 0. -1.
       -3    1    3    3    0  502  0.89420508845E+02 -0.26157624896E+02 -0.23506235988E+03  0.25285286626E+03  0.10100000352E+00 0.  1.
</event>
<event>
 5   0  0.2504064E-01  0.3519763E+03  0.7818609E-02  0.1061807E+00
        2   -1    0    0  501    0  0.00000000000E+00  0.00000000000E+00  0.16083032308E+04  0.16083032308E+04  0.25500000920E-02 0.  1.
       -2   -1    0    0    0  501  0.00000000000E+00  0.00000000000E+00 -0.19257461330E+02  0.19257461499E+02  0.25500000920E-02 0. -1.
    10030    2    1    2    0    0  0.00000000000E+00  0.00000000000E+00  0.15890457694E+04  0.16275606923E+04  0.35197634814E+03 0.  0.
        5    1    3    3  502    0 -0.32317262809E+02 -0.57728283022E+02  0.40746951704E+02  0.77841918061E+02  0.46999998093E+01 0. -1.
       -5    1    3    3    0  502  0.32317262809E+02  0.57728283022E+02  0.15482988177E+04  0.15497187742E+04  0.46999998093E+01 0.  1.
</event>
<event>
 5   0  0.1453602E-01  0.4827302E+03  0.7818609E-02  0.1018388E+00
       -1   -1    0    0    0  501  0.00000000000E+00  0.00000000000E+00  0.24633814314E+03  0.24633814319E+03  0.50400001928E-02 0. -1.
        1   -1    0    0  501    0  0.00000000000E+00  0.00000000000E+00 -0.23649243591E+03  0.23649243596E+03  0.50400001928E-02 0.  1.
    10030    2    1    2    0    0  0.00000000000E+00  0.00000000000E+00  0.98457072285E+01  0.48283057915E+03  0.48273018366E+03 0.  0.
        2    1    3    3  502    0 -0.14775443887E+03 -0.19047131863E+03  0.17025375132E+02  0.24166207983E+03  0.25500000920E-02 0.  1.
       -2    1    3    3    0  502  0.14775443887E+03  0.19047131863E+03 -0.71796679034E+01  0.24116849932E+03  0.25500000920E-02 0. -1.
</event>
<event>
 5   0  0.2504064E-01  0.4863153E+03  0.7818609E-02  0.1017414E+00
       -2   -1    0    0    0  501  0.00000000000E+00  0.00000000000E+00  0.45408088177E+02  0.45408088249E+02  0.25500000920E-02 0.  1.
        2   -1    0    0  501    0  0.00000000000E+00  0.00000000000E+00 -0.13020948132E+04  0.13020948132E+04  0.25500000920E-02 0. -1.
    10030    2    1    2    0    0  0.00000000000E+00  0.00000000000E+00 -0.12566867250E+04  0.13475029014E+04  0.48631527281E+03 0.  0.
        5    1    3    3  502    0  0.21473785299E+03 -0.30676782133E+01 -0.31264008571E+03  0.37932528171E+03  0.46999998093E+01 0.  1.
       -5    1    3    3    0  502 -0.21473785299E+03  0.30676782133E+01 -0.94404663931E+03  0.96817761973E+03  0.46999998093E+01 0. -1.
</event>
<event>
 5   0  0.1439814E-01  0.4974298E+03  0.7818609E-02  0.1014452E+00
       -1   -1    0    0    0  501  0.00000000000E+00  0.00000000000E+00  0.28674511712E+02  0.28674512155E+02  0.50400001928E-02 0. -1.
        1   -1    0    0  501    0  0.00000000000E+00  0.00000000000E+00 -0.21572853302E+04  0.21572853302E+04  0.50400001928E-02 0.  1.
    10030    2    1    2    0    0  0.00000000000E+00  0.00000000000E+00 -0.21286108185E+04  0.21859598424E+04  0.49742980996E+03 0.  0.
        4    1    3    3  502    0 -0.29506927620E+02  0.18151781702E+03 -0.18001477485E+04  0.18095173130E+04  0.12699999809E+01 0.  1.
       -4    1    3    3    0  502  0.29506927620E+02 -0.18151781702E+03 -0.32846306995E+03  0.37644252934E+03  0.12699999809E+01 0. -1.
</event>
<event>
 5   0  0.1448458E-01  0.4935891E+03  0.7818609E-02  0.1015466E+00
        1   -1    0    0  501    0  0.00000000000E+00  0.00000000000E+00  0.33481946231E+03  0.33481946235E+03  0.50400001928E-02 0. -1.
       -1   -1    0    0    0  501  0.00000000000E+00  0.00000000000E+00 -0.18191162177E+03  0.18191162184E+03  0.50400001928E-02 0.  1.
    10030    2    1    2    0    0  0.00000000000E+00  0.00000000000E+00  0.15290784054E+03  0.51673108420E+03  0.49358910612E+03 0.  0.
        5    1    3    3  502    0  0.32159052842E+01  0.22367764075E+03  0.18546795404E+03  0.29062429525E+03  0.46999998093E+01 0. -1.
       -5    1    3    3    0  502 -0.32159052842E+01 -0.22367764075E+03 -0.32560113501E+02  0.22610678894E+03  0.46999998093E+01 0.  1.
</event>
<event>
 5   0  0.1413361E-01  0.5034342E+03  0.7818609E-02  0.1012886E+00
       -1   -1    0    0    0  501  0.00000000000E+00  0.00000000000E+00  0.13517307537E+03  0.13517307546E+03  0.50400001928E-02 0. -1.
        1   -1    0    0  501    0  0.00000000000E+00  0.00000000000E+00 -0.46874355130E+03  0.46874355133E+03  0.50400001928E-02 0.  1.
    10030    2    1    2    0    0  0.00000000000E+00  0.00000000000E+00 -0.33357047593E+03  0.60391662679E+03  0.50343423573E+03 0.  0.
        3    1    3    3  502    0 -0.18252508573E+03  0.50738603557E+02  0.32042460272E+02  0.19213678011E+03  0.10100000352E+00 0. -1.
       -3    1    3    3    0  502  0.18252508573E+03 -0.50738603557E+02 -0.36561293620E+03  0.41177984668E+03  0.10100000352E+00 0.  1.
</event>
<event>
 5   0  0.1529146E-01  0.4922684E+03  0.7818609E-02  0.1015817E+00
       -1   -1    0    0    0  501  0.00000000000E+00  0.00000000000E+00  0.29456425112E+03  0.29456425117E+03  0.50400001928E-02 0.  1.
        1   -1    0    0  501    0  0.00000000000E+00  0.00000000000E+00 -0.20566665380E+03  0.20566665387E+03  0.50400001928E-02 0. -1.
    10030    2    1    2    0    0  0.00000000000E+00  0.00000000000E+00  0.88897597321E+02  0.50023090503E+03  0.49226839787E+03 0.  0.
        1    1    3    3  502    0  0.57902584559E+02  0.18073485042E+01  0.28753791606E+03  0.29331557921E+03  0.50400001928E-02 0.  1.
       -1    1    3    3    0  502 -0.57902584559E+02 -0.18073485042E+01 -0.19864031874E+03  0.20691532583E+03  0.50400001928E-02 0. -1.
</event>
<event>
 5   0  0.2413301E-01  0.5004969E+03  0.7818609E-02  0.1013649E+00
       -2   -1    0    0    0  501  0.00000000000E+00  0.00000000000E+00  0.14498019899E+03  0.14498019901E+03  0.25500000920E-02 0.  1.
        2   -1    0    0  501    0  0.00000000000E+00  0.00000000000E+00 -0.43195060307E+03  0.43195060308E+03  0.25500000920E-02 0. -1.
    10030    2    1    2    0    0  0.00000000000E+00  0.00000000000E+00 -0.28697040408E+03  0.57693080209E+03  0.50049689068E+03 0.  0.
        4    1    3    3  502    0  0.35682614300E+02  0.13513079417E+03 -0.38276498648E+03  0.40748524914E+03  0.12699999809E+01 0. -1.
       -4    1    3    3    0  502 -0.35682614300E+02 -0.13513079417E+03  0.95794582398E+02  0.16944555295E+03  0.12699999809E+01 0.  1.
</event>
<event>
 5   0  0.2488968E-01  0.4992030E+03  0.7818609E-02  0.1013987E+00
        2   -1    0    0  501    0  0.00000000000E+00  0.00000000000E+00  0.11342694420E+04  0.11342694420E+04  0.25500000920E-02 0. -1.
       -2   -1    0    0    0  501  0.00000000000E+00  0.00000000000E+00 -0.54926016724E+02  0.54926016783E+02  0.25500000920E-02 0.  1.
    10030    2    1    2    0    0  0.00000000000E+00  0.00000000000E+00  0.10793434252E+04  0.11891954588E+04  0.49920297425E+03 0.  0.
        2    1    3    3  502    0  0.45430824177E+02  0.98441297792E+01 -0.44523399026E+02  0.64367691770E+02  0.25500000920E-02 0.  1.
       -2    1    3    3    0  502 -0.45430824177E+02 -0.98441297792E+01  0.11238668243E+04  0.11248277670E+04  0.25500000920E-02 0. -1.
</event>
<event>
 5   0  0.1413361E-01  0.4807337E+03  0.7818609E-02  0.1018934E+00
       -1   -1    0    0    0  501  0.00000000000E+00  0.00000000000E+00  0.42693359953E+03  0.42693359956E+03  0.50400001928E-02 0. -1.
        1   -1    0    0  501    0  0.00000000000E+00  0.00000000000E+00 -0.13532837686E+03  0.13532837695E+03  0.50400001928E-02 0.  1.
    10030    2    1    2    0    0  0.00000000000E+00  0.00000000000E+00  0.29160522267E+03  0.56226197651E+03  0.48073373538E+03 0.  0.
        3    1    3    3  502    0 -0.20001200911E+03 -0.10351928724E+03  0.24404252857E+03  0.33208103314E+03  0.10100000352E+00 0. -1.
       -3    1    3    3    0  502  0.20001200911E+03  0.10351928724E+03  0.47562694102E+02  0.23018094337E+03  0.10100000352E+00 0.  1.
</event>
<event>
 5   0  0.2466034E-01  0.5063941E+03  0.7818609E-02  0.1012123E+00
       -2   -1    0    0    0  501  0.00000000000E+00  0.00000000000E+00  0.69273741981E+02  0.69273742028E+02  0.25500000920E-02 0. -1.
        2   -1    0    0  501    0  0.00000000000E+00  0.00000000000E+00 -0.92544063700E+03  0.92544063701E+03  0.25500000920E-02 0.  1.
    10030    2    1    2    0    0  0.00000000000E+00  0.00000000000E+00 -0.85616689502E+03  0.99471437903E+03  0.50639405973E+03 0.  0.
        3    1    3    3  502    0  0.20018475981E+03  0.65335926676E+02 -0.15191806617E+03  0.25965714010E+03  0.10100000352E+00 0. -1.
       -3    1    3    3    0  502 -0.20018475981E+03 -0.65335926676E+02 -0.70424882885E+03  0.73505723894E+03  0.10100000352E+00 0.  1.
</event>
<event>
 5   0  0.1529146E-01  0.5004142E+03  0.7818609E-02  0.1013671E+00
        1   -1    0    0  501    0  0.00000000000E+00  0.00000000000E+00  0.45870652507E+03  0.45870652510E+03  0.50400001928E-02 0.  1.
       -1   -1    0    0    0  501  0.00000000000E+00  0.00000000000E+00 -0.13647854118E+03  0.13647854128E+03  0.50400001928E-02 0. -1.
    10030    2    1    2    0    0  0.00000000000E+00  0.00000000000E+00  0.32222798389E+03  0.59518506638E+03  0.50041421806E+03 0.  0.
        1    1    3    3  502    0 -0.15504813368E+02  0.43112598336E+02  0.45367485647E+03  0.45598242377E+03  0.50400001928E-02 0.  1.
       -1    1    3    3    0  502  0.15504813368E+02 -0.43112598336E+02 -0.13144687258E+03  0.13920264261E+03  0.50400001928E-02 0. -1.
</event>
<event>
 5   0  0.1439814E-01  0.4854425E+03  0.7818609E-02  0.1017650E+00
       -1   -1    0    0    0  501  0.00000000000E+00  0.00000000000E+00  0.41322279916E+03  0.41322279919E+03  0.50400001928E-02 0.  1.
        1   -1    0    0  501    0  0.00000000000E+00  0.00000000000E+00 -0.14257102067E+03  0.14257102076E+03  0.50400001928E-02 0. -1.
    10030    2    1    2    0    0  0.00000000000E+00  0.00000000000E+00  0.27065177849E+03  0.55579381994E+03  0.48544246321E+03 0.  0.
        4    1    3    3  502    0 -0.20317034577E+03 -0.13138943268E+03  0.15736708110E+03  0.28863018473E+03  0.12699999809E+01 0.  1.
       -4    1    3    3    0  502  0.20317034577E+03  0.13138943268E+03  0.11328469739E+03  0.26716363522E+03  0.12699999809E+01 0. -1.
</event>
<event>
 5   0  0.1448458E-01  0.5399268E+03  0.7818609E-02  0.1003853E+00
        1   -1    0    0  501    0  0.00000000000E+00  0.00000000000E+00  0.35436230822E+03  0.35436230826E+03  0.50400001928E-02 0. -1.
       -1   -1    0    0    0  501  0.00000000000E+00  0.00000000000E+00 -0.20566587212E+03  0.20566587218E+03  0.50400001928E-02 0.  1.
    10030    2    1    2    0    0  0.00000000000E+00  0.00000000000E+00  0.14869643610E+03  0.56002818044E+03  0.53992678464E+03 0.  0.
        5    1    3    3  502    0  0.81135638445E+02  0.38226117026E+02  0.33841218146E+03  0.35012729458E+03  0.46999998093E+01 0. -1.
       -5    1    3    3    0  502 -0.81135638445E+02 -0.38226117026E+02 -0.18971574536E+03  0.20990088586E+03  0.46999998093E+01 0.  1.
</event>
<event>
 5   0  0.2466034E-01  0.4933621E+03  0.7818609E-02  0.1015526E+00
       -2   -1    0    0    0  501  0.00000000000E+00  0.00000000000E+00  0.54303485364E+02  0.54303485424E+02  0.25500000920E-02 0. -1.
        2   -1    0    0  501    0  0.00000000000E+00  0.00000000000E+00 -0.11205828050E+04  0.11205828050E+04  0.25500000920E-02 0.  1.
    10030    2    1    2    0    0  0.00000000000E+00  0.00000000000E+00 -0.10662793196E+04  0.11748862904E+04  0.49336214685E+03 0.  0.
        3    1    3    3  502    0 -0.39750332067E+02 -0.22316390079E+03 -0.76487354937E+03  0.79775545892E+03  0.10100000352E+00 0.  1.
       -3    1    3    3    0  502  0.39750332067E+02  0.22316390079E+03 -0.30140577024E+03  0.37713083147E+03  0.10100000352E+00 0. -1.
</event>
<event>
 5   0  0.1439814E-01  0.5479676E+03  0.7818609E-02  0.1001965E+00
        1   -1    0    0  501    0  0.00000000000E+00  0.00000000000E+00  0.13656119431E+04  0.13656119431E+04  0.50400001928E-02 0.  1.
       -1   -1    0    0    0  501  0.00000000000E+00  0.00000000000E+00 -0.54969581929E+02  0.54969582160E+02  0.50400001928E-02 0. -1.
    10030    2    1    2    0    0  0.00000000000E+00  0.00000000000E+00  0.13106423612E+04  0.14205815252E+04  0.54796758210E+03 0.  0.
        4    1    3    3  502    0  0.13739115084E+03  0.22372798275E+03  0.85837790937E+03  0.89763287974E+03  0.12699999809E+01 0.  1.
       -4    1    3    3    0  502 -0.13739115084E+03 -0.22372798275E+03  0.45226445178E+03  0.52294864551E+03  0.12699999809E+01 0. -1.
</event>
<event>
 5   0  0.2511944E-01  0.5049884E+03  0.7818609E-02  0.1012485E+00
       -2   -1    0    0    0  501  0.00000000000E+00  0.00000000000E+00  0.90745464028E+03  0.90745464028E+03  0.25500000920E-02 0.  1.
        2   -1    0    0  501    0  0.00000000000E+00  0.00000000000E+00 -0.70255099855E+02  0.70255099901E+02  0.25500000920E-02 0. -1.
    10030    2    1    2    0    0  0.00000000000E+00  0.00000000000E+00  0.83719954042E+03  0.97770974018E+03  0.50498838161E+03 0.  0.
        1    1    3    3  502    0 -0.67680587100E+02  0.89765014573E+02  0.85632572527E+03  0.86367364641E+03  0.50400001928E-02 0.  1.
       -1    1    3    3    0  502  0.67680587100E+02 -0.89765014573E+02 -0.19126184847E+02  0.11403609378E+03  0.50400001928E-02 0. -1.
</event>
<event>
 5   0  0.1439814E-01  0.5081865E+03  0.7818609E-02  0.1011664E+00
        1   -1    0    0  501    0  0.00000000000E+00  0.00000000000E+00  0.10090500238E+04  0.10090500238E+04  0.50400001928E-02 0. -1.
       -1   -1    0    0    0  501  0.00000000000E+00  0.00000000000E+00 -0.63984319869E+02  0.63984320067E+02  0.50400001928E-02 0.  1.
    10030    2    1    2    0    0  0.00000000000E+00  0.00000000000E+00  0.94506570394E+03  0.10730343439E+04  0.50818649962E+03 0.  0.
        4    1    3    3  502    0  0.38973978120E+02 -0.19839370278E+03  0.14759042391E+03  0.25032694302E+03  0.12699999809E+01 0.  1.
       -4    1    3    3    0  502 -0.38973978120E+02  0.19839370278E+03  0.79747528004E+03  0.82270740087E+03  0.12699999809E+01 0. -1.
</event>
<event>
 5   0  0.1448458E-01  0.5120289E+03  0.7818609E-02  0.1010686E+00
       -1   -1    0    0    0  501  0.00000000000E+00  0.00000000000E+00  0.50077239018E+03  0.50077239021E+03  0.50400001928E-02 0. -1.
        1   -1    0    0  501    0  0.00000000000E+00  0.00000000000E+00 -0.13088459610E+03  0.13088459619E+03  0.50400001928E-02 0.  1.
    10030    2    1    2    0    0  0.00000000000E+00  0.00000000000E+00  0.36988779409E+03  0.63165698640E+03  0.51202887443E+03 0.  0.
        5    1    3    3  502    0  0.37654786931E+02  0.26686006173E+02  0.49554400256E+03  0.49771073363E+03  0.46999998093E+01 0. -1.
       -5    1    3    3    0  502 -0.37654786931E+02 -0.26686006173E+02 -0.12565620847E+03  0.13394625277E+03  0.46999998093E+01 0.  1.
</event>
<event>
 5   0  0.9868500E-02  0.4945985E+03  0.7818609E-02  0.1015198E+00
        3   -1    0    0  501    0  0.00000000000E+00  0.00000000000E+00  0.14828423727E+03  0.14828427166E+03  0.10100000352E+00 0.  1.
       -3   -1    0    0    0  501  0.00000000000E+00  0.00000000000E+00 -0.41243018110E+03  0.41243019346E+03  0.10100000352E+00 0. -1.
    10030    2    1    2    0    0  0.00000000000E+00  0.00000000000E+00 -0.26414594383E+03  0.56071446513E+03  0.49459845507E+03 0.  0.
        4    1    3    3  502    0  0.15063969384E+03  0.45508874656E+02  0.84194642235E+02  0.17847612085E+03  0.12699999809E+01 0.  1.
       -4    1    3    3    0  502 -0.15063969384E+03 -0.45508874656E+02 -0.34834058606E+03  0.38223834427E+03  0.12699999809E+01 0. -1.
</event>
<event>
 5   0  0.9868500E-02  0.4960110E+03  0.7818609E-02  0.1014825E+00
        3   -1    0    0  501    0  0.00000000000E+00  0.00000000000E+00  0.27626315539E+03  0.27626317385E+03  0.10100000352E+00 0.  1.
       -3   -1    0    0    0  501  0.00000000000E+00  0.00000000000E+00 -0.22263811783E+03  0.22263814074E+03  0.10100000352E+00 0. -1.
    10030    2    1    2    0    0  0.00000000000E+00  0.00000000000E+00  0.53625037563E+02  0.49890131459E+03  0.49601096464E+03 0.  0.
        1    1    3    3  502    0  0.18256745382E+03 -0.12762125661E+02  0.19515858261E+03  0.26754554647E+03  0.50400001928E-02 0.  1.
       -1    1    3    3    0  502 -0.18256745382E+03  0.12762125661E+02 -0.14153354504E+03  0.23135576812E+03  0.50400001928E-02 0. -1.
</event>
<event>
 5   0  0.1453602E-01  0.4669620E+03  0.7818609E-02  0.1022781E+00
        1   -1    0    0  501    0  0.00000000000E+00  0.00000000000E+00  0.13395153500E+04  0.13395153500E+04  0.50400001928E-02 0. -1.
       -1   -1    0    0    0  501  0.00000000000E+00  0.00000000000E+00 -0.40696346800E+02  0.40696347112E+02  0.50400001928E-02 0.  1.
    10030    2    1    2    0    0  0.00000000000E+00  0.00000000000E+00  0.12988190032E+04  0.13802116971E+04  0.46696201751E+03 0.  0.
        2    1    3    3  502    0  0.16348131031E+00  0.13269815865E+03  0.81598080102E+02  0.15577892899E+03  0.25500000920E-02 0.  1.
       -2    1    3    3    0  502 -0.16348131031E+00 -0.13269815865E+03  0.12172209231E+04  0.12244327681E+04  0.25500000920E-02 0. -1.
</event>
<event>
 5   0  0.9868500E-02  0.5033292E+03  0.7818609E-02  0.1012914E+00
       -3   -1    0    0    0  501  0.00000000000E+00  0.00000000000E+00  0.38736455641E+03  0.38736456957E+03  0.10100000352E+00 0.  1.
        3   -1    0    0  501    0  0.00000000000E+00  0.00000000000E+00 -0.16350244748E+03  0.16350247868E+03  0.10100000352E+00 0. -1.
    10030    2    1    2    0    0  0.00000000000E+00  0.00000000000E+00  0.22386210893E+03  0.55086704825E+03  0.50332917761E+03 0.  0.
        1    1    3    3  502    0 -0.16162744501E+03  0.18479507727E+03  0.51365372034E+02  0.25082075878E+03  0.50400001928E-02 0.  1.
       -1    1    3    3    0  502  0.16162744501E+03 -0.18479507727E+03  0.17249673689E+03  0.30004628947E+03  0.50400001928E-02 0. -1.
</event>
<event>
 5   0  0.1453602E-01  0.5071819E+03  0.7818609E-02  0.1011921E+00
       -1   -1    0    0    0  501  0.00000000000E+00  0.00000000000E+00  0.11217392419E+03  0.11217392431E+03  0.50400001928E-02 0.  1.
        1   -1    0    0  501    0  0.00000000000E+00  0.00000000000E+00 -0.57329170230E+03  0.57329170232E+03  0.50400001928E-02 0. -1.
    10030    2    1    2    0    0  0.00000000000E+00  0.00000000000E+00 -0.46111777810E+03  0.68546562662E+03  0.50718193974E+03 0.  0.
        2    1    3    3  502    0  0.90291148900E+02 -0.23055546816E+03 -0.15653239197E+03  0.29293464324E+03  0.25500000920E-02 0.  1.
       -2    1    3    3    0  502 -0.90291148900E+02  0.23055546816E+03 -0.30458538613E+03  0.39253098339E+03  0.25500000920E-02 0. -1.
</event>
<event>
 5   0  0.9868500E-02  0.5362918E+03  0.7818609E-02  0.1004718E+00
        3   -1    0    0  501    0  0.00000000000E+00  0.00000000000E+00  0.11860305154E+03  0.11860309454E+03  0.10100000352E+00 0.  1.
       -3   -1    0    0    0  501  0.00000000000E+00  0.00000000000E+00 -0.60624246128E+03  0.60624246969E+03  0.10100000352E+00 0. -1.
    10030    2    1    2    0    0  0.00000000000E+00  0.00000000000E+00 -0.48763940974E+03  0.72484556423E+03  0.53629180308E+03 0.  0.
        4    1    3    3  502    0 -0.24672704314E+03 -0.98450799136E+02 -0.29318168866E+03  0.39563102650E+03  0.12699999809E+01 0. -1.
       -4    1    3    3    0  502  0.24672704314E+03  0.98450799136E+02 -0.19445772108E+03  0.32921453773E+03  0.12699999809E+01 0.  1.
</event>
<event>
 5   0  0.1448458E-01  0.4940785E+03  0.7818609E-02  0.1015336E+00
       -1   -1    0    0    0  501  0.00000000000E+00  0.00000000000E+00  0.18149971014E+03  0.18149971021E+03  0.50400001928E-02 0. -1.
        1   -1    0    0  501    0  0.00000000000E+00  0.00000000000E+00 -0.33624506756E+03  0.33624506760E+03  0.50400001928E-02 0.  1.
    10030    2    1    2    0    0  0.00000000000E+00  0.00000000000E+00 -0.15474535743E+03  0.51774477781E+03  0.49407846472E+03 0.  0.
        5    1    3    3  502    0 -0.10508428576E+03  0.79443371838E+01  0.15671153807E+03  0.18890848517E+03  0.46999998093E+01 0. -1.
       -5    1    3    3    0  502  0.10508428576E+03 -0.79443371838E+01 -0.31145689549E+03  0.32883629264E+03  0.46999998093E+01 0.  1.
</event>
<event>
 5   0  0.9868500E-02  0.5051091E+03  0.7818609E-02  0.1012454E+00
       -3   -1    0    0    0  501  0.00000000000E+00  0.00000000000E+00  0.99042642161E+02  0.99042693659E+02  0.10100000352E+00 0. -1.
        3   -1    0    0  501    0  0.00000000000E+00  0.00000000000E+00 -0.64400315859E+03  0.64400316651E+03  0.10100000352E+00 0.  1.
    10030    2    1    2    0    0  0.00000000000E+00  0.00000000000E+00 -0.54496051643E+03  0.74304586017E+03  0.50510908312E+03 0.  0.
        3    1    3    3  502    0 -0.14943858135E+03  0.15277935311E+03 -0.47044782871E+03  0.51671519242E+03  0.10100000352E+00 0.  1.
       -3    1    3    3    0  502  0.14943858135E+03 -0.15277935311E+03 -0.74512687722E+02  0.22633066776E+03  0.10100000352E+00 0. -1.
</event>
<event>
 5   0  0.2488968E-01  0.5036753E+03  0.7818609E-02  0.1012824E+00
        2   -1    0    0  501    0  0.00000000000E+00  0.00000000000E+00  0.61987207559E+03  0.61987207559E+03  0.25500000920E-02 0.  1.
       -2   -1    0    0    0  501  0.00000000000E+00  0.00000000000E+00 -0.10231499449E+03  0.10231499452E+03  0.25500000920E-02 0. -1.
    10030    2    1    2    0    0  0.00000000000E+00  0.00000000000E+00  0.51755708110E+03  0.72218707011E+03  0.50367532403E+03 0.  0.
        2    1    3    3  502    0  0.13275346919E+03  0.31874353240E+02 -0.44648592589E+02  0.14364175856E+03  0.25500000920E-02 0. -1.
       -2    1    3    3    0  502 -0.13275346919E+03 -0.31874353240E+02  0.56220567369E+03  0.57854531155E+03  0.25500000920E-02 0.  1.
</event>
<event>
 5   0  0.1439814E-01  0.4894386E+03  0.7818609E-02  0.1016573E+00
       -1   -1    0    0    0  501  0.00000000000E+00  0.00000000000E+00  0.23746567232E+03  0.23746567237E+03  0.50400001928E-02 0.  1.
        1   -1    0    0  501    0  0.00000000000E+00  0.00000000000E+00 -0.25219452012E+03  0.25219452017E+03  0.50400001928E-02 0. -1.
    10030    2    1    2    0    0  0.00000000000E+00  0.00000000000E+00 -0.14728847796E+02  0.48966019254E+03  0.48943862250E+03 0.  0.
        4    1    3    3  502    0 -0.40046146810E+02  0.19260241495E+03  0.13825745297E+03  0.24044982911E+03  0.12699999809E+01 0.  1.
       -4    1    3    3    0  502  0.40046146810E+02 -0.19260241495E+03 -0.15298630077E+03  0.24921036343E+03  0.12699999809E+01 0. -1.
</event>
<event>
 5   0  0.1529146E-01  0.5019739E+03  0.7818609E-02  0.1013265E+00
        1   -1    0    0  501    0  0.00000000000E+00  0.00000000000E+00  0.17713365358E+04  0.17713365358E+04  0.50400001928E-02 0. -1.
       -1   -1    0    0    0  501  0.00000000000E+00  0.00000000000E+00 -0.35563229777E+02  0.35563230134E+02  0.50400001928E-02 0.  1.
    10030    2    1    2    0    0  0.00000000000E+00  0.00000000000E+00  0.17357733061E+04  0.18068997660E+04  0.50197389799E+03 0.  0.
        1    1    3    3  502    0 -0.50348543982E+01 -0.22631743237E+03  0.47770848708E+03  0.52863061641E+03  0.50400001928E-02 0.  1.
       -1    1    3    3    0  502  0.50348543982E+01  0.22631743237E+03  0.12580648190E+04  0.12782691496E+04  0.50400001928E-02 0. -1.
</event>
<event>
 5   0  0.1529146E-01  0.5000200E+03  0.7818609E-02  0.1013774E+00
       -1   -1    0    0    0  501  0.00000000000E+00  0.00000000000E+00  0.36725086284E+03  0.36725086288E+03  0.50400001928E-02 0. -1.
        1   -1    0    0  501    0  0.00000000000E+00  0.00000000000E+00 -0.17019702744E+03  0.17019702752E+03  0.50400001928E-02 0.  1.
    10030    2    1    2    0    0  0.00000000000E+00  0.00000000000E+00  0.19705383540E+03  0.53744789040E+03  0.50002002044E+03 0.  0.
        1    1    3    3  502    0 -0.11547243838E+03  0.12794221074E+02  0.33647375078E+03  0.35596651684E+03  0.50400001928E-02 0. -1.
       -1    1    3    3    0  502  0.11547243838E+03 -0.12794221074E+02 -0.13941991538E+03  0.18148137356E+03  0.50400001928E-02 0.  1.
</event>
<event>
 5   0  0.9868500E-02  0.4751961E+03  0.7818609E-02  0.1020464E+00
       -3   -1    0    0    0  501  0.00000000000E+00  0.00000000000E+00  0.15007982473E+03  0.15007985872E+03  0.10100000352E+00 0. -1.
        3   -1    0    0  501    0  0.00000000000E+00  0.00000000000E+00 -0.37615193102E+03  0.37615194458E+03  0.10100000352E+00 0.  1.
    10030    2    1    2    0    0  0.00000000000E+00  0.00000000000E+00 -0.22607210629E+03  0.52623180329E+03  0.47519607906E+03 0.  0.
        2    1    3    3  502    0  0.97798327256E+02 -0.15098010305E+03 -0.28492684169E+03  0.33696113938E+03  0.25500000920E-02 0. -1.
       -2    1    3    3    0  502 -0.97798327256E+02  0.15098010305E+03  0.58854735404E+02  0.18927066391E+03  0.25500000920E-02 0.  1.
</event>
<event>
 5   0  0.2413301E-01  0.5015116E+03  0.7818609E-02  0.1013385E+00
        2   -1    0    0  501    0  0.00000000000E+00  0.00000000000E+00  0.95343966816E+03  0.95343966816E+03  0.25500000920E-02 0.  1.
       -2   -1    0    0    0  501  0.00000000000E+00  0.00000000000E+00 -0.65949090839E+02  0.65949090889E+02  0.25500000920E-02 0. -1.
    10030    2    1    2    0    0  0.00000000000E+00  0.00000000000E+00  0.88749057732E+03  0.10193887590E+04  0.50151163222E+03 0.  0.
        4    1    3    3  502    0  0.17122214597E+02 -0.13087949448E+03  0.87710256930E+03  0.88697978685E+03  0.12699999809E+01 0.  1.
       -4    1    3    3    0  502 -0.17122214597E+02  0.13087949448E+03  0.10388008015E+02  0.13240897220E+03  0.12699999809E+01 0. -1.
</event>
<event>
 5   0  0.1529146E-01  0.4757336E+03  0.7818609E-02  0.1020314E+00
        1   -1    0    0  501    0  0.00000000000E+00  0.00000000000E+00  0.54422758952E+03  0.54422758954E+03  0.50400001928E-02 0.  1.
       -1   -1    0    0    0  501  0.00000000000E+00  0.00000000000E+00 -0.10396500836E+03  0.10396500848E+03  0.50400001928E-02 0. -1.
    10030    2    1    2    0    0  0.00000000000E+00  0.00000000000E+00  0.44026258116E+03  0.64819259803E+03  0.47573364793E+03 0.  0.
        1    1    3    3  502    0  0.86010951617E+02 -0.17087742615E+03  0.27521847090E+02  0.19327294342E+03  0.50400001928E-02 0. -1.
       -1    1    3    3    0  502 -0.86010951617E+02  0.17087742615E+03  0.41274073407E+03  0.45491965461E+03  0.50400001928E-02 0.  1.
</event>
<event>
 5   0  0.2413301E-01  0.4887414E+03  0.7818609E-02  0.1016760E+00
       -2   -1    0    0    0  501  0.00000000000E+00  0.00000000000E+00  0.21278017614E+03  0.21278017615E+03  0.25500000920E-02 0.  1.
        2   -1    0    0  501    0  0.00000000000E+00  0.00000000000E+00 -0.28065138018E+03  0.28065138019E+03  0.25500000920E-02 0. -1.
    10030    2    1    2    0    0  0.00000000000E+00  0.00000000000E+00 -0.67871204044E+02  0.49343155634E+03  0.48874144540E+03 0.  0.
        4    1    3    3  502    0 -0.11045327183E+03  0.20192885830E+03  0.48951259240E+02  0.23531474190E+03  0.12699999809E+01 0. -1.
       -4    1    3    3    0  502  0.11045327183E+03 -0.20192885830E+03 -0.11682246328E+03  0.25811681445E+03  0.12699999809E+01 0.  1.
</event>
<event>
 5   0  0.2466034E-01  0.5015442E+03  0.7818609E-02  0.1013377E+00
        2   -1    0    0  501    0  0.00000000000E+00  0.00000000000E+00  0.53494515946E+03  0.53494515946E+03  0.25500000920E-02 0.  1.
       -2   -1    0    0    0  501  0.00000000000E+00  0.00000000000E+00 -0.11755720554E+03  0.11755720557E+03  0.25500000920E-02 0. -1.
    10030    2    1    2    0    0  0.00000000000E+00  0.00000000000E+00  0.41738795392E+03  0.65250236503E+03  0.50154424760E+03 0.  0.
        3    1    3    3  502    0 -0.62741198560E+02 -0.18716411644E+03  0.74830982154E+01  0.19754207511E+03  0.10100000352E+00 0. -1.
       -3    1    3    3    0  502  0.62741198560E+02  0.18716411644E+03  0.40990485570E+03  0.45496028992E+03  0.10100000352E+00 0.  1.
</event>
<event>
 5   0  0.2511944E-01  0.5119210E+03  0.7818609E-02  0.1010713E+00
       -2   -1    0    0    0  501  0.00000000000E+00  0.00000000000E+00  0.30162582921E+03  0.30162582922E+03  0.25500000920E-02 0.  1.
        2   -1    0    0  501    0  0.00000000000E+00  0.00000000000E+00 -0.21720880474E+03  0.21720880475E+03  0.25500000920E-02 0. -1.
    10030    2    1    2    0    0  0.00000000000E+00  0.00000000000E+00  0.84417024472E+02  0.51883463397E+03  0.51192103237E+03 0.  0.
        1    1    3    3  502    0  0.38852327412E+02  0.25298838831E+03  0.44009546591E+02  0.25971035440E+03  0.50400001928E-02 0. -1.
       -1    1    3    3    0  502 -0.38852327412E+02 -0.25298838831E+03  0.40407477881E+02  0.25912427957E+03  0.50400001928E-02 0.  1.
</event>
<event>
 5   0  0.2413301E-01  0.4863576E+03  0.7818609E-02  0.1017402E+00
        2   -1    0    0  501    0  0.00000000000E+00  0.00000000000E+00  0.17259464231E+03  0.17259464233E+03  0.25500000920E-02 0.  1.
       -2   -1    0    0    0  501  0.00000000000E+00  0.00000000000E+00 -0.34262894318E+03  0.34262894319E+03  0.25500000920E-02 0. -1.
    10030    2    1    2    0    0  0.00000000000E+00  0.00000000000E+00 -0.17003430087E+03  0.51522358552E+03  0.48635756353E+03 0.  0.
        4    1    3    3  502    0  0.11782640059E+03  0.81326646389E+02  0.12321271249E+03  0.18889168724E+03  0.12699999809E+01 0.  1.
       -4    1    3    3    0  502 -0.11782640059E+03 -0.81326646389E+02 -0.29324701336E+03  0.32633189828E+03  0.12699999809E+01 0. -1.
</event>
<event>
 5   0  0.1529146E-01  0.4949258E+03  0.7818609E-02  0.1015112E+00
       -1   -1    0    0    0  501  0.00000000000E+00  0.00000000000E+00  0.38534806414E+02  0.38534806744E+02  0.50400001928E-02 0. -1.
        1   -1    0    0  501    0  0.00000000000E+00  0.00000000000E+00 -0.15891575887E+04  0.15891575888E+04  0.50400001928E-02 0.  1.
    10030    2    1    2    0    0  0.00000000000E+00  0.00000000000E+00 -0.15506227823E+04  0.16276923955E+04  0.49492577350E+03 0.  0.
        1    1    3    3  502    0 -0.71273729935E+02 -0.20788765637E+03 -0.11494309767E+04  0.11702515937E+04  0.50400001928E-02 0.  1.
       -1    1    3    3    0  502  0.71273729935E+02  0.20788765637E+03 -0.40119180562E+03  0.45744080183E+03  0.50400001928E-02 0. -1.
</event>
<event>
 5   0  0.2466034E-01  0.4875915E+03  0.7818609E-02  0.1017069E+00
       -2   -1    0    0    0  501  0.00000000000E+00  0.00000000000E+00  0.46465193517E+02  0.46465193587E+02  0.25500000920E-02 0. -1.
        2   -1    0    0  501    0  0.00000000000E+00  0.00000000000E+00 -0.12791588439E+04  0.12791588439E+04  0.25500000920E-02 0.  1.
    10030    2    1    2    0    0  0.00000000000E+00  0.00000000000E+00 -0.12326936504E+04  0.13256240375E+04  0.48759148176E+03 0.  0.
        3    1    3    3  502    0  0.11309818950E+03 -0.21392610280E+03 -0.53566108548E+03  0.58778260150E+03  0.10100000352E+00 0. -1.
       -3    1    3    3    0  502 -0.11309818950E+03  0.21392610280E+03 -0.69703256492E+03  0.73784143601E+03  0.10100000352E+00 0.  1.
</event>
<event>
 5   0  0.1529146E-01  0.5124200E+03  0.7818609E-02  0.1010587E+00
       -1   -1    0    0    0  501  0.00000000000E+00  0.00000000000E+00  0.85580333180E+02  0.85580333329E+02  0.50400001928E-02 0. -1.
        1   -1    0    0  501    0  0.00000000000E+00  0.00000000000E+00 -0.76704015833E+03  0.76704015835E+03  0.50400001928E-02 0.  1.
    10030    2    1    2    0    0  0.00000000000E+00  0.00000000000E+00 -0.68145982515E+03  0.85262049168E+03  0.51241995427E+03 0.  0.
        1    1    3    3  502    0  0.18393840159E+03 -0.16863081826E+03 -0.24408176973E+03  0.34906388926E+03  0.50400001928E-02 0. -1.
       -1    1    3    3    0  502 -0.18393840159E+03  0.16863081826E+03 -0.43737805542E+03  0.50355660242E+03  0.50400001928E-02 0.  1.
</event>
<event>
 5   0  0.9868500E-02  0.5034176E+03  0.7818609E-02  0.1012891E+00
        3   -1    0    0  501    0  0.00000000000E+00  0.00000000000E+00  0.10903263079E+03  0.10903267757E+03  0.10100000352E+00 0. -1.
       -3   -1    0    0    0  501  0.00000000000E+00  0.00000000000E+00 -0.58108564094E+03  0.58108564972E+03  0.10100000352E+00 0.  1.
    10030    2    1    2    0    0  0.00000000000E+00  0.00000000000E+00 -0.47205301014E+03  0.69011832729E+03  0.50341758141E+03 0.  0.
        5    1    3    3  502    0 -0.10356532747E+03 -0.13741849918E+03  0.15726725692E+02  0.17285554914E+03  0.46999998093E+01 0. -1.
       -5    1    3    3    0  502  0.10356532747E+03  0.13741849918E+03 -0.48777973584E+03  0.51726277815E+03  0.46999998093E+01 0.  1.
</event>
<event>
 5   0  0.2413301E-01  0.5057109E+03  0.7818609E-02  0.1012299E+00
        2   -1    0    0  501    0  0.00000000000E+00  0.00000000000E+00  0.95534770518E+03  0.95534770518E+03  0.25500000920E-02 0. -1.
       -2   -1    0    0    0  501  0.00000000000E+00  0.00000000000E+00 -0.66924192796E+02  0.66924192845E+02  0.25500000920E-02 0.  1.
    10030    2    1    2    0    0  0.00000000000E+00  0.00000000000E+00  0.88842351238E+03  0.10222718980E+04  0.50571088197E+03 0.  0.
        4    1    3    3  502    0  0.58335359055E+01 -0.25007052141E+03  0.36952820995E+03  0.44623088942E+03  0.12699999809E+01 0.  1.
       -4    1    3    3    0  502 -0.58335359055E+01  0.25007052141E+03  0.51889530243E+03  0.57604100861E+03  0.12699999809E+01 0. -1.
</event>
<event>
 5   0  0.2488968E-01  0.5315364E+03  0.7818609E-02  0.1005860E+00
       -2   -1    0    0    0  501  0.00000000000E+00  0.00000000000E+00  0.96264367074E+02  0.96264367108E+02  0.25500000920E-02 0.  1.
        2   -1    0    0  501    0  0.00000000000E+00  0.00000000000E+00 -0.73373695769E+03  0.73373695769E+03  0.25500000920E-02 0. -1.
    10030    2    1    2    0    0  0.00000000000E+00  0.00000000000E+00 -0.63747259061E+03  0.83000132480E+03  0.53153635378E+03 0.  0.
        2    1    3    3  502    0  0.78669189968E+02 -0.22219429236E+03 -0.51045037138E+03  0.56224436561E+03  0.25500000920E-02 0. -1.
       -2    1    3    3    0  502 -0.78669189968E+02  0.22219429236E+03 -0.12702221923E+03  0.26775695919E+03  0.25500000920E-02 0.  1.
</event>
<event>
 5   0  0.2511944E-01  0.5113388E+03  0.7818609E-02  0.1010861E+00
       -2   -1    0    0    0  501  0.00000000000E+00  0.00000000000E+00  0.10417018680E+03  0.10417018683E+03  0.25500000920E-02 0. -1.
        2   -1    0    0  501    0  0.00000000000E+00  0.00000000000E+00 -0.62750035746E+03  0.62750035746E+03  0.25500000920E-02 0.  1.
    10030    2    1    2    0    0  0.00000000000E+00  0.00000000000E+00 -0.52333017066E+03  0.73167054429E+03  0.51133875059E+03 0.  0.
        1    1    3    3  502    0  0.94507598668E+02  0.11072135637E+03  0.39080796341E+02  0.15072562367E+03  0.50400001928E-02 0. -1.
       -1    1    3    3    0  502 -0.94507598668E+02 -0.11072135637E+03 -0.56241096700E+03  0.58094492062E+03  0.50400001928E-02 0.  1.
</event>
<event>
 5   0  0.2466034E-01  0.5048020E+03  0.7818609E-02  0.1012533E+00
       -2   -1    0    0    0  501  0.00000000000E+00  0.00000000000E+00  0.32735252544E+03  0.32735252545E+03  0.25500000920E-02 0. -1.
        2   -1    0    0  501    0  0.00000000000E+00  0.00000000000E+00 -0.19461055783E+03  0.19461055784E+03  0.25500000920E-02 0.  1.
    10030    2    1    2    0    0  0.00000000000E+00  0.00000000000E+00  0.13274196761E+03  0.52196308329E+03  0.50480197142E+03 0.  0.
        3    1    3    3  502    0  0.17868896893E+03  0.16007584481E+03  0.14747358885E+03  0.28160698378E+03  0.10100000352E+00 0. -1.
       -3    1    3    3    0  502 -0.17868896893E+03 -0.16007584481E+03 -0.14731621235E+02  0.24035609951E+03  0.10100000352E+00 0.  1.
</event>
<event>
 5   0  0.9868500E-02  0.4944563E+03  0.7818609E-02  0.1015236E+00
        3   -1    0    0  501    0  0.00000000000E+00  0.00000000000E+00  0.48143124688E+02  0.48143230632E+02  0.10100000352E+00 0.  1.
       -3   -1    0    0    0  501  0.00000000000E+00  0.00000000000E+00 -0.12695830337E+04  0.12695830377E+04  0.10100000352E+00 0. -1.
    10030    2    1    2    0    0  0.00000000000E+00  0.00000000000E+00 -0.12214399090E+04  0.13177262683E+04  0.49445633474E+03 0.  0.
        2    1    3    3  502    0 -0.60334842980E+02  0.23973870396E+03 -0.61768335272E+03  0.66531771635E+03  0.25500000920E-02 0.  1.
       -2    1    3    3    0  502  0.60334842980E+02 -0.23973870396E+03 -0.60375655628E+03  0.65240855199E+03  0.25500000920E-02 0. -1.
</event>
<event>
 5   0  0.2488968E-01  0.4546444E+03  0.7818609E-02  0.1026346E+00
        2   -1    0    0  501    0  0.00000000000E+00  0.00000000000E+00  0.41517950502E+03  0.41517950503E+03  0.25500000920E-02 0.  1.
       -2   -1    0    0    0  501  0.00000000000E+00  0.00000000000E+00 -0.12446513888E+03  0.12446513891E+03  0.25500000920E-02 0. -1.
    10030    2    1    2    0    0  0.00000000000E+00  0.00000000000E+00  0.29071436614E+03  0.53964464393E+03  0.45464436546E+03 0.  0.
        2    1    3    3  502    0  0.10962153072E+03 -0.18587227235E+03  0.23020608297E+03  0.31553165019E+03  0.25500000920E-02 0.  1.
       -2    1    3    3    0  502 -0.10962153072E+03  0.18587227235E+03  0.60508283172E+02  0.22411299375E+03  0.25500000920E-02 0. -1.
</event>
<event>
 5   0  0.1453602E-01  0.4877908E+03  0.7818609E-02  0.1017016E+00
        1   -1    0    0  501    0  0.00000000000E+00  0.00000000000E+00  0.10412265388E+04  0.10412265389E+04  0.50400001928E-02 0.  1.
       -1   -1    0    0    0  501  0.00000000000E+00  0.00000000000E+00 -0.57129711306E+02  0.57129711528E+02  0.50400001928E-02 0. -1.
    10030    2    1    2    0    0  0.00000000000E+00  0.00000000000E+00  0.98409682754E+03  0.10983562504E+04  0.48779082278E+03 0.  0.
        2    1    3    3  502    0  0.19508969408E+01  0.14060634025E+03  0.43339045630E+02  0.14714693948E+03  0.25500000920E-02 0. -1.
       -2    1    3    3    0  502 -0.19508969408E+01 -0.14060634025E+03  0.94075778191E+03  0.95120931090E+03  0.25500000920E-02 0.  1.
</event>
<event>
 5   0  0.1453602E-01  0.4924468E+03  0.7818609E-02  0.1015769E+00
       -1   -1    0    0    0  501  0.00000000000E+00  0.00000000000E+00  0.12868169523E+03  0.12868169532E+03  0.50400001928E-02 0.  1.
        1   -1    0    0  501    0  0.00000000000E+00  0.00000000000E+00 -0.47113125365E+03  0.47113125368E+03  0.50400001928E-02 0. -1.
    10030    2    1    2    0    0  0.00000000000E+00  0.00000000000E+00 -0.34244955843E+03  0.59981294901E+03  0.49244682325E+03 0.  0.
        2    1    3    3  502    0 -0.84679176611E+02  0.20526687819E+03 -0.30082246498E+03  0.37389732505E+03  0.25500000920E-02 0. -1.
       -2    1    3    3    0  502  0.84679176611E+02 -0.20526687819E+03 -0.41627093445E+02  0.22591562396E+03  0.25500000920E-02 0.  1.
</event>
<event>
 5   0  0.1439814E-01  0.5024484E+03  0.7818609E-02  0.1013142E+00
        1   -1    0    0  501    0  0.00000000000E+00  0.00000000000E+00  0.95056823032E+03  0.95056823033E+03  0.50400001928E-02 0. -1.
       -1   -1    0    0    0  501  0.00000000000E+00  0.00000000000E+00 -0.66395660125E+02  0.66395660316E+02  0.50400001928E-02 0.  1.
    10030    2    1    2    0    0  0.00000000000E+00  0.00000000000E+00  0.88417257019E+03  0.10169638906E+04  0.50244842621E+03 0.  0.
        4    1    3    3  502    0  0.12145107919E+02 -0.18485888601E+03  0.98648912401E+02  0.20988933323E+03  0.12699999809E+01 0.  1.
       -4    1    3    3    0  502 -0.12145107919E+02  0.18485888601E+03  0.78552365779E+03  0.80707455742E+03  0.12699999809E+01 0. -1.
</event>
<event>
 5   0  0.1448458E-01  0.4948075E+03  0.7818609E-02  0.1015143E+00
       -1   -1    0    0    0  501  0.00000000000E+00  0.00000000000E+00  0.14433210765E+03  0.14433210774E+03  0.50400001928E-02 0. -1.
        1   -1    0    0  501    0  0.00000000000E+00  0.00000000000E+00 -0.42408173967E+03  0.42408173970E+03  0.50400001928E-02 0.  1.
    10030    2    1    2    0    0  0.00000000000E+00  0.00000000000E+00 -0.27974963202E+03  0.56841384744E+03  0.49480748311E+03 0.  0.
        5    1    3    3  502    0 -0.31011092564E+02 -0.27422969250E+02  0.14027325429E+03  0.14632970639E+03  0.46999998093E+01 0. -1.
       -5    1    3    3    0  502  0.31011092564E+02  0.27422969250E+02 -0.42002288631E+03  0.42208414105E+03  0.46999998093E+01 0.  1.
</event>
<event>
 5   0  0.1448458E-01  0.4831850E+03  0.7818609E-02  0.1018264E+00
        1   -1    0    0  501    0  0.00000000000E+00  0.00000000000E+00  0.17122749840E+03  0.17122749847E+03  0.50400001928E-02 0. -1.
       -1   -1    0    0    0  501  0.00000000000E+00  0.00000000000E+00 -0.34087356458E+03  0.34087356462E+03  0.50400001928E-02 0.  1.
    10030    2    1    2    0    0  0.00000000000E+00  0.00000000000E+00 -0.16964606619E+03  0.51210106309E+03  0.48318496566E+03 0.  0.
        5    1    3    3  502    0 -0.76012213563E+02 -0.12212840111E+03 -0.29047562312E+03  0.32417800757E+03  0.46999998093E+01 0.  1.
       -5    1    3    3    0  502  0.76012213563E+02  0.12212840111E+03  0.12082955693E+03  0.18792305552E+03  0.46999998093E+01 0. -1.
</event>
<event>
 5   0  0.9868500E-02  0.4980744E+03  0.7818609E-02  0.1014283E+00
       -3   -1    0    0    0  501  0.00000000000E+00  0.00000000000E+00  0.21477150104E+03  0.21477152479E+03  0.10100000352E+00 0. -1.
        3   -1    0    0  501    0  0.00000000000E+00  0.00000000000E+00 -0.28876981184E+03  0.28876982951E+03  0.10100000352E+00 0.  1.
    10030    2    1    2    0    0  0.00000000000E+00  0.00000000000E+00 -0.73998310801E+02  0.50354135430E+03  0.49807443770E+03 0.  0.
        5    1    3    3  502    0  0.25382447391E+02 -0.23979764259E+03  0.25732448223E+02  0.24255190562E+03  0.46999998093E+01 0. -1.
       -5    1    3    3    0  502 -0.25382447391E+02  0.23979764259E+03 -0.99730759024E+02  0.26098944868E+03  0.46999998093E+01 0.  1.
</event>
<event>
 5   0  0.2466034E-01  0.5006739E+03  0.7818609E-02  0.1013603E+00
       -2   -1    0    0    0  501  0.00000000000E+00  0.00000000000E+00  0.46259035123E+03  0.46259035123E+03  0.25500000920E-02 0. -1.
        2   -1    0    0  501    0  0.00000000000E+00  0.00000000000E+00 -0.13547318021E+03  0.13547318024E+03  0.25500000920E-02 0.  1.
    10030    2    1    2    0    0  0.00000000000E+00  0.00000000000E+00  0.32711717101E+03  0.59806353147E+03  0.50067388997E+03 0.  0.
        3    1    3    3  502    0 -0.22817744405E+03 -0.27831510835E+02  0.45132367777E+02  0.23425729399E+03  0.10100000352E+00 0.  1.
       -3    1    3    3    0  502  0.22817744405E+03  0.27831510835E+02  0.28198480324E+03  0.36380623747E+03  0.10100000352E+00 0. -1.
</event>
<event>
 5   0  0.2466034E-01  0.5103981E+03  0.7818609E-02  0.1011100E+00
       -2   -1    0    0    0  501  0.00000000000E+00  0.00000000000E+00  0.31181775475E+02  0.31181775579E+02  0.25500000920E-02 0. -1.
        2   -1    0    0  501    0  0.00000000000E+00  0.00000000000E+00 -0.20886095052E+04  0.20886095052E+04  0.25500000920E-02 0.  1.
    10030    2    1    2    0    0  0.00000000000E+00  0.00000000000E+00 -0.20574277297E+04  0.21197912808E+04  0.51039809074E+03 0.  0.
        3    1    3    3  502    0 -0.99136634957E+02  0.61926236765E+00 -0.20053642211E+04  0.20078132695E+04  0.10100000352E+00 0.  1.
       -3    1    3    3    0  502  0.99136634957E+02 -0.61926236765E+00 -0.52063508681E+02  0.11197801130E+03  0.10100000352E+00 0. -1.
</event>
<event>
 5   0  0.1448458E-01  0.4908347E+03  0.7818609E-02  0.1016199E+00
        1   -1    0    0  501    0  0.00000000000E+00  0.00000000000E+00  0.11246059924E+03  0.11246059935E+03  0.50400001928E-02 0. -1.
       -1   -1    0    0    0  501  0.00000000000E+00  0.00000000000E+00 -0.53556248954E+03  0.53556248956E+03  0.50400001928E-02 0.  1.
    10030    2    1    2    0    0  0.00000000000E+00  0.00000000000E+00 -0.42310189030E+03  0.64802308892E+03  0.49083471169E+03 0.  0.
        5    1    3    3  502    0 -0.11531016940E+03 -0.20654782399E+02 -0.49619980551E+03  0.50986213057E+03  0.46999998093E+01 0.  1.
       -5    1    3    3    0  502  0.11531016940E+03  0.20654782399E+02  0.73097915217E+02  0.13816095834E+03  0.46999998093E+01 0. -1.
</event>
<event>
 5   0  0.2511944E-01  0.5041805E+03  0.7818609E-02  0.1012693E+00
        2   -1    0    0  501    0  0.00000000000E+00  0.00000000000E+00  0.49796328922E+03  0.49796328923E+03  0.25500000920E-02 0.  1.
       -2   -1    0    0    0  501  0.00000000000E+00  0.00000000000E+00 -0.12761883936E+03  0.12761883939E+03  0.25500000920E-02 0. -1.
    10030    2    1    2    0    0  0.00000000000E+00  0.00000000000E+00  0.37034444986E+03  0.62558212861E+03  0.50418051142E+03 0.  0.
        1    1    3    3  502    0  0.10393382946E+02 -0.20554214622E+03  0.36580798332E+03  0.41972738411E+03  0.50400001928E-02 0.  1.
       -1    1    3    3    0  502 -0.10393382946E+02  0.20554214622E+03  0.45364665360E+01  0.20585474450E+03  0.50400001928E-02 0. -1.
</event>
<event>
 5   0  0.1453602E-01  0.4923261E+03  0.7818609E-02  0.1015802E+00
        1   -1    0    0  501    0  0.00000000000E+00  0.00000000000E+00  0.81637389029E+03  0.81637389030E+03  0.50400001928E-02 0. -1.
       -1   -1    0    0    0  501  0.00000000000E+00  0.00000000000E+00 -0.74226097376E+02  0.74226097547E+02  0.50400001928E-02 0.  1.
    10030    2    1    2    0    0  0.00000000000E+00  0.00000000000E+00  0.74214779291E+03  0.89059998785E+03  0.49232610314E+03 0.  0.
        2    1    3    3  502    0 -0.19484980325E+02  0.89096645099E+02  0.78468372165E+03  0.78996608766E+03  0.25500000920E-02 0. -1.
       -2    1    3    3    0  502  0.19484980325E+02 -0.89096645099E+02 -0.42535928742E+02  0.10063390019E+03  0.25500000920E-02 0.  1.
</event>
<event>
 5   0  0.2466034E-01  0.5111115E+03  0.7818609E-02  0.1010919E+00
        2   -1    0    0  501    0  0.00000000000E+00  0.00000000000E+00  0.25896669794E+04  0.25896669794E+04  0.25500000920E-02 0.  1.
       -2   -1    0    0    0  501  0.00000000000E+00  0.00000000000E+00 -0.25218972304E+02  0.25218972433E+02  0.25500000920E-02 0. -1.
    10030    2    1    2    0    0  0.00000000000E+00  0.00000000000E+00  0.25644480071E+04  0.26148859519E+04  0.51111149469E+03 0.  0.
        3    1    3    3  502    0  0.21252692059E+03  0.10433535663E+03  0.17744100890E+04  0.17901353951E+04  0.10100000352E+00 0. -1.
       -3    1    3    3    0  502 -0.21252692059E+03 -0.10433535663E+03  0.79003791817E+03  0.82475055681E+03  0.10100000352E+00 0.  1.
</event>
<event>
 5   0  0.2413301E-01  0.5081789E+03  0.7818609E-02  0.1011666E+00
       -2   -1    0    0    0  501  0.00000000000E+00  0.00000000000E+00  0.90557434035E+02  0.90557434071E+02  0.25500000920E-02 0. -1.
        2   -1    0    0  501    0  0.00000000000E+00  0.00000000000E+00 -0.71293378768E+03  0.71293378768E+03  0.25500000920E-02 0.  1.
    10030    2    1    2    0    0  0.00000000000E+00  0.00000000000E+00 -0.62237635364E+03  0.80349122175E+03  0.50817892308E+03 0.  0.
        4    1    3    3  502    0 -0.50422451814E+02  0.38464645591E+02  0.77837371989E+02  0.10041026833E+03  0.12699999809E+01 0. -1.
       -4    1    3    3    0  502  0.50422451814E+02 -0.38464645591E+02 -0.70021372563E+03  0.70308095342E+03  0.12699999809E+01 0.  1.
</event>
<event>
 5   0  0.2504064E-01  0.4990995E+03  0.7818609E-02  0.1014014E+00
       -2   -1    0    0    0  501  0.00000000000E+00  0.00000000000E+00  0.78758363296E+02  0.78758363337E+02  0.25500000920E-02 0. -1.
        2   -1    0    0  501    0  0.00000000000E+00  0.00000000000E+00 -0.79071051929E+03  0.79071051929E+03  0.25500000920E-02 0.  1.
    10030    2    1    2    0    0  0.00000000000E+00  0.00000000000E+00 -0.71195215599E+03  0.86946888263E+03  0.49909945446E+03 0.  0.
        5    1    3    3  502    0 -0.25450635774E+02 -0.22781765142E+03 -0.52758915576E+03  0.57525735496E+03  0.46999998093E+01 0.  1.
       -5    1    3    3    0  502  0.25450635774E+02  0.22781765142E+03 -0.18436300023E+03  0.29421152767E+03  0.46999998093E+01 0. -1.
</event>
<event>
 5   0  0.1529146E-01  0.4846892E+03  0.7818609E-02  0.1017854E+00
       -1   -1    0    0    0  501  0.00000000000E+00  0.00000000000E+00  0.77573441389E+02  0.77573441552E+02  0.50400001928E-02 0. -1.
        1   -1    0    0  501    0  0.00000000000E+00  0.00000000000E+00 -0.75710058146E+03  0.75710058148E+03  0.50400001928E-02 0.  1.
    10030    2    1    2    0    0  0.00000000000E+00  0.00000000000E+00 -0.67952714007E+03  0.83467402303E+03  0.48468916908E+03 0.  0.
        1    1    3    3  502    0 -0.10351625980E+03  0.57644666486E+02 -0.70382133180E+03  0.71372473037E+03  0.50400001928E-02 0.  1.
       -1    1    3    3    0  502  0.10351625980E+03 -0.57644666486E+02  0.24294191731E+02  0.12094929266E+03  0.50400001928E-02 0. -1.
</event>
<event>
 5   0  0.9868500E-02  0.4830782E+03  0.7818609E-02  0.1018293E+00
       -3   -1    0    0    0  501  0.00000000000E+00  0.00000000000E+00  0.63139675471E+02  0.63139756252E+02  0.10100000352E+00 0. -1.
        3   -1    0    0  501    0  0.00000000000E+00  0.00000000000E+00 -0.92400062141E+03  0.92400062693E+03  0.10100000352E+00 0.  1.
    10030    2    1    2    0    0  0.00000000000E+00  0.00000000000E+00 -0.86086094594E+03  0.98714038319E+03  0.48307822127E+03 0.  0.
        4    1    3    3  502    0 -0.15798681654E+03 -0.15386129408E+03 -0.63175212553E+03  0.66913787296E+03  0.12699999809E+01 0.  1.
       -4    1    3    3    0  502  0.15798681654E+03  0.15386129408E+03 -0.22910882041E+03  0.31800251022E+03  0.12699999809E+01 0. -1.
</event>
<event>
 5   0  0.9868500E-02  0.4767641E+03  0.7818609E-02  0.1020028E+00
       -3   -1    0    0    0  501  0.00000000000E+00  0.00000000000E+00  0.29165610340E+03  0.29165612088E+03  0.10100000352E+00 0. -1.
        3   -1    0    0  501    0  0.00000000000E+00  0.00000000000E+00 -0.19483901572E+03  0.19483904190E+03  0.10100000352E+00 0.  1.
    10030    2    1    2    0    0  0.00000000000E+00  0.00000000000E+00  0.96817087677E+02  0.48649516278E+03  0.47676408730E+03 0.  0.
        3    1    3    3  502    0  0.71643592989E+02  0.11927998220E+02 -0.18327391164E+03  0.19714060578E+03  0.10100000352E+00 0.  1.
       -3    1    3    3    0  502 -0.71643592989E+02 -0.11927998220E+02  0.28009099932E+03  0.28935455700E+03  0.10100000352E+00 0. -1.
</event>
<event>
 5   0  0.1529146E-01  0.4984382E+03  0.7818609E-02  0.1014187E+00
       -1   -1    0    0    0  501  0.00000000000E+00  0.00000000000E+00  0.11112118252E+03  0.11112118264E+03  0.50400001928E-02 0. -1.
        1   -1    0    0  501    0  0.00000000000E+00  0.00000000000E+00 -0.55894081719E+03  0.55894081721E+03  0.50400001928E-02 0.  1.
    10030    2    1    2    0    0  0.00000000000E+00  0.00000000000E+00 -0.44781963467E+03  0.67006199985E+03  0.49843821929E+03 0.  0.
        1    1    3    3  502    0  0.72025645162E+01  0.20268381747E+03 -0.29203018579E+02  0.20490344829E+03  0.50400001928E-02 0. -1.
       -1    1    3    3    0  502 -0.72025645162E+01 -0.20268381747E+03 -0.41861661609E+03  0.46515855156E+03  0.50400001928E-02 0.  1.
</event>
<event>
 5   0  0.9868500E-02  0.4946524E+03  0.7818609E-02  0.1015184E+00
        3   -1    0    0  501    0  0.00000000000E+00  0.00000000000E+00  0.27854334600E+03  0.27854336431E+03  0.10100000352E+00 0. -1.
       -3   -1    0    0    0  501  0.00000000000E+00  0.00000000000E+00 -0.21960763397E+03  0.21960765720E+03  0.10100000352E+00 0.  1.
    10030    2    1    2    0    0  0.00000000000E+00  0.00000000000E+00  0.58935712024E+02  0.49815102150E+03  0.49465242552E+03 0.  0.
        3    1    3    3  502    0  0.21492469939E+03  0.76323347679E+02 -0.66876784383E+02  0.23767707988E+03  0.10100000352E+00 0.  1.
       -3    1    3    3    0  502 -0.21492469939E+03 -0.76323347679E+02  0.12581249641E+03  0.26047394162E+03  0.10100000352E+00 0. -1.
</event>
<event>
 5   0  0.1439814E-01  0.4985005E+03  0.7818609E-02  0.1014171E+00
       -1   -1    0    0    0  501  0.00000000000E+00  0.00000000000E+00  0.62161669581E+03  0.62161669583E+03  0.50400001928E-02 0.  1.
        1   -1    0    0  501    0  0.00000000000E+00  0.00000000000E+00 -0.99942102325E+02  0.99942102452E+02  0.50400001928E-02 0. -1.
    10030    2    1    2    0    0  0.00000000000E+00  0.00000000000E+00  0.52167459349E+03  0.72155879828E+03  0.49850046930E+03 0.  0.
        4    1    3    3  502    0 -0.15836154645E+03 -0.15695065206E+03  0.99575985224E+02  0.24419024614E+03  0.12699999809E+01 0. -1.
       -4    1    3    3    0  502  0.15836154645E+03  0.15695065206E+03  0.42209860826E+03  0.47736855214E+03  0.12699999809E+01 0.  1.
</event>
<event>
 5   0  0.1413361E-01  0.5038661E+03  0.7818609E-02  0.1012775E+00
        1   -1    0    0  501    0  0.00000000000E+00  0.00000000000E+00  0.16469698862E+04  0.16469698862E+04  0.50400001928E-02 0. -1.
       -1   -1    0    0    0  501  0.00000000000E+00  0.00000000000E+00 -0.38537597159E+02  0.38537597488E+02  0.50400001928E-02 0.  1.
    10030    2    1    2    0    0  0.00000000000E+00  0.00000000000E+00  0.16084322891E+04  0.16855074837E+04  0.50386610242E+03 0.  0.
        3    1    3    3  502    0  0.13967732066E+03 -0.19938939398E+03  0.10211193105E+04  0.10497383202E+04  0.10100000352E+00 0. -1.
       -3    1    3    3    0  502 -0.13967732066E+03  0.19938939398E+03  0.58731297855E+03  0.63576916354E+03  0.10100000352E+00 0.  1.
</event>
<event>
 5   0  0.2466034E-01  0.5108770E+03  0.7818609E-02  0.1010978E+00
       -2   -1    0    0    0  501  0.00000000000E+00  0.00000000000E+00  0.11234647036E+03  0.11234647038E+03  0.25500000920E-02 0. -1.
        2   -1    0    0  501    0  0.00000000000E+00  0.00000000000E+00 -0.58078212044E+03  0.58078212044E+03  0.25500000920E-02 0.  1.
    10030    2    1    2    0    0  0.00000000000E+00  0.00000000000E+00 -0.46843565008E+03  0.69312859083E+03  0.51087697653E+03 0.  0.
        3    1    3    3  502    0  0.38061860724E+01 -0.24592193278E+03 -0.32779104978E+03  0.40980369275E+03  0.10100000352E+00 0.  1.
       -3    1    3    3    0  502 -0.38061860724E+01  0.24592193278E+03 -0.14064460030E+03  0.28332489808E+03  0.10100000352E+00 0. -1.
</event>
<event>
 5   0  0.1453602E-01  0.4885903E+03  0.7818609E-02  0.1016801E+00
       -1   -1    0    0    0  501  0.00000000000E+00  0.00000000000E+00  0.38803459721E+03  0.38803459724E+03  0.50400001928E-02 0. -1.
        1   -1    0    0  501    0  0.00000000000E+00  0.00000000000E+00 -0.15380101453E+03  0.15380101461E+03  0.50400001928E-02 0.  1.
    10030    2    1    2    0    0  0.00000000000E+00  0.00000000000E+00  0.23423358268E+03  0.54183561186E+03  0.48859027725E+03 0.  0.
        2    1    3    3  502    0 -0.82161064607E+02  0.21293638108E+03  0.21371739853E+03  0.31267790035E+03  0.25500000920E-02 0.  1.
       -2    1    3    3    0  502  0.82161064607E+02 -0.21293638108E+03  0.20516184151E+02  0.22915771151E+03  0.25500000920E-02 0. -1.
</event>
<event>
 5   0  0.1439814E-01  0.4877814E+03  0.7818609E-02  0.1017018E+00
       -1   -1    0    0    0  501  0.00000000000E+00  0.00000000000E+00  0.15044528211E+03  0.15044528220E+03  0.50400001928E-02 0.  1.
        1   -1    0    0  501    0  0.00000000000E+00  0.00000000000E+00 -0.39537744277E+03  0.39537744280E+03  0.50400001928E-02 0. -1.
    10030    2    1    2    0    0  0.00000000000E+00  0.00000000000E+00 -0.24493216065E+03  0.54582272499E+03  0.48778138935E+03 0.  0.
        4    1    3    3  502    0 -0.11196785041E+03 -0.25171054704E+02  0.11833972333E+03  0.16485231129E+03  0.12699999809E+01 0.  1.
       -4    1    3    3    0  502  0.11196785041E+03  0.25171054704E+02 -0.36327188399E+03  0.38097041370E+03  0.12699999809E+01 0. -1.
</event>
<event>
 5   0  0.1413361E-01  0.4988444E+03  0.7818609E-02  0.1014081E+00
       -1   -1    0    0    0  501  0.00000000000E+00  0.00000000000E+00  0.89175277598E+03  0.89175277600E+03  0.50400001928E-02 0.  1.
        1   -1    0    0  501    0  0.00000000000E+00  0.00000000000E+00 -0.69763090409E+02  0.69763090591E+02  0.50400001928E-02 0. -1.
    10030    2    1    2    0    0  0.00000000000E+00  0.00000000000E+00  0.82198968557E+03  0.96151586659E+03  0.49884438306E+03 0.  0.
        3    1    3    3  502    0  0.42665080971E+01  0.18615415749E+03  0.73086382048E+03  0.75421051950E+03  0.10100000352E+00 0.  1.
       -3    1    3    3    0  502 -0.42665080971E+01 -0.18615415749E+03  0.91125865099E+02  0.20730534709E+03  0.10100000352E+00 0. -1.
</event>
<event>
 5   0  0.1439814E-01  0.4959867E+03  0.7818609E-02  0.1014832E+00
        1   -1    0    0  501    0  0.00000000000E+00  0.00000000000E+00  0.47269222340E+03  0.47269222343E+03  0.50400001928E-02 0.  1.
       -1   -1    0    0    0  501  0.00000000000E+00  0.00000000000E+00 -0.13010727520E+03  0.13010727530E+03  0.50400001928E-02 0. -1.
    10030    2    1    2    0    0  0.00000000000E+00  0.00000000000E+00  0.34258494820E+03  0.60279949873E+03  0.49598668221E+03 0.  0.
        4    1    3    3  502    0 -0.12870035194E+03 -0.12609179478E+02  0.42846645574E+03  0.44755769303E+03  0.12699999809E+01 0.  1.
       -4    1    3    3    0  502  0.12870035194E+03  0.12609179478E+02 -0.85881507543E+02  0.15524180569E+03  0.12699999809E+01 0. -1.
</event>
<event>
 5   0  0.2488968E-01  0.4962878E+03  0.7818609E-02  0.1014752E+00
        2   -1    0    0  501    0  0.00000000000E+00  0.00000000000E+00  0.37716848556E+03  0.37716848556E+03  0.25500000920E-02 0. -1.
       -2   -1    0    0    0  501  0.00000000000E+00  0.00000000000E+00 -0.16325701609E+03  0.16325701611E+03  0.25500000920E-02 0.  1.
    10030    2    1    2    0    0  0.00000000000E+00  0.00000000000E+00  0.21391146947E+03  0.54042550167E+03  0.49628782585E+03 0.  0.
        2    1    3    3  502    0  0.93826032886E+02 -0.16753681306E+03  0.27810750606E+03  0.33795812331E+03  0.25500000920E-02 0. -1.
       -2    1    3    3    0  502 -0.93826032886E+02  0.16753681306E+03 -0.64196036594E+02  0.20246737836E+03  0.25500000920E-02 0.  1.
</event>
<event>
 5   0  0.2504064E-01  0.5140773E+03  0.7818609E-02  0.1010168E+00
        2   -1    0    0  501    0  0.00000000000E+00  0.00000000000E+00  0.79515616267E+03  0.79515616267E+03  0.25500000920E-02 0. -1.
       -2   -1    0    0    0  501  0.00000000000E+00  0.00000000000E+00 -0.83089186459E+02  0.83089186498E+02  0.25500000920E-02 0.  1.
    10030    2    1    2    0    0  0.00000000000E+00  0.00000000000E+00  0.71206697621E+03  0.87824534917E+03  0.51407734314E+03 0.  0.
        5    1    3    3  502    0 -0.14942373900E+03  0.73012467860E+02  0.69075840932E+03  0.71051217040E+03  0.46999998093E+01 0. -1.
       -5    1    3    3    0  502  0.14942373900E+03 -0.73012467860E+02  0.21308566886E+02  0.16773317877E+03  0.46999998093E+01 0.  1.
</event>
<event>
 5   0  0.2466034E-01  0.5014314E+03  0.7818609E-02  0.1013406E+00
       -2   -1    0    0    0  501  0.00000000000E+00  0.00000000000E+00  0.74381523939E+02  0.74381523983E+02  0.25500000920E-02 0. -1.
        2   -1    0    0  501    0  0.00000000000E+00  0.00000000000E+00 -0.84508028819E+03  0.84508028820E+03  0.25500000920E-02 0.  1.
    10030    2    1    2    0    0  0.00000000000E+00  0.00000000000E+00 -0.77069876425E+03  0.91946181218E+03  0.50143138996E+03 0.  0.
        3    1    3    3  502    0  0.41381835671E+02  0.23645765787E+03 -0.51800489842E+03  0.57092360722E+03  0.10100000352E+00 0.  1.
       -3    1    3    3    0  502 -0.41381835671E+02 -0.23645765787E+03 -0.25269386583E+03  0.34853820496E+03  0.10100000352E+00 0. -1.
</event>
<event>
 5   0  0.2504064E-01  0.4972806E+03  0.7818609E-02  0.1014491E+00
        2   -1    0    0  501    0  0.00000000000E+00  0.00000000000E+00  0.58020247400E+03  0.58020247400E+03  0.25500000920E-02 0. -1.
       -2   -1    0    0    0  501  0.00000000000E+00  0.00000000000E+00 -0.10655243923E+03  0.10655243926E+03  0.25500000920E-02 0.  1.
    10030    2    1    2    0    0  0.00000000000E+00  0.00000000000E+00  0.47365003477E+03  0.68675491326E+03  0.49728056010E+03 0.  0.
        5    1    3    3  502    0  0.11388828141E+03 -0.11226836471E+03  0.49967353035E+03  0.52466222781E+03  0.46999998093E+01 0. -1.
       -5    1    3    3    0  502 -0.11388828141E+03  0.11226836471E+03 -0.26023495582E+02  0.16209268546E+03  0.46999998093E+01 0.  1.
</event>
<event>
 5   0  0.1439814E-01  0.4615963E+03  0.7818609E-02  0.1024319E+00
        1   -1    0    0  501    0  0.00000000000E+00  0.00000000000E+00  0.26735113114E+03  0.26735113119E+03  0.50400001928E-02 0. -1.
       -1   -1    0    0    0  501  0.00000000000E+00  0.00000000000E+00 -0.19924279533E+03  0.19924279539E+03  0.50400001928E-02 0.  1.
    10030    2    1    2    0    0  0.00000000000E+00  0.00000000000E+00  0.68108335816E+02  0.46659392658E+03  0.46159630297E+03 0.  0.
        4    1    3    3  502    0  0.91583470060E+02  0.13429728297E+03  0.19966598711E+03  0.25747118579E+03  0.12699999809E+01 0. -1.
       -4    1    3    3    0  502 -0.91583470060E+02 -0.13429728297E+03 -0.13155765130E+03  0.20912274079E+03  0.12699999809E+01 0.  1.
</event>
<event>
 5   0  0.1413361E-01  0.4996195E+03  0.7818609E-02  0.1013878E+00
       -1   -1    0    0    0  501  0.00000000000E+00  0.00000000000E+00  0.30641004164E+03  0.30641004168E+03  0.50400001928E-02 0. -1.
        1   -1    0    0  501    0  0.00000000000E+00  0.00000000000E+00 -0.20366466656E+03  0.20366466662E+03  0.50400001928E-02 0.  1.
    10030    2    1    2    0    0  0.00000000000E+00  0.00000000000E+00  0.10274537508E+03  0.51007470830E+03  0.49961945113E+03 0.  0.
        3    1    3    3  502    0 -0.48186114844E+01  0.24976245780E+03  0.52005699196E+02  0.25516486296E+03  0.10100000352E+00 0. -1.
       -3    1    3    3    0  502  0.48186114844E+01 -0.24976245780E+03  0.50739675884E+02  0.25490984534E+03  0.10100000352E+00 0.  1.
</event>
<event>
 5   0  0.1413361E-01  0.4996774E+03  0.7818609E-02  0.1013863E+00
        1   -1    0    0  501    0  0.00000000000E+00  0.00000000000E+00  0.13514808304E+03  0.13514808313E+03  0.50400001928E-02 0.  1.
       -1   -1    0    0    0  501  0.00000000000E+00  0.00000000000E+00 -0.46185916500E+03  0.46185916503E+03  0.50400001928E-02 0. -1.
    10030    2    1    2    0    0  0.00000000000E+00  0.00000000000E+00 -0.32671108196E+03  0.59700724816E+03  0.49967741921E+03 0.  0.
        3    1    3    3  502    0 -0.57510500128E+02  0.21758680983E+03 -0.29296575831E+03  0.36943256919E+03  0.10100000352E+00 0. -1.
       -3    1    3    3    0  502  0.57510500128E+02 -0.21758680983E+03 -0.33745323651E+02  0.22757467896E+03  0.10100000352E+00 0.  1.
</event>
<event>
 5   0  0.1448458E-01  0.5003541E+03  0.7818609E-02  0.1013687E+00
        1   -1    0    0  501    0  0.00000000000E+00  0.00000000000E+00  0.43096340069E+03  0.43096340072E+03  0.50400001928E-02 0.  1.
       -1   -1    0    0    0  501  0.00000000000E+00  0.00000000000E+00 -0.14522938542E+03  0.14522938551E+03  0.50400001928E-02 0. -1.
    10030    2    1    2    0    0  0.00000000000E+00  0.00000000000E+00  0.28573401527E+03  0.57619278623E+03  0.50035407405E+03 0.  0.
        5    1    3    3  502    0  0.13613534296E+03 -0.71184208668E+02  0.37018600041E+03  0.40082388660E+03  0.46999998093E+01 0.  1.
       -5    1    3    3    0  502 -0.13613534296E+03  0.71184208668E+02 -0.84451985138E+02  0.17536889963E+03  0.46999998093E+01 0. -1.
</event>
<event>
 5   0  0.2488968E-01  0.5013726E+03  0.7818609E-02  0.1013421E+00
       -2   -1    0    0    0  501  0.00000000000E+00  0.00000000000E+00  0.11426754067E+03  0.11426754069E+03  0.25500000920E-02 0.  1.
        2   -1    0    0  501    0  0.00000000000E+00  0.00000000000E+00 -0.54996914108E+03  0.54996914109E+03  0.25500000920E-02 0. -1.
    10030    2    1    2    0    0  0.00000000000E+00  0.00000000000E+00 -0.43570160042E+03  0.66423668178E+03  0.50137260079E+03 0.  0.
        2    1    3    3  502    0  0.34461802087E+02  0.19458310107E+03 -0.42220836266E+03  0.46616531460E+03  0.25500000920E-02 0. -1.
       -2    1    3    3    0  502 -0.34461802087E+02 -0.19458310107E+03 -0.13493237753E+02  0.19807136718E+03  0.25500000920E-02 0.  1.
</event>
<event>
 5   0  0.2466034E-01  0.5022108E+03  0.7818609E-02  0.1013203E+00
       -2   -1    0    0    0  501  0.00000000000E+00  0.00000000000E+00  0.58907167771E+02  0.58907167826E+02  0.25500000920E-02 0. -1.
        2   -1    0    0  501    0  0.00000000000E+00  0.00000000000E+00 -0.10703948511E+04  0.10703948511E+04  0.25500000920E-02 0.  1.
    10030    2    1    2    0    0  0.00000000000E+00  0.00000000000E+00 -0.10114876833E+04  0.11293020189E+04  0.50221082866E+03 0.  0.
        3    1    3    3  502    0  0.51624761838E+02 -0.19131400535E+01  0.46828420473E+02  0.69725800854E+02  0.10100000352E+00 0. -1.
       -3    1    3    3    0  502 -0.51624761838E+02  0.19131400535E+01 -0.10583161038E+04  0.10595762180E+04  0.10100000352E+00 0.  1.
</event>
<event>
 5   0  0.2466034E-01  0.4998970E+03  0.7818609E-02  0.1013806E+00
        2   -1    0    0  501    0  0.00000000000E+00  0.00000000000E+00  0.21682362825E+04  0.21682362825E+04  0.25500000920E-02 0. -1.
       -2   -1    0    0    0  501  0.00000000000E+00  0.00000000000E+00 -0.28813392324E+02  0.28813392437E+02  0.25500000920E-02 0.  1.
    10030    2    1    2    0    0  0.00000000000E+00  0.00000000000E+00  0.21394228901E+04  0.21970496749E+04  0.49989696052E+03 0.  0.
        3    1    3    3  502    0 -0.10434512597E+03 -0.76067815623E+02  0.20102837544E+04  0.20144267178E+04  0.10100000352E+00 0. -1.
       -3    1    3    3    0  502  0.10434512597E+03  0.76067815623E+02  0.12913913572E+03  0.18262295711E+03  0.10100000352E+00 0.  1.
</event>
<event>
 5   0  0.1453602E-01  0.5079830E+03  0.7818609E-02  0.1011716E+00
       -1   -1    0    0    0  501  0.00000000000E+00  0.00000000000E+00  0.42975434972E+03  0.42975434975E+03  0.50400001928E-02 0. -1.
        1   -1    0    0  501    0  0.00000000000E+00  0.00000000000E+00 -0.15011291936E+03  0.15011291944E+03  0.50400001928E-02 0.  1.
    10030    2    1    2    0    0  0.00000000000E+00  0.00000000000E+00  0.27964143037E+03  0.57986726919E+03  0.50798299214E+03 0.  0.
        2    1    3    3  502    0 -0.17923909934E+03  0.14019591434E+03  0.26861478269E+03  0.35204467134E+03  0.25500000920E-02 0. -1.
       -2    1    3    3    0  502  0.17923909934E+03 -0.14019591434E+03  0.11026647678E+02  0.22782259786E+03  0.25500000920E-02 0.  1.
</event>
<event>
 5   0  0.2413301E-01  0.5157833E+03  0.7818609E-02  0.1009739E+00
        2   -1    0    0  501    0  0.00000000000E+00  0.00000000000E+00  0.19990503087E+03  0.19990503088E+03  0.25500000920E-02 0. -1.
       -2   -1    0    0    0  501  0.00000000000E+00  0.00000000000E+00 -0.33269843882E+03  0.33269843883E+03  0.25500000920E-02 0.  1.
    10030    2    1    2    0    0  0.00000000000E+00  0.00000000000E+00 -0.13279340795E+03  0.53260346971E+03  0.51578325560E+03 0.  0.
        4    1    3    3  502    0 -0.18191834737E+03  0.17212055741E+03 -0.12993969098E+03  0.28214483442E+03  0.12699999809E+01 0.  1.
       -4    1    3    3    0  502  0.18191834737E+03 -0.17212055741E+03 -0.28537169725E+01  0.25045863530E+03  0.12699999809E+01 0. -1.
</event>
<event>
 5   0  0.2466034E-01  0.5034903E+03  0.7818609E-02  0.1012872E+00
        2   -1    0    0  501    0  0.00000000000E+00  0.00000000000E+00  0.53150431687E+03  0.53150431688E+03  0.25500000920E-02 0.  1.
       -2   -1    0    0    0  501  0.00000000000E+00  0.00000000000E+00 -0.11923820533E+03  0.11923820535E+03  0.25500000920E-02 0. -1.
    10030    2    1    2    0    0  0.00000000000E+00  0.00000000000E+00  0.41226611155E+03  0.65074252223E+03  0.50349030131E+03 0.  0.
        3    1    3    3  502    0 -0.17618709086E+03  0.31960617765E+02 -0.22571668588E+02  0.18047953484E+03  0.10100000352E+00 0. -1.
       -3    1    3    3    0  502  0.17618709086E+03 -0.31960617765E+02  0.43483778014E+03  0.47026298739E+03  0.10100000352E+00 0.  1.
</event>
<event>
 5   0  0.2466034E-01  0.4955480E+03  0.7818609E-02  0.1014948E+00
       -2   -1    0    0    0  501  0.00000000000E+00  0.00000000000E+00  0.15789041291E+03  0.15789041293E+03  0.25500000920E-02 0. -1.
        2   -1    0    0  501    0  0.00000000000E+00  0.00000000000E+00 -0.38882633100E+03  0.38882633101E+03  0.25500000920E-02 0.  1.
    10030    2    1    2    0    0  0.00000000000E+00  0.00000000000E+00 -0.23093591809E+03  0.54671674394E+03  0.49554797936E+03 0.  0.
        3    1    3    3  502    0  0.13300205432E+03  0.65687774587E+02 -0.33442349304E+03  0.36584629707E+03  0.10100000352E+00 0.  1.
       -3    1    3    3    0  502 -0.13300205432E+03 -0.65687774587E+02  0.10348757495E+03  0.18087044688E+03  0.10100000352E+00 0. -1.
</event>
<event>
 5   0  0.9868500E-02  0.4625294E+03  0.7818609E-02  0.1024050E+00
       -3   -1    0    0    0  501  0.00000000000E+00  0.00000000000E+00  0.12277919621E+03  0.12277923775E+03  0.10100000352E+00 0. -1.
        3   -1    0    0  501    0  0.00000000000E+00  0.00000000000E+00 -0.43560589428E+03  0.43560590599E+03  0.10100000352E+00 0.  1.
    10030    2    1    2    0    0  0.00000000000E+00  0.00000000000E+00 -0.31282669807E+03  0.55838514374E+03  0.46252937823E+03 0.  0.
        2    1    3    3  502    0  0.68431653415E+02 -0.11238972669E+03 -0.38600858402E+03  0.40781977490E+03  0.25500000920E-02 0.  1.
       -2    1    3    3    0  502 -0.68431653415E+02  0.11238972669E+03  0.73181885958E+02  0.15056536884E+03  0.25500000920E-02 0. -1.
</event>
<event>
 5   0  0.2466034E-01  0.5064664E+03  0.7818609E-02  0.1012105E+00
        2   -1    0    0  501    0  0.00000000000E+00  0.00000000000E+00  0.57313141464E+02  0.57313141521E+02  0.25500000920E-02 0. -1.
       -2   -1    0    0    0  501  0.00000000000E+00  0.00000000000E+00 -0.11188892818E+04  0.11188892818E+04  0.25500000920E-02 0.  1.
    10030    2    1    2    0    0  0.00000000000E+00  0.00000000000E+00 -0.10615761404E+04  0.11762024234E+04  0.50646642427E+03 0.  0.
        3    1    3    3  502    0 -0.23076576800E+03 -0.33221115159E+02 -0.76034547261E+03  0.79528719976E+03  0.10100000352E+00 0. -1.
       -3    1    3    3    0  502  0.23076576800E+03  0.33221115159E+02 -0.30123066776E+03  0.38091522361E+03  0.10100000352E+00 0.  1.
</event>
<event>
 5   0  0.2504064E-01  0.4941114E+03  0.7818609E-02  0.1015327E+00
        2   -1    0    0  501    0  0.00000000000E+00  0.00000000000E+00  0.15082360466E+04  0.15082360466E+04  0.25500000920E-02 0.  1.
       -2   -1    0    0    0  501  0.00000000000E+00  0.00000000000E+00 -0.40468805616E+02  0.40468805697E+02  0.25500000920E-02 0. -1.
    10030    2    1    2    0    0  0.00000000000E+00  0.00000000000E+00  0.14677672410E+04  0.15487048523E+04  0.49411136986E+03 0.  0.
        5    1    3    3  502    0 -0.12655708875E+03 -0.14687284036E+03  0.12136101629E+04  0.12290077484E+04  0.46999998093E+01 0.  1.
       -5    1    3    3    0  502  0.12655708875E+03  0.14687284036E+03  0.25415707805E+03  0.31969710395E+03  0.46999998093E+01 0. -1.
</event>
<event>
 5   0  0.1413361E-01  0.4942955E+03  0.7818609E-02  0.1015279E+00
        1   -1    0    0  501    0  0.00000000000E+00  0.00000000000E+00  0.15735661616E+04  0.15735661616E+04  0.50400001928E-02 0. -1.
       -1   -1    0    0    0  501  0.00000000000E+00  0.00000000000E+00 -0.38817568193E+02  0.38817568521E+02  0.50400001928E-02 0.  1.
    10030    2    1    2    0    0  0.00000000000E+00  0.00000000000E+00  0.15347485934E+04  0.16123837302E+04  0.49429550698E+03 0.  0.
        3    1    3    3  502    0 -0.97293906065E+02  0.14971020568E+03  0.20994006544E+03  0.27559769796E+03  0.10100000352E+00 0.  1.
       -3    1    3    3    0  502  0.97293906065E+02 -0.14971020568E+03  0.13248085280E+04  0.13367860322E+04  0.10100000352E+00 0. -1.
</event>
<event>
 5   0  0.9868500E-02  0.4857494E+03  0.7818609E-02  0.1017567E+00
        3   -1    0    0  501    0  0.00000000000E+00  0.00000000000E+00  0.23738450977E+03  0.23738453126E+03  0.10100000352E+00 0.  1.
       -3   -1    0    0    0  501  0.00000000000E+00  0.00000000000E+00 -0.24849184007E+03  0.24849186060E+03  0.10100000352E+00 0. -1.
    10030    2    1    2    0    0  0.00000000000E+00  0.00000000000E+00 -0.11107330300E+02  0.48587639186E+03  0.48574941624E+03 0.  0.
        2    1    3    3  502    0 -0.22417886138E+03  0.90969722777E+02  0.15817113075E+02  0.24244965132E+03  0.25500000920E-02 0. -1.
       -2    1    3    3    0  502  0.22417886138E+03 -0.90969722777E+02 -0.26924443376E+02  0.24342674054E+03  0.25500000920E-02 0.  1.
</event>
<event>
 5   0  0.1453602E-01  0.4054008E+03  0.7818609E-02  0.1041925E+00
        1   -1    0    0  501    0  0.00000000000E+00  0.00000000000E+00  0.28396210314E+03  0.28396210318E+03  0.50400001928E-02 0.  1.
       -1   -1    0    0    0  501  0.00000000000E+00  0.00000000000E+00 -0.14469346617E+03  0.14469346626E+03  0.50400001928E-02 0. -1.
    10030    2    1    2    0    0  0.00000000000E+00  0.00000000000E+00  0.13926863696E+03  0.42865556944E+03  0.40540084358E+03 0.  0.
        2    1    3    3  502    0  0.10575341157E+03 -0.17290884263E+03  0.66999582845E+02  0.21347176869E+03  0.25500000920E-02 0. -1.
       -2    1    3    3    0  502 -0.10575341157E+03  0.17290884263E+03  0.72269054119E+02  0.21518380076E+03  0.25500000920E-02 0.  1.
</event>
<event>
 5   0  0.1439814E-01  0.4995966E+03  0.7818609E-02  0.1013884E+00
       -1   -1    0    0    0  501  0.00000000000E+00  0.00000000000E+00  0.48716449986E+02  0.48716450247E+02  0.50400001928E-02 0. -1.
        1   -1    0    0  501    0  0.00000000000E+00  0.00000000000E+00 -0.12808650061E+04  0.12808650061E+04  0.50400001928E-02 0.  1.
    10030    2    1    2    0    0  0.00000000000E+00  0.00000000000E+00 -0.12321485561E+04  0.13295814564E+04  0.49959662205E+03 0.  0.
        4    1    3    3  502    0  0.15042985405E+02 -0.22314722518E+03 -0.32000300569E+03  0.39041581944E+03  0.12699999809E+01 0.  1.
       -4    1    3    3    0  502 -0.15042985405E+02  0.22314722518E+03 -0.91214555045E+03  0.93916563695E+03  0.12699999809E+01 0. -1.
</event>
<event>
 5   0  0.2466034E-01  0.5100555E+03  0.7818609E-02  0.1011187E+00
        2   -1    0    0  501    0  0.00000000000E+00  0.00000000000E+00  0.91016389044E+03  0.91016389044E+03  0.25500000920E-02 0.  1.
       -2   -1    0    0    0  501  0.00000000000E+00  0.00000000000E+00 -0.71458732686E+02  0.71458732732E+02  0.25500000920E-02 0. -1.
    10030    2    1    2    0    0  0.00000000000E+00  0.00000000000E+00  0.83870515775E+03  0.98162262317E+03  0.51005551922E+03 0.  0.
        3    1    3    3  502    0 -0.25290233336E+03 -0.30632005630E+02  0.44222451126E+03  0.51035324879E+03  0.10100000352E+00 0.  1.
       -3    1    3    3    0  502  0.25290233336E+03  0.30632005630E+02  0.39648064649E+03  0.47126937439E+03  0.10100000352E+00 0. -1.
</event>
<event>
 5   0  0.2466034E-01  0.4772703E+03  0.7818609E-02  0.1019888E+00
       -2   -1    0    0    0  501  0.00000000000E+00  0.00000000000E+00  0.10090050823E+04  0.10090050823E+04  0.25500000920E-02 0.  1.
        2   -1    0    0  501    0  0.00000000000E+00  0.00000000000E+00 -0.56438503330E+02  0.56438503387E+02  0.25500000920E-02 0. -1.
    10030    2    1    2    0    0  0.00000000000E+00  0.00000000000E+00  0.95256657899E+03  0.10654435857E+04  0.47727030803E+03 0.  0.
        3    1    3    3  502    0  0.20038288486E+02 -0.22567612060E+03  0.64356927786E+03  0.68228488919E+03  0.10100000352E+00 0. -1.
       -3    1    3    3    0  502 -0.20038288486E+02  0.22567612060E+03  0.30899730114E+03  0.38315869653E+03  0.10100000352E+00 0.  1.
</event>
<event>
 5   0  0.2511944E-01  0.3855751E+03  0.7818609E-02  0.1048892E+00
       -2   -1    0    0    0  501  0.00000000000E+00  0.00000000000E+00  0.13413483937E+03  0.13413483939E+03  0.25500000920E-02 0. -1.
        2   -1    0    0  501    0  0.00000000000E+00  0.00000000000E+00 -0.27708713214E+03  0.27708713215E+03  0.25500000920E-02 0.  1.
    10030    2    1    2    0    0  0.00000000000E+00  0.00000000000E+00 -0.14295229277E+03  0.41122197154E+03  0.38557509238E+03 0.  0.
        1    1    3    3  502    0 -0.11046675285E+03  0.15633520020E+03 -0.95876754036E+02  0.21409332147E+03  0.50400001928E-02 0.  1.
       -1    1    3    3    0  502  0.11046675285E+03 -0.15633520020E+03 -0.47075538734E+02  0.19712865007E+03  0.50400001928E-02 0. -1.
</event>
<event>
 5   0  0.1529146E-01  0.4458109E+03  0.7818609E-02  0.1028979E+00
        1   -1    0    0  501    0  0.00000000000E+00  0.00000000000E+00  0.15850507408E+03  0.15850507416E+03  0.50400001928E-02 0. -1.
       -1   -1    0    0    0  501  0.00000000000E+00  0.00000000000E+00 -0.31347165479E+03  0.31347165483E+03  0.50400001928E-02 0.  1.
    10030    2    1    2    0    0  0.00000000000E+00  0.00000000000E+00 -0.15496658071E+03  0.47197672899E+03  0.44581093703E+03 0.  0.
        1    1    3    3  502    0  0.20796607952E+03 -0.63383413761E+02 -0.12955870363E+03  0.25308655650E+03  0.50400001928E-02 0. -1.
       -1    1    3    3    0  502 -0.20796607952E+03  0.63383413761E+02 -0.25407877075E+02  0.21889017249E+03  0.50400001928E-02 0.  1.
</event>
<event>
 5   0  0.2488968E-01  0.4974895E+03  0.7818609E-02  0.1014436E+00
       -2   -1    0    0    0  501  0.00000000000E+00  0.00000000000E+00  0.95317826561E+02  0.95317826595E+02  0.25500000920E-02 0.  1.
        2   -1    0    0  501    0  0.00000000000E+00  0.00000000000E+00 -0.64913310110E+03  0.64913310110E+03  0.25500000920E-02 0. -1.
    10030    2    1    2    0    0  0.00000000000E+00  0.00000000000E+00 -0.55381527454E+03  0.74445092770E+03  0.49748952295E+03 0.  0.
        2    1    3    3  502    0 -0.87582828413E+02 -0.13092652254E+03  0.11172517107E+02  0.15791558277E+03  0.25500000920E-02 0.  1.
       -2    1    3    3    0  502  0.87582828413E+02  0.13092652254E+03 -0.56498779164E+03  0.58653534493E+03  0.25500000920E-02 0. -1.
</event>
<event>
 5   0  0.2466034E-01  0.5020882E+03  0.7818609E-02  0.1013235E+00
        2   -1    0    0  501    0  0.00000000000E+00  0.00000000000E+00  0.22468381361E+04  0.22468381361E+04  0.25500000920E-02 0. -1.
       -2   -1    0    0    0  501  0.00000000000E+00  0.00000000000E+00 -0.28049697436E+02  0.28049697552E+02  0.25500000920E-02 0.  1.
    10030    2    1    2    0    0  0.00000000000E+00  0.00000000000E+00  0.22187884386E+04  0.22748878336E+04  0.50208815974E+03 0.  0.
        3    1    3    3  502    0  0.22709107782E+03 -0.10701113836E+03  0.11040746065E+04  0.11322554872E+04  0.10100000352E+00 0.  1.
       -3    1    3    3    0  502 -0.22709107782E+03  0.10701113836E+03  0.11147138322E+04  0.11426323465E+04  0.10100000352E+00 0. -1.
</event>
<event>
 5   0  0.1529146E-01  0.5007288E+03  0.7818609E-02  0.1013589E+00
       -1   -1    0    0    0  501  0.00000000000E+00  0.00000000000E+00  0.44315511131E+02  0.44315511418E+02  0.50400001928E-02 0.  1.
        1   -1    0    0  501    0  0.00000000000E+00  0.00000000000E+00 -0.14144555516E+04  0.14144555517E+04  0.50400001928E-02 0. -1.
    10030    2    1    2    0    0  0.00000000000E+00  0.00000000000E+00 -0.13701400405E+04  0.14587710631E+04  0.50072875275E+03 0.  0.
        1    1    3    3  502    0  0.11173807282E+03 -0.32123643052E+02 -0.39099629238E+02  0.12266257128E+03  0.50400001928E-02 0.  1.
       -1    1    3    3    0  502 -0.11173807282E+03  0.32123643052E+02 -0.13310404113E+04  0.13361084918E+04  0.50400001928E-02 0. -1.
</event>
<event>
 5   0  0.2413301E-01  0.5020340E+03  0.7818609E-02  0.1013249E+00
        2   -1    0    0  501    0  0.00000000000E+00  0.00000000000E+00  0.14037460754E+03  0.14037460756E+03  0.25500000920E-02 0.  1.
       -2   -1    0    0    0  501  0.00000000000E+00  0.00000000000E+00 -0.44886712140E+03  0.44886712140E+03  0.25500000920E-02 0. -1.
    10030    2    1    2    0    0  0.00000000000E+00  0.00000000000E+00 -0.30849251386E+03  0.58924172897E+03  0.50203404671E+03 0.  0.
        4    1    3    3  502    0 -0.17010414579E+03 -0.34505366061E+02  0.58586625231E+02  0.18319401262E+03  0.12699999809E+01 0.  1.
       -4    1    3    3    0  502  0.17010414579E+03  0.34505366061E+02 -0.36707913909E+03  0.40604771635E+03  0.12699999809E+01 0. -1.
</event>
<event>
 5   0  0.1448458E-01  0.4979381E+03  0.7818609E-02  0.1014318E+00
       -1   -1    0    0    0  501  0.00000000000E+00  0.00000000000E+00  0.58133912015E+02  0.58133912233E+02  0.50400001928E-02 0.  1.
        1   -1    0    0  501    0  0.00000000000E+00  0.00000000000E+00 -0.10662553518E+04  0.10662553518E+04  0.50400001928E-02 0. -1.
    10030    2    1    2    0    0  0.00000000000E+00  0.00000000000E+00 -0.10081214397E+04  0.11243892640E+04  0.49793812842E+03 0.  0.
        5    1    3    3  502    0 -0.78197142384E+02 -0.86334856044E+02 -0.73064888587E+01  0.11680742794E+03  0.46999998093E+01 0.  1.
       -5    1    3    3    0  502  0.78197142384E+02  0.86334856044E+02 -0.10008149509E+04  0.10075818361E+04  0.46999998093E+01 0. -1.
</event>
<event>
 5   0  0.9868500E-02  0.5349307E+03  0.7818609E-02  0.1005043E+00
       -3   -1    0    0    0  501  0.00000000000E+00  0.00000000000E+00  0.17809145829E+03  0.17809148693E+03  0.10100000352E+00 0. -1.
        3   -1    0    0  501    0  0.00000000000E+00  0.00000000000E+00 -0.40169082230E+03  0.40169083500E+03  0.10100000352E+00 0.  1.
    10030    2    1    2    0    0  0.00000000000E+00  0.00000000000E+00 -0.22359936401E+03  0.57978232194E+03  0.53493071069E+03 0.  0.
        5    1    3    3  502    0 -0.18887751572E+03 -0.17677942216E+03 -0.38370069207E+02  0.26157223143E+03  0.46999998093E+01 0. -1.
       -5    1    3    3    0  502  0.18887751572E+03  0.17677942216E+03 -0.18522929480E+03  0.31821009050E+03  0.46999998093E+01 0.  1.
</event>
<event>
 5   0  0.2504064E-01  0.5025022E+03  0.7818609E-02  0.1013128E+00
       -2   -1    0    0    0  501  0.00000000000E+00  0.00000000000E+00  0.30876182726E+02  0.30876182831E+02  0.25500000920E-02 0. -1.
        2   -1    0    0  501    0  0.00000000000E+00  0.00000000000E+00 -0.20445248018E+04  0.20445248018E+04  0.25500000920E-02 0.  1.
    10030    2    1    2    0    0  0.00000000000E+00  0.00000000000E+00 -0.20136486191E+04  0.20754009846E+04  0.50250222479E+03 0.  0.
        5    1    3    3  502    0  0.73667701499E+02 -0.19140820969E+03 -0.16059213887E+04  0.16189717816E+04  0.46999998093E+01 0.  1.
       -5    1    3    3    0  502 -0.73667701499E+02  0.19140820969E+03 -0.40772723034E+03  0.45642920299E+03  0.46999998093E+01 0. -1.
</event>
<event>
 5   0  0.2413301E-01  0.5815893E+03  0.7818609E-02  0.9944356E-01
       -2   -1    0    0    0  501  0.00000000000E+00  0.00000000000E+00  0.10996787041E+03  0.10996787044E+03  0.25500000920E-02 0. -1.
        2   -1    0    0  501    0  0.00000000000E+00  0.00000000000E+00 -0.76896583161E+03  0.76896583162E+03  0.25500000920E-02 0.  1.
    10030    2    1    2    0    0  0.00000000000E+00  0.00000000000E+00 -0.65899796120E+03  0.87893370206E+03  0.58158932225E+03 0.  0.
        4    1    3    3  502    0  0.36474594392E+02  0.13325508969E+03 -0.71619482976E+03  0.72939972720E+03  0.12699999809E+01 0.  1.
       -4    1    3    3    0  502 -0.36474594392E+02 -0.13325508969E+03  0.57196868561E+02  0.14953397486E+03  0.12699999809E+01 0. -1.
</event>
<event>
 5   0  0.2466034E-01  0.4969184E+03  0.7818609E-02  0.1014586E+00
       -2   -1    0    0    0  501  0.00000000000E+00  0.00000000000E+00  0.53216392332E+02  0.53216392393E+02  0.25500000920E-02 0. -1.
        2   -1    0    0  501    0  0.00000000000E+00  0.00000000000E+00 -0.11600179473E+04  0.11600179473E+04  0.25500000920E-02 0.  1.
    10030    2    1    2    0    0  0.00000000000E+00  0.00000000000E+00 -0.11068015550E+04  0.12132343397E+04  0.49691838458E+03 0.  0.
        3    1    3    3  502    0  0.24841506680E+03 -0.16772353736E+01 -0.54273006534E+03  0.59688256178E+03  0.10100000352E+00 0. -1.
       -3    1    3    3    0  502 -0.24841506680E+03  0.16772353736E+01 -0.56407148962E+03  0.61635177791E+03  0.10100000352E+00 0.  1.
</event>
<event>
 5   0  0.2504064E-01  0.5040075E+03  0.7818609E-02  0.1012738E+00
        2   -1    0    0  501    0  0.00000000000E+00  0.00000000000E+00  0.82976946908E+03  0.82976946908E+03  0.25500000920E-02 0.  1.
       -2   -1    0    0    0  501  0.00000000000E+00  0.00000000000E+00 -0.76534386203E+02  0.76534386246E+02  0.25500000920E-02 0. -1.
    10030    2    1    2    0    0  0.00000000000E+00  0.00000000000E+00  0.75323508287E+03  0.90630385533E+03  0.50400752783E+03 0.  0.
        5    1    3    3  502    0  0.42595426860E+02  0.12922776955E+03 -0.47084554186E+01  0.13622938876E+03  0.46999998093E+01 0. -1.
       -5    1    3    3    0  502 -0.42595426860E+02 -0.12922776955E+03  0.75794353829E+03  0.77007446656E+03  0.46999998093E+01 0.  1.
</event>
<event>
 5   0  0.9868500E-02  0.4235244E+03  0.7818609E-02  0.1035925E+00
       -3   -1    0    0    0  501  0.00000000000E+00  0.00000000000E+00  0.78214011754E+03  0.78214012406E+03  0.10100000352E+00 0.  1.
        3   -1    0    0  501    0  0.00000000000E+00  0.00000000000E+00 -0.57333958291E+02  0.57334047252E+02  0.10100000352E+00 0. -1.
    10030    2    1    2    0    0  0.00000000000E+00  0.00000000000E+00  0.72480615925E+03  0.83947417132E+03  0.42352439814E+03 0.  0.
        3    1    3    3  502    0  0.16259575911E+03 -0.85507190451E+02  0.57117880313E+03  0.59999507985E+03  0.10100000352E+00 0.  1.
       -3    1    3    3    0  502 -0.16259575911E+03  0.85507190451E+02  0.15362735613E+03  0.23947909147E+03  0.10100000352E+00 0. -1.
</event>
<event>
 5   0  0.2413301E-01  0.4900364E+03  0.7818609E-02  0.1016413E+00
       -2   -1    0    0    0  501  0.00000000000E+00  0.00000000000E+00  0.12583764646E+03  0.12583764649E+03  0.25500000920E-02 0. -1.
        2   -1    0    0  501    0  0.00000000000E+00  0.00000000000E+00 -0.47707440075E+03  0.47707440076E+03  0.25500000920E-02 0.  1.
    10030    2    1    2    0    0  0.00000000000E+00  0.00000000000E+00 -0.35123675429E+03  0.60291204724E+03  0.49003640594E+03 0.  0.
        4    1    3    3  502    0  0.80518304607E+02 -0.15735786403E+01  0.10908439852E+03  0.13559753843E+03  0.12699999809E+01 0. -1.
       -4    1    3    3    0  502 -0.80518304607E+02  0.15735786403E+01 -0.46032115281E+03  0.46731450882E+03  0.12699999809E+01 0.  1.
</event>
<event>
 5   0  0.2466034E-01  0.5222542E+03  0.7818609E-02  0.1008128E+00
       -2   -1    0    0    0  501  0.00000000000E+00  0.00000000000E+00  0.48228752514E+03  0.48228752514E+03  0.25500000920E-02 0. -1.
        2   -1    0    0  501    0  0.00000000000E+00  0.00000000000E+00 -0.14138322477E+03  0.14138322480E+03  0.25500000920E-02 0.  1.
    10030    2    1    2    0    0  0.00000000000E+00  0.00000000000E+00  0.34090430036E+03  0.62367074994E+03  0.52225421236E+03 0.  0.
        3    1    3    3  502    0 -0.15236610632E+03  0.21038036057E+03  0.13858654002E+03  0.29441733261E+03  0.10100000352E+00 0.  1.
       -3    1    3    3    0  502  0.15236610632E+03 -0.21038036057E+03  0.20231776035E+03  0.32925341733E+03  0.10100000352E+00 0. -1.
</event>
<event>
 5   0  0.9868500E-02  0.5047921E+03  0.7818609E-02  0.1012536E+00
        3   -1    0    0  501    0  0.00000000000E+00  0.00000000000E+00  0.22904914467E+03  0.22904916694E+03  0.10100000352E+00 0.  1.
       -3   -1    0    0    0  501  0.00000000000E+00  0.00000000000E+00 -0.27812265125E+03  0.27812266959E+03  0.10100000352E+00 0. -1.
    10030    2    1    2    0    0  0.00000000000E+00  0.00000000000E+00 -0.49073506580E+02  0.50717183653E+03  0.50479209851E+03 0.  0.
        2    1    3    3  502    0 -0.23517829568E+03  0.31399823209E+02 -0.11101800528E+03  0.26195376912E+03  0.25500000920E-02 0. -1.
       -2    1    3    3    0  502  0.23517829568E+03 -0.31399823209E+02  0.61944498701E+02  0.24521806740E+03  0.25500000920E-02 0.  1.
</event>
<event>
 5   0  0.1413361E-01  0.4959280E+03  0.7818609E-02  0.1014847E+00
        1   -1    0    0  501    0  0.00000000000E+00  0.00000000000E+00  0.43169493676E+03  0.43169493679E+03  0.50400001928E-02 0. -1.
       -1   -1    0    0    0  501  0.00000000000E+00  0.00000000000E+00 -0.14242959594E+03  0.14242959603E+03  0.50400001928E-02 0.  1.
    10030    2    1    2    0    0  0.00000000000E+00  0.00000000000E+00  0.28926534082E+03  0.57412453282E+03  0.49592796027E+03 0.  0.
        3    1    3    3  502    0 -0.20659195129E+03  0.12605579941E+03  0.82119958726E+02  0.25556603202E+03  0.10100000352E+00 0.  1.
       -3    1    3    3    0  502  0.20659195129E+03 -0.12605579941E+03  0.20714538209E+03  0.31855850079E+03  0.10100000352E+00 0. -1.
</event>
<event>
 5   0  0.2511944E-01  0.4905355E+03  0.7818609E-02  0.1016279E+00
        2   -1    0    0  501    0  0.00000000000E+00  0.00000000000E+00  0.45580728192E+03  0.45580728193E+03  0.25500000920E-02 0. -1.
       -2   -1    0    0    0  501  0.00000000000E+00  0.00000000000E+00 -0.13197741916E+03  0.13197741918E+03  0.25500000920E-02 0.  1.
    10030    2    1    2    0    0  0.00000000000E+00  0.00000000000E+00  0.32382986277E+03  0.58778470111E+03  0.49053549804E+03 0.  0.
        1    1    3    3  502    0  0.35024505215E+02 -0.23920956861E+03  0.11238880553E+03  0.26660678408E+03  0.50400001928E-02 0. -1.
       -1    1    3    3    0  502 -0.35024505215E+02  0.23920956861E+03  0.21144105723E+03  0.32117791703E+03  0.50400001928E-02 0.  1.
</event>
<event>
 5   0  0.1529146E-01  0.5068613E+03  0.7818609E-02  0.1012003E+00
       -1   -1    0    0    0  501  0.00000000000E+00  0.00000000000E+00  0.10311188898E+04  0.10311188898E+04  0.50400001928E-02 0. -1.
        1   -1    0    0  501    0  0.00000000000E+00  0.00000000000E+00 -0.62288734083E+02  0.62288734286E+02  0.50400001928E-02 0.  1.
    10030    2    1    2    0    0  0.00000000000E+00  0.00000000000E+00  0.96883015575E+03  0.10934076241E+04  0.50686128459E+03 0.  0.
        1    1    3    3  502    0 -0.14687887047E+03 -0.11596735506E+03  0.11575719957E+03  0.22004899297E+03  0.50400001928E-02 0.  1.
       -1    1    3    3    0  502  0.14687887047E+03  0.11596735506E+03  0.85307295618E+03  0.87335863116E+03  0.50400001928E-02 0. -1.
</event>
<event>
 5   0  0.2413301E-01  0.4929912E+03  0.7818609E-02  0.1015625E+00
       -2   -1    0    0    0  501  0.00000000000E+00  0.00000000000E+00  0.56177523771E+02  0.56177523829E+02  0.25500000920E-02 0.  1.
        2   -1    0    0  501    0  0.00000000000E+00  0.00000000000E+00 -0.10815729202E+04  0.10815729202E+04  0.25500000920E-02 0. -1.
    10030    2    1    2    0    0  0.00000000000E+00  0.00000000000E+00 -0.10253953965E+04  0.11377504441E+04  0.49299123104E+03 0.  0.
        4    1    3    3  502    0 -0.84216258476E+02 -0.90241195858E+02 -0.10051015741E+04  0.10126532669E+04  0.12699999809E+01 0. -1.
       -4    1    3    3    0  502  0.84216258476E+02  0.90241195858E+02 -0.20293822314E+02  0.12509717721E+03  0.12699999809E+01 0.  1.
</event>
<event>
 5   0  0.2413301E-01  0.4882431E+03  0.7818609E-02  0.1016894E+00
        2   -1    0    0  501    0  0.00000000000E+00  0.00000000000E+00  0.59976838518E+03  0.59976838518E+03  0.25500000920E-02 0.  1.
       -2   -1    0    0    0  501  0.00000000000E+00  0.00000000000E+00 -0.99363896205E+02  0.99363896238E+02  0.25500000920E-02 0. -1.
    10030    2    1    2    0    0  0.00000000000E+00  0.00000000000E+00  0.50040448897E+03  0.69913228142E+03  0.48824306891E+03 0.  0.
        4    1    3    3  502    0 -0.10428648737E+03  0.19388683765E+03  0.99162411334E+02  0.24145925946E+03  0.12699999809E+01 0. -1.
       -4    1    3    3    0  502  0.10428648737E+03 -0.19388683765E+03  0.40124207764E+03  0.45767302196E+03  0.12699999809E+01 0.  1.
</event>
<event>
 5   0  0.1448458E-01  0.4874566E+03  0.7818609E-02  0.1017106E+00
        1   -1    0    0  501    0  0.00000000000E+00  0.00000000000E+00  0.17768757275E+03  0.17768757282E+03  0.50400001928E-02 0. -1.
       -1   -1    0    0    0  501  0.00000000000E+00  0.00000000000E+00 -0.33431417682E+03  0.33431417685E+03  0.50400001928E-02 0.  1.
    10030    2    1    2    0    0  0.00000000000E+00  0.00000000000E+00 -0.15662660406E+03  0.51200174968E+03  0.48745656070E+03 0.  0.
        5    1    3    3  502    0  0.34446549835E+02  0.19224733896E+03 -0.23137609690E+03  0.30282435890E+03  0.46999998093E+01 0.  1.
       -5    1    3    3    0  502 -0.34446549835E+02 -0.19224733896E+03  0.74749492831E+02  0.20917739077E+03  0.46999998093E+01 0. -1.
</event>
<event>
 5   0  0.2413301E-01  0.5030402E+03  0.7818609E-02  0.1012988E+00
       -2   -1    0    0    0  501  0.00000000000E+00  0.00000000000E+00  0.70537338873E+02  0.70537338919E+02  0.25500000920E-02 0. -1.
        2   -1    0    0  501    0  0.00000000000E+00  0.00000000000E+00 -0.89686361575E+03  0.89686361576E+03  0.25500000920E-02 0.  1.
    10030    2    1    2    0    0  0.00000000000E+00  0.00000000000E+00 -0.82632627688E+03  0.96740095467E+03  0.50304024814E+03 0.  0.
        4    1    3    3  502    0 -0.15860550769E+03  0.11855786664E+03 -0.71139432535E+03  0.73844104291E+03  0.12699999809E+01 0.  1.
       -4    1    3    3    0  502  0.15860550769E+03 -0.11855786664E+03 -0.11493195153E+03  0.22895991176E+03  0.12699999809E+01 0. -1.
</event>
<event>
 5   0  0.2511944E-01  0.4916138E+03  0.7818609E-02  0.1015991E+00
        2   -1    0    0  501    0  0.00000000000E+00  0.00000000000E+00  0.18166570275E+04  0.18166570275E+04  0.25500000920E-02 0. -1.
       -2   -1    0    0    0  501  0.00000000000E+00  0.00000000000E+00 -0.33259456802E+02  0.33259456900E+02  0.25500000920E-02 0.  1.
    10030    2    1    2    0    0  0.00000000000E+00  0.00000000000E+00  0.17833975707E+04  0.18499164844E+04  0.49161377533E+03 0.  0.
        1    1    3    3  502    0 -0.88485638413E+02  0.17760571225E+03  0.14376183197E+04  0.14512477150E+04  0.50400001928E-02 0. -1.
       -1    1    3    3    0  502  0.88485638413E+02 -0.17760571225E+03  0.34577925104E+03  0.39866876941E+03  0.50400001928E-02 0.  1.
</event>
<event>
 5   0  0.1439814E-01  0.4974033E+03  0.7818609E-02  0.1014459E+00
        1   -1    0    0  501    0  0.00000000000E+00  0.00000000000E+00  0.41320923803E+03  0.41320923806E+03  0.50400001928E-02 0. -1.
       -1   -1    0    0    0  501  0.00000000000E+00  0.00000000000E+00 -0.14968813047E+03  0.14968813056E+03  0.50400001928E-02 0.  1.
    10030    2    1    2    0    0  0.00000000000E+00  0.00000000000E+00  0.26352110755E+03  0.56289736861E+03  0.49740333077E+03 0.  0.
        4    1    3    3  502    0 -0.29280470287E+02 -0.24156827572E+03  0.18988848909E+03  0.30866134997E+03  0.12699999809E+01 0.  1.
       -4    1    3    3    0  502  0.29280470287E+02  0.24156827572E+03  0.73632618461E+02  0.25423601864E+03  0.12699999809E+01 0. -1.
</event>
<event>
 5   0  0.1448458E-01  0.5030522E+03  0.7818609E-02  0.1012985E+00
       -1   -1    0    0    0  501  0.00000000000E+00  0.00000000000E+00  0.36714266489E+03  0.36714266492E+03  0.50400001928E-02 0. -1.
        1   -1    0    0  501    0  0.00000000000E+00  0.00000000000E+00 -0.17231827244E+03  0.17231827252E+03  0.50400001928E-02 0.  1.
    10030    2    1    2    0    0  0.00000000000E+00  0.00000000000E+00  0.19482439245E+03  0.53946093744E+03  0.50305224294E+03 0.  0.
        5    1    3    3  502    0  0.93148529147E+02  0.42575714788E+02  0.34371788642E+03  0.35868288977E+03  0.46999998093E+01 0. -1.
       -5    1    3    3    0  502 -0.93148529147E+02 -0.42575714788E+02 -0.14889349397E+03  0.18077804767E+03  0.46999998093E+01 0.  1.
</event>
<event>
 5   0  0.1413361E-01  0.4960154E+03  0.7818609E-02  0.1014824E+00
       -1   -1    0    0    0  501  0.00000000000E+00  0.00000000000E+00  0.41493598443E+03  0.41493598446E+03  0.50400001928E-02 0.  1.
        1   -1    0    0  501    0  0.00000000000E+00  0.00000000000E+00 -0.14823450550E+03  0.14823450559E+03  0.50400001928E-02 0. -1.
    10030    2    1    2    0    0  0.00000000000E+00  0.00000000000E+00  0.26670147892E+03  0.56317049004E+03  0.49601544532E+03 0.  0.
        3    1    3    3  502    0 -0.19744826137E+02 -0.23669511758E+03  0.21438111958E+03  0.31995892155E+03  0.10100000352E+00 0.  1.
       -3    1    3    3    0  502  0.19744826137E+02  0.23669511758E+03  0.52320359341E+02  0.24321156849E+03  0.10100000352E+00 0. -1.
</event>
<event>
 5   0  0.2413301E-01  0.4988678E+03  0.7818609E-02  0.1014075E+00
        2   -1    0    0  501    0  0.00000000000E+00  0.00000000000E+00  0.31059691630E+03  0.31059691631E+03  0.25500000920E-02 0.  1.
       -2   -1    0    0    0  501  0.00000000000E+00  0.00000000000E+00 -0.20031514334E+03  0.20031514335E+03  0.25500000920E-02 0. -1.
    10030    2    1    2    0    0  0.00000000000E+00  0.00000000000E+00  0.11028177296E+03  0.51091205966E+03  0.49886778134E+03 0.  0.
        4    1    3    3  502    0  0.96667563364E+02 -0.20889460066E+03  0.15355503413E+03  0.27669899422E+03  0.12699999809E+01 0. -1.
       -4    1    3    3    0  502 -0.96667563364E+02  0.20889460066E+03 -0.43273261176E+02  0.23421306544E+03  0.12699999809E+01 0.  1.
</event>
<event>
 5   0  0.2511944E-01  0.4906256E+03  0.7818609E-02  0.1016255E+00
       -2   -1    0    0    0  501  0.00000000000E+00  0.00000000000E+00  0.57637426700E+02  0.57637426756E+02  0.25500000920E-02 0. -1.
        2   -1    0    0  501    0  0.00000000000E+00  0.00000000000E+00 -0.10440848983E+04  0.10440848983E+04  0.25500000920E-02 0.  1.
    10030    2    1    2    0    0  0.00000000000E+00  0.00000000000E+00 -0.98644747161E+03  0.11017223251E+04  0.49062558770E+03 0.  0.
        1    1    3    3  502    0 -0.15182577213E+03 -0.10270555038E+03 -0.12713174679E+03  0.22307392548E+03  0.50400001928E-02 0. -1.
       -1    1    3    3    0  502  0.15182577213E+03  0.10270555038E+03 -0.85931572482E+03  0.87864839959E+03  0.50400001928E-02 0.  1.
</event>
<event>
 5   0  0.2488968E-01  0.5010912E+03  0.7818609E-02  0.1013494E+00
        2   -1    0    0  501    0  0.00000000000E+00  0.00000000000E+00  0.41114982526E+03  0.41114982527E+03  0.25500000920E-02 0. -1.
       -2   -1    0    0    0  501  0.00000000000E+00  0.00000000000E+00 -0.15267693310E+03  0.15267693312E+03  0.25500000920E-02 0.  1.
    10030    2    1    2    0    0  0.00000000000E+00  0.00000000000E+00  0.25847289216E+03  0.56382675839E+03  0.50109118681E+03 0.  0.
        2    1    3    3  502    0  0.10513439538E+03 -0.16772462831E+03  0.30204978503E+03  0.36113552120E+03  0.25500000920E-02 0. -1.
       -2    1    3    3    0  502 -0.10513439538E+03  0.16772462831E+03 -0.43576892866E+02  0.20269123719E+03  0.25500000920E-02 0.  1.
</event>
<event>
 5   0  0.2504064E-01  0.5037734E+03  0.7818609E-02  0.1012799E+00
       -2   -1    0    0    0  501  0.00000000000E+00  0.00000000000E+00  0.13779458435E+03  0.13779458438E+03  0.25500000920E-02 0.  1.
        2   -1    0    0  501    0  0.00000000000E+00  0.00000000000E+00 -0.46044556972E+03  0.46044556973E+03  0.25500000920E-02 0. -1.
    10030    2    1    2    0    0  0.00000000000E+00  0.00000000000E+00 -0.32265098537E+03  0.59824015410E+03  0.50377338518E+03 0.  0.
        5    1    3    3  502    0  0.74827939210E+01  0.22794503378E+03 -0.28817272008E+03  0.36753304236E+03  0.46999998093E+01 0. -1.
       -5    1    3    3    0  502 -0.74827939210E+01 -0.22794503378E+03 -0.34478265284E+02  0.23070711174E+03  0.46999998093E+01 0.  1.
</event>
<event>
 5   0  0.2488968E-01  0.4999994E+03  0.7818609E-02  0.1013779E+00
       -2   -1    0    0    0  501  0.00000000000E+00  0.00000000000E+00  0.66332210907E+02  0.66332210956E+02  0.25500000920E-02 0.  1.
        2   -1    0    0  501    0  0.00000000000E+00  0.00000000000E+00 -0.94222471821E+03  0.94222471821E+03  0.25500000920E-02 0. -1.
    10030    2    1    2    0    0  0.00000000000E+00  0.00000000000E+00 -0.87589250730E+03  0.10085569292E+04  0.49999939502E+03 0.  0.
        2    1    3    3  502    0 -0.64065138291E+02  0.15652870124E+03 -0.66587131093E+02  0.18176749514E+03  0.25500000920E-02 0.  1.
       -2    1    3    3    0  502  0.64065138291E+02 -0.15652870124E+03 -0.80930537621E+03  0.82678943403E+03  0.25500000920E-02 0. -1.
</event>
<event>
 5   0  0.1413361E-01  0.4925522E+03  0.7818609E-02  0.1015741E+00
       -1   -1    0    0    0  501  0.00000000000E+00  0.00000000000E+00  0.19672728363E+03  0.19672728369E+03  0.50400001928E-02 0. -1.
        1   -1    0    0  501    0  0.00000000000E+00  0.00000000000E+00 -0.30830453308E+03  0.30830453312E+03  0.50400001928E-02 0.  1.
    10030    2    1    2    0    0  0.00000000000E+00  0.00000000000E+00 -0.11157724946E+03  0.50503181681E+03  0.49255218343E+03 0.  0.
        3    1    3    3  502    0 -0.96246196609E+01 -0.15635625000E+03 -0.25063494981E+03  0.29556352698E+03  0.10100000352E+00 0.  1.
       -3    1    3    3    0  502  0.96246196609E+01  0.15635625000E+03  0.13905770035E+03  0.20946828983E+03  0.10100000352E+00 0. -1.
</event>
<event>
 5   0  0.2511944E-01  0.5249245E+03  0.7818609E-02  0.1007471E+00
       -2   -1    0    0    0  501  0.00000000000E+00  0.00000000000E+00  0.28082962102E+03  0.28082962103E+03  0.25500000920E-02 0. -1.
        2   -1    0    0  501    0  0.00000000000E+00  0.00000000000E+00 -0.24529614877E+03  0.24529614878E+03  0.25500000920E-02 0.  1.
    10030    2    1    2    0    0  0.00000000000E+00  0.00000000000E+00  0.35533472253E+02  0.52612576981E+03  0.52492446886E+03 0.  0.
        1    1    3    3  502    0 -0.93719417196E+02 -0.14071783627E+03  0.21897871152E+03  0.27665233548E+03  0.50400001928E-02 0. -1.
       -1    1    3    3    0  502  0.93719417196E+02  0.14071783627E+03 -0.18344523926E+03  0.24947343433E+03  0.50400001928E-02 0.  1.
</event>
<event>
 5   0  0.1453602E-01  0.5131125E+03  0.7818609E-02  0.1010412E+00
       -1   -1    0    0    0  501  0.00000000000E+00  0.00000000000E+00  0.93129097613E+02  0.93129097750E+02  0.50400001928E-02 0. -1.
        1   -1    0    0  501    0  0.00000000000E+00  0.00000000000E+00 -0.70677277905E+03  0.70677277907E+03  0.50400001928E-02 0.  1.
    10030    2    1    2    0    0  0.00000000000E+00  0.00000000000E+00 -0.61364368144E+03  0.79990187682E+03  0.51311250693E+03 0.  0.
        2    1    3    3  502    0  0.79008160338E+02  0.13716756626E+03 -0.62156904078E+03  0.64140884239E+03  0.25500000920E-02 0.  1.
       -2    1    3    3    0  502 -0.79008160338E+02 -0.13716756626E+03  0.79253593467E+01  0.15849303442E+03  0.25500000920E-02 0. -1.
</event>
<event>
 5   0  0.1439814E-01  0.4129442E+03  0.7818609E-02  0.1039387E+00
       -1   -1    0    0    0  501  0.00000000000E+00  0.00000000000E+00  0.10085786456E+03  0.10085786468E+03  0.50400001928E-02 0.  1.
        1   -1    0    0  501    0  0.00000000000E+00  0.00000000000E+00 -0.42268126276E+03  0.42268126279E+03  0.50400001928E-02 0. -1.
    10030    2    1    2    0    0  0.00000000000E+00  0.00000000000E+00 -0.32182339821E+03  0.52353912748E+03  0.41294420733E+03 0.  0.
        4    1    3    3  502    0 -0.10620560196E+03  0.12330848344E+03 -0.32200227334E+03  0.36079313867E+03  0.12699999809E+01 0. -1.
       -4    1    3    3    0  502  0.10620560196E+03 -0.12330848344E+03  0.17887513401E+00  0.16274598881E+03  0.12699999809E+01 0.  1.
</event>
<event>
 5   0  0.2466034E-01  0.4825527E+03  0.7818609E-02  0.1018436E+00
        2   -1    0    0  501    0  0.00000000000E+00  0.00000000000E+00  0.14454883231E+04  0.14454883231E+04  0.25500000920E-02 0. -1.
       -2   -1    0    0    0  501  0.00000000000E+00  0.00000000000E+00 -0.40273082304E+02  0.40273082385E+02  0.25500000920E-02 0.  1.
    10030    2    1    2    0    0  0.00000000000E+00  0.00000000000E+00  0.14052152408E+04  0.14857614055E+04  0.48255267182E+03 0.  0.
        3    1    3    3  502    0 -0.79867736030E+02 -0.74048329605E+01  0.19791593644E+01  0.80234743612E+02  0.10100000352E+00 0.  1.
       -3    1    3    3    0  502  0.79867736030E+02  0.74048329605E+01  0.14032360815E+04  0.14055266619E+04  0.10100000352E+00 0. -1.
</event>
<event>
 5   0  0.2504064E-01  0.5020533E+03  0.7818609E-02  0.1013244E+00
       -2   -1    0    0    0  501  0.00000000000E+00  0.00000000000E+00  0.12897037563E+03  0.12897037565E+03  0.25500000920E-02 0. -1.
        2   -1    0    0  501    0  0.00000000000E+00  0.00000000000E+00 -0.48859566848E+03  0.48859566848E+03  0.25500000920E-02 0.  1.
    10030    2    1    2    0    0  0.00000000000E+00  0.00000000000E+00 -0.35962529285E+03  0.61756604414E+03  0.50205325177E+03 0.  0.
        5    1    3    3  502    0  0.20878192997E+03 -0.17824109759E+02 -0.98802787940E+01  0.20982684070E+03  0.46999998093E+01 0. -1.
       -5    1    3    3    0  502 -0.20878192997E+03  0.17824109759E+02 -0.34974501405E+03  0.40773920344E+03  0.46999998093E+01 0.  1.
</event>
<event>
 5   0  0.9868500E-02  0.5137613E+03  0.7818609E-02  0.1010248E+00
        3   -1    0    0  501    0  0.00000000000E+00  0.00000000000E+00  0.72448095472E+03  0.72448096176E+03  0.10100000352E+00 0. -1.
       -3   -1    0    0    0  501  0.00000000000E+00  0.00000000000E+00 -0.91082661808E+02  0.91082717806E+02  0.10100000352E+00 0.  1.
    10030    2    1    2    0    0  0.00000000000E+00  0.00000000000E+00  0.63339829291E+03  0.81556367957E+03  0.51376134339E+03 0.  0.
        2    1    3    3  502    0  0.23507940617E+03 -0.76032960930E+02  0.42832136917E+03  0.49447197458E+03  0.25500000920E-02 0. -1.
       -2    1    3    3    0  502 -0.23507940617E+03  0.76032960930E+02  0.20507692374E+03  0.32109170499E+03  0.25500000920E-02 0.  1.
</event>
<event>
 5   0  0.1448458E-01  0.5017451E+03  0.7818609E-02  0.1013324E+00
       -1   -1    0    0    0  501  0.00000000000E+00  0.00000000000E+00  0.89250925832E+02  0.89250925975E+02  0.50400001928E-02 0. -1.
        1   -1    0    0  501    0  0.00000000000E+00  0.00000000000E+00 -0.70516948483E+03  0.70516948485E+03  0.50400001928E-02 0.  1.
    10030    2    1    2    0    0  0.00000000000E+00  0.00000000000E+00 -0.61591855900E+03  0.79442041082E+03  0.50174507254E+03 0.  0.
        5    1    3    3  502    0 -0.23881040442E+03 -0.60028008028E+02 -0.23233766315E+03  0.33858034603E+03  0.46999998093E+01 0.  1.
       -5    1    3    3    0  502  0.23881040442E+03  0.60028008028E+02 -0.38358089585E+03  0.45584006479E+03  0.46999998093E+01 0. -1.
</event>
<event>
 5   0  0.2504064E-01  0.5021332E+03  0.7818609E-02  0.1013224E+00
       -2   -1    0    0    0  501  0.00000000000E+00  0.00000000000E+00  0.11292019121E+03  0.11292019123E+03  0.25500000920E-02 0. -1.
        2   -1    0    0  501    0  0.00000000000E+00  0.00000000000E+00 -0.55822111173E+03  0.55822111174E+03  0.25500000920E-02 0.  1.
    10030    2    1    2    0    0  0.00000000000E+00  0.00000000000E+00 -0.44530092053E+03  0.67114130297E+03  0.50213318824E+03 0.  0.
        5    1    3    3  502    0  0.30144995746E+02 -0.24533164481E+03 -0.16414536432E+03  0.29675263662E+03  0.46999998093E+01 0. -1.
       -5    1    3    3    0  502 -0.30144995746E+02  0.24533164481E+03 -0.28115555620E+03  0.37438866635E+03  0.46999998093E+01 0.  1.
</event>
<event>
 5   0  0.2511944E-01  0.4996048E+03  0.7818609E-02  0.1013882E+00
       -2   -1    0    0    0  501  0.00000000000E+00  0.00000000000E+00  0.82596131214E+02  0.82596131254E+02  0.25500000920E-02 0. -1.
        2   -1    0    0  501    0  0.00000000000E+00  0.00000000000E+00 -0.75549827749E+03  0.75549827750E+03  0.25500000920E-02 0.  1.
    10030    2    1    2    0    0  0.00000000000E+00  0.00000000000E+00 -0.67290214628E+03  0.83809440875E+03  0.49960478332E+03 0.  0.
        1    1    3    3  502    0 -0.84747136778E+02  0.18127881560E+03 -0.85623911893E+02  0.21765923020E+03  0.50400001928E-02 0. -1.
       -1    1    3    3    0  502  0.84747136778E+02 -0.18127881560E+03 -0.58727823439E+03  0.62043517855E+03  0.50400001928E-02 0.  1.
</event>
<event>
 5   0  0.1439814E-01  0.5428012E+03  0.7818609E-02  0.1003174E+00
       -1   -1    0    0    0  501  0.00000000000E+00  0.00000000000E+00  0.14887782146E+03  0.14887782155E+03  0.50400001928E-02 0.  1.
        1   -1    0    0  501    0  0.00000000000E+00  0.00000000000E+00 -0.49475666410E+03  0.49475666412E+03  0.50400001928E-02 0. -1.
    10030    2    1    2    0    0  0.00000000000E+00  0.00000000000E+00 -0.34587884264E+03  0.64363448567E+03  0.54280123191E+03 0.  0.
        4    1    3    3  502    0  0.10386832265E+03 -0.24588118839E+03 -0.11472219303E+03  0.29053223871E+03  0.12699999809E+01 0. -1.
       -4    1    3    3    0  502 -0.10386832265E+03  0.24588118839E+03 -0.23115664960E+03  0.35310224696E+03  0.12699999809E+01 0.  1.
</event>
<event>
 5   0  0.9868500E-02  0.4986217E+03  0.7818609E-02  0.1014139E+00
       -3   -1    0    0    0  501  0.00000000000E+00  0.00000000000E+00  0.29025054529E+03  0.29025056286E+03  0.10100000352E+00 0.  1.
        3   -1    0    0  501    0  0.00000000000E+00  0.00000000000E+00 -0.21414566485E+03  0.21414568866E+03  0.10100000352E+00 0. -1.
    10030    2    1    2    0    0  0.00000000000E+00  0.00000000000E+00  0.76104880446E+02  0.50439625153E+03  0.49862172609E+03 0.  0.
        4    1    3    3  502    0 -0.23972775840E+03 -0.14669958579E+02 -0.29577537225E+02  0.24199390372E+03  0.12699999809E+01 0. -1.
       -4    1    3    3    0  502  0.23972775840E+03  0.14669958579E+02  0.10568241767E+03  0.26240234781E+03  0.12699999809E+01 0.  1.
</event>
<event>
 5   0  0.1448458E-01  0.5041045E+03  0.7818609E-02  0.1012713E+00
       -1   -1    0    0    0  501  0.00000000000E+00  0.00000000000E+00  0.60549684536E+03  0.60549684538E+03  0.50400001928E-02 0.  1.
        1   -1    0    0  501    0  0.00000000000E+00  0.00000000000E+00 -0.10492266868E+03  0.10492266880E+03  0.50400001928E-02 0. -1.
    10030    2    1    2    0    0  0.00000000000E+00  0.00000000000E+00  0.50057417668E+03  0.71041951418E+03  0.50410453259E+03 0.  0.
        5    1    3    3  502    0  0.98613790491E+02  0.48654261852E+02  0.56984152473E+03  0.58037347474E+03  0.46999998093E+01 0.  1.
       -5    1    3    3    0  502 -0.98613790491E+02 -0.48654261852E+02 -0.69267348054E+02  0.13004603945E+03  0.46999998093E+01 0. -1.
</event>
<event>
 5   0  0.2504064E-01  0.5022364E+03  0.7818609E-02  0.1013197E+00
       -2   -1    0    0    0  501  0.00000000000E+00  0.00000000000E+00  0.71478112807E+02  0.71478112853E+02  0.25500000920E-02 0. -1.
        2   -1    0    0  501    0  0.00000000000E+00  0.00000000000E+00 -0.88223295452E+03  0.88223295453E+03  0.25500000920E-02 0.  1.
    10030    2    1    2    0    0  0.00000000000E+00  0.00000000000E+00 -0.81075484172E+03  0.95371106738E+03  0.50223638526E+03 0.  0.
        5    1    3    3  502    0  0.17379717029E+03  0.81502396174E+02 -0.98066691723E+02  0.21560905131E+03  0.46999998093E+01 0. -1.
       -5    1    3    3    0  502 -0.17379717029E+03 -0.81502396174E+02 -0.71268814999E+03  0.73810201607E+03  0.46999998093E+01 0.  1.
</event>
<event>
 5   0  0.2488968E-01  0.4980491E+03  0.7818609E-02  0.1014289E+00
       -2   -1    0    0    0  501  0.00000000000E+00  0.00000000000E+00  0.54211232937E+02  0.54211232997E+02  0.25500000920E-02 0. -1.
        2   -1    0    0  501    0  0.00000000000E+00  0.00000000000E+00 -0.11439182491E+04  0.11439182491E+04  0.25500000920E-02 0.  1.
    10030    2    1    2    0    0  0.00000000000E+00  0.00000000000E+00 -0.10897070162E+04  0.11981294821E+04  0.49804906868E+03 0.  0.
        2    1    3    3  502    0  0.12064294555E+03 -0.18680225255E+03 -0.27521277014E+03  0.35382463273E+03  0.25500000920E-02 0.  1.
       -2    1    3    3    0  502 -0.12064294555E+03  0.18680225255E+03 -0.81449424605E+03  0.84430484940E+03  0.25500000920E-02 0. -1.
</event>
<event>
 5   0  0.2466034E-01  0.4704978E+03  0.7818609E-02  0.1021780E+00
       -2   -1    0    0    0  501  0.00000000000E+00  0.00000000000E+00  0.73842367915E+03  0.73842367916E+03  0.25500000920E-02 0.  1.
        2   -1    0    0  501    0  0.00000000000E+00  0.00000000000E+00 -0.74946195208E+02  0.74946195251E+02  0.25500000920E-02 0. -1.
    10030    2    1    2    0    0  0.00000000000E+00  0.00000000000E+00  0.66347748395E+03  0.81336987441E+03  0.47049780116E+03 0.  0.
        3    1    3    3  502    0 -0.19705565095E+02  0.21772262951E+03  0.18152118024E+03  0.28415031545E+03  0.10100000352E+00 0. -1.
       -3    1    3    3    0  502  0.19705565095E+02 -0.21772262951E+03  0.48195630371E+03  0.52921955895E+03  0.10100000352E+00 0.  1.
</event>
<event>
 5   0  0.1529146E-01  0.4959571E+03  0.7818609E-02  0.1014840E+00
       -1   -1    0    0    0  501  0.00000000000E+00  0.00000000000E+00  0.11459515688E+03  0.11459515699E+03  0.50400001928E-02 0. -1.
        1   -1    0    0  501    0  0.00000000000E+00  0.00000000000E+00 -0.53661387142E+03  0.53661387144E+03  0.50400001928E-02 0.  1.
    10030    2    1    2    0    0  0.00000000000E+00  0.00000000000E+00 -0.42201871454E+03  0.65120902843E+03  0.49595705791E+03 0.  0.
        1    1    3    3  502    0  0.47210089267E+02  0.97885952428E+02  0.81661716331E+02  0.13593780986E+03  0.50400001928E-02 0. -1.
       -1    1    3    3    0  502 -0.47210089267E+02 -0.97885952428E+02 -0.50368043088E+03  0.51527121857E+03  0.50400001928E-02 0.  1.
</event>
<event>
 5   0  0.2466034E-01  0.4992334E+03  0.7818609E-02  0.1013979E+00
        2   -1    0    0  501    0  0.00000000000E+00  0.00000000000E+00  0.59276567946E+03  0.59276567946E+03  0.25500000920E-02 0. -1.
       -2   -1    0    0    0  501  0.00000000000E+00  0.00000000000E+00 -0.10511490354E+03  0.10511490357E+03  0.25500000920E-02 0.  1.
    10030    2    1    2    0    0  0.00000000000E+00  0.00000000000E+00  0.48765077592E+03  0.69788058303E+03  0.49923344131E+03 0.  0.
        3    1    3    3  502    0 -0.23087458100E+03 -0.44451875619E+02  0.36102827058E+03  0.43083693406E+03  0.10100000352E+00 0. -1.
       -3    1    3    3    0  502  0.23087458100E+03  0.44451875619E+02  0.12662250534E+03  0.26704364897E+03  0.10100000352E+00 0.  1.
</event>
<event>
 5   0  0.2504064E-01  0.5152613E+03  0.7818609E-02  0.1009871E+00
       -2   -1    0    0    0  501  0.00000000000E+00  0.00000000000E+00  0.55459001056E+02  0.55459001115E+02  0.25500000920E-02 0.  1.
        2   -1    0    0  501    0  0.00000000000E+00  0.00000000000E+00 -0.11968041046E+04  0.11968041046E+04  0.25500000920E-02 0. -1.
    10030    2    1    2    0    0  0.00000000000E+00  0.00000000000E+00 -0.11413451035E+04  0.12522631057E+04  0.51526133229E+03 0.  0.
        5    1    3    3  502    0  0.15141977878E+03 -0.15286312860E+03 -0.91485946900E+03  0.93983244437E+03  0.46999998093E+01 0. -1.
       -5    1    3    3    0  502 -0.15141977878E+03  0.15286312860E+03 -0.22648563453E+03  0.31243066133E+03  0.46999998093E+01 0.  1.
</event>
<event>
 5   0  0.1439814E-01  0.5023064E+03  0.7818609E-02  0.1013179E+00
       -1   -1    0    0    0  501  0.00000000000E+00  0.00000000000E+00  0.19873069940E+04  0.19873069940E+04  0.50400001928E-02 0.  1.
        1   -1    0    0  501    0  0.00000000000E+00  0.00000000000E+00 -0.31740411175E+02  0.31740411576E+02  0.50400001928E-02 0. -1.
    10030    2    1    2    0    0  0.00000000000E+00  0.00000000000E+00  0.19555665828E+04  0.20190474056E+04  0.50230644644E+03 0.  0.
        4    1    3    3  502    0  0.15847753971E+03  0.58762859967E+02  0.23109654764E+03  0.28631351965E+03  0.12699999809E+01 0. -1.
       -4    1    3    3    0  502 -0.15847753971E+03 -0.58762859967E+02  0.17244700352E+04  0.17327338860E+04  0.12699999809E+01 0.  1.
</event>
<event>
 5   0  0.1453602E-01  0.4979469E+03  0.7818609E-02  0.1014316E+00
       -1   -1    0    0    0  501  0.00000000000E+00  0.00000000000E+00  0.68276633921E+03  0.68276633923E+03  0.50400001928E-02 0.  1.
        1   -1    0    0  501    0  0.00000000000E+00  0.00000000000E+00 -0.90789148993E+02  0.90789149133E+02  0.50400001928E-02 0. -1.
    10030    2    1    2    0    0  0.00000000000E+00  0.00000000000E+00  0.59197719022E+03  0.77355548836E+03  0.49794688455E+03 0.  0.
        2    1    3    3  502    0 -0.54505390465E+02  0.24671479003E+02 -0.79455752069E+02  0.99462234086E+02  0.25500000920E-02 0. -1.
       -2    1    3    3    0  502  0.54505390465E+02 -0.24671479003E+02  0.67143294229E+03  0.67409325428E+03  0.25500000920E-02 0.  1.
</event>
<event>
 5   0  0.2413301E-01  0.4975607E+03  0.7818609E-02  0.1014418E+00
       -2   -1    0    0    0  501  0.00000000000E+00  0.00000000000E+00  0.19768537939E+03  0.19768537941E+03  0.25500000920E-02 0. -1.
        2   -1    0    0  501    0  0.00000000000E+00  0.00000000000E+00 -0.31308158887E+03  0.31308158888E+03  0.25500000920E-02 0.  1.
    10030    2    1    2    0    0  0.00000000000E+00  0.00000000000E+00 -0.11539620948E+03  0.51076696829E+03  0.49756066036E+03 0.  0.
        4    1    3    3  502    0  0.99430902042E+02 -0.20262821301E+03  0.49698722538E+02  0.23111960737E+03  0.12699999809E+01 0. -1.
       -4    1    3    3    0  502 -0.99430902042E+02  0.20262821301E+03 -0.16509493202E+03  0.27964736092E+03  0.12699999809E+01 0.  1.
</event>
<event>
 5   0  0.2413301E-01  0.5142204E+03  0.7818609E-02  0.1010132E+00
        2   -1    0    0  501    0  0.00000000000E+00  0.00000000000E+00  0.52318427284E+03  0.52318427285E+03  0.25500000920E-02 0. -1.
       -2   -1    0    0    0  501  0.00000000000E+00  0.00000000000E+00 -0.12635252345E+03  0.12635252348E+03  0.25500000920E-02 0.  1.
    10030    2    1    2    0    0  0.00000000000E+00  0.00000000000E+00  0.39683174939E+03  0.64953679632E+03  0.51422039288E+03 0.  0.
        4    1    3    3  502    0 -0.19338104537E+03  0.11216308503E+03  0.38004679666E+02  0.22676585927E+03  0.12699999809E+01 0.  1.
       -4    1    3    3    0  502  0.19338104537E+03 -0.11216308503E+03  0.35882706972E+03  0.42277093705E+03  0.12699999809E+01 0. -1.
</event>
<event>
 5   0  0.2488968E-01  0.5018589E+03  0.7818609E-02  0.1013295E+00
        2   -1    0    0  501    0  0.00000000000E+00  0.00000000000E+00  0.19285099999E+04  0.19285099999E+04  0.25500000920E-02 0.  1.
       -2   -1    0    0    0  501  0.00000000000E+00  0.00000000000E+00 -0.32649862626E+02  0.32649862725E+02  0.25500000920E-02 0. -1.
    10030    2    1    2    0    0  0.00000000000E+00  0.00000000000E+00  0.18958601373E+04  0.19611598626E+04  0.50185889120E+03 0.  0.
        2    1    3    3  502    0 -0.57999628983E+02 -0.24220784476E+03  0.82831145432E+03  0.86494419611E+03  0.25500000920E-02 0. -1.
       -2    1    3    3    0  502  0.57999628983E+02  0.24220784476E+03  0.10675486830E+04  0.10962156665E+04  0.25500000920E-02 0.  1.
</event>
<event>
 5   0  0.2511944E-01  0.4979339E+03  0.7818609E-02  0.1014320E+00
        2   -1    0    0  501    0  0.00000000000E+00  0.00000000000E+00  0.93878948102E+03  0.93878948102E+03  0.25500000920E-02 0. -1.
       -2   -1    0    0    0  501  0.00000000000E+00  0.00000000000E+00 -0.66026038360E+02  0.66026038409E+02  0.25500000920E-02 0.  1.
    10030    2    1    2    0    0  0.00000000000E+00  0.00000000000E+00  0.87276344266E+03  0.10048155194E+04  0.49793393261E+03 0.  0.
        1    1    3    3  502    0  0.49876948481E+02 -0.41115168586E+02 -0.48797853821E+02  0.80990108288E+02  0.50400001928E-02 0.  1.
       -1    1    3    3    0  502 -0.49876948481E+02  0.41115168586E+02  0.92156129648E+03  0.92382541114E+03  0.50400001928E-02 0. -1.
</event>
<event>
 5   0  0.2413301E-01  0.4832380E+03  0.7818609E-02  0.1018249E+00
        2   -1    0    0  501    0  0.00000000000E+00  0.00000000000E+00  0.72508782015E+03  0.72508782015E+03  0.25500000920E-02 0. -1.
       -2   -1    0    0    0  501  0.00000000000E+00  0.00000000000E+00 -0.80514042785E+02  0.80514042825E+02  0.25500000920E-02 0.  1.
    10030    2    1    2    0    0  0.00000000000E+00  0.00000000000E+00  0.64457377736E+03  0.80560186298E+03  0.48323804400E+03 0.  0.
        4    1    3    3  502    0  0.34169178564E+02 -0.61766735034E+02 -0.62935551232E+02  0.94578849799E+02  0.12699999809E+01 0.  1.
       -4    1    3    3    0  502 -0.34169178564E+02  0.61766735034E+02  0.70750932859E+03  0.71102301318E+03  0.12699999809E+01 0. -1.
</event>
<event>
 5   0  0.9868500E-02  0.4987296E+03  0.7818609E-02  0.1014111E+00
        3   -1    0    0  501    0  0.00000000000E+00  0.00000000000E+00  0.10957241222E+03  0.10957245877E+03  0.10100000352E+00 0.  1.
       -3   -1    0    0    0  501  0.00000000000E+00  0.00000000000E+00 -0.56750410126E+03  0.56750411025E+03  0.10100000352E+00 0. -1.
    10030    2    1    2    0    0  0.00000000000E+00  0.00000000000E+00 -0.45793168904E+03  0.67707656902E+03  0.49872963465E+03 0.  0.
        5    1    3    3  502    0  0.19105703746E+03 -0.13720288261E+03 -0.11674130297E+03  0.26263671559E+03  0.46999998093E+01 0.  1.
       -5    1    3    3    0  502 -0.19105703746E+03  0.13720288261E+03 -0.34119038607E+03  0.41443985342E+03  0.46999998093E+01 0. -1.
</event>
<event>
 5   0  0.2504064E-01  0.5067360E+03  0.7818609E-02  0.1012036E+00
       -2   -1    0    0    0  501  0.00000000000E+00  0.00000000000E+00  0.20434854792E+03  0.20434854793E+03  0.25500000920E-02 0.  1.
        2   -1    0    0  501    0  0.00000000000E+00  0.00000000000E+00 -0.31414632837E+03  0.31414632838E+03  0.25500000920E-02 0. -1.
    10030    2    1    2    0    0  0.00000000000E+00  0.00000000000E+00 -0.10979778045E+03  0.51849487631E+03  0.50673601034E+03 0.  0.
        5    1    3    3  502    0  0.45966278528E+02  0.27353406771E+02  0.19845989526E+03  0.20559554385E+03  0.46999998093E+01 0.  1.
       -5    1    3    3    0  502 -0.45966278528E+02 -0.27353406771E+02 -0.30825767571E+03  0.31289933246E+03  0.46999998093E+01 0. -1.
</event>
<event>
 5   0  0.9868500E-02  0.5128547E+03  0.7818609E-02  0.1010477E+00
        3   -1    0    0  501    0  0.00000000000E+00  0.00000000000E+00  0.73107415320E+02  0.73107485087E+02  0.10100000352E+00 0. -1.
       -3   -1    0    0    0  501  0.00000000000E+00  0.00000000000E+00 -0.89942940698E+03  0.89942941265E+03  0.10100000352E+00 0.  1.
    10030    2    1    2    0    0  0.00000000000E+00  0.00000000000E+00 -0.82632199166E+03  0.97253689774E+03  0.51285473924E+03 0.  0.
        4    1    3    3  502    0 -0.16894802334E+03 -0.17994127511E+02 -0.77736392613E+03  0.79571572170E+03  0.12699999809E+01 0.  1.
       -4    1    3    3    0  502  0.16894802334E+03  0.17994127511E+02 -0.48958065537E+02  0.17682117604E+03  0.12699999809E+01 0. -1.
</event>
<event>
 5   0  0.1529146E-01  0.4836681E+03  0.7818609E-02  0.1018132E+00
        1   -1    0    0  501    0  0.00000000000E+00  0.00000000000E+00  0.16568261884E+04  0.16568261885E+04  0.50400001928E-02 0. -1.
       -1   -1    0    0    0  501  0.00000000000E+00  0.00000000000E+00 -0.35298644533E+02  0.35298644893E+02  0.50400001928E-02 0.  1.
    10030    2    1    2    0    0  0.00000000000E+00  0.00000000000E+00  0.16215275439E+04  0.16921248333E+04  0.48366814652E+03 0.  0.
        1    1    3    3  502    0  0.21808754699E+03  0.91727281061E+02  0.63557023156E+03  0.67817814143E+03  0.50400001928E-02 0. -1.
       -1    1    3    3    0  502 -0.21808754699E+03 -0.91727281061E+02  0.98595731236E+03  0.10139466919E+04  0.50400001928E-02 0.  1.
</event>
<event>
 5   0  0.1529146E-01  0.5067719E+03  0.7818609E-02  0.1012026E+00
       -1   -1    0    0    0  501  0.00000000000E+00  0.00000000000E+00  0.15494508399E+03  0.15494508407E+03  0.50400001928E-02 0. -1.
        1   -1    0    0  501    0  0.00000000000E+00  0.00000000000E+00 -0.41436899000E+03  0.41436899003E+03  0.50400001928E-02 0.  1.
    10030    2    1    2    0    0  0.00000000000E+00  0.00000000000E+00 -0.25942390602E+03  0.56931407410E+03  0.50677189342E+03 0.  0.
        1    1    3    3  502    0 -0.41190101829E+02  0.11662476864E+03  0.11872865820E+03  0.17144811300E+03  0.50400001928E-02 0. -1.
       -1    1    3    3    0  502  0.41190101829E+02 -0.11662476864E+03 -0.37815256422E+03  0.39786596110E+03  0.50400001928E-02 0.  1.
</event>
<event>
 5   0  0.1439814E-01  0.4977560E+03  0.7818609E-02  0.1014366E+00
       -1   -1    0    0    0  501  0.00000000000E+00  0.00000000000E+00  0.96310304558E+03  0.96310304559E+03  0.50400001928E-02 0.  1.
        1   -1    0    0  501    0  0.00000000000E+00  0.00000000000E+00 -0.64313221503E+02  0.64313221701E+02  0.50400001928E-02 0. -1.
    10030    2    1    2    0    0  0.00000000000E+00  0.00000000000E+00  0.89878982407E+03  0.10274162673E+04  0.49775600291E+03 0.  0.
        4    1    3    3  502    0  0.24377816659E+03 -0.49360006851E+02  0.46720387943E+03  0.52928752360E+03  0.12699999809E+01 0. -1.
       -4    1    3    3    0  502 -0.24377816659E+03  0.49360006851E+02  0.43158594464E+03  0.49812874369E+03  0.12699999809E+01 0.  1.
</event>
<event>
 5   0  0.1529146E-01  0.5401228E+03  0.7818609E-02  0.1003806E+00
       -1   -1    0    0    0  501  0.00000000000E+00  0.00000000000E+00  0.34138917522E+03  0.34138917525E+03  0.50400001928E-02 0. -1.
        1   -1    0    0  501    0  0.00000000000E+00  0.00000000000E+00 -0.21363639469E+03  0.21363639475E+03  0.50400001928E-02 0.  1.
    10030    2    1    2    0    0  0.00000000000E+00  0.00000000000E+00  0.12775278053E+03  0.55502557000E+03  0.54012277347E+03 0.  0.
        1    1    3    3  502    0 -0.25328950914E+03 -0.70617118359E+02  0.12714465499E+03  0.29207553161E+03  0.50400001928E-02 0. -1.
       -1    1    3    3    0  502  0.25328950914E+03  0.70617118359E+02  0.60812553593E+00  0.26295003839E+03  0.50400001928E-02 0.  1.
</event>
<event>
 5   0  0.2511944E-01  0.4989006E+03  0.7818609E-02  0.1014066E+00
        2   -1    0    0  501    0  0.00000000000E+00  0.00000000000E+00  0.19598951640E+03  0.19598951642E+03  0.25500000920E-02 0.  1.
       -2   -1    0    0    0  501  0.00000000000E+00  0.00000000000E+00 -0.31749377479E+03  0.31749377480E+03  0.25500000920E-02 0. -1.
    10030    2    1    2    0    0  0.00000000000E+00  0.00000000000E+00 -0.12150425839E+03  0.51348329122E+03  0.49890059687E+03 0.  0.
        1    1    3    3  502    0  0.86549242899E+02 -0.17067877671E+03 -0.22543992272E+03  0.29571130355E+03  0.50400001928E-02 0.  1.
       -1    1    3    3    0  502 -0.86549242899E+02  0.17067877671E+03  0.10393566433E+03  0.21777198767E+03  0.50400001928E-02 0. -1.
</event>
<event>
 5   0  0.2413301E-01  0.5041160E+03  0.7818609E-02  0.1012710E+00
       -2   -1    0    0    0  501  0.00000000000E+00  0.00000000000E+00  0.52492352141E+02  0.52492352203E+02  0.25500000920E-02 0.  1.
        2   -1    0    0  501    0  0.00000000000E+00  0.00000000000E+00 -0.12103332131E+04  0.12103332131E+04  0.25500000920E-02 0. -1.
    10030    2    1    2    0    0  0.00000000000E+00  0.00000000000E+00 -0.11578408609E+04  0.12628255653E+04  0.50411600756E+03 0.  0.
        4    1    3    3  502    0  0.14699549245E+03 -0.20422027191E+03 -0.61590930465E+03  0.66532659553E+03  0.12699999809E+01 0. -1.
       -4    1    3    3    0  502 -0.14699549245E+03  0.20422027191E+03 -0.54193155627E+03  0.59749896974E+03  0.12699999809E+01 0.  1.
</event>
<event>
 5   0  0.2488968E-01  0.4943656E+03  0.7818609E-02  0.1015260E+00
       -2   -1    0    0    0  501  0.00000000000E+00  0.00000000000E+00  0.10735890321E+04  0.10735890321E+04  0.25500000920E-02 0.  1.
        2   -1    0    0  501    0  0.00000000000E+00  0.00000000000E+00 -0.56911297373E+02  0.56911297430E+02  0.25500000920E-02 0. -1.
    10030    2    1    2    0    0  0.00000000000E+00  0.00000000000E+00  0.10166777347E+04  0.11305003295E+04  0.49436563269E+03 0.  0.
        2    1    3    3  502    0 -0.22913838212E+03  0.11180909852E+02  0.29788232601E+03  0.37598309944E+03  0.25500000920E-02 0. -1.
       -2    1    3    3    0  502  0.22913838212E+03 -0.11180909852E+02  0.71879540871E+03  0.75451723008E+03  0.25500000920E-02 0.  1.
</event>
<event>
 5   0  0.1448458E-01  0.4981300E+03  0.7818609E-02  0.1014268E+00
        1   -1    0    0  501    0  0.00000000000E+00  0.00000000000E+00  0.34503000141E+03  0.34503000145E+03  0.50400001928E-02 0.  1.
       -1   -1    0    0    0  501  0.00000000000E+00  0.00000000000E+00 -0.17979123957E+03  0.17979123964E+03  0.50400001928E-02 0. -1.
    10030    2    1    2    0    0  0.00000000000E+00  0.00000000000E+00  0.16523876184E+03  0.52482124108E+03  0.49812998974E+03 0.  0.
        5    1    3    3  502    0 -0.74047305046E+02  0.73415202706E+02  0.32087472421E+03  0.33742476792E+03  0.46999998093E+01 0.  1.
       -5    1    3    3    0  502  0.74047305046E+02 -0.73415202706E+02 -0.15563596237E+03  0.18739647316E+03  0.46999998093E+01 0. -1.
</event>
<event>
 5   0  0.1413361E-01  0.4841554E+03  0.7818609E-02  0.1017999E+00
       -1   -1    0    0    0  501  0.00000000000E+00  0.00000000000E+00  0.47220790671E+02  0.47220790940E+02  0.50400001928E-02 0.  1.
        1   -1    0    0  501    0  0.00000000000E+00  0.00000000000E+00 -0.12410131724E+04  0.12410131724E+04  0.50400001928E-02 0. -1.
    10030    2    1    2    0    0  0.00000000000E+00  0.00000000000E+00 -0.11937923817E+04  0.12882339634E+04  0.48415544369E+03 0.  0.
        3    1    3    3  502    0  0.20651180815E+02  0.18157107104E+03 -0.17445012964E+03  0.25264081824E+03  0.10100000352E+00 0. -1.
       -3    1    3    3    0  502 -0.20651180815E+02 -0.18157107104E+03 -0.10193422521E+04  0.10355931451E+04  0.10100000352E+00 0.  1.
</event>
<event>
 5   0  0.2511944E-01  0.4969577E+03  0.7818609E-02  0.1014576E+00
        2   -1    0    0  501    0  0.00000000000E+00  0.00000000000E+00  0.74250157305E+03  0.74250157306E+03  0.25500000920E-02 0. -1.
       -2   -1    0    0    0  501  0.00000000000E+00  0.00000000000E+00 -0.83153681722E+02  0.83153681761E+02  0.25500000920E-02 0.  1.
    10030    2    1    2    0    0  0.00000000000E+00  0.00000000000E+00  0.65934789133E+03  0.82565525482E+03  0.49695770243E+03 0.  0.
        1    1    3    3  502    0 -0.92125439845E+02 -0.11965474599E+03  0.65751452715E+03  0.67463301753E+03  0.50400001928E-02 0. -1.
       -1    1    3    3    0  502  0.92125439845E+02  0.11965474599E+03  0.18333641760E+01  0.15102223728E+03  0.50400001928E-02 0.  1.
</event>
<event>
 5   0  0.9868500E-02  0.4936388E+03  0.7818609E-02  0.1015453E+00
        3   -1    0    0  501    0  0.00000000000E+00  0.00000000000E+00  0.51207027719E+03  0.51207028715E+03  0.10100000352E+00 0. -1.
       -3   -1    0    0    0  501  0.00000000000E+00  0.00000000000E+00 -0.11896767566E+03  0.11896771854E+03  0.10100000352E+00 0.  1.
    10030    2    1    2    0    0  0.00000000000E+00  0.00000000000E+00  0.39310260152E+03  0.63103800568E+03  0.49363884500E+03 0.  0.
        5    1    3    3  502    0  0.89159639205E+02  0.14235170516E+03 -0.34557084872E+02  0.17155095843E+03  0.46999998093E+01 0.  1.
       -5    1    3    3    0  502 -0.89159639205E+02 -0.14235170516E+03  0.42765968639E+03  0.45948704725E+03  0.46999998093E+01 0. -1.
</event>
<event>
 5   0  0.1439814E-01  0.5026219E+03  0.7818609E-02  0.1013097E+00
        1   -1    0    0  501    0  0.00000000000E+00  0.00000000000E+00  0.36357978899E+03  0.36357978902E+03  0.50400001928E-02 0. -1.
       -1   -1    0    0    0  501  0.00000000000E+00  0.00000000000E+00 -0.17370931927E+03  0.17370931935E+03  0.50400001928E-02 0.  1.
    10030    2    1    2    0    0  0.00000000000E+00  0.00000000000E+00  0.18987046971E+03  0.53728910837E+03  0.50262191626E+03 0.  0.
        4    1    3    3  502    0 -0.38037169504E+02 -0.79722673115E+02 -0.15656442877E+03  0.17976808429E+03  0.12699999809E+01 0.  1.
       -4    1    3    3    0  502  0.38037169504E+02  0.79722673115E+02  0.34643489849E+03  0.35752102408E+03  0.12699999809E+01 0. -1.
</event>
<event>
 5   0  0.1529146E-01  0.5016140E+03  0.7818609E-02  0.1013358E+00
        1   -1    0    0  501    0  0.00000000000E+00  0.00000000000E+00  0.52250674172E+03  0.52250674174E+03  0.50400001928E-02 0. -1.
       -1   -1    0    0    0  501  0.00000000000E+00  0.00000000000E+00 -0.12038917944E+03  0.12038917955E+03  0.50400001928E-02 0.  1.
    10030    2    1    2    0    0  0.00000000000E+00  0.00000000000E+00  0.40211756228E+03  0.64289592129E+03  0.50161402663E+03 0.  0.
        1    1    3    3  502    0  0.18918421902E+03 -0.12914755061E+02  0.41144814386E+03  0.45304197900E+03  0.50400001928E-02 0. -1.
       -1    1    3    3    0  502 -0.18918421902E+03  0.12914755061E+02 -0.93305815837E+01  0.18985394229E+03  0.50400001928E-02 0.  1.
</event>
<event>
 5   0  0.1529146E-01  0.4577984E+03  0.7818609E-02  0.1025422E+00
       -1   -1    0    0    0  501  0.00000000000E+00  0.00000000000E+00  0.96971372674E+02  0.96971372805E+02  0.50400001928E-02 0.  1.
        1   -1    0    0  501    0  0.00000000000E+00  0.00000000000E+00 -0.54031255597E+03  0.54031255600E+03  0.50400001928E-02 0. -1.
    10030    2    1    2    0    0  0.00000000000E+00  0.00000000000E+00 -0.44334118330E+03  0.63728392880E+03  0.45779842846E+03 0.  0.
        1    1    3    3  502    0  0.13900715846E+03 -0.93035336430E+02 -0.43919023052E+03  0.46996449072E+03  0.50400001928E-02 0. -1.
       -1    1    3    3    0  502 -0.13900715846E+03  0.93035336430E+02 -0.41509527807E+01  0.16731943808E+03  0.50400001928E-02 0.  1.
</event>
<event>
 5   0  0.9868500E-02  0.4855391E+03  0.7818609E-02  0.1017624E+00
        3   -1    0    0  501    0  0.00000000000E+00  0.00000000000E+00  0.35991530200E+03  0.35991531617E+03  0.10100000352E+00 0.  1.
       -3   -1    0    0    0  501  0.00000000000E+00  0.00000000000E+00 -0.16375251246E+03  0.16375254361E+03  0.10100000352E+00 0. -1.
    10030    2    1    2    0    0  0.00000000000E+00  0.00000000000E+00  0.19616278954E+03  0.52366785977E+03  0.48553906883E+03 0.  0.
        2    1    3    3  502    0 -0.24652246724E+02  0.99581411014E+02  0.33538923739E+03  0.35072800180E+03  0.25500000920E-02 0.  1.
       -2    1    3    3    0  502  0.24652246724E+02 -0.99581411014E+02 -0.13922644785E+03  0.17293985797E+03  0.25500000920E-02 0. -1.
</event>
<event>
 5   0  0.1448458E-01  0.4942697E+03  0.7818609E-02  0.1015286E+00
       -1   -1    0    0    0  501  0.00000000000E+00  0.00000000000E+00  0.20116954925E+03  0.20116954931E+03  0.50400001928E-02 0.  1.
        1   -1    0    0  501    0  0.00000000000E+00  0.00000000000E+00 -0.30360283647E+03  0.30360283651E+03  0.50400001928E-02 0. -1.
    10030    2    1    2    0    0  0.00000000000E+00  0.00000000000E+00 -0.10243328722E+03  0.50477238582E+03  0.49426974736E+03 0.  0.
        5    1    3    3  502    0  0.20147478088E+03 -0.13420162694E+03 -0.65305118741E+00  0.24212534043E+03  0.46999998093E+01 0. -1.
       -5    1    3    3    0  502 -0.20147478088E+03  0.13420162694E+03 -0.10178023603E+03  0.26264704539E+03  0.46999998093E+01 0.  1.
</event>
<event>
 5   0  0.1413361E-01  0.4941470E+03  0.7818609E-02  0.1015318E+00
       -1   -1    0    0    0  501  0.00000000000E+00  0.00000000000E+00  0.70347823436E+03  0.70347823437E+03  0.50400001928E-02 0. -1.
        1   -1    0    0  501    0  0.00000000000E+00  0.00000000000E+00 -0.86776393464E+02  0.86776393610E+02  0.50400001928E-02 0.  1.
    10030    2    1    2    0    0  0.00000000000E+00  0.00000000000E+00  0.61670184089E+03  0.79025462798E+03  0.49414695840E+03 0.  0.
        3    1    3    3  502    0 -0.10938365987E+03  0.10518097440E+03  0.62016989278E+03  0.63846576144E+03  0.10100000352E+00 0. -1.
       -3    1    3    3    0  502  0.10938365987E+03 -0.10518097440E+03 -0.34680518875E+01  0.15178886654E+03  0.10100000352E+00 0.  1.
</event>
<event>
 5   0  0.2413301E-01  0.5050373E+03  0.7818609E-02  0.1012472E+00
        2   -1    0    0  501    0  0.00000000000E+00  0.00000000000E+00  0.61449376829E+03  0.61449376829E+03  0.25500000920E-02 0.  1.
       -2   -1    0    0    0  501  0.00000000000E+00  0.00000000000E+00 -0.10376943673E+03  0.10376943676E+03  0.25500000920E-02 0. -1.
    10030    2    1    2    0    0  0.00000000000E+00  0.00000000000E+00  0.51072433156E+03  0.71826320506E+03  0.50503731436E+03 0.  0.
        4    1    3    3  502    0  0.14716750596E+03 -0.19400578505E+03  0.16030291847E+03  0.29153929069E+03  0.12699999809E+01 0. -1.
       -4    1    3    3    0  502 -0.14716750596E+03  0.19400578505E+03  0.35042141308E+03  0.42672391437E+03  0.12699999809E+01 0.  1.
</event>
<event>
 5   0  0.2511944E-01  0.4910832E+03  0.7818609E-02  0.1016133E+00
        2   -1    0    0  501    0  0.00000000000E+00  0.00000000000E+00  0.17489265316E+03  0.17489265318E+03  0.25500000920E-02 0. -1.
       -2   -1    0    0    0  501  0.00000000000E+00  0.00000000000E+00 -0.34472959392E+03  0.34472959393E+03  0.25500000920E-02 0.  1.
    10030    2    1    2    0    0  0.00000000000E+00  0.00000000000E+00 -0.16983694076E+03  0.51962224711E+03  0.49108318363E+03 0.  0.
        1    1    3    3  502    0  0.58049908963E+02 -0.22692984180E+03 -0.16284433594E+03  0.28528095416E+03  0.50400001928E-02 0. -1.
       -1    1    3    3    0  502 -0.58049908963E+02  0.22692984180E+03 -0.69926048196E+01  0.23434129295E+03  0.50400001928E-02 0.  1.
</event>
<event>
 5   0  0.1439814E-01  0.4989544E+03  0.7818609E-02  0.1014052E+00
       -1   -1    0    0    0  501  0.00000000000E+00  0.00000000000E+00  0.84387969407E+02  0.84387969557E+02  0.50400001928E-02 0.  1.
        1   -1    0    0  501    0  0.00000000000E+00  0.00000000000E+00 -0.73753245112E+03  0.73753245113E+03  0.50400001928E-02 0. -1.
    10030    2    1    2    0    0  0.00000000000E+00  0.00000000000E+00 -0.65314448171E+03  0.82192042069E+03  0.49895437062E+03 0.  0.
        4    1    3    3  502    0 -0.21349655314E+02 -0.30857298658E+02  0.79707578272E+02  0.88107273233E+02  0.12699999809E+01 0.  1.
       -4    1    3    3    0  502  0.21349655314E+02  0.30857298658E+02 -0.73285205998E+03  0.73381314746E+03  0.12699999809E+01 0. -1.
</event>
<event>
 5   0  0.2504064E-01  0.5075575E+03  0.7818609E-02  0.1011825E+00
       -2   -1    0    0    0  501  0.00000000000E+00  0.00000000000E+00  0.24130835148E+03  0.24130835150E+03  0.25500000920E-02 0.  1.
        2   -1    0    0  501    0  0.00000000000E+00  0.00000000000E+00 -0.26689361513E+03  0.26689361514E+03  0.25500000920E-02 0. -1.
    10030    2    1    2    0    0  0.00000000000E+00  0.00000000000E+00 -0.25585263642E+02  0.50820196664E+03  0.50755751711E+03 0.  0.
        5    1    3    3  502    0 -0.10531114230E+03  0.22529800748E+03  0.37589638451E+02  0.25156450422E+03  0.46999998093E+01 0. -1.
       -5    1    3    3    0  502  0.10531114230E+03 -0.22529800748E+03 -0.63174902092E+02  0.25663746242E+03  0.46999998093E+01 0.  1.
</event>
<event>
 5   0  0.1439814E-01  0.4998504E+03  0.7818609E-02  0.1013818E+00
        1   -1    0    0  501    0  0.00000000000E+00  0.00000000000E+00  0.11762740996E+04  0.11762740996E+04  0.50400001928E-02 0. -1.
       -1   -1    0    0    0  501  0.00000000000E+00  0.00000000000E+00 -0.53102076228E+02  0.53102076468E+02  0.50400001928E-02 0.  1.
    10030    2    1    2    0    0  0.00000000000E+00  0.00000000000E+00  0.11231720233E+04  0.12293761760E+04  0.49985036582E+03 0.  0.
        4    1    3    3  502    0  0.51070170624E+02 -0.56625629303E+02  0.11469564443E+04  0.11494891571E+04  0.12699999809E+01 0. -1.
       -4    1    3    3    0  502 -0.51070170624E+02  0.56625629303E+02 -0.23784420949E+02  0.79887018979E+02  0.12699999809E+01 0.  1.
</event>
<event>
 5   0  0.1529146E-01  0.4957264E+03  0.7818609E-02  0.1014900E+00
        1   -1    0    0  501    0  0.00000000000E+00  0.00000000000E+00  0.68316443332E+03  0.68316443334E+03  0.50400001928E-02 0. -1.
       -1   -1    0    0    0  501  0.00000000000E+00  0.00000000000E+00 -0.89928824897E+02  0.89928825038E+02  0.50400001928E-02 0.  1.
    10030    2    1    2    0    0  0.00000000000E+00  0.00000000000E+00  0.59323560843E+03  0.77309325838E+03  0.49572643570E+03 0.  0.
        1    1    3    3  502    0 -0.93096839955E+02  0.22963765403E+03  0.28729965056E+03  0.37939631390E+03  0.50400001928E-02 0. -1.
       -1    1    3    3    0  502  0.93096839955E+02 -0.22963765403E+03  0.30593595786E+03  0.39369694449E+03  0.50400001928E-02 0.  1.
</event>
<event>
 5   0  0.1529146E-01  0.4958424E+03  0.7818609E-02  0.1014870E+00
       -1   -1    0    0    0  501  0.00000000000E+00  0.00000000000E+00  0.43310798886E+03  0.43310798889E+03  0.50400001928E-02 0. -1.
        1   -1    0    0  501    0  0.00000000000E+00  0.00000000000E+00 -0.14191593069E+03  0.14191593078E+03  0.50400001928E-02 0.  1.
    10030    2    1    2    0    0  0.00000000000E+00  0.00000000000E+00  0.29119205818E+03  0.57502391967E+03  0.49584240787E+03 0.  0.
        1    1    3    3  502    0  0.23439523040E+03 -0.24856752039E+02  0.23471841437E+03  0.33264352726E+03  0.50400001928E-02 0. -1.
       -1    1    3    3    0  502 -0.23439523040E+03  0.24856752039E+02  0.56473643808E+02  0.24238039241E+03  0.50400001928E-02 0.  1.
</event>
<event>
 5   0  0.1413361E-01  0.4971128E+03  0.7818609E-02  0.1014535E+00
        1   -1    0    0  501    0  0.00000000000E+00  0.00000000000E+00  0.36081438695E+03  0.36081438699E+03  0.50400001928E-02 0.  1.
       -1   -1    0    0    0  501  0.00000000000E+00  0.00000000000E+00 -0.17122453673E+03  0.17122453681E+03  0.50400001928E-02 0. -1.
    10030    2    1    2    0    0  0.00000000000E+00  0.00000000000E+00  0.18958985022E+03  0.53203892379E+03  0.49711276902E+03 0.  0.
        3    1    3    3  502    0  0.81604076876E+02  0.19348919005E+03  0.23711499305E+03  0.31673462419E+03  0.10100000352E+00 0.  1.
       -3    1    3    3    0  502 -0.81604076876E+02 -0.19348919005E+03 -0.47525142832E+02  0.21530429961E+03  0.10100000352E+00 0. -1.
</event>
<event>
 5   0  0.9868500E-02  0.5150183E+03  0.7818609E-02  0.1009932E+00
       -3   -1    0    0    0  501  0.00000000000E+00  0.00000000000E+00  0.46756090226E+03  0.46756091316E+03  0.10100000352E+00 0. -1.
        3   -1    0    0  501    0  0.00000000000E+00  0.00000000000E+00 -0.14182313922E+03  0.14182317518E+03  0.10100000352E+00 0.  1.
    10030    2    1    2    0    0  0.00000000000E+00  0.00000000000E+00  0.32573776304E+03  0.60938408835E+03  0.51501832673E+03 0.  0.
        5    1    3    3  502    0  0.51973595562E+02  0.48403680983E+02 -0.12995245039E+03  0.14816848629E+03  0.46999998093E+01 0.  1.
       -5    1    3    3    0  502 -0.51973595562E+02 -0.48403680983E+02  0.45569021343E+03  0.46121560206E+03  0.46999998093E+01 0. -1.
</event>
<event>
 5   0  0.2504064E-01  0.5103672E+03  0.7818609E-02  0.1011108E+00
        2   -1    0    0  501    0  0.00000000000E+00  0.00000000000E+00  0.56948762081E+03  0.56948762082E+03  0.25500000920E-02 0. -1.
       -2   -1    0    0    0  501  0.00000000000E+00  0.00000000000E+00 -0.11434607554E+03  0.11434607557E+03  0.25500000920E-02 0.  1.
    10030    2    1    2    0    0  0.00000000000E+00  0.00000000000E+00  0.45514154527E+03  0.68383369639E+03  0.51036721886E+03 0.  0.
        5    1    3    3  502    0  0.17218045435E+03  0.17784257485E+03  0.31041097383E+03  0.39705308582E+03  0.46999998093E+01 0. -1.
       -5    1    3    3    0  502 -0.17218045435E+03 -0.17784257485E+03  0.14473057144E+03  0.28678061057E+03  0.46999998093E+01 0.  1.
</event>
<event>
 5   0  0.2511944E-01  0.4598499E+03  0.7818609E-02  0.1024825E+00
        2   -1    0    0  501    0  0.00000000000E+00  0.00000000000E+00  0.16258525012E+04  0.16258525012E+04  0.25500000920E-02 0.  1.
       -2   -1    0    0    0  501  0.00000000000E+00  0.00000000000E+00 -0.32515552521E+02  0.32515552621E+02  0.25500000920E-02 0. -1.
    10030    2    1    2    0    0  0.00000000000E+00  0.00000000000E+00  0.15933369487E+04  0.16583680538E+04  0.45984994282E+03 0.  0.
        1    1    3    3  502    0  0.37073854502E+02 -0.10173090740E+03  0.15281555617E+04  0.15319866412E+04  0.50400001928E-02 0.  1.
       -1    1    3    3    0  502 -0.37073854502E+02  0.10173090740E+03  0.65181386977E+02  0.12638141256E+03  0.50400001928E-02 0. -1.
</event>
<event>
 5   0  0.1439814E-01  0.4911556E+03  0.7818609E-02  0.1016114E+00
       -1   -1    0    0    0  501  0.00000000000E+00  0.00000000000E+00  0.37414010819E+03  0.37414010822E+03  0.50400001928E-02 0. -1.
        1   -1    0    0  501    0  0.00000000000E+00  0.00000000000E+00 -0.16119213858E+03  0.16119213866E+03  0.50400001928E-02 0.  1.
    10030    2    1    2    0    0  0.00000000000E+00  0.00000000000E+00  0.21294796961E+03  0.53533224688E+03  0.49115555254E+03 0.  0.
        4    1    3    3  502    0  0.18821728491E+03 -0.12581474559E+03  0.21017195517E+03  0.30891578171E+03  0.12699999809E+01 0. -1.
       -4    1    3    3    0  502 -0.18821728491E+03  0.12581474559E+03  0.27760144354E+01  0.22641646518E+03  0.12699999809E+01 0.  1.
</event>
<event>
 5   0  0.1413361E-01  0.5087482E+03  0.7818609E-02  0.1011520E+00
       -1   -1    0    0    0  501  0.00000000000E+00  0.00000000000E+00  0.34539678625E+03  0.34539678629E+03  0.50400001928E-02 0. -1.
        1   -1    0    0  501    0  0.00000000000E+00  0.00000000000E+00 -0.18733866716E+03  0.18733866723E+03  0.50400001928E-02 0.  1.
    10030    2    1    2    0    0  0.00000000000E+00  0.00000000000E+00  0.15805811909E+03  0.53273545352E+03  0.50874816405E+03 0.  0.
        3    1    3    3  502    0  0.13434636981E+03  0.74308861687E+02  0.29141054646E+03  0.32937952395E+03  0.10100000352E+00 0. -1.
       -3    1    3    3    0  502 -0.13434636981E+03 -0.74308861687E+02 -0.13335242737E+03  0.20335592957E+03  0.10100000352E+00 0.  1.
</event>
<event>
 5   0  0.2504064E-01  0.5006637E+03  0.7818609E-02  0.1013606E+00
       -2   -1    0    0    0  501  0.00000000000E+00  0.00000000000E+00  0.94870700883E+02  0.94870700917E+02  0.25500000920E-02 0. -1.
        2   -1    0    0  501    0  0.00000000000E+00  0.00000000000E+00 -0.66054143062E+03  0.66054143063E+03  0.25500000920E-02 0.  1.
    10030    2    1    2    0    0  0.00000000000E+00  0.00000000000E+00 -0.56567072974E+03  0.75541213155E+03  0.50066367354E+03 0.  0.
        5    1    3    3  502    0  0.23800694166E+03  0.67789297525E+02 -0.22635532848E+03  0.33541245932E+03  0.46999998093E+01 0. -1.
       -5    1    3    3    0  502 -0.23800694166E+03 -0.67789297525E+02 -0.33931540126E+03  0.41999967222E+03  0.46999998093E+01 0.  1.
</event>
<event>
 5   0  0.1413361E-01  0.4471254E+03  0.7818609E-02  0.1028583E+00
       -1   -1    0    0    0  501  0.00000000000E+00  0.00000000000E+00  0.10234091972E+03  0.10234091985E+03  0.50400001928E-02 0. -1.
        1   -1    0    0  501    0  0.00000000000E+00  0.00000000000E+00 -0.48837035242E+03  0.48837035245E+03  0.50400001928E-02 0.  1.
    10030    2    1    2    0    0  0.00000000000E+00  0.00000000000E+00 -0.38602943270E+03  0.59071127230E+03  0.44712535636E+03 0.  0.
        3    1    3    3  502    0  0.55590236498E+02 -0.21414020667E+03 -0.15053344694E+03  0.26759415419E+03  0.10100000352E+00 0.  1.
       -3    1    3    3    0  502 -0.55590236498E+02  0.21414020667E+03 -0.23549598576E+03  0.32311711811E+03  0.10100000352E+00 0. -1.
</event>
<event>
 5   0  0.1529146E-01  0.5326602E+03  0.7818609E-02  0.1005589E+00
        1   -1    0    0  501    0  0.00000000000E+00  0.00000000000E+00  0.96400305977E+03  0.96400305979E+03  0.50400001928E-02 0. -1.
       -1   -1    0    0    0  501  0.00000000000E+00  0.00000000000E+00 -0.73580403667E+02  0.73580403840E+02  0.50400001928E-02 0.  1.
    10030    2    1    2    0    0  0.00000000000E+00  0.00000000000E+00  0.89042265610E+03  0.10375834636E+04  0.53266024583E+03 0.  0.
        1    1    3    3  502    0  0.31687050839E+02 -0.22906527219E+03  0.18784326472E+03  0.29792626644E+03  0.50400001928E-02 0.  1.
       -1    1    3    3    0  502 -0.31687050839E+02  0.22906527219E+03  0.70257939139E+03  0.73965719718E+03  0.50400001928E-02 0. -1.
</event>
<event>
 5   0  0.2413301E-01  0.4401160E+03  0.7818609E-02  0.1030711E+00
       -2   -1    0    0    0  501  0.00000000000E+00  0.00000000000E+00  0.20621711542E+03  0.20621711544E+03  0.25500000920E-02 0.  1.
        2   -1    0    0  501    0  0.00000000000E+00  0.00000000000E+00 -0.23482790195E+03  0.23482790196E+03  0.25500000920E-02 0. -1.
    10030    2    1    2    0    0  0.00000000000E+00  0.00000000000E+00 -0.28610786524E+02  0.44104501740E+03  0.44011604182E+03 0.  0.
        4    1    3    3  502    0 -0.93812403971E+00 -0.19615877690E+03 -0.11423937163E+03  0.22700527034E+03  0.12699999809E+01 0. -1.
       -4    1    3    3    0  502  0.93812403971E+00  0.19615877690E+03  0.85628585110E+02  0.21403974706E+03  0.12699999809E+01 0.  1.
</event>
<event>
 5   0  0.2488968E-01  0.5000121E+03  0.7818609E-02  0.1013776E+00
        2   -1    0    0  501    0  0.00000000000E+00  0.00000000000E+00  0.19995927766E+04  0.19995927766E+04  0.25500000920E-02 0. -1.
       -2   -1    0    0    0  501  0.00000000000E+00  0.00000000000E+00 -0.31257875032E+02  0.31257875136E+02  0.25500000920E-02 0.  1.
    10030    2    1    2    0    0  0.00000000000E+00  0.00000000000E+00  0.19683349016E+04  0.20308506518E+04  0.50001208479E+03 0.  0.
        2    1    3    3  502    0 -0.15709878620E+03  0.17078564121E+03  0.60630174457E+03  0.64919147356E+03  0.25500000920E-02 0. -1.
       -2    1    3    3    0  502  0.15709878620E+03 -0.17078564121E+03  0.13620331570E+04  0.13816591782E+04  0.25500000920E-02 0.  1.
</event>
<event>
 5   0  0.1453602E-01  0.4817005E+03  0.7818609E-02  0.1018669E+00
        1   -1    0    0  501    0  0.00000000000E+00  0.00000000000E+00  0.91574156359E+02  0.91574156497E+02  0.50400001928E-02 0.  1.
       -1   -1    0    0    0  501  0.00000000000E+00  0.00000000000E+00 -0.63346300951E+03  0.63346300953E+03  0.50400001928E-02 0. -1.
    10030    2    1    2    0    0  0.00000000000E+00  0.00000000000E+00 -0.54188885315E+03  0.72503716603E+03  0.48170049092E+03 0.  0.
        2    1    3    3  502    0  0.34882791743E+02  0.16875188359E+02 -0.62874028033E+03  0.62993326731E+03  0.25500000920E-02 0. -1.
       -2    1    3    3    0  502 -0.34882791743E+02 -0.16875188359E+02  0.86851427181E+02  0.95103898720E+02  0.25500000920E-02 0.  1.
</event>
<event>
 5   0  0.2488968E-01  0.5116997E+03  0.7818609E-02  0.1010769E+00
       -2   -1    0    0    0  501  0.00000000000E+00  0.00000000000E+00  0.53016634416E+03  0.53016634417E+03  0.25500000920E-02 0. -1.
        2   -1    0    0  501    0  0.00000000000E+00  0.00000000000E+00 -0.12346908648E+03  0.12346908650E+03  0.25500000920E-02 0.  1.
    10030    2    1    2    0    0  0.00000000000E+00  0.00000000000E+00  0.40669725769E+03  0.65363543067E+03  0.51169973306E+03 0.  0.
        2    1    3    3  502    0 -0.76766104279E+02 -0.66518944967E+02 -0.96608432218E+02  0.14018200308E+03  0.25500000920E-02 0.  1.
       -2    1    3    3    0  502  0.76766104279E+02  0.66518944967E+02  0.50330568990E+03  0.51345342759E+03  0.25500000920E-02 0. -1.
</event>
<event>
 5   0  0.1453602E-01  0.5166573E+03  0.7818609E-02  0.1009520E+00
       -1   -1    0    0    0  501  0.00000000000E+00  0.00000000000E+00  0.29926135938E+02  0.29926136363E+02  0.50400001928E-02 0.  1.
        1   -1    0    0  501    0  0.00000000000E+00  0.00000000000E+00 -0.22299465781E+04  0.22299465781E+04  0.50400001928E-02 0. -1.
    10030    2    1    2    0    0  0.00000000000E+00  0.00000000000E+00 -0.22000204422E+04  0.22598727145E+04  0.51665727486E+03 0.  0.
        2    1    3    3  502    0  0.21814797483E+03  0.68046671397E+02 -0.16269814508E+04  0.16429508603E+04  0.25500000920E-02 0. -1.
       -2    1    3    3    0  502 -0.21814797483E+03 -0.68046671397E+02 -0.57303899140E+03  0.61692185412E+03  0.25500000920E-02 0.  1.
</event>
<event>
 5   0  0.1448458E-01  0.4651485E+03  0.7818609E-02  0.1023298E+00
       -1   -1    0    0    0  501  0.00000000000E+00  0.00000000000E+00  0.51596710609E+02  0.51596710856E+02  0.50400001928E-02 0.  1.
        1   -1    0    0  501    0  0.00000000000E+00  0.00000000000E+00 -0.10483380118E+04  0.10483380118E+04  0.50400001928E-02 0. -1.
    10030    2    1    2    0    0  0.00000000000E+00  0.00000000000E+00 -0.99674130118E+03  0.10999347227E+04  0.46514854899E+03 0.  0.
        5    1    3    3  502    0 -0.10054412113E+03 -0.20523303965E+03 -0.59977673558E+03  0.64185975368E+03  0.46999998093E+01 0. -1.
       -5    1    3    3    0  502  0.10054412113E+03  0.20523303965E+03 -0.39696456561E+03  0.45807496898E+03  0.46999998093E+01 0.  1.
</event>
<event>
 5   0  0.1529146E-01  0.5212769E+03  0.7818609E-02  0.1008370E+00
       -1   -1    0    0    0  501  0.00000000000E+00  0.00000000000E+00  0.39802231970E+03  0.39802231973E+03  0.50400001928E-02 0.  1.
        1   -1    0    0  501    0  0.00000000000E+00  0.00000000000E+00 -0.17067482331E+03  0.17067482339E+03  0.50400001928E-02 0. -1.
    10030    2    1    2    0    0  0.00000000000E+00  0.00000000000E+00  0.22734749639E+03  0.56869714312E+03  0.52127685205E+03 0.  0.
        1    1    3    3  502    0  0.29986179813E+02 -0.62671974604E+02  0.38773397455E+03  0.39390935813E+03  0.50400001928E-02 0.  1.
       -1    1    3    3    0  502 -0.29986179813E+02  0.62671974604E+02 -0.16038647816E+03  0.17478778499E+03  0.50400001928E-02 0. -1.
</event>
<event>
 5   0  0.2488968E-01  0.4844987E+03  0.7818609E-02  0.1017906E+00
        2   -1    0    0  501    0  0.00000000000E+00  0.00000000000E+00  0.80908599274E+03  0.80908599275E+03  0.25500000920E-02 0.  1.
       -2   -1    0    0    0  501  0.00000000000E+00  0.00000000000E+00 -0.72532163074E+02  0.72532163119E+02  0.25500000920E-02 0. -1.
    10030    2    1    2    0    0  0.00000000000E+00  0.00000000000E+00  0.73655382967E+03  0.88161815587E+03  0.48449873968E+03 0.  0.
        2    1    3    3  502    0 -0.75513453819E+02  0.16697198489E+02 -0.49465275987E+02  0.91803549387E+02  0.25500000920E-02 0. -1.
       -2    1    3    3    0  502  0.75513453819E+02 -0.16697198489E+02  0.78601910566E+03  0.78981460648E+03  0.25500000920E-02 0.  1.
</event>
<event>
 5   0  0.2413301E-01  0.4995736E+03  0.7818609E-02  0.1013890E+00
        2   -1    0    0  501    0  0.00000000000E+00  0.00000000000E+00  0.25942056914E+03  0.25942056915E+03  0.25500000920E-02 0.  1.
       -2   -1    0    0    0  501  0.00000000000E+00  0.00000000000E+00 -0.24051074152E+03  0.24051074153E+03  0.25500000920E-02 0. -1.
    10030    2    1    2    0    0  0.00000000000E+00  0.00000000000E+00  0.18909827618E+02  0.49993131068E+03  0.49957355196E+03 0.  0.
        4    1    3    3  502    0  0.18355938253E+03 -0.16245964205E+03 -0.38586114042E+02  0.24814851059E+03  0.12699999809E+01 0.  1.
       -4    1    3    3    0  502 -0.18355938253E+03  0.16245964205E+03  0.57495941660E+02  0.25178280009E+03  0.12699999809E+01 0. -1.
</event>
<event>
 5   0  0.2511944E-01  0.4954008E+03  0.7818609E-02  0.1014986E+00
       -2   -1    0    0    0  501  0.00000000000E+00  0.00000000000E+00  0.10456937099E+04  0.10456937099E+04  0.25500000920E-02 0.  1.
        2   -1    0    0  501    0  0.00000000000E+00  0.00000000000E+00 -0.58674433800E+02  0.58674433856E+02  0.25500000920E-02 0. -1.
    10030    2    1    2    0    0  0.00000000000E+00  0.00000000000E+00  0.98701927609E+03  0.11043681437E+04  0.49540079285E+03 0.  0.
        1    1    3    3  502    0 -0.23655588198E+03 -0.19382920214E+02  0.33554613410E+03  0.41100558516E+03  0.50400001928E-02 0. -1.
       -1    1    3    3    0  502  0.23655588198E+03  0.19382920214E+02  0.65147314199E+03  0.69336255859E+03  0.50400001928E-02 0.  1.
</event>
<event>
 5   0  0.2511944E-01  0.4984065E+03  0.7818609E-02  0.1014196E+00
        2   -1    0    0  501    0  0.00000000000E+00  0.00000000000E+00  0.94196491447E+03  0.94196491448E+03  0.25500000920E-02 0. -1.
       -2   -1    0    0    0  501  0.00000000000E+00  0.00000000000E+00 -0.65928421804E+02  0.65928421853E+02  0.25500000920E-02 0.  1.
    10030    2    1    2    0    0  0.00000000000E+00  0.00000000000E+00  0.87603649267E+03  0.10078933363E+04  0.49840650169E+03 0.  0.
        1    1    3    3  502    0  0.26600168293E+02 -0.85530370819E+02 -0.32250581852E+02  0.95200385193E+02  0.50400001928E-02 0.  1.
       -1    1    3    3    0  502 -0.26600168293E+02  0.85530370819E+02  0.90828707452E+03  0.91269295114E+03  0.50400001928E-02 0. -1.
</event>
<event>
 5   0  0.1453602E-01  0.4729144E+03  0.7818609E-02  0.1021101E+00
       -1   -1    0    0    0  501  0.00000000000E+00  0.00000000000E+00  0.24089625334E+03  0.24089625339E+03  0.50400001928E-02 0.  1.
        1   -1    0    0  501    0  0.00000000000E+00  0.00000000000E+00 -0.23209990381E+03  0.23209990387E+03  0.50400001928E-02 0. -1.
    10030    2    1    2    0    0  0.00000000000E+00  0.00000000000E+00  0.87963495270E+01  0.47299615726E+03  0.47291435696E+03 0.  0.
        2    1    3    3  502    0  0.32686717882E+02  0.15512644251E+03 -0.17107265281E+03  0.23323483282E+03  0.25500000920E-02 0. -1.
       -2    1    3    3    0  502 -0.32686717882E+02 -0.15512644251E+03  0.17986900234E+03  0.23976132445E+03  0.25500000920E-02 0.  1.
</event>
<event>
 5   0  0.9868500E-02  0.5150521E+03  0.7818609E-02  0.1009923E+00
       -4   -1    0    0    0  501  0.00000000000E+00  0.00000000000E+00  0.13556520512E+03  0.13557115379E+03  0.12699999809E+01 0. -1.
        4   -1    0    0  501    0  0.00000000000E+00  0.00000000000E+00 -0.48919120270E+03  0.48919285123E+03  0.12699999809E+01 0.  1.
    10030    2    1    2    0    0  0.00000000000E+00  0.00000000000E+00 -0.35362599757E+03  0.62476400502E+03  0.51505214863E+03 0.  0.
        4    1    3    3  502    0 -0.18117331906E+03 -0.10447154298E+03 -0.35908782020E+03  0.41555234369E+03  0.12699999809E+01 0.  1.
       -4    1    3    3    0  502  0.18117331906E+03  0.10447154298E+03  0.54618226217E+01  0.20921166133E+03  0.12699999809E+01 0. -1.
</event>
<event>
 5   0  0.2511944E-01  0.4996630E+03  0.7818609E-02  0.1013867E+00
       -2   -1    0    0    0  501  0.00000000000E+00  0.00000000000E+00  0.93806332074E+02  0.93806332109E+02  0.25500000920E-02 0.  1.
        2   -1    0    0  501    0  0.00000000000E+00  0.00000000000E+00 -0.66536843712E+03  0.66536843713E+03  0.25500000920E-02 0. -1.
    10030    2    1    2    0    0  0.00000000000E+00  0.00000000000E+00 -0.57156210505E+03  0.75917476923E+03  0.49966297673E+03 0.  0.
        1    1    3    3  502    0  0.38164975283E+02  0.47102374781E+02  0.82461257580E+02  0.10234773117E+03  0.50400001928E-02 0.  1.
       -1    1    3    3    0  502 -0.38164975283E+02 -0.47102374781E+02 -0.65402336263E+03  0.65682703807E+03  0.50400001928E-02 0. -1.
</event>
<event>
 5   0  0.2504064E-01  0.4943362E+03  0.7818609E-02  0.1015268E+00
        2   -1    0    0  501    0  0.00000000000E+00  0.00000000000E+00  0.65085795143E+03  0.65085795143E+03  0.25500000920E-02 0. -1.
       -2   -1    0    0    0  501  0.00000000000E+00  0.00000000000E+00 -0.93863905169E+02  0.93863905204E+02  0.25500000920E-02 0.  1.
    10030    2    1    2    0    0  0.00000000000E+00  0.00000000000E+00  0.55699404626E+03  0.74472185663E+03  0.49433619752E+03 0.  0.
        5    1    3    3  502    0 -0.20948366162E+02  0.91576542448E+02  0.62284185021E+03  0.62990408599E+03  0.46999998093E+01 0. -1.
       -5    1    3    3    0  502  0.20948366162E+02 -0.91576542448E+02 -0.65847803956E+02  0.11481777064E+03  0.46999998093E+01 0.  1.
</event>
<event>
 5   0  0.2413301E-01  0.5035510E+03  0.7818609E-02  0.1012856E+00
        2   -1    0    0  501    0  0.00000000000E+00  0.00000000000E+00  0.75411129351E+03  0.75411129351E+03  0.25500000920E-02 0.  1.
       -2   -1    0    0    0  501  0.00000000000E+00  0.00000000000E+00 -0.84060413202E+02  0.84060413240E+02  0.25500000920E-02 0. -1.
    10030    2    1    2    0    0  0.00000000000E+00  0.00000000000E+00  0.67005088031E+03  0.83817170675E+03  0.50355101807E+03 0.  0.
        4    1    3    3  502    0  0.21602337630E+03 -0.12895866711E+03  0.35106517269E+03  0.43190832975E+03  0.12699999809E+01 0. -1.
       -4    1    3    3    0  502 -0.21602337630E+03  0.12895866711E+03  0.31898570762E+03  0.40626337700E+03  0.12699999809E+01 0.  1.
</event>
<event>
 5   0  0.1529146E-01  0.5039466E+03  0.7818609E-02  0.1012754E+00
       -1   -1    0    0    0  501  0.00000000000E+00  0.00000000000E+00  0.68027307114E+02  0.68027307301E+02  0.50400001928E-02 0.  1.
        1   -1    0    0  501    0  0.00000000000E+00  0.00000000000E+00 -0.93330976749E+03  0.93330976750E+03  0.50400001928E-02 0. -1.
    10030    2    1    2    0    0  0.00000000000E+00  0.00000000000E+00 -0.86528246037E+03  0.10013370748E+04  0.50394662529E+03 0.  0.
        1    1    3    3  502    0  0.28257636692E+01  0.15193322089E+03 -0.33266741654E+02  0.15555823564E+03  0.50400001928E-02 0.  1.
       -1    1    3    3    0  502 -0.28257636692E+01 -0.15193322089E+03 -0.83201571872E+03  0.84577883916E+03  0.50400001928E-02 0. -1.
</event>
<event>
 5   0  0.2466034E-01  0.5010905E+03  0.7818609E-02  0.1013495E+00
       -2   -1    0    0    0  501  0.00000000000E+00  0.00000000000E+00  0.80224578978E+02  0.80224579018E+02  0.25500000920E-02 0. -1.
        2   -1    0    0  501    0  0.00000000000E+00  0.00000000000E+00 -0.78246507138E+03  0.78246507138E+03  0.25500000920E-02 0.  1.
    10030    2    1    2    0    0  0.00000000000E+00  0.00000000000E+00 -0.70224049240E+03  0.86268965040E+03  0.50109053448E+03 0.  0.
        3    1    3    3  502    0 -0.17120417517E+03  0.15887373712E+03 -0.50722123238E+03  0.55841303953E+03  0.10100000352E+00 0.  1.
       -3    1    3    3    0  502  0.17120417517E+03 -0.15887373712E+03 -0.19501926002E+03  0.30427661087E+03  0.10100000352E+00 0. -1.
</event>
<event>
 5   0  0.2511944E-01  0.5054895E+03  0.7818609E-02  0.1012356E+00
       -2   -1    0    0    0  501  0.00000000000E+00  0.00000000000E+00  0.83792128269E+02  0.83792128307E+02  0.25500000920E-02 0. -1.
        2   -1    0    0  501    0  0.00000000000E+00  0.00000000000E+00 -0.76236157155E+03  0.76236157155E+03  0.25500000920E-02 0.  1.
    10030    2    1    2    0    0  0.00000000000E+00  0.00000000000E+00 -0.67856944328E+03  0.84615369986E+03  0.50548946026E+03 0.  0.
        1    1    3    3  502    0  0.33195248243E+02  0.14288106349E+03  0.52479268938E+01  0.14678032420E+03  0.50400001928E-02 0. -1.
       -1    1    3    3    0  502 -0.33195248243E+02 -0.14288106349E+03 -0.68381737017E+03  0.69937337566E+03  0.50400001928E-02 0.  1.
</event>
<event>
 5   0  0.1439814E-01  0.5017909E+03  0.7818609E-02  0.1013313E+00
        1   -1    0    0  501    0  0.00000000000E+00  0.00000000000E+00  0.12347080482E+04  0.12347080482E+04  0.50400001928E-02 0. -1.
       -1   -1    0    0    0  501  0.00000000000E+00  0.00000000000E+00 -0.50982513900E+02  0.50982514149E+02  0.50400001928E-02 0.  1.
    10030    2    1    2    0    0  0.00000000000E+00  0.00000000000E+00  0.11837255343E+04  0.12856905624E+04  0.50179087436E+03 0.  0.
        4    1    3    3  502    0 -0.13957383663E+03  0.10837787424E+03  0.13552936600E+03  0.22270258518E+03  0.12699999809E+01 0.  1.
       -4    1    3    3    0  502  0.13957383663E+03 -0.10837787424E+03  0.10481961683E+04  0.10629879772E+04  0.12699999809E+01 0. -1.
</event>
<event>
 5   0  0.2466034E-01  0.4909813E+03  0.7818609E-02  0.1016160E+00
       -2   -1    0    0    0  501  0.00000000000E+00  0.00000000000E+00  0.10901452916E+03  0.10901452919E+03  0.25500000920E-02 0.  1.
        2   -1    0    0  501    0  0.00000000000E+00  0.00000000000E+00 -0.55282215791E+03  0.55282215792E+03  0.25500000920E-02 0. -1.
    10030    2    1    2    0    0  0.00000000000E+00  0.00000000000E+00 -0.44380762875E+03  0.66183668710E+03  0.49098125123E+03 0.  0.
        3    1    3    3  502    0  0.18750064160E+01 -0.12617256411E+03 -0.50575880419E+03  0.52126289893E+03  0.10100000352E+00 0. -1.
       -3    1    3    3    0  502 -0.18750064160E+01  0.12617256411E+03  0.61951175436E+02  0.14057378818E+03  0.10100000352E+00 0.  1.
</event>
<event>
 5   0  0.2511944E-01  0.4917471E+03  0.7818609E-02  0.1015956E+00
       -2   -1    0    0    0  501  0.00000000000E+00  0.00000000000E+00  0.26621677008E+03  0.26621677009E+03  0.25500000920E-02 0.  1.
        2   -1    0    0  501    0  0.00000000000E+00  0.00000000000E+00 -0.22708491690E+03  0.22708491692E+03  0.25500000920E-02 0. -1.
    10030    2    1    2    0    0  0.00000000000E+00  0.00000000000E+00  0.39131853175E+02  0.49330168701E+03  0.49174714282E+03 0.  0.
        1    1    3    3  502    0  0.12976081830E+03 -0.48966358427E+02  0.22323049035E+03  0.26280682273E+03  0.50400001928E-02 0.  1.
       -1    1    3    3    0  502 -0.12976081830E+03  0.48966358427E+02 -0.18409863718E+03  0.23049486428E+03  0.50400001928E-02 0. -1.
</event>
<event>
 5   0  0.1453602E-01  0.4972237E+03  0.7818609E-02  0.1014506E+00
        1   -1    0    0  501    0  0.00000000000E+00  0.00000000000E+00  0.10210559925E+04  0.10210559925E+04  0.50400001928E-02 0. -1.
       -1   -1    0    0    0  501  0.00000000000E+00  0.00000000000E+00 -0.60533267685E+02  0.60533267894E+02  0.50400001928E-02 0.  1.
    10030    2    1    2    0    0  0.00000000000E+00  0.00000000000E+00  0.96052272477E+03  0.10815892604E+04  0.49722371558E+03 0.  0.
        2    1    3    3  502    0  0.79016821394E+01  0.24771268128E+03  0.52287901070E+03  0.57864191767E+03  0.25500000920E-02 0. -1.
       -2    1    3    3    0  502 -0.79016821394E+01 -0.24771268128E+03  0.43764371407E+03  0.50294734269E+03  0.25500000920E-02 0.  1.
</event>
<event>
 5   0  0.2504064E-01  0.4951904E+03  0.7818609E-02  0.1015042E+00
       -2   -1    0    0    0  501  0.00000000000E+00  0.00000000000E+00  0.75586850010E+02  0.75586850053E+02  0.25500000920E-02 0.  1.
        2   -1    0    0  501    0  0.00000000000E+00  0.00000000000E+00 -0.81103228855E+03  0.81103228855E+03  0.25500000920E-02 0. -1.
    10030    2    1    2    0    0  0.00000000000E+00  0.00000000000E+00 -0.73544543854E+03  0.88661913860E+03  0.49519037135E+03 0.  0.
        5    1    3    3  502    0 -0.12046730734E+01 -0.80544806001E+02  0.51384314038E+02  0.95662713417E+02  0.46999998093E+01 0.  1.
       -5    1    3    3    0  502  0.12046730734E+01  0.80544806001E+02 -0.78682975257E+03  0.79095642519E+03  0.46999998093E+01 0. -1.
</event>
<event>
 5   0  0.1529146E-01  0.4930915E+03  0.7818609E-02  0.1015598E+00
       -1   -1    0    0    0  501  0.00000000000E+00  0.00000000000E+00  0.10543120668E+03  0.10543120680E+03  0.50400001928E-02 0. -1.
        1   -1    0    0  501    0  0.00000000000E+00  0.00000000000E+00 -0.57653533957E+03  0.57653533959E+03  0.50400001928E-02 0.  1.
    10030    2    1    2    0    0  0.00000000000E+00  0.00000000000E+00 -0.47110413289E+03  0.68196654639E+03  0.49309153954E+03 0.  0.
        1    1    3    3  502    0 -0.79807612878E+02  0.23418438992E+02  0.85442345323E+02  0.11923956037E+03  0.50400001928E-02 0. -1.
       -1    1    3    3    0  502  0.79807612878E+02 -0.23418438992E+02 -0.55654647821E+03  0.56272698602E+03  0.50400001928E-02 0.  1.
</event>
<event>
 5   0  0.2511944E-01  0.4854246E+03  0.7818609E-02  0.1017655E+00
        2   -1    0    0  501    0  0.00000000000E+00  0.00000000000E+00  0.92836779819E+03  0.92836779820E+03  0.25500000920E-02 0.  1.
       -2   -1    0    0    0  501  0.00000000000E+00  0.00000000000E+00 -0.63454657498E+02  0.63454657550E+02  0.25500000920E-02 0. -1.
    10030    2    1    2    0    0  0.00000000000E+00  0.00000000000E+00  0.86491314070E+03  0.99182245575E+03  0.48542460051E+03 0.  0.
        1    1    3    3  502    0  0.23882357137E+03  0.35823316609E+02  0.48205441913E+03  0.53916275028E+03  0.50400001928E-02 0.  1.
       -1    1    3    3    0  502 -0.23882357137E+03 -0.35823316609E+02  0.38285872156E+03  0.45265970547E+03  0.50400001928E-02 0. -1.
</event>
<event>
 5   0  0.2488968E-01  0.5082290E+03  0.7818609E-02  0.1011653E+00
        2   -1    0    0  501    0  0.00000000000E+00  0.00000000000E+00  0.93992134291E+03  0.93992134292E+03  0.25500000920E-02 0.  1.
       -2   -1    0    0    0  501  0.00000000000E+00  0.00000000000E+00 -0.68701689212E+02  0.68701689259E+02  0.25500000920E-02 0. -1.
    10030    2    1    2    0    0  0.00000000000E+00  0.00000000000E+00  0.87121965370E+03  0.10086230322E+04  0.50822901928E+03 0.  0.
        2    1    3    3  502    0  0.15422650268E+03 -0.20149137357E+03  0.46293634483E+03  0.52791537875E+03  0.25500000920E-02 0.  1.
       -2    1    3    3    0  502 -0.15422650268E+03  0.20149137357E+03  0.40828330887E+03  0.48070765343E+03  0.25500000920E-02 0. -1.
</event>
<event>
 5   0  0.1448458E-01  0.4983212E+03  0.7818609E-02  0.1014218E+00
       -1   -1    0    0    0  501  0.00000000000E+00  0.00000000000E+00  0.20175970697E+03  0.20175970703E+03  0.50400001928E-02 0.  1.
        1   -1    0    0  501    0  0.00000000000E+00  0.00000000000E+00 -0.30769775324E+03  0.30769775328E+03  0.50400001928E-02 0. -1.
    10030    2    1    2    0    0  0.00000000000E+00  0.00000000000E+00 -0.10593804627E+03  0.50945746031E+03  0.49832121590E+03 0.  0.
        5    1    3    3  502    0  0.54837552620E+02 -0.31450613761E+02  0.19337774224E+03  0.20350267683E+03  0.46999998093E+01 0.  1.
       -5    1    3    3    0  502 -0.54837552620E+02  0.31450613761E+02 -0.29931578851E+03  0.30595478348E+03  0.46999998093E+01 0. -1.
</event>
<event>
 5   0  0.1413361E-01  0.4767353E+03  0.7818609E-02  0.1020036E+00
        1   -1    0    0  501    0  0.00000000000E+00  0.00000000000E+00  0.39755783947E+03  0.39755783950E+03  0.50400001928E-02 0. -1.
       -1   -1    0    0    0  501  0.00000000000E+00  0.00000000000E+00 -0.14292040076E+03  0.14292040084E+03  0.50400001928E-02 0.  1.
    10030    2    1    2    0    0  0.00000000000E+00  0.00000000000E+00  0.25463743872E+03  0.54047824035E+03  0.47673525472E+03 0.  0.
        3    1    3    3  502    0 -0.10816110094E+03 -0.17251363701E+03  0.26782223052E+03  0.33643503990E+03  0.10100000352E+00 0. -1.
       -3    1    3    3    0  502  0.10816110094E+03  0.17251363701E+03 -0.13184791801E+02  0.20404320045E+03  0.10100000352E+00 0.  1.
</event>
<event>
 5   0  0.2466034E-01  0.5012271E+03  0.7818609E-02  0.1013459E+00
        2   -1    0    0  501    0  0.00000000000E+00  0.00000000000E+00  0.15704027979E+04  0.15704027979E+04  0.25500000920E-02 0.  1.
       -2   -1    0    0    0  501  0.00000000000E+00  0.00000000000E+00 -0.39994297345E+02  0.39994297426E+02  0.25500000920E-02 0. -1.
    10030    2    1    2    0    0  0.00000000000E+00  0.00000000000E+00  0.15304085005E+04  0.16103970953E+04  0.50122712024E+03 0.  0.
        3    1    3    3  502    0 -0.67503783873E+02 -0.58593975396E+02  0.15174445045E+04  0.15200749486E+04  0.10100000352E+00 0.  1.
       -3    1    3    3    0  502  0.67503783873E+02  0.58593975396E+02  0.12963995971E+02  0.90322146688E+02  0.10100000352E+00 0. -1.
</event>
<event>
 5   0  0.2504064E-01  0.4877438E+03  0.7818609E-02  0.1017028E+00
        2   -1    0    0  501    0  0.00000000000E+00  0.00000000000E+00  0.13038962348E+04  0.13038962348E+04  0.25500000920E-02 0.  1.
       -2   -1    0    0    0  501  0.00000000000E+00  0.00000000000E+00 -0.45612140088E+02  0.45612140160E+02  0.25500000920E-02 0. -1.
    10030    2    1    2    0    0  0.00000000000E+00  0.00000000000E+00  0.12582840948E+04  0.13495083750E+04  0.48774377607E+03 0.  0.
        5    1    3    3  502    0 -0.97998287982E+02  0.48434397491E+02  0.12321723290E+04  0.12370207330E+04  0.46999998093E+01 0.  1.
       -5    1    3    3    0  502  0.97998287982E+02 -0.48434397491E+02  0.26111765717E+02  0.11248764205E+03  0.46999998093E+01 0. -1.
</event>
<event>
 5   0  0.1448458E-01  0.5010967E+03  0.7818609E-02  0.1013493E+00
        1   -1    0    0  501    0  0.00000000000E+00  0.00000000000E+00  0.52297667997E+03  0.52297668000E+03  0.50400001928E-02 0. -1.
       -1   -1    0    0    0  501  0.00000000000E+00  0.00000000000E+00 -0.12003304336E+03  0.12003304347E+03  0.50400001928E-02 0.  1.
    10030    2    1    2    0    0  0.00000000000E+00  0.00000000000E+00  0.40294363661E+03  0.64300972347E+03  0.50109672738E+03 0.  0.
        5    1    3    3  502    0  0.67854952815E+02  0.17280724568E+03  0.41728593651E+03  0.45674531370E+03  0.46999998093E+01 0. -1.
       -5    1    3    3    0  502 -0.67854952815E+02 -0.17280724568E+03 -0.14342299903E+02  0.18626440976E+03  0.46999998093E+01 0.  1.
</event>
<event>
 5   0  0.2511944E-01  0.4326208E+03  0.7818609E-02  0.1033035E+00
       -2   -1    0    0    0  501  0.00000000000E+00  0.00000000000E+00  0.36962592018E+02  0.36962592106E+02  0.25500000920E-02 0.  1.
        2   -1    0    0  501    0  0.00000000000E+00  0.00000000000E+00 -0.12658795388E+04  0.12658795388E+04  0.25500000920E-02 0. -1.
    10030    2    1    2    0    0  0.00000000000E+00  0.00000000000E+00 -0.12289169468E+04  0.13028421309E+04  0.43262079930E+03 0.  0.
        1    1    3    3  502    0 -0.20695635555E+03 -0.31986712992E+02 -0.45127721857E+03  0.49749895572E+03  0.50400001928E-02 0. -1.
       -1    1    3    3    0  502  0.20695635555E+03  0.31986712992E+02 -0.77763972820E+03  0.80534317518E+03  0.50400001928E-02 0.  1.
</event>
<event>
 5   0  0.1439814E-01  0.4901108E+03  0.7818609E-02  0.1016393E+00
        1   -1    0    0  501    0  0.00000000000E+00  0.00000000000E+00  0.26154948893E+03  0.26154948898E+03  0.50400001928E-02 0.  1.
       -1   -1    0    0    0  501  0.00000000000E+00  0.00000000000E+00 -0.22960145488E+03  0.22960145493E+03  0.50400001928E-02 0. -1.
    10030    2    1    2    0    0  0.00000000000E+00  0.00000000000E+00  0.31948034052E+02  0.49115094391E+03  0.49011077608E+03 0.  0.
        4    1    3    3  502    0 -0.30331074630E+02  0.17238280948E+03  0.18784521918E+03  0.25675522655E+03  0.12699999809E+01 0.  1.
       -4    1    3    3    0  502  0.30331074630E+02 -0.17238280948E+03 -0.15589718512E+03  0.23439571737E+03  0.12699999809E+01 0. -1.
</event>
<event>
 5   0  0.2466034E-01  0.4986554E+03  0.7818609E-02  0.1014130E+00
        2   -1    0    0  501    0  0.00000000000E+00  0.00000000000E+00  0.10762334786E+04  0.10762334786E+04  0.25500000920E-02 0.  1.
       -2   -1    0    0    0  501  0.00000000000E+00  0.00000000000E+00 -0.57760976909E+02  0.57760976965E+02  0.25500000920E-02 0. -1.
    10030    2    1    2    0    0  0.00000000000E+00  0.00000000000E+00  0.10184725017E+04  0.11339944556E+04  0.49865538055E+03 0.  0.
        3    1    3    3  502    0 -0.97755006874E+02  0.93458323020E+02  0.98557178979E+03  0.99480765103E+03  0.10100000352E+00 0.  1.
       -3    1    3    3    0  502  0.97755006874E+02 -0.93458323020E+02  0.32900711887E+02  0.13918680453E+03  0.10100000352E+00 0. -1.
</event>
<event>
 5   0  0.9868500E-02  0.4940603E+03  0.7818609E-02  0.1015341E+00
       -3   -1    0    0    0  501  0.00000000000E+00  0.00000000000E+00  0.48835112885E+03  0.48835113930E+03  0.10100000352E+00 0. -1.
        3   -1    0    0  501    0  0.00000000000E+00  0.00000000000E+00 -0.12495901621E+03  0.12495905703E+03  0.10100000352E+00 0.  1.
    10030    2    1    2    0    0  0.00000000000E+00  0.00000000000E+00  0.36339211264E+03  0.61331019633E+03  0.49406028923E+03 0.  0.
        1    1    3    3  502    0 -0.19747233570E+03  0.14095282389E+03  0.12399090343E+03  0.27246424736E+03  0.50400001928E-02 0. -1.
       -1    1    3    3    0  502  0.19747233570E+03 -0.14095282389E+03  0.23940120921E+03  0.34084594897E+03  0.50400001928E-02 0.  1.
</event>
<event>
 5   0  0.2413301E-01  0.4997942E+03  0.7818609E-02  0.1013833E+00
       -2   -1    0    0    0  501  0.00000000000E+00  0.00000000000E+00  0.23654272581E+03  0.23654272582E+03  0.25500000920E-02 0.  1.
        2   -1    0    0  501    0  0.00000000000E+00  0.00000000000E+00 -0.26400540280E+03  0.26400540281E+03  0.25500000920E-02 0. -1.
    10030    2    1    2    0    0  0.00000000000E+00  0.00000000000E+00 -0.27462676992E+02  0.50054812863E+03  0.49979418809E+03 0.  0.
        4    1    3    3  502    0  0.18637233640E+02  0.13643354224E+03 -0.22257764953E+03  0.26173246053E+03  0.12699999809E+01 0. -1.
       -4    1    3    3    0  502 -0.18637233640E+02 -0.13643354224E+03  0.19511497253E+03  0.23881566810E+03  0.12699999809E+01 0.  1.
</event>
<event>
 5   0  0.2488968E-01  0.4973513E+03  0.7818609E-02  0.1014473E+00
        2   -1    0    0  501    0  0.00000000000E+00  0.00000000000E+00  0.32330581453E+03  0.32330581454E+03  0.25500000920E-02 0. -1.
       -2   -1    0    0    0  501  0.00000000000E+00  0.00000000000E+00 -0.19127269723E+03  0.19127269725E+03  0.25500000920E-02 0.  1.
    10030    2    1    2    0    0  0.00000000000E+00  0.00000000000E+00  0.13203311730E+03  0.51457851178E+03  0.49735128503E+03 0.  0.
        2    1    3    3  502    0 -0.20123240757E+03 -0.13548045080E+03  0.12259281664E+03  0.27180587393E+03  0.25500000920E-02 0. -1.
       -2    1    3    3    0  502  0.20123240757E+03  0.13548045080E+03  0.94403006614E+01  0.24277263785E+03  0.25500000920E-02 0.  1.
</event>
<event>
 5   0  0.2413301E-01  0.5005229E+03  0.7818609E-02  0.1013643E+00
        2   -1    0    0  501    0  0.00000000000E+00  0.00000000000E+00  0.42632884629E+03  0.42632884630E+03  0.25500000920E-02 0.  1.
       -2   -1    0    0    0  501  0.00000000000E+00  0.00000000000E+00 -0.14690723589E+03  0.14690723591E+03  0.25500000920E-02 0. -1.
    10030    2    1    2    0    0  0.00000000000E+00  0.00000000000E+00  0.27942161040E+03  0.57323608221E+03  0.50052289617E+03 0.  0.
        4    1    3    3  502    0  0.86450168822E+02 -0.10402668523E+03  0.38085566664E+03  0.40416312874E+03  0.12699999809E+01 0.  1.
       -4    1    3    3    0  502 -0.86450168822E+02  0.10402668523E+03 -0.10143405624E+03  0.16907295346E+03  0.12699999809E+01 0. -1.
</event>
<event>
 5   0  0.2511944E-01  0.4692203E+03  0.7818609E-02  0.1022140E+00
       -2   -1    0    0    0  501  0.00000000000E+00  0.00000000000E+00  0.54238413081E+02  0.54238413141E+02  0.25500000920E-02 0. -1.
        2   -1    0    0  501    0  0.00000000000E+00  0.00000000000E+00 -0.10148146001E+04  0.10148146001E+04  0.25500000920E-02 0.  1.
    10030    2    1    2    0    0  0.00000000000E+00  0.00000000000E+00 -0.96057618705E+03  0.10690530133E+04  0.46922034703E+03 0.  0.
        1    1    3    3  502    0  0.10983591460E+03 -0.78751406790E+02 -0.43364036553E+02  0.14193714066E+03  0.50400001928E-02 0. -1.
       -1    1    3    3    0  502 -0.10983591460E+03  0.78751406790E+02 -0.91721215050E+03  0.92711587261E+03  0.50400001928E-02 0.  1.
</event>
<event>
 5   0  0.1448458E-01  0.5043756E+03  0.7818609E-02  0.1012643E+00
       -1   -1    0    0    0  501  0.00000000000E+00  0.00000000000E+00  0.17858803817E+03  0.17858803824E+03  0.50400001928E-02 0. -1.
        1   -1    0    0  501    0  0.00000000000E+00  0.00000000000E+00 -0.35611954809E+03  0.35611954812E+03  0.50400001928E-02 0.  1.
    10030    2    1    2    0    0  0.00000000000E+00  0.00000000000E+00 -0.17753150992E+03  0.53470758637E+03  0.50437561986E+03 0.  0.
        5    1    3    3  502    0 -0.53469136363E+02 -0.36713906516E+02  0.16954639904E+03  0.18159000771E+03  0.46999998093E+01 0. -1.
       -5    1    3    3    0  502  0.53469136363E+02  0.36713906516E+02 -0.34707790895E+03  0.35311757866E+03  0.46999998093E+01 0.  1.
</event>
<event>
 5   0  0.1529146E-01  0.4907294E+03  0.7818609E-02  0.1016227E+00
        1   -1    0    0  501    0  0.00000000000E+00  0.00000000000E+00  0.43061081840E+03  0.43061081843E+03  0.50400001928E-02 0. -1.
       -1   -1    0    0    0  501  0.00000000000E+00  0.00000000000E+00 -0.13981029377E+03  0.13981029386E+03  0.50400001928E-02 0.  1.
    10030    2    1    2    0    0  0.00000000000E+00  0.00000000000E+00  0.29080052463E+03  0.57042111229E+03  0.49072935537E+03 0.  0.
        1    1    3    3  502    0 -0.16363537442E+03  0.17423880843E+03  0.81014445055E+02  0.25238668439E+03  0.50400001928E-02 0.  1.
       -1    1    3    3    0  502  0.16363537442E+03 -0.17423880843E+03  0.20978607958E+03  0.31803442791E+03  0.50400001928E-02 0. -1.
</event>
<event>
 5   0  0.2511944E-01  0.4914358E+03  0.7818609E-02  0.1016039E+00
        2   -1    0    0  501    0  0.00000000000E+00  0.00000000000E+00  0.20579759473E+03  0.20579759475E+03  0.25500000920E-02 0.  1.
       -2   -1    0    0    0  501  0.00000000000E+00  0.00000000000E+00 -0.29338193861E+03  0.29338193862E+03  0.25500000920E-02 0. -1.
    10030    2    1    2    0    0  0.00000000000E+00  0.00000000000E+00 -0.87584343880E+02  0.49917953337E+03  0.49143584448E+03 0.  0.
        1    1    3    3  502    0  0.95198486838E+02  0.80506723013E+02  0.17128279877E+03  0.21185344351E+03  0.50400001928E-02 0.  1.
       -1    1    3    3    0  502 -0.95198486838E+02 -0.80506723013E+02 -0.25886714265E+03  0.28732608986E+03  0.50400001928E-02 0. -1.
</event>
<event>
 5   0  0.1453602E-01  0.5021401E+03  0.7818609E-02  0.1013222E+00
        1   -1    0    0  501    0  0.00000000000E+00  0.00000000000E+00  0.19826576906E+03  0.19826576912E+03  0.50400001928E-02 0.  1.
       -1   -1    0    0    0  501  0.00000000000E+00  0.00000000000E+00 -0.31793778868E+03  0.31793778872E+03  0.50400001928E-02 0. -1.
    10030    2    1    2    0    0  0.00000000000E+00  0.00000000000E+00 -0.11967201962E+03  0.51620355784E+03  0.50214014064E+03 0.  0.
        2    1    3    3  502    0  0.16216117903E+02  0.23503370145E+03 -0.14905598029E+03  0.27878573953E+03  0.25500000920E-02 0. -1.
       -2    1    3    3    0  502 -0.16216117903E+02 -0.23503370145E+03  0.29383960671E+02  0.23741781831E+03  0.25500000920E-02 0.  1.
</event>
<event>
 5   0  0.1413361E-01  0.4905850E+03  0.7818609E-02  0.1016266E+00
       -1   -1    0    0    0  501  0.00000000000E+00  0.00000000000E+00  0.17388284480E+03  0.17388284487E+03  0.50400001928E-02 0. -1.
        1   -1    0    0  501    0  0.00000000000E+00  0.00000000000E+00 -0.34602850341E+03  0.34602850344E+03  0.50400001928E-02 0.  1.
    10030    2    1    2    0    0  0.00000000000E+00  0.00000000000E+00 -0.17214565861E+03  0.51991134832E+03  0.49058504088E+03 0.  0.
        3    1    3    3  502    0  0.17555821656E+03  0.61840167819E+02  0.83238200503E+02  0.20389581159E+03  0.10100000352E+00 0. -1.
       -3    1    3    3    0  502 -0.17555821656E+03 -0.61840167819E+02 -0.25538385911E+03  0.31601553673E+03  0.10100000352E+00 0.  1.
</event>
<event>
 5   0  0.1439814E-01  0.3438223E+03  0.7818609E-02  0.1065180E+00
        1   -1    0    0  501    0  0.00000000000E+00  0.00000000000E+00  0.33983697579E+03  0.33983697583E+03  0.50400001928E-02 0.  1.
       -1   -1    0    0    0  501  0.00000000000E+00  0.00000000000E+00 -0.86963581598E+02  0.86963581744E+02  0.50400001928E-02 0. -1.
    10030    2    1    2    0    0  0.00000000000E+00  0.00000000000E+00  0.25287339419E+03  0.42680055757E+03  0.34382228324E+03 0.  0.
        4    1    3    3  502    0  0.20168080048E+02  0.12699799176E+03 -0.15188168242E+02  0.12948951587E+03  0.12699999809E+01 0. -1.
       -4    1    3    3    0  502 -0.20168080048E+02 -0.12699799176E+03  0.26806156243E+03  0.29731104170E+03  0.12699999809E+01 0.  1.
</event>
<event>
 5   0  0.2511944E-01  0.4979813E+03  0.7818609E-02  0.1014307E+00
        2   -1    0    0  501    0  0.00000000000E+00  0.00000000000E+00  0.63604811369E+03  0.63604811370E+03  0.25500000920E-02 0. -1.
       -2   -1    0    0    0  501  0.00000000000E+00  0.00000000000E+00 -0.97471147194E+02  0.97471147227E+02  0.25500000920E-02 0.  1.
    10030    2    1    2    0    0  0.00000000000E+00  0.00000000000E+00  0.53857696650E+03  0.73351926092E+03  0.49798128208E+03 0.  0.
        1    1    3    3  502    0 -0.22699381387E+03 -0.92907430128E+02  0.20613265243E+03  0.32038828401E+03  0.50400001928E-02 0.  1.
       -1    1    3    3    0  502  0.22699381387E+03  0.92907430128E+02  0.33244431407E+03  0.41313097692E+03  0.50400001928E-02 0. -1.
</event>
<event>
 5   0  0.1453602E-01  0.4888568E+03  0.7818609E-02  0.1016729E+00
        1   -1    0    0  501    0  0.00000000000E+00  0.00000000000E+00  0.33542548408E+03  0.33542548412E+03  0.50400001928E-02 0.  1.
       -1   -1    0    0    0  501  0.00000000000E+00  0.00000000000E+00 -0.17811778053E+03  0.17811778061E+03  0.50400001928E-02 0. -1.
    10030    2    1    2    0    0  0.00000000000E+00  0.00000000000E+00  0.15730770355E+03  0.51354326473E+03  0.48885680025E+03 0.  0.
        2    1    3    3  502    0  0.87735971207E+02 -0.12713411832E+03  0.27765206552E+03  0.31772842834E+03  0.25500000920E-02 0.  1.
       -2    1    3    3    0  502 -0.87735971207E+02  0.12713411832E+03 -0.12034436197E+03  0.19581483639E+03  0.25500000920E-02 0. -1.
</event>
<event>
 5   0  0.1413361E-01  0.4900582E+03  0.7818609E-02  0.1016407E+00
        1   -1    0    0  501    0  0.00000000000E+00  0.00000000000E+00  0.15620103157E+04  0.15620103157E+04  0.50400001928E-02 0. -1.
       -1   -1    0    0    0  501  0.00000000000E+00  0.00000000000E+00 -0.38437179453E+02  0.38437179784E+02  0.50400001928E-02 0.  1.
    10030    2    1    2    0    0  0.00000000000E+00  0.00000000000E+00  0.15235731363E+04  0.16004474955E+04  0.49005824586E+03 0.  0.
        3    1    3    3  502    0 -0.84143387195E+02  0.11259967419E+03  0.14172386781E+04  0.14241925000E+04  0.10100000352E+00 0. -1.
       -3    1    3    3    0  502  0.84143387195E+02 -0.11259967419E+03  0.10633445815E+03  0.17625499547E+03  0.10100000352E+00 0.  1.
</event>
<event>
 5   0  0.1448458E-01  0.5032253E+03  0.7818609E-02  0.1012940E+00
        1   -1    0    0  501    0  0.00000000000E+00  0.00000000000E+00  0.20580990377E+03  0.20580990383E+03  0.50400001928E-02 0.  1.
       -1   -1    0    0    0  501  0.00000000000E+00  0.00000000000E+00 -0.30760868750E+03  0.30760868754E+03  0.50400001928E-02 0. -1.
    10030    2    1    2    0    0  0.00000000000E+00  0.00000000000E+00 -0.10179878373E+03  0.51341859137E+03  0.50322525532E+03 0.  0.
        5    1    3    3  502    0  0.47669533927E+02 -0.23017301083E+03  0.40553485380E+02  0.23857634953E+03  0.46999998093E+01 0.  1.
       -5    1    3    3    0  502 -0.47669533927E+02  0.23017301083E+03 -0.14235226911E+03  0.27484224184E+03  0.46999998093E+01 0. -1.
</event>
<event>
 5   0  0.2511944E-01  0.4997965E+03  0.7818609E-02  0.1013832E+00
       -2   -1    0    0    0  501  0.00000000000E+00  0.00000000000E+00  0.66270662520E+02  0.66270662569E+02  0.25500000920E-02 0. -1.
        2   -1    0    0  501    0  0.00000000000E+00  0.00000000000E+00 -0.94233444213E+03  0.94233444214E+03  0.25500000920E-02 0.  1.
    10030    2    1    2    0    0  0.00000000000E+00  0.00000000000E+00 -0.87606377961E+03  0.10086051047E+04  0.49979646986E+03 0.  0.
        1    1    3    3  502    0  0.12124922226E+03 -0.47851167986E+02 -0.77696502686E+01  0.13058129907E+03  0.50400001928E-02 0. -1.
       -1    1    3    3    0  502 -0.12124922226E+03  0.47851167986E+02 -0.86829412935E+03  0.87802380563E+03  0.50400001928E-02 0.  1.
</event>
<event>
 5   0  0.1448458E-01  0.4989088E+03  0.7818609E-02  0.1014064E+00
       -1   -1    0    0    0  501  0.00000000000E+00  0.00000000000E+00  0.51816307509E+02  0.51816307754E+02  0.50400001928E-02 0. -1.
        1   -1    0    0  501    0  0.00000000000E+00  0.00000000000E+00 -0.12009250896E+04  0.12009250896E+04  0.50400001928E-02 0.  1.
    10030    2    1    2    0    0  0.00000000000E+00  0.00000000000E+00 -0.11491087821E+04  0.12527413974E+04  0.49890882493E+03 0.  0.
        5    1    3    3  502    0  0.13356744413E+03 -0.29341963784E+02 -0.50826333177E+02  0.14596787014E+03  0.46999998093E+01 0. -1.
       -5    1    3    3    0  502 -0.13356744413E+03  0.29341963784E+02 -0.10982824489E+04  0.11067735272E+04  0.46999998093E+01 0.  1.
</event>
<event>
 5   0  0.1413361E-01  0.4951040E+03  0.7818609E-02  0.1015065E+00
       -1   -1    0    0    0  501  0.00000000000E+00  0.00000000000E+00  0.88550245190E+02  0.88550245333E+02  0.50400001928E-02 0.  1.
        1   -1    0    0  501    0  0.00000000000E+00  0.00000000000E+00 -0.69205909918E+03  0.69205909920E+03  0.50400001928E-02 0. -1.
    10030    2    1    2    0    0  0.00000000000E+00  0.00000000000E+00 -0.60350885399E+03  0.78060934453E+03  0.49510404151E+03 0.  0.
        3    1    3    3  502    0  0.29738735792E+02  0.19375631994E+03 -0.54011709192E+03  0.57458888530E+03  0.10100000352E+00 0. -1.
       -3    1    3    3    0  502 -0.29738735792E+02 -0.19375631994E+03 -0.63391762068E+02  0.20602045923E+03  0.10100000352E+00 0.  1.
</event>
<event>
 5   0  0.9868500E-02  0.4995208E+03  0.7818609E-02  0.1013904E+00
        3   -1    0    0  501    0  0.00000000000E+00  0.00000000000E+00  0.17683199766E+04  0.17683199795E+04  0.10100000352E+00 0. -1.
       -3   -1    0    0    0  501  0.00000000000E+00  0.00000000000E+00 -0.35276493827E+02  0.35276638413E+02  0.10100000352E+00 0.  1.
    10030    2    1    2    0    0  0.00000000000E+00  0.00000000000E+00  0.17330434828E+04  0.18035966179E+04  0.49952081730E+03 0.  0.
        4    1    3    3  502    0 -0.48286176098E+02  0.23182045098E+03  0.11532533897E+04  0.11773135818E+04  0.12699999809E+01 0. -1.
       -4    1    3    3    0  502  0.48286176098E+02 -0.23182045098E+03  0.57979009311E+03  0.62628303607E+03  0.12699999809E+01 0.  1.
</event>
<event>
 5   0  0.2488968E-01  0.5000921E+03  0.7818609E-02  0.1013755E+00
        2   -1    0    0  501    0  0.00000000000E+00  0.00000000000E+00  0.18887124015E+03  0.18887124017E+03  0.25500000920E-02 0.  1.
       -2   -1    0    0    0  501  0.00000000000E+00  0.00000000000E+00 -0.33103523419E+03  0.33103523420E+03  0.25500000920E-02 0. -1.
    10030    2    1    2    0    0  0.00000000000E+00  0.00000000000E+00 -0.14216399404E+03  0.51990647437E+03  0.50009213240E+03 0.  0.
        2    1    3    3  502    0 -0.12909024248E+03 -0.20459721423E+03 -0.13682294197E+03  0.27792953824E+03  0.25500000920E-02 0. -1.
       -2    1    3    3    0  502  0.12909024248E+03  0.20459721423E+03 -0.53410520704E+01  0.24197693613E+03  0.25500000920E-02 0.  1.
</event>
<event>
 5   0  0.1453602E-01  0.4625999E+03  0.7818609E-02  0.1024030E+00
        1   -1    0    0  501    0  0.00000000000E+00  0.00000000000E+00  0.10164154488E+04  0.10164154488E+04  0.50400001928E-02 0. -1.
       -1   -1    0    0    0  501  0.00000000000E+00  0.00000000000E+00 -0.52635636723E+02  0.52635636964E+02  0.50400001928E-02 0.  1.
    10030    2    1    2    0    0  0.00000000000E+00  0.00000000000E+00  0.96377981203E+03  0.10690510857E+04  0.46259993280E+03 0.  0.
        2    1    3    3  502    0 -0.19186821754E+03  0.74255266511E+02  0.72615784101E+03  0.75473999998E+03  0.25500000920E-02 0. -1.
       -2    1    3    3    0  502  0.19186821754E+03 -0.74255266511E+02  0.23762197102E+03  0.31431108575E+03  0.25500000920E-02 0.  1.
</event>
<event>
 5   0  0.2504064E-01  0.5003928E+03  0.7818609E-02  0.1013676E+00
       -2   -1    0    0    0  501  0.00000000000E+00  0.00000000000E+00  0.18714323773E+03  0.18714323774E+03  0.25500000920E-02 0. -1.
        2   -1    0    0  501    0  0.00000000000E+00  0.00000000000E+00 -0.33449366047E+03  0.33449366048E+03  0.25500000920E-02 0.  1.
    10030    2    1    2    0    0  0.00000000000E+00  0.00000000000E+00 -0.14735042274E+03  0.52163689822E+03  0.50039275225E+03 0.  0.
        5    1    3    3  502    0  0.56116971132E+02  0.19443238054E+03  0.79615551696E+02  0.21751733522E+03  0.46999998093E+01 0. -1.
       -5    1    3    3    0  502 -0.56116971132E+02 -0.19443238054E+03 -0.22696597444E+03  0.30411956300E+03  0.46999998093E+01 0.  1.
</event>
<event>
 5   0  0.2413301E-01  0.4997348E+03  0.7818609E-02  0.1013848E+00
        2   -1    0    0  501    0  0.00000000000E+00  0.00000000000E+00  0.12449003161E+04  0.12449003161E+04  0.25500000920E-02 0. -1.
       -2   -1    0    0    0  501  0.00000000000E+00  0.00000000000E+00 -0.50151586513E+02  0.50151586578E+02  0.25500000920E-02 0.  1.
    10030    2    1    2    0    0  0.00000000000E+00  0.00000000000E+00  0.11947487296E+04  0.12950519027E+04  0.49973483347E+03 0.  0.
        4    1    3    3  502    0  0.15598292034E+03  0.12731306943E+03  0.21393345694E+03  0.29378295727E+03  0.12699999809E+01 0.  1.
       -4    1    3    3    0  502 -0.15598292034E+03 -0.12731306943E+03  0.98081527263E+03  0.10012689454E+04  0.12699999809E+01 0. -1.
</event>
<event>
 5   0  0.2413301E-01  0.4993920E+03  0.7818609E-02  0.1013938E+00
        2   -1    0    0  501    0  0.00000000000E+00  0.00000000000E+00  0.85630188883E+03  0.85630188884E+03  0.25500000920E-02 0. -1.
       -2   -1    0    0    0  501  0.00000000000E+00  0.00000000000E+00 -0.72810872153E+02  0.72810872197E+02  0.25500000920E-02 0.  1.
    10030    2    1    2    0    0  0.00000000000E+00  0.00000000000E+00  0.78349101668E+03  0.92911276103E+03  0.49939197981E+03 0.  0.
        4    1    3    3  502    0  0.11193414401E+03 -0.56110817165E+02  0.79366601916E+03  0.80348306719E+03  0.12699999809E+01 0. -1.
       -4    1    3    3    0  502 -0.11193414401E+03  0.56110817165E+02 -0.10175002480E+02  0.12562969384E+03  0.12699999809E+01 0.  1.
</event>
<event>
 5   0  0.1448458E-01  0.5031596E+03  0.7818609E-02  0.1012957E+00
        1   -1    0    0  501    0  0.00000000000E+00  0.00000000000E+00  0.69657027865E+03  0.69657027867E+03  0.50400001928E-02 0. -1.
       -1   -1    0    0    0  501  0.00000000000E+00  0.00000000000E+00 -0.90862890720E+02  0.90862890860E+02  0.50400001928E-02 0.  1.
    10030    2    1    2    0    0  0.00000000000E+00  0.00000000000E+00  0.60570738794E+03  0.78743316953E+03  0.50315957377E+03 0.  0.
        5    1    3    3  502    0 -0.18315331345E+03  0.12151758693E+03  0.11144837370E+03  0.24648425946E+03  0.46999998093E+01 0.  1.
       -5    1    3    3    0  502  0.18315331345E+03 -0.12151758693E+03  0.49425901423E+03  0.54094891008E+03  0.46999998093E+01 0. -1.
</event>
<event>
 5   0  0.1448458E-01  0.4890496E+03  0.7818609E-02  0.1016677E+00
       -1   -1    0    0    0  501  0.00000000000E+00  0.00000000000E+00  0.27920403502E+03  0.27920403506E+03  0.50400001928E-02 0.  1.
        1   -1    0    0  501    0  0.00000000000E+00  0.00000000000E+00 -0.21415294984E+03  0.21415294990E+03  0.50400001928E-02 0. -1.
    10030    2    1    2    0    0  0.00000000000E+00  0.00000000000E+00  0.65051085178E+02  0.49335698496E+03  0.48904955876E+03 0.  0.
        5    1    3    3  502    0 -0.14038530613E+03  0.14952767864E+03  0.16675277563E+03  0.26437688824E+03  0.46999998093E+01 0.  1.
       -5    1    3    3    0  502  0.14038530613E+03 -0.14952767864E+03 -0.10170169046E+03  0.22898009672E+03  0.46999998093E+01 0. -1.
</event>
<event>
 5   0  0.1448458E-01  0.5025841E+03  0.7818609E-02  0.1013107E+00
        1   -1    0    0  501    0  0.00000000000E+00  0.00000000000E+00  0.49251491750E+03  0.49251491753E+03  0.50400001928E-02 0. -1.
       -1   -1    0    0    0  501  0.00000000000E+00  0.00000000000E+00 -0.12821479862E+03  0.12821479872E+03  0.50400001928E-02 0.  1.
    10030    2    1    2    0    0  0.00000000000E+00  0.00000000000E+00  0.36430011888E+03  0.62072971624E+03  0.50258412630E+03 0.  0.
        5    1    3    3  502    0 -0.18708857113E+03 -0.94227490574E+02  0.35348615397E+03  0.41092031402E+03  0.46999998093E+01 0. -1.
       -5    1    3    3    0  502  0.18708857113E+03  0.94227490574E+02  0.10813964912E+02  0.20980940222E+03  0.46999998093E+01 0.  1.
</event>
<event>
 5   0  0.2511944E-01  0.5079259E+03  0.7818609E-02  0.1011731E+00
       -2   -1    0    0    0  501  0.00000000000E+00  0.00000000000E+00  0.43072553603E+02  0.43072553679E+02  0.25500000920E-02 0. -1.
        2   -1    0    0  501    0  0.00000000000E+00  0.00000000000E+00 -0.14974076960E+04  0.14974076960E+04  0.25500000920E-02 0.  1.
    10030    2    1    2    0    0  0.00000000000E+00  0.00000000000E+00 -0.14543351424E+04  0.15404802497E+04  0.50792587377E+03 0.  0.
        1    1    3    3  502    0  0.64802534748E+02 -0.24534894844E+03 -0.69658228166E+03  0.74136519352E+03  0.50400001928E-02 0. -1.
       -1    1    3    3    0  502 -0.64802534748E+02  0.24534894844E+03 -0.75775286075E+03  0.79911505618E+03  0.50400001928E-02 0.  1.
</event>
<event>
 5   0  0.2504064E-01  0.4826567E+03  0.7818609E-02  0.1018408E+00
       -2   -1    0    0    0  501  0.00000000000E+00  0.00000000000E+00  0.32954385075E+02  0.32954385173E+02  0.25500000920E-02 0.  1.
        2   -1    0    0  501    0  0.00000000000E+00  0.00000000000E+00 -0.17672725654E+04  0.17672725654E+04  0.25500000920E-02 0. -1.
    10030    2    1    2    0    0  0.00000000000E+00  0.00000000000E+00 -0.17343181803E+04  0.18002269505E+04  0.48265673409E+03 0.  0.
        5    1    3    3  502    0 -0.19197378073E+03  0.43231936619E+02 -0.13879259712E+04  0.14018143688E+04  0.46999998093E+01 0. -1.
       -5    1    3    3    0  502  0.19197378073E+03 -0.43231936619E+02 -0.34639220906E+03  0.39841258178E+03  0.46999998093E+01 0.  1.
</event>
<event>
 5   0  0.1413361E-01  0.4941685E+03  0.7818609E-02  0.1015312E+00
        1   -1    0    0  501    0  0.00000000000E+00  0.00000000000E+00  0.39851899658E+03  0.39851899661E+03  0.50400001928E-02 0. -1.
       -1   -1    0    0    0  501  0.00000000000E+00  0.00000000000E+00 -0.15319375192E+03  0.15319375200E+03  0.50400001928E-02 0.  1.
    10030    2    1    2    0    0  0.00000000000E+00  0.00000000000E+00  0.24532524466E+03  0.55171274862E+03  0.49416847463E+03 0.  0.
        3    1    3    3  502    0  0.97373984257E+02  0.21476829500E+03  0.40291123497E+02  0.23922896601E+03  0.10100000352E+00 0.  1.
       -3    1    3    3    0  502 -0.97373984257E+02 -0.21476829500E+03  0.20503412117E+03  0.31248378260E+03  0.10100000352E+00 0. -1.
</event>
<event>
 5   0  0.2413301E-01  0.5035081E+03  0.7818609E-02  0.1012867E+00
        2   -1    0    0  501    0  0.00000000000E+00  0.00000000000E+00  0.15974521553E+04  0.15974521553E+04  0.25500000920E-02 0.  1.
       -2   -1    0    0    0  501  0.00000000000E+00  0.00000000000E+00 -0.39675740721E+02  0.39675740803E+02  0.25500000920E-02 0. -1.
    10030    2    1    2    0    0  0.00000000000E+00  0.00000000000E+00  0.15577764146E+04  0.16371278961E+04  0.50350808374E+03 0.  0.
        4    1    3    3  502    0  0.53582523761E+02  0.20194912434E+03  0.12355273089E+04  0.12530697824E+04  0.12699999809E+01 0.  1.
       -4    1    3    3    0  502 -0.53582523761E+02 -0.20194912434E+03  0.32224910568E+03  0.38405811368E+03  0.12699999809E+01 0. -1.
</event>
<event>
 5   0  0.2511944E-01  0.4975025E+03  0.7818609E-02  0.1014433E+00
        2   -1    0    0  501    0  0.00000000000E+00  0.00000000000E+00  0.94764118734E+03  0.94764118735E+03  0.25500000920E-02 0. -1.
       -2   -1    0    0    0  501  0.00000000000E+00  0.00000000000E+00 -0.65295999855E+02  0.65295999905E+02  0.25500000920E-02 0.  1.
    10030    2    1    2    0    0  0.00000000000E+00  0.00000000000E+00  0.88234518749E+03  0.10129371873E+04  0.49750247782E+03 0.  0.
        1    1    3    3  502    0 -0.10513687223E+02  0.17195922846E+03  0.75836390167E+02  0.18823302572E+03  0.50400001928E-02 0.  1.
       -1    1    3    3    0  502  0.10513687223E+02 -0.17195922846E+03  0.80650879732E+03  0.82470416153E+03  0.50400001928E-02 0. -1.
</event>
<event>
 5   0  0.9868500E-02  0.5003801E+03  0.7818609E-02  0.1013680E+00
       -3   -1    0    0    0  501  0.00000000000E+00  0.00000000000E+00  0.67919490578E+03  0.67919491329E+03  0.10100000352E+00 0.  1.
        3   -1    0    0  501    0  0.00000000000E+00  0.00000000000E+00 -0.92160642235E+02  0.92160697579E+02  0.10100000352E+00 0. -1.
    10030    2    1    2    0    0  0.00000000000E+00  0.00000000000E+00  0.58703426355E+03  0.77135561087E+03  0.50038010736E+03 0.  0.
        4    1    3    3  502    0  0.12544127875E+03  0.16998025090E+03  0.50013314941E+03  0.54292133882E+03  0.12699999809E+01 0.  1.
       -4    1    3    3    0  502 -0.12544127875E+03 -0.16998025090E+03  0.86901114137E+02  0.22843427205E+03  0.12699999809E+01 0. -1.
</event>
<event>
 5   0  0.1529146E-01  0.5080732E+03  0.7818609E-02  0.1011693E+00
       -1   -1    0    0    0  501  0.00000000000E+00  0.00000000000E+00  0.47874035214E+03  0.47874035217E+03  0.50400001928E-02 0.  1.
        1   -1    0    0  501    0  0.00000000000E+00  0.00000000000E+00 -0.13480083702E+03  0.13480083711E+03  0.50400001928E-02 0. -1.
    10030    2    1    2    0    0  0.00000000000E+00  0.00000000000E+00  0.34393951512E+03  0.61354118928E+03  0.50807322393E+03 0.  0.
        1    1    3    3  502    0  0.14651335390E+03 -0.85929195358E+02  0.40008688695E+03  0.43464871634E+03  0.50400001928E-02 0.  1.
       -1    1    3    3    0  502 -0.14651335390E+03  0.85929195358E+02 -0.56147371826E+02  0.17889247294E+03  0.50400001928E-02 0. -1.
</event>
<event>
 5   0  0.2466034E-01  0.4804297E+03  0.7818609E-02  0.1019017E+00
        2   -1    0    0  501    0  0.00000000000E+00  0.00000000000E+00  0.10161263581E+04  0.10161263581E+04  0.25500000920E-02 0.  1.
       -2   -1    0    0    0  501  0.00000000000E+00  0.00000000000E+00 -0.56787410356E+02  0.56787410413E+02  0.25500000920E-02 0. -1.
    10030    2    1    2    0    0  0.00000000000E+00  0.00000000000E+00  0.95933894777E+03  0.10729137685E+04  0.48042974306E+03 0.  0.
        3    1    3    3  502    0 -0.12292979592E+03  0.15398146715E+03  0.78653572160E+03  0.81083936665E+03  0.10100000352E+00 0.  1.
       -3    1    3    3    0  502  0.12292979592E+03 -0.15398146715E+03  0.17280322616E+03  0.26207440189E+03  0.10100000352E+00 0. -1.
</event>
<event>
 5   0  0.1413361E-01  0.4963118E+03  0.7818609E-02  0.1014746E+00
       -1   -1    0    0    0  501  0.00000000000E+00  0.00000000000E+00  0.30602392822E+02  0.30602393237E+02  0.50400001928E-02 0.  1.
        1   -1    0    0  501    0  0.00000000000E+00  0.00000000000E+00 -0.20123052953E+04  0.20123052953E+04  0.50400001928E-02 0. -1.
    10030    2    1    2    0    0  0.00000000000E+00  0.00000000000E+00 -0.19817029024E+04  0.20429076885E+04  0.49631182760E+03 0.  0.
        3    1    3    3  502    0  0.18593592741E+03  0.12437328862E+03 -0.14330382171E+04  0.14503928523E+04  0.10100000352E+00 0. -1.
       -3    1    3    3    0  502 -0.18593592741E+03 -0.12437328862E+03 -0.54866468529E+03  0.59251483619E+03  0.10100000352E+00 0.  1.
</event>
<event>
 5   0  0.1448458E-01  0.5012022E+03  0.7818609E-02  0.1013466E+00
       -1   -1    0    0    0  501  0.00000000000E+00  0.00000000000E+00  0.64136295968E+02  0.64136296166E+02  0.50400001928E-02 0. -1.
        1   -1    0    0  501    0  0.00000000000E+00  0.00000000000E+00 -0.97917876047E+03  0.97917876049E+03  0.50400001928E-02 0.  1.
    10030    2    1    2    0    0  0.00000000000E+00  0.00000000000E+00 -0.91504246451E+03  0.10433150567E+04  0.50120215042E+03 0.  0.
        5    1    3    3  502    0  0.88527256142E+02  0.67799812934E+02  0.95470469516E+01  0.11201395367E+03  0.46999998093E+01 0. -1.
       -5    1    3    3    0  502 -0.88527256142E+02 -0.67799812934E+02 -0.92458951146E+03  0.93130110298E+03  0.46999998093E+01 0.  1.
</event>
<event>
 5   0  0.9868500E-02  0.5241029E+03  0.7818609E-02  0.1007672E+00
        3   -1    0    0  501    0  0.00000000000E+00  0.00000000000E+00  0.12261296262E+03  0.12261300422E+03  0.10100000352E+00 0.  1.
       -3   -1    0    0    0  501  0.00000000000E+00  0.00000000000E+00 -0.56006277531E+03  0.56006278441E+03  0.10100000352E+00 0. -1.
    10030    2    1    2    0    0  0.00000000000E+00  0.00000000000E+00 -0.43744981268E+03  0.68267578863E+03  0.52410294196E+03 0.  0.
        4    1    3    3  502    0  0.39925310351E+02  0.23788629160E+03 -0.85344731397E+02  0.25586960393E+03  0.12699999809E+01 0.  1.
       -4    1    3    3    0  502 -0.39925310351E+02 -0.23788629160E+03 -0.35210508129E+03  0.42680618471E+03  0.12699999809E+01 0. -1.
</event>
<event>
 5   0  0.1529146E-01  0.5058339E+03  0.7818609E-02  0.1012267E+00
       -1   -1    0    0    0  501  0.00000000000E+00  0.00000000000E+00  0.14033967858E+03  0.14033967867E+03  0.50400001928E-02 0.  1.
        1   -1    0    0  501    0  0.00000000000E+00  0.00000000000E+00 -0.45580106795E+03  0.45580106798E+03  0.50400001928E-02 0. -1.
    10030    2    1    2    0    0  0.00000000000E+00  0.00000000000E+00 -0.31546138937E+03  0.59614074665E+03  0.50583386762E+03 0.  0.
        1    1    3    3  502    0  0.76286352078E+02  0.25708538303E+02  0.12483771456E+03  0.14854289433E+03  0.50400001928E-02 0.  1.
       -1    1    3    3    0  502 -0.76286352078E+02 -0.25708538303E+02 -0.44029910393E+03  0.44759785232E+03  0.50400001928E-02 0. -1.
</event>
<event>
 5   0  0.1529146E-01  0.4893652E+03  0.7818609E-02  0.1016593E+00
        1   -1    0    0  501    0  0.00000000000E+00  0.00000000000E+00  0.35586084564E+03  0.35586084568E+03  0.50400001928E-02 0. -1.
       -1   -1    0    0    0  501  0.00000000000E+00  0.00000000000E+00 -0.16823872496E+03  0.16823872503E+03  0.50400001928E-02 0.  1.
    10030    2    1    2    0    0  0.00000000000E+00  0.00000000000E+00  0.18762212068E+03  0.52409957071E+03  0.48936520090E+03 0.  0.
        1    1    3    3  502    0  0.13606437265E+03  0.14843666155E+03 -0.55061177077E+02  0.20875509393E+03  0.50400001928E-02 0.  1.
       -1    1    3    3    0  502 -0.13606437265E+03 -0.14843666155E+03  0.24268329776E+03  0.31534447678E+03  0.50400001928E-02 0. -1.
</event>
<event>
 5   0  0.9868500E-02  0.4893267E+03  0.7818609E-02  0.1016603E+00
       -3   -1    0    0    0  501  0.00000000000E+00  0.00000000000E+00  0.17479789297E+03  0.17479792215E+03  0.10100000352E+00 0. -1.
        3   -1    0    0  501    0  0.00000000000E+00  0.00000000000E+00 -0.34245343765E+03  0.34245345254E+03  0.10100000352E+00 0.  1.
    10030    2    1    2    0    0  0.00000000000E+00  0.00000000000E+00 -0.16765554468E+03  0.51725137469E+03  0.48932668326E+03 0.  0.
        4    1    3    3  502    0  0.45548453986E+02 -0.23465951894E+03 -0.28710172780E+02  0.24076054164E+03  0.12699999809E+01 0. -1.
       -4    1    3    3    0  502 -0.45548453986E+02  0.23465951894E+03 -0.13894537190E+03  0.27649083305E+03  0.12699999809E+01 0.  1.
</event>
<event>
 5   0  0.2466034E-01  0.4941869E+03  0.7818609E-02  0.1015307E+00
       -2   -1    0    0    0  501  0.00000000000E+00  0.00000000000E+00  0.20527748986E+03  0.20527748988E+03  0.25500000920E-02 0. -1.
        2   -1    0    0  501    0  0.00000000000E+00  0.00000000000E+00 -0.29742750784E+03  0.29742750785E+03  0.25500000920E-02 0.  1.
    10030    2    1    2    0    0  0.00000000000E+00  0.00000000000E+00 -0.92150017979E+02  0.50270499773E+03  0.49418689676E+03 0.  0.
        3    1    3    3  502    0 -0.14540738375E+03 -0.19743990261E+03 -0.77085540384E+02  0.25703698786E+03  0.10100000352E+00 0.  1.
       -3    1    3    3    0  502  0.14540738375E+03  0.19743990261E+03 -0.15064477595E+02  0.24566800987E+03  0.10100000352E+00 0. -1.
</event>
<event>
 5   0  0.9868500E-02  0.4733327E+03  0.7818609E-02  0.1020984E+00
       -3   -1    0    0    0  501  0.00000000000E+00  0.00000000000E+00  0.18219531592E+03  0.18219534392E+03  0.10100000352E+00 0.  1.
        3   -1    0    0  501    0  0.00000000000E+00  0.00000000000E+00 -0.30742256298E+03  0.30742257957E+03  0.10100000352E+00 0. -1.
    10030    2    1    2    0    0  0.00000000000E+00  0.00000000000E+00 -0.12522724706E+03  0.48961792349E+03  0.47333270286E+03 0.  0.
        1    1    3    3  502    0  0.14978290362E+03 -0.54283250459E+02 -0.24364749765E+03  0.29111113450E+03  0.50400001928E-02 0. -1.
       -1    1    3    3    0  502 -0.14978290362E+03  0.54283250459E+02  0.11842025059E+03  0.19850678899E+03  0.50400001928E-02 0.  1.
</event>
<event>
 5   0  0.1529146E-01  0.4957612E+03  0.7818609E-02  0.1014891E+00
        1   -1    0    0  501    0  0.00000000000E+00  0.00000000000E+00  0.75287569579E+03  0.75287569580E+03  0.50400001928E-02 0.  1.
       -1   -1    0    0    0  501  0.00000000000E+00  0.00000000000E+00 -0.81613445756E+02  0.81613445912E+02  0.50400001928E-02 0. -1.
    10030    2    1    2    0    0  0.00000000000E+00  0.00000000000E+00  0.67126225003E+03  0.83448914172E+03  0.49576115149E+03 0.  0.
        1    1    3    3  502    0 -0.28843534381E+02 -0.93980971087E+02 -0.47397233895E+02  0.10913693329E+03  0.50400001928E-02 0. -1.
       -1    1    3    3    0  502  0.28843534381E+02  0.93980971087E+02  0.71865948393E+03  0.72535220842E+03  0.50400001928E-02 0.  1.
</event>
<event>
 5   0  0.1453602E-01  0.4975247E+03  0.7818609E-02  0.1014427E+00
        1   -1    0    0  501    0  0.00000000000E+00  0.00000000000E+00  0.38083658792E+03  0.38083658795E+03  0.50400001928E-02 0. -1.
       -1   -1    0    0    0  501  0.00000000000E+00  0.00000000000E+00 -0.16249149171E+03  0.16249149179E+03  0.50400001928E-02 0.  1.
    10030    2    1    2    0    0  0.00000000000E+00  0.00000000000E+00  0.21834509620E+03  0.54332807974E+03  0.49752469406E+03 0.  0.
        2    1    3    3  502    0 -0.18675211713E+03 -0.14157299698E+03  0.18042965042E+02  0.23504215648E+03  0.25500000920E-02 0.  1.
       -2    1    3    3    0  502  0.18675211713E+03  0.14157299698E+03  0.20030213116E+03  0.30828592326E+03  0.25500000920E-02 0. -1.
</event>
<event>
 5   0  0.1413361E-01  0.5041192E+03  0.7818609E-02  0.1012709E+00
        1   -1    0    0  501    0  0.00000000000E+00  0.00000000000E+00  0.20499558263E+03  0.20499558270E+03  0.50400001928E-02 0. -1.
       -1   -1    0    0    0  501  0.00000000000E+00  0.00000000000E+00 -0.30992880081E+03  0.30992880085E+03  0.50400001928E-02 0.  1.
    10030    2    1    2    0    0  0.00000000000E+00  0.00000000000E+00 -0.10493321817E+03  0.51492438354E+03  0.50411917291E+03 0.  0.
        3    1    3    3  502    0 -0.11667197814E+02  0.15535562289E+03  0.14992821109E+03  0.21621741778E+03  0.10100000352E+00 0. -1.
       -3    1    3    3    0  502  0.11667197814E+02 -0.15535562289E+03 -0.25486142926E+03  0.29870696576E+03  0.10100000352E+00 0.  1.
</event>
<event>
 5   0  0.2511944E-01  0.5119640E+03  0.7818609E-02  0.1010702E+00
        2   -1    0    0  501    0  0.00000000000E+00  0.00000000000E+00  0.11233672525E+04  0.11233672525E+04  0.25500000920E-02 0. -1.
       -2   -1    0    0    0  501  0.00000000000E+00  0.00000000000E+00 -0.58330689051E+02  0.58330689106E+02  0.25500000920E-02 0.  1.
    10030    2    1    2    0    0  0.00000000000E+00  0.00000000000E+00  0.10650365634E+04  0.11816979416E+04  0.51196400627E+03 0.  0.
        1    1    3    3  502    0 -0.64016301391E+02  0.78850015744E+02 -0.98338207174E+01  0.10203977598E+03  0.50400001928E-02 0.  1.
       -1    1    3    3    0  502  0.64016301391E+02 -0.78850015744E+02  0.10748703842E+04  0.10796581656E+04  0.50400001928E-02 0. -1.
</event>
<event>
 5   0  0.2466034E-01  0.5072456E+03  0.7818609E-02  0.1011905E+00
       -2   -1    0    0    0  501  0.00000000000E+00  0.00000000000E+00  0.12176726844E+03  0.12176726847E+03  0.25500000920E-02 0.  1.
        2   -1    0    0  501    0  0.00000000000E+00  0.00000000000E+00 -0.52825782238E+03  0.52825782239E+03  0.25500000920E-02 0. -1.
    10030    2    1    2    0    0  0.00000000000E+00  0.00000000000E+00 -0.40649055394E+03  0.65002509086E+03  0.50724555030E+03 0.  0.
        3    1    3    3  502    0  0.23536661460E+03 -0.73421591454E+02 -0.27945110321E+03  0.37266754976E+03  0.10100000352E+00 0. -1.
       -3    1    3    3    0  502 -0.23536661460E+03  0.73421591454E+02 -0.12703945073E+03  0.27735754109E+03  0.10100000352E+00 0.  1.
</event>
<event>
 5   0  0.9868500E-02  0.5031477E+03  0.7818609E-02  0.1012961E+00
       -3   -1    0    0    0  501  0.00000000000E+00  0.00000000000E+00  0.14192799705E+03  0.14192803298E+03  0.10100000352E+00 0.  1.
        3   -1    0    0  501    0  0.00000000000E+00  0.00000000000E+00 -0.44592595688E+03  0.44592596832E+03  0.10100000352E+00 0. -1.
    10030    2    1    2    0    0  0.00000000000E+00  0.00000000000E+00 -0.30399795983E+03  0.58785400130E+03  0.50314765950E+03 0.  0.
        3    1    3    3  502    0 -0.17985644430E+03  0.16623458545E+03 -0.21918794098E+03  0.32867254468E+03  0.10100000352E+00 0. -1.
       -3    1    3    3    0  502  0.17985644430E+03 -0.16623458545E+03 -0.84810018849E+02  0.25918145662E+03  0.10100000352E+00 0.  1.
</event>
<event>
 5   0  0.1439814E-01  0.4960451E+03  0.7818609E-02  0.1014816E+00
       -1   -1    0    0    0  501  0.00000000000E+00  0.00000000000E+00  0.75312845728E+03  0.75312845729E+03  0.50400001928E-02 0. -1.
        1   -1    0    0  501    0  0.00000000000E+00  0.00000000000E+00 -0.81679528222E+02  0.81679528378E+02  0.50400001928E-02 0.  1.
    10030    2    1    2    0    0  0.00000000000E+00  0.00000000000E+00  0.67144892905E+03  0.83480798567E+03  0.49604506712E+03 0.  0.
        4    1    3    3  502    0  0.14305320005E+03  0.60347925977E+01 -0.50961417877E+01  0.14327672640E+03  0.12699999809E+01 0.  1.
       -4    1    3    3    0  502 -0.14305320005E+03 -0.60347925977E+01  0.67654507084E+03  0.69153125927E+03  0.12699999809E+01 0. -1.
</event>
<event>
 5   0  0.1453602E-01  0.5007838E+03  0.7818609E-02  0.1013575E+00
       -1   -1    0    0    0  501  0.00000000000E+00  0.00000000000E+00  0.63745438902E+02  0.63745439101E+02  0.50400001928E-02 0.  1.
        1   -1    0    0  501    0  0.00000000000E+00  0.00000000000E+00 -0.98353862359E+03  0.98353862360E+03  0.50400001928E-02 0. -1.
    10030    2    1    2    0    0  0.00000000000E+00  0.00000000000E+00 -0.91979318468E+03  0.10472840627E+04  0.50078379106E+03 0.  0.
        2    1    3    3  502    0  0.15967272777E+03 -0.10853194448E+03 -0.12645855180E+03  0.23079499192E+03  0.25500000920E-02 0.  1.
       -2    1    3    3    0  502 -0.15967272777E+03  0.10853194448E+03 -0.79333463289E+03  0.81648907078E+03  0.25500000920E-02 0. -1.
</event>
<event>
 5   0  0.1453602E-01  0.5112615E+03  0.7818609E-02  0.1010881E+00
        1   -1    0    0  501    0  0.00000000000E+00  0.00000000000E+00  0.44827349420E+03  0.44827349423E+03  0.50400001928E-02 0.  1.
       -1   -1    0    0    0  501  0.00000000000E+00  0.00000000000E+00 -0.14577499931E+03  0.14577499940E+03  0.50400001928E-02 0. -1.
    10030    2    1    2    0    0  0.00000000000E+00  0.00000000000E+00  0.30249849489E+03  0.59404849363E+03  0.51126145305E+03 0.  0.
        2    1    3    3  502    0  0.82167607970E+02  0.15105791644E+03 -0.68527207597E+02  0.18511074552E+03  0.25500000920E-02 0. -1.
       -2    1    3    3    0  502 -0.82167607970E+02 -0.15105791644E+03  0.37102570249E+03  0.40893774811E+03  0.25500000920E-02 0.  1.
</event>
<event>
 5   0  0.1529146E-01  0.4983447E+03  0.7818609E-02  0.1014212E+00
        1   -1    0    0  501    0  0.00000000000E+00  0.00000000000E+00  0.28453891030E+03  0.28453891035E+03  0.50400001928E-02 0.  1.
       -1   -1    0    0    0  501  0.00000000000E+00  0.00000000000E+00 -0.21820166996E+03  0.21820167002E+03  0.50400001928E-02 0. -1.
    10030    2    1    2    0    0  0.00000000000E+00  0.00000000000E+00  0.66337240343E+02  0.50274058037E+03  0.49834472175E+03 0.  0.
        1    1    3    3  502    0 -0.39045714854E+02  0.20203265822E+03  0.17492537951E+03  0.27007526961E+03  0.50400001928E-02 0.  1.
       -1    1    3    3    0  502  0.39045714854E+02 -0.20203265822E+03 -0.10858813917E+03  0.23266531075E+03  0.50400001928E-02 0. -1.
</event>
<event>
 5   0  0.1448458E-01  0.4913992E+03  0.7818609E-02  0.1016049E+00
        1   -1    0    0  501    0  0.00000000000E+00  0.00000000000E+00  0.33244605195E+03  0.33244605198E+03  0.50400001928E-02 0.  1.
       -1   -1    0    0    0  501  0.00000000000E+00  0.00000000000E+00 -0.18158821859E+03  0.18158821866E+03  0.50400001928E-02 0. -1.
    10030    2    1    2    0    0  0.00000000000E+00  0.00000000000E+00  0.15085783335E+03  0.51403427065E+03  0.49139917126E+03 0.  0.
        5    1    3    3  502    0 -0.82308898002E+00  0.16116656096E+03 -0.11850458751E+03  0.20010188681E+03  0.46999998093E+01 0. -1.
       -5    1    3    3    0  502  0.82308898002E+00 -0.16116656096E+03  0.26936242087E+03  0.31393238383E+03  0.46999998093E+01 0.  1.
</event>
<event>
 5   0  0.1439814E-01  0.4998304E+03  0.7818609E-02  0.1013823E+00
        1   -1    0    0  501    0  0.00000000000E+00  0.00000000000E+00  0.13500275860E+03  0.13500275870E+03  0.50400001928E-02 0. -1.
       -1   -1    0    0    0  501  0.00000000000E+00  0.00000000000E+00 -0.46263941616E+03  0.46263941619E+03  0.50400001928E-02 0.  1.
    10030    2    1    2    0    0  0.00000000000E+00  0.00000000000E+00 -0.32763665756E+03  0.59764217489E+03  0.49983036105E+03 0.  0.
        4    1    3    3  502    0 -0.24260163610E+03  0.50243243211E+02 -0.20304073850E+03  0.32032341737E+03  0.12699999809E+01 0.  1.
       -4    1    3    3    0  502  0.24260163610E+03 -0.50243243211E+02 -0.12459591906E+03  0.27731875752E+03  0.12699999809E+01 0. -1.
</event>
<event>
 5   0  0.2413301E-01  0.5066359E+03  0.7818609E-02  0.1012061E+00
       -2   -1    0    0    0  501  0.00000000000E+00  0.00000000000E+00  0.14844579092E+03  0.14844579094E+03  0.25500000920E-02 0. -1.
        2   -1    0    0  501    0  0.00000000000E+00  0.00000000000E+00 -0.43227882408E+03  0.43227882409E+03  0.25500000920E-02 0.  1.
    10030    2    1    2    0    0  0.00000000000E+00  0.00000000000E+00 -0.28383303316E+03  0.58072461503E+03  0.50663585324E+03 0.  0.
        4    1    3    3  502    0 -0.16101313608E+03  0.16909637884E+02  0.81400264683E+02  0.18121473956E+03  0.12699999809E+01 0. -1.
       -4    1    3    3    0  502  0.16101313608E+03 -0.16909637884E+02 -0.36523329784E+03  0.39950987547E+03  0.12699999809E+01 0.  1.
</event>
<event>
 5   0  0.9868500E-02  0.5121001E+03  0.7818609E-02  0.1010668E+00
        3   -1    0    0  501    0  0.00000000000E+00  0.00000000000E+00  0.13090637645E+04  0.13090637684E+04  0.10100000352E+00 0. -1.
       -3   -1    0    0    0  501  0.00000000000E+00  0.00000000000E+00 -0.50082778558E+02  0.50082880399E+02  0.10100000352E+00 0.  1.
    10030    2    1    2    0    0  0.00000000000E+00  0.00000000000E+00  0.12589809860E+04  0.13591466488E+04  0.51210007808E+03 0.  0.
        2    1    3    3  502    0 -0.14827220231E+03 -0.17909789527E+03  0.34486239166E+03  0.41592159268E+03  0.25500000920E-02 0.  1.
       -2    1    3    3    0  502  0.14827220231E+03  0.17909789527E+03  0.91411859431E+03  0.94322505615E+03  0.25500000920E-02 0. -1.
</event>
<event>
 5   0  0.2413301E-01  0.5331209E+03  0.7818609E-02  0.1005478E+00
       -2   -1    0    0    0  501  0.00000000000E+00  0.00000000000E+00  0.62625313484E+02  0.62625313536E+02  0.25500000920E-02 0.  1.
        2   -1    0    0  501    0  0.00000000000E+00  0.00000000000E+00 -0.11345966705E+04  0.11345966705E+04  0.25500000920E-02 0. -1.
    10030    2    1    2    0    0  0.00000000000E+00  0.00000000000E+00 -0.10719713570E+04  0.11972219840E+04  0.53312089511E+03 0.  0.
        4    1    3    3  502    0  0.14639187353E+03  0.10407058564E+03 -0.97828653399E+03  0.99463934313E+03  0.12699999809E+01 0. -1.
       -4    1    3    3    0  502 -0.14639187353E+03 -0.10407058564E+03 -0.93684823031E+02  0.20258264091E+03  0.12699999809E+01 0.  1.
</event>
<event>
 5   0  0.1529146E-01  0.5061582E+03  0.7818609E-02  0.1012184E+00
       -1   -1    0    0    0  501  0.00000000000E+00  0.00000000000E+00  0.21162764636E+03  0.21162764642E+03  0.50400001928E-02 0.  1.
        1   -1    0    0  501    0  0.00000000000E+00  0.00000000000E+00 -0.30264958480E+03  0.30264958485E+03  0.50400001928E-02 0. -1.
    10030    2    1    2    0    0  0.00000000000E+00  0.00000000000E+00 -0.91021938441E+02  0.51427723127E+03  0.50615815446E+03 0.  0.
        1    1    3    3  502    0  0.31418548837E+02 -0.15648070250E+03  0.15404644872E+03  0.22181894386E+03  0.50400001928E-02 0.  1.
       -1    1    3    3    0  502 -0.31418548837E+02  0.15648070250E+03 -0.24506838716E+03  0.29245828741E+03  0.50400001928E-02 0. -1.
</event>
<event>
 5   0  0.1439814E-01  0.5016645E+03  0.7818609E-02  0.1013345E+00
       -1   -1    0    0    0  501  0.00000000000E+00  0.00000000000E+00  0.19667241552E+03  0.19667241558E+03  0.50400001928E-02 0. -1.
        1   -1    0    0  501    0  0.00000000000E+00  0.00000000000E+00 -0.31990662579E+03  0.31990662583E+03  0.50400001928E-02 0.  1.
    10030    2    1    2    0    0  0.00000000000E+00  0.00000000000E+00 -0.12323421027E+03  0.51657904141E+03  0.50166446500E+03 0.  0.
        4    1    3    3  502    0  0.74829496694E+02 -0.17476015422E+03 -0.23011139555E+03  0.29848522968E+03  0.12699999809E+01 0.  1.
       -4    1    3    3    0  502 -0.74829496694E+02  0.17476015422E+03  0.10687718528E+03  0.21809381172E+03  0.12699999809E+01 0. -1.
</event>
<event>
 5   0  0.2413301E-01  0.5208464E+03  0.7818609E-02  0.1008477E+00
       -2   -1    0    0    0  501  0.00000000000E+00  0.00000000000E+00  0.13164592796E+03  0.13164592798E+03  0.25500000920E-02 0. -1.
        2   -1    0    0  501    0  0.00000000000E+00  0.00000000000E+00 -0.51517160464E+03  0.51517160465E+03  0.25500000920E-02 0.  1.
    10030    2    1    2    0    0  0.00000000000E+00  0.00000000000E+00 -0.38352567668E+03  0.64681753263E+03  0.52084640332E+03 0.  0.
        4    1    3    3  502    0  0.25736592644E+03  0.39692406096E+02 -0.19478539695E+03  0.32520097011E+03  0.12699999809E+01 0. -1.
       -4    1    3    3    0  502 -0.25736592644E+03 -0.39692406096E+02 -0.18874027973E+03  0.32161656252E+03  0.12699999809E+01 0.  1.
</event>
<event>
 5   0  0.2413301E-01  0.5034507E+03  0.7818609E-02  0.1012882E+00
        2   -1    0    0  501    0  0.00000000000E+00  0.00000000000E+00  0.24414239073E+03  0.24414239075E+03  0.25500000920E-02 0.  1.
       -2   -1    0    0    0  501  0.00000000000E+00  0.00000000000E+00 -0.25954380521E+03  0.25954380523E+03  0.25500000920E-02 0. -1.
    10030    2    1    2    0    0  0.00000000000E+00  0.00000000000E+00 -0.15401414481E+02  0.50368619597E+03  0.50345067330E+03 0.  0.
        4    1    3    3  502    0 -0.18876387304E+03  0.11808837526E+03  0.10977384753E+03  0.24825103149E+03  0.12699999809E+01 0.  1.
       -4    1    3    3    0  502  0.18876387304E+03 -0.11808837526E+03 -0.12517526201E+03  0.25543516448E+03  0.12699999809E+01 0. -1.
</event>
<event>
 5   0  0.2504064E-01  0.5045046E+03  0.7818609E-02  0.1012610E+00
        2   -1    0    0  501    0  0.00000000000E+00  0.00000000000E+00  0.90738562919E+03  0.90738562920E+03  0.25500000920E-02 0. -1.
       -2   -1    0    0    0  501  0.00000000000E+00  0.00000000000E+00 -0.70125884138E+02  0.70125884184E+02  0.25500000920E-02 0.  1.
    10030    2    1    2    0    0  0.00000000000E+00  0.00000000000E+00  0.83725974506E+03  0.97751151338E+03  0.50450458680E+03 0.  0.
        5    1    3    3  502    0  0.10939959511E+03  0.10329048676E+03  0.81082301132E+03  0.82467765930E+03  0.46999998093E+01 0. -1.
       -5    1    3    3    0  502 -0.10939959511E+03 -0.10329048676E+03  0.26436733736E+02  0.15283385408E+03  0.46999998093E+01 0.  1.
</event>
<event>
 5   0  0.2511944E-01  0.4993068E+03  0.7818609E-02  0.1013960E+00
       -2   -1    0    0    0  501  0.00000000000E+00  0.00000000000E+00  0.35406703356E+02  0.35406703448E+02  0.25500000920E-02 0.  1.
        2   -1    0    0  501    0  0.00000000000E+00  0.00000000000E+00 -0.17603115427E+04  0.17603115427E+04  0.25500000920E-02 0. -1.
    10030    2    1    2    0    0  0.00000000000E+00  0.00000000000E+00 -0.17249048394E+04  0.17957182462E+04  0.49930683429E+03 0.  0.
        1    1    3    3  502    0  0.22739048601E+03 -0.69531279289E+02 -0.11360122157E+04  0.11606312016E+04  0.50400001928E-02 0. -1.
       -1    1    3    3    0  502 -0.22739048601E+03  0.69531279289E+02 -0.58889262365E+03  0.63508704454E+03  0.50400001928E-02 0.  1.
</event>
<event>
 5   0  0.1448458E-01  0.4992930E+03  0.7818609E-02  0.1013964E+00
       -1   -1    0    0    0  501  0.00000000000E+00  0.00000000000E+00  0.76565128458E+03  0.76565128460E+03  0.50400001928E-02 0.  1.
        1   -1    0    0  501    0  0.00000000000E+00  0.00000000000E+00 -0.81399179356E+02  0.81399179512E+02  0.50400001928E-02 0. -1.
    10030    2    1    2    0    0  0.00000000000E+00  0.00000000000E+00  0.68425210523E+03  0.84705046411E+03  0.49929304546E+03 0.  0.
        5    1    3    3  502    0  0.23911334191E+03  0.55915282963E+02  0.41798799142E+03  0.48480693076E+03  0.46999998093E+01 0.  1.
       -5    1    3    3    0  502 -0.23911334191E+03 -0.55915282963E+02  0.26626411381E+03  0.36224353335E+03  0.46999998093E+01 0. -1.
</event>
<event>
 5   0  0.2504064E-01  0.5001273E+03  0.7818609E-02  0.1013746E+00
        2   -1    0    0  501    0  0.00000000000E+00  0.00000000000E+00  0.11659897098E+04  0.11659897098E+04  0.25500000920E-02 0.  1.
       -2   -1    0    0    0  501  0.00000000000E+00  0.00000000000E+00 -0.53629830095E+02  0.53629830156E+02  0.25500000920E-02 0. -1.
    10030    2    1    2    0    0  0.00000000000E+00  0.00000000000E+00  0.11123598797E+04  0.12196195400E+04  0.50012730407E+03 0.  0.
        5    1    3    3  502    0  0.16515496661E+03  0.13041008918E+03  0.22695035646E+03  0.30953434164E+03  0.46999998093E+01 0. -1.
       -5    1    3    3    0  502 -0.16515496661E+03 -0.13041008918E+03  0.88540952326E+03  0.91008519834E+03  0.46999998093E+01 0.  1.
</event>
<event>
 5   0  0.9868500E-02  0.5949807E+03  0.7818609E-02  0.9915874E-01
        4   -1    0    0  501    0  0.00000000000E+00  0.00000000000E+00  0.38933759076E+03  0.38933966209E+03  0.12699999809E+01 0.  1.
       -4   -1    0    0    0  501  0.00000000000E+00  0.00000000000E+00 -0.22730603923E+03  0.22730958706E+03  0.12699999809E+01 0. -1.
    10030    2    1    2    0    0  0.00000000000E+00  0.00000000000E+00  0.16203155153E+03  0.61664924915E+03  0.59498073312E+03 0.  0.
        3    1    3    3  502    0 -0.20777574063E+03 -0.79589663441E+02 -0.12364804426E+03  0.25454689543E+03  0.10100000352E+00 0. -1.
       -3    1    3    3    0  502  0.20777574063E+03  0.79589663441E+02  0.28567959579E+03  0.36210235373E+03  0.10100000352E+00 0.  1.
</event>
<event>
 5   0  0.2504064E-01  0.5042445E+03  0.7818609E-02  0.1012677E+00
       -2   -1    0    0    0  501  0.00000000000E+00  0.00000000000E+00  0.36242233890E+02  0.36242233980E+02  0.25500000920E-02 0. -1.
        2   -1    0    0  501    0  0.00000000000E+00  0.00000000000E+00 -0.17539101422E+04  0.17539101422E+04  0.25500000920E-02 0.  1.
    10030    2    1    2    0    0  0.00000000000E+00  0.00000000000E+00 -0.17176679083E+04  0.17901523762E+04  0.50424447117E+03 0.  0.
        5    1    3    3  502    0  0.10630466550E+03 -0.22599956903E+03 -0.98011490006E+03  0.10114463873E+04  0.46999998093E+01 0.  1.
       -5    1    3    3    0  502 -0.10630466550E+03  0.22599956903E+03 -0.73755300825E+03  0.77870598886E+03  0.46999998093E+01 0. -1.
</event>
<event>
 5   0  0.1529146E-01  0.5236274E+03  0.7818609E-02  0.1007789E+00
       -1   -1    0    0    0  501  0.00000000000E+00  0.00000000000E+00  0.45332434087E+02  0.45332434368E+02  0.50400001928E-02 0. -1.
        1   -1    0    0  501    0  0.00000000000E+00  0.00000000000E+00 -0.15120831134E+04  0.15120831135E+04  0.50400001928E-02 0.  1.
    10030    2    1    2    0    0  0.00000000000E+00  0.00000000000E+00 -0.14667506794E+04  0.15574155478E+04  0.52362738011E+03 0.  0.
        1    1    3    3  502    0  0.73817655984E+02 -0.41080498612E+02  0.36812602524E+01  0.84558887195E+02  0.50400001928E-02 0. -1.
       -1    1    3    3    0  502 -0.73817655984E+02  0.41080498612E+02 -0.14704319396E+04  0.14728566606E+04  0.50400001928E-02 0.  1.
</event>
<event>
 5   0  0.1453602E-01  0.5014489E+03  0.7818609E-02  0.1013401E+00
       -1   -1    0    0    0  501  0.00000000000E+00  0.00000000000E+00  0.12705579889E+03  0.12705579899E+03  0.50400001928E-02 0.  1.
        1   -1    0    0  501    0  0.00000000000E+00  0.00000000000E+00 -0.49476498749E+03  0.49476498752E+03  0.50400001928E-02 0. -1.
    10030    2    1    2    0    0  0.00000000000E+00  0.00000000000E+00 -0.36770918860E+03  0.62182078651E+03  0.50144894371E+03 0.  0.
        2    1    3    3  502    0 -0.19405974334E+03 -0.10291623467E+03 -0.33958349684E+02  0.22227034184E+03  0.25500000920E-02 0.  1.
       -2    1    3    3    0  502  0.19405974334E+03  0.10291623467E+03 -0.33375083892E+03  0.39955044466E+03  0.25500000920E-02 0. -1.
</event>
<event>
 5   0  0.1413361E-01  0.4941934E+03  0.7818609E-02  0.1015306E+00
       -1   -1    0    0    0  501  0.00000000000E+00  0.00000000000E+00  0.15537530598E+03  0.15537530606E+03  0.50400001928E-02 0. -1.
        1   -1    0    0  501    0  0.00000000000E+00  0.00000000000E+00 -0.39296314689E+03  0.39296314692E+03  0.50400001928E-02 0.  1.
    10030    2    1    2    0    0  0.00000000000E+00  0.00000000000E+00 -0.23758784092E+03  0.54833845298E+03  0.49419335979E+03 0.  0.
        3    1    3    3  502    0  0.11196841513E+03  0.10992359299E+03 -0.33059147342E+03  0.36593832101E+03  0.10100000352E+00 0.  1.
       -3    1    3    3    0  502 -0.11196841513E+03 -0.10992359299E+03  0.93003632506E+02  0.18240013197E+03  0.10100000352E+00 0. -1.
</event>
<event>
 5   0  0.9868500E-02  0.4895399E+03  0.7818609E-02  0.1016546E+00
       -3   -1    0    0    0  501  0.00000000000E+00  0.00000000000E+00  0.12540391673E+03  0.12540395740E+03  0.10100000352E+00 0. -1.
        3   -1    0    0  501    0  0.00000000000E+00  0.00000000000E+00 -0.47775478737E+03  0.47775479805E+03  0.10100000352E+00 0.  1.
    10030    2    1    2    0    0  0.00000000000E+00  0.00000000000E+00 -0.35235087064E+03  0.60315875545E+03  0.48953993527E+03 0.  0.
        3    1    3    3  502    0  0.15264294413E+03  0.17048989805E+03 -0.28320208452E+03  0.36410177782E+03  0.10100000352E+00 0.  1.
       -3    1    3    3    0  502 -0.15264294413E+03 -0.17048989805E+03 -0.69148786118E+02  0.23905697763E+03  0.10100000352E+00 0. -1.
</event>
<event>
 5   0  0.1413361E-01  0.4939410E+03  0.7818609E-02  0.1015373E+00
       -1   -1    0    0    0  501  0.00000000000E+00  0.00000000000E+00  0.69196875036E+03  0.69196875038E+03  0.50400001928E-02 0. -1.
        1   -1    0    0  501    0  0.00000000000E+00  0.00000000000E+00 -0.88146201232E+02  0.88146201376E+02  0.50400001928E-02 0.  1.
    10030    2    1    2    0    0  0.00000000000E+00  0.00000000000E+00  0.60382254913E+03  0.78011495176E+03  0.49394095509E+03 0.  0.
        3    1    3    3  502    0 -0.24228908755E+03  0.47477751508E+02  0.29239988811E+03  0.38269549723E+03  0.10100000352E+00 0.  1.
       -3    1    3    3    0  502  0.24228908755E+03 -0.47477751508E+02  0.31142266102E+03  0.39741945452E+03  0.10100000352E+00 0. -1.
</event>
<event>
 5   0  0.2488968E-01  0.5172762E+03  0.7818609E-02  0.1009365E+00
        2   -1    0    0  501    0  0.00000000000E+00  0.00000000000E+00  0.73240745379E+03  0.73240745379E+03  0.25500000920E-02 0. -1.
       -2   -1    0    0    0  501  0.00000000000E+00  0.00000000000E+00 -0.91333946805E+02  0.91333946841E+02  0.25500000920E-02 0.  1.
    10030    2    1    2    0    0  0.00000000000E+00  0.00000000000E+00  0.64107350698E+03  0.82374140063E+03  0.51727618712E+03 0.  0.
        2    1    3    3  502    0  0.11306362859E+03 -0.16167558730E+03  0.54203982517E+02  0.20459826824E+03  0.25500000920E-02 0.  1.
       -2    1    3    3    0  502 -0.11306362859E+03  0.16167558730E+03  0.58686952447E+03  0.61914313240E+03  0.25500000920E-02 0. -1.
</event>
<event>
 5   0  0.1413361E-01  0.5057797E+03  0.7818609E-02  0.1012281E+00
        1   -1    0    0  501    0  0.00000000000E+00  0.00000000000E+00  0.37292168638E+03  0.37292168641E+03  0.50400001928E-02 0. -1.
       -1   -1    0    0    0  501  0.00000000000E+00  0.00000000000E+00 -0.17149248441E+03  0.17149248448E+03  0.50400001928E-02 0.  1.
    10030    2    1    2    0    0  0.00000000000E+00  0.00000000000E+00  0.20142920197E+03  0.54441417089E+03  0.50577966158E+03 0.  0.
        3    1    3    3  502    0  0.92136151670E+02  0.14739113491E+03 -0.97000959965E+02  0.19905379557E+03  0.10100000352E+00 0.  1.
       -3    1    3    3    0  502 -0.92136151670E+02 -0.14739113491E+03  0.29843016193E+03  0.34536037533E+03  0.10100000352E+00 0. -1.
</event>
<event>
 5   0  0.1453602E-01  0.5367059E+03  0.7818609E-02  0.1004619E+00
        1   -1    0    0  501    0  0.00000000000E+00  0.00000000000E+00  0.27644832806E+04  0.27644832806E+04  0.50400001928E-02 0.  1.
       -1   -1    0    0    0  501  0.00000000000E+00  0.00000000000E+00 -0.26049463817E+02  0.26049464305E+02  0.50400001928E-02 0. -1.
    10030    2    1    2    0    0  0.00000000000E+00  0.00000000000E+00  0.27384338168E+04  0.27905327449E+04  0.53670590784E+03 0.  0.
        2    1    3    3  502    0  0.37303226023E+02  0.25982066604E+03  0.10790287530E+04  0.11104959968E+04  0.25500000920E-02 0. -1.
       -2    1    3    3    0  502 -0.37303226023E+02 -0.25982066604E+03  0.16594050638E+04  0.16800367481E+04  0.25500000920E-02 0.  1.
</event>
<event>
 5   0  0.1529146E-01  0.4982580E+03  0.7818609E-02  0.1014235E+00
        1   -1    0    0  501    0  0.00000000000E+00  0.00000000000E+00  0.30572200400E+03  0.30572200404E+03  0.50400001928E-02 0. -1.
       -1   -1    0    0    0  501  0.00000000000E+00  0.00000000000E+00 -0.20301210011E+03  0.20301210017E+03  0.50400001928E-02 0.  1.
    10030    2    1    2    0    0  0.00000000000E+00  0.00000000000E+00  0.10270990389E+03  0.50873410421E+03  0.49825802997E+03 0.  0.
        1    1    3    3  502    0  0.15864632772E+03 -0.81959920162E+02  0.22872907678E+03  0.29017766351E+03  0.50400001928E-02 0. -1.
       -1    1    3    3    0  502 -0.15864632772E+03  0.81959920162E+02 -0.12601917288E+03  0.21855644070E+03  0.50400001928E-02 0.  1.
</event>
<event>
 5   0  0.2511944E-01  0.4875543E+03  0.7818609E-02  0.1017079E+00
       -2   -1    0    0    0  501  0.00000000000E+00  0.00000000000E+00  0.28437617177E+02  0.28437617291E+02  0.25500000920E-02 0.  1.
        2   -1    0    0  501    0  0.00000000000E+00  0.00000000000E+00 -0.20897422619E+04  0.20897422619E+04  0.25500000920E-02 0. -1.
    10030    2    1    2    0    0  0.00000000000E+00  0.00000000000E+00 -0.20613046447E+04  0.21181798792E+04  0.48755426596E+03 0.  0.
        1    1    3    3  502    0 -0.16213066627E+03 -0.14205121776E+03 -0.53602009973E+03  0.57773908363E+03  0.50400001928E-02 0.  1.
       -1    1    3    3    0  502  0.16213066627E+03  0.14205121776E+03 -0.15252845450E+04  0.15404407955E+04  0.50400001928E-02 0. -1.
</event>
<event>
 5   0  0.2488968E-01  0.5019303E+03  0.7818609E-02  0.1013276E+00
       -2   -1    0    0    0  501  0.00000000000E+00  0.00000000000E+00  0.21577777417E+02  0.21577777568E+02  0.25500000920E-02 0. -1.
        2   -1    0    0  501    0  0.00000000000E+00  0.00000000000E+00 -0.29189062102E+04  0.29189062102E+04  0.25500000920E-02 0.  1.
    10030    2    1    2    0    0  0.00000000000E+00  0.00000000000E+00 -0.28973284327E+04  0.29404839877E+04  0.50193030882E+03 0.  0.
        2    1    3    3  502    0  0.10172194003E+03 -0.17982153974E+03 -0.22833583648E+04  0.22926858837E+04  0.25500000920E-02 0.  1.
       -2    1    3    3    0  502 -0.10172194003E+03  0.17982153974E+03 -0.61397006793E+03  0.64779810401E+03  0.25500000920E-02 0. -1.
</event>
<event>
 5   0  0.9868500E-02  0.4962209E+03  0.7818609E-02  0.1014770E+00
        3   -1    0    0  501    0  0.00000000000E+00  0.00000000000E+00  0.47950851704E+03  0.47950852768E+03  0.10100000352E+00 0.  1.
       -3   -1    0    0    0  501  0.00000000000E+00  0.00000000000E+00 -0.12837890285E+03  0.12837894258E+03  0.10100000352E+00 0. -1.
    10030    2    1    2    0    0  0.00000000000E+00  0.00000000000E+00  0.35112961418E+03  0.60788747026E+03  0.49622088886E+03 0.  0.
        3    1    3    3  502    0 -0.32320975605E+02 -0.83634308278E+02 -0.10783785639E+03  0.14024391772E+03  0.10100000352E+00 0. -1.
       -3    1    3    3    0  502  0.32320975605E+02  0.83634308278E+02  0.45896747058E+03  0.46764355254E+03  0.10100000352E+00 0.  1.
</event>
<event>
 5   0  0.1413361E-01  0.5017624E+03  0.7818609E-02  0.1013320E+00
        1   -1    0    0  501    0  0.00000000000E+00  0.00000000000E+00  0.11944835083E+04  0.11944835083E+04  0.50400001928E-02 0.  1.
       -1   -1    0    0    0  501  0.00000000000E+00  0.00000000000E+00 -0.52693377325E+02  0.52693377566E+02  0.50400001928E-02 0. -1.
    10030    2    1    2    0    0  0.00000000000E+00  0.00000000000E+00  0.11417901309E+04  0.12471768858E+04  0.50176237550E+03 0.  0.
        3    1    3    3  502    0  0.21048885320E+03  0.12650567645E+02  0.23303941476E+03  0.31428167814E+03  0.10100000352E+00 0. -1.
       -3    1    3    3    0  502 -0.21048885320E+03 -0.12650567645E+02  0.90875071617E+03  0.93289520769E+03  0.10100000352E+00 0.  1.
</event>
<event>
 5   0  0.2511944E-01  0.5016532E+03  0.7818609E-02  0.1013348E+00
        2   -1    0    0  501    0  0.00000000000E+00  0.00000000000E+00  0.13662326895E+04  0.13662326895E+04  0.25500000920E-02 0.  1.
       -2   -1    0    0    0  501  0.00000000000E+00  0.00000000000E+00 -0.46049239294E+02  0.46049239365E+02  0.25500000920E-02 0. -1.
    10030    2    1    2    0    0  0.00000000000E+00  0.00000000000E+00  0.13201834502E+04  0.14122819289E+04  0.50165317143E+03 0.  0.
        1    1    3    3  502    0  0.14860471792E+03 -0.11318449868E+03  0.11313413307E+04  0.11466591907E+04  0.50400001928E-02 0.  1.
       -1    1    3    3    0  502 -0.14860471792E+03  0.11318449868E+03  0.18884211949E+03  0.26562273820E+03  0.50400001928E-02 0. -1.
</event>
<event>
 5   0  0.1529146E-01  0.4936564E+03  0.7818609E-02  0.1015448E+00
       -1   -1    0    0    0  501  0.00000000000E+00  0.00000000000E+00  0.15339910235E+03  0.15339910243E+03  0.50400001928E-02 0. -1.
        1   -1    0    0  501    0  0.00000000000E+00  0.00000000000E+00 -0.39716112235E+03  0.39716112238E+03  0.50400001928E-02 0.  1.
    10030    2    1    2    0    0  0.00000000000E+00  0.00000000000E+00 -0.24376202000E+03  0.55056022481E+03  0.49365639746E+03 0.  0.
        1    1    3    3  502    0 -0.35248320449E+02 -0.82178516542E+02  0.13469997886E+03  0.16167818964E+03  0.50400001928E-02 0. -1.
       -1    1    3    3    0  502  0.35248320449E+02  0.82178516542E+02 -0.37846199886E+03  0.38888203517E+03  0.50400001928E-02 0.  1.
</event>
<event>
 5   0  0.1413361E-01  0.4998461E+03  0.7818609E-02  0.1013819E+00
        1   -1    0    0  501    0  0.00000000000E+00  0.00000000000E+00  0.94803857547E+02  0.94803857681E+02  0.50400001928E-02 0.  1.
       -1   -1    0    0    0  501  0.00000000000E+00  0.00000000000E+00 -0.65885009838E+03  0.65885009839E+03  0.50400001928E-02 0. -1.
    10030    2    1    2    0    0  0.00000000000E+00  0.00000000000E+00 -0.56404624083E+03  0.75365395608E+03  0.49984610003E+03 0.  0.
        3    1    3    3  502    0  0.46633271509E+02  0.15638903930E+03 -0.56742379889E+03  0.59042524621E+03  0.10100000352E+00 0. -1.
       -3    1    3    3    0  502 -0.46633271509E+02 -0.15638903930E+03  0.33775580577E+01  0.16322870986E+03  0.10100000352E+00 0.  1.
</event>
<event>
 5   0  0.2413301E-01  0.4962121E+03  0.7818609E-02  0.1014772E+00
       -2   -1    0    0    0  501  0.00000000000E+00  0.00000000000E+00  0.96396863215E+02  0.96396863249E+02  0.25500000920E-02 0.  1.
        2   -1    0    0  501    0  0.00000000000E+00  0.00000000000E+00 -0.63857480592E+03  0.63857480592E+03  0.25500000920E-02 0. -1.
    10030    2    1    2    0    0  0.00000000000E+00  0.00000000000E+00 -0.54217794270E+03  0.73497166917E+03  0.49621208463E+03 0.  0.
        4    1    3    3  502    0 -0.19504683824E+03  0.13224828474E+03 -0.38603073884E+03  0.45227670972E+03  0.12699999809E+01 0. -1.
       -4    1    3    3    0  502  0.19504683824E+03 -0.13224828474E+03 -0.15614720386E+03  0.28269495945E+03  0.12699999809E+01 0.  1.
</event>
<event>
 5   0  0.9868500E-02  0.5070780E+03  0.7818609E-02  0.1011948E+00
       -4   -1    0    0    0  501  0.00000000000E+00  0.00000000000E+00  0.53104490414E+02  0.53119674341E+02  0.12699999809E+01 0. -1.
        4   -1    0    0  501    0  0.00000000000E+00  0.00000000000E+00 -0.12102934339E+04  0.12102941003E+04  0.12699999809E+01 0.  1.
    10030    2    1    2    0    0  0.00000000000E+00  0.00000000000E+00 -0.11571889435E+04  0.12634137746E+04  0.50707801653E+03 0.  0.
        4    1    3    3  502    0  0.10157334183E+03  0.77210820726E+02 -0.32711671484E+02  0.13172061706E+03  0.12699999809E+01 0. -1.
       -4    1    3    3    0  502 -0.10157334183E+03 -0.77210820726E+02 -0.11244772720E+04  0.11316931575E+04  0.12699999809E+01 0.  1.
</event>
<event>
 5   0  0.1448458E-01  0.5056907E+03  0.7818609E-02  0.1012304E+00
        1   -1    0    0  501    0  0.00000000000E+00  0.00000000000E+00  0.13267587964E+04  0.13267587964E+04  0.50400001928E-02 0.  1.
       -1   -1    0    0    0  501  0.00000000000E+00  0.00000000000E+00 -0.48185673799E+02  0.48185674063E+02  0.50400001928E-02 0. -1.
    10030    2    1    2    0    0  0.00000000000E+00  0.00000000000E+00  0.12785731226E+04  0.13749444704E+04  0.50569068316E+03 0.  0.
        5    1    3    3  502    0  0.12234371767E+03  0.20807452000E+03  0.43499117798E+03  0.49749613671E+03  0.46999998093E+01 0. -1.
       -5    1    3    3    0  502 -0.12234371767E+03 -0.20807452000E+03  0.84358194459E+03  0.87744833373E+03  0.46999998093E+01 0.  1.
</event>
<event>
 5   0  0.2511944E-01  0.4949737E+03  0.7818609E-02  0.1015099E+00
        2   -1    0    0  501    0  0.00000000000E+00  0.00000000000E+00  0.15065095916E+03  0.15065095918E+03  0.25500000920E-02 0. -1.
       -2   -1    0    0    0  501  0.00000000000E+00  0.00000000000E+00 -0.40656723706E+03  0.40656723706E+03  0.25500000920E-02 0.  1.
    10030    2    1    2    0    0  0.00000000000E+00  0.00000000000E+00 -0.25591627789E+03  0.55721819625E+03  0.49497371338E+03 0.  0.
        1    1    3    3  502    0 -0.21494003444E+03 -0.52814503961E+02 -0.33033901671E+01  0.22135831280E+03  0.50400001928E-02 0. -1.
       -1    1    3    3    0  502  0.21494003444E+03  0.52814503961E+02 -0.25261288773E+03  0.33585988344E+03  0.50400001928E-02 0.  1.
</event>
<event>
 5   0  0.2504064E-01  0.4983256E+03  0.7818609E-02  0.1014217E+00
       -2   -1    0    0    0  501  0.00000000000E+00  0.00000000000E+00  0.13343946857E+03  0.13343946859E+03  0.25500000920E-02 0. -1.
        2   -1    0    0  501    0  0.00000000000E+00  0.00000000000E+00 -0.46524544965E+03  0.46524544966E+03  0.25500000920E-02 0.  1.
    10030    2    1    2    0    0  0.00000000000E+00  0.00000000000E+00 -0.33180598108E+03  0.59868491825E+03  0.49832561870E+03 0.  0.
        5    1    3    3  502    0  0.21311478842E+03 -0.10967179131E+03 -0.24751110510E+03  0.34457169355E+03  0.46999998093E+01 0. -1.
       -5    1    3    3    0  502 -0.21311478842E+03  0.10967179131E+03 -0.84294875986E+02  0.25411322470E+03  0.46999998093E+01 0.  1.
</event>
<event>
 5   0  0.2413301E-01  0.4659210E+03  0.7818609E-02  0.1023078E+00
       -2   -1    0    0    0  501  0.00000000000E+00  0.00000000000E+00  0.38609277219E+02  0.38609277303E+02  0.25500000920E-02 0. -1.
        2   -1    0    0  501    0  0.00000000000E+00  0.00000000000E+00 -0.14056363605E+04  0.14056363605E+04  0.25500000920E-02 0.  1.
    10030    2    1    2    0    0  0.00000000000E+00  0.00000000000E+00 -0.13670270833E+04  0.14442456378E+04  0.46592104041E+03 0.  0.
        4    1    3    3  502    0  0.46045354635E+02 -0.20869074002E+03 -0.97092361671E+03  0.99416612396E+03  0.12699999809E+01 0.  1.
       -4    1    3    3    0  502 -0.46045354635E+02  0.20869074002E+03 -0.39610346661E+03  0.45007951388E+03  0.12699999809E+01 0. -1.
</event>
<event>
 5   0  0.1413361E-01  0.5018490E+03  0.7818609E-02  0.1013297E+00
       -1   -1    0    0    0  501  0.00000000000E+00  0.00000000000E+00  0.15445157750E+03  0.15445157758E+03  0.50400001928E-02 0. -1.
        1   -1    0    0  501    0  0.00000000000E+00  0.00000000000E+00 -0.40765599253E+03  0.40765599256E+03  0.50400001928E-02 0.  1.
    10030    2    1    2    0    0  0.00000000000E+00  0.00000000000E+00 -0.25320441503E+03  0.56210757014E+03  0.50184902572E+03 0.  0.
        3    1    3    3  502    0 -0.50598607517E+02 -0.98217169281E+02 -0.37894516938E+03  0.39472304597E+03  0.10100000352E+00 0.  1.
       -3    1    3    3    0  502  0.50598607517E+02  0.98217169281E+02  0.12574075435E+03  0.16738452416E+03  0.10100000352E+00 0. -1.
</event>
<event>
 5   0  0.1413361E-01  0.5024731E+03  0.7818609E-02  0.1013135E+00
        1   -1    0    0  501    0  0.00000000000E+00  0.00000000000E+00  0.13712867503E+04  0.13712867503E+04  0.50400001928E-02 0. -1.
       -1   -1    0    0    0  501  0.00000000000E+00  0.00000000000E+00 -0.46029615632E+02  0.46029615907E+02  0.50400001928E-02 0.  1.
    10030    2    1    2    0    0  0.00000000000E+00  0.00000000000E+00  0.13252571347E+04  0.14173163662E+04  0.50247309277E+03 0.  0.
        3    1    3    3  502    0  0.21390011480E+03 -0.61771468335E+02  0.99097836865E+03  0.10156806145E+04  0.10100000352E+00 0. -1.
       -3    1    3    3    0  502 -0.21390011480E+03  0.61771468335E+02  0.33427876601E+03  0.40163575167E+03  0.10100000352E+00 0.  1.
</event>
<event>
 5   0  0.2466034E-01  0.4992410E+03  0.7818609E-02  0.1013977E+00
        2   -1    0    0  501    0  0.00000000000E+00  0.00000000000E+00  0.40579084585E+03  0.40579084585E+03  0.25500000920E-02 0.  1.
       -2   -1    0    0    0  501  0.00000000000E+00  0.00000000000E+00 -0.15355298776E+03  0.15355298778E+03  0.25500000920E-02 0. -1.
    10030    2    1    2    0    0  0.00000000000E+00  0.00000000000E+00  0.25223785808E+03  0.55934383364E+03  0.49924101111E+03 0.  0.
        3    1    3    3  502    0  0.41118816197E+02  0.13005617875E+03  0.36034447602E+03  0.38529666268E+03  0.10100000352E+00 0.  1.
       -3    1    3    3    0  502 -0.41118816197E+02 -0.13005617875E+03 -0.10810661793E+03  0.17404717096E+03  0.10100000352E+00 0. -1.
</event>
<event>
 5   0  0.2413301E-01  0.5063036E+03  0.7818609E-02  0.1012147E+00
       -2   -1    0    0    0  501  0.00000000000E+00  0.00000000000E+00  0.51522989149E+03  0.51522989149E+03  0.25500000920E-02 0. -1.
        2   -1    0    0  501    0  0.00000000000E+00  0.00000000000E+00 -0.12438297926E+03  0.12438297928E+03  0.25500000920E-02 0.  1.
    10030    2    1    2    0    0  0.00000000000E+00  0.00000000000E+00  0.39084691223E+03  0.63961287078E+03  0.50630358053E+03 0.  0.
        4    1    3    3  502    0  0.18417768212E+03  0.62006257447E+02 -0.95194140300E+01  0.19457242019E+03  0.12699999809E+01 0.  1.
       -4    1    3    3    0  502 -0.18417768212E+03 -0.62006257447E+02  0.40036632626E+03  0.44504045059E+03  0.12699999809E+01 0. -1.
</event>
<event>
 5   0  0.1453602E-01  0.5133322E+03  0.7818609E-02  0.1010356E+00
        1   -1    0    0  501    0  0.00000000000E+00  0.00000000000E+00  0.24437767061E+04  0.24437767061E+04  0.50400001928E-02 0.  1.
       -1   -1    0    0    0  501  0.00000000000E+00  0.00000000000E+00 -0.26957247931E+02  0.26957248402E+02  0.50400001928E-02 0. -1.
    10030    2    1    2    0    0  0.00000000000E+00  0.00000000000E+00  0.24168194582E+04  0.24707339545E+04  0.51333223216E+03 0.  0.
        2    1    3    3  502    0  0.18901290809E+03  0.12758920748E+03  0.64150962683E+03  0.68083734226E+03  0.25500000920E-02 0. -1.
       -2    1    3    3    0  502 -0.18901290809E+03 -0.12758920748E+03  0.17753098313E+04  0.17898966122E+04  0.25500000920E-02 0.  1.
</event>
<event>
 5   0  0.1529146E-01  0.5156202E+03  0.7818609E-02  0.1009780E+00
        1   -1    0    0  501    0  0.00000000000E+00  0.00000000000E+00  0.39714541377E+03  0.39714541380E+03  0.50400001928E-02 0. -1.
       -1   -1    0    0    0  501  0.00000000000E+00  0.00000000000E+00 -0.16735949108E+03  0.16735949115E+03  0.50400001928E-02 0.  1.
    10030    2    1    2    0    0  0.00000000000E+00  0.00000000000E+00  0.22978592270E+03  0.56450490495E+03  0.51562022599E+03 0.  0.
        1    1    3    3  502    0 -0.54298170775E+02 -0.25096551597E+03  0.14019397940E+03  0.29255142017E+03  0.50400001928E-02 0. -1.
       -1    1    3    3    0  502  0.54298170775E+02  0.25096551597E+03  0.89591943294E+02  0.27195348478E+03  0.50400001928E-02 0.  1.
</event>
<event>
 5   0  0.1453602E-01  0.5062681E+03  0.7818609E-02  0.1012156E+00
        1   -1    0    0  501    0  0.00000000000E+00  0.00000000000E+00  0.42645910472E+03  0.42645910475E+03  0.50400001928E-02 0. -1.
       -1   -1    0    0    0  501  0.00000000000E+00  0.00000000000E+00 -0.15025317878E+03  0.15025317886E+03  0.50400001928E-02 0.  1.
    10030    2    1    2    0    0  0.00000000000E+00  0.00000000000E+00  0.27620592594E+03  0.57671228362E+03  0.50626805602E+03 0.  0.
        2    1    3    3  502    0 -0.22340592716E+03  0.10259778035E+03  0.20683332862E+03  0.32127330835E+03  0.25500000920E-02 0. -1.
       -2    1    3    3    0  502  0.22340592716E+03 -0.10259778035E+03  0.69372597321E+02  0.25543897527E+03  0.25500000920E-02 0.  1.
</event>
<event>
 5   0  0.1448458E-01  0.5044004E+03  0.7818609E-02  0.1012637E+00
        1   -1    0    0  501    0  0.00000000000E+00  0.00000000000E+00  0.75994185624E+03  0.75994185625E+03  0.50400001928E-02 0. -1.
       -1   -1    0    0    0  501  0.00000000000E+00  0.00000000000E+00 -0.83697107923E+02  0.83697108074E+02  0.50400001928E-02 0.  1.
    10030    2    1    2    0    0  0.00000000000E+00  0.00000000000E+00  0.67624474831E+03  0.84363896433E+03  0.50440037917E+03 0.  0.
        5    1    3    3  502    0 -0.97210175521E+02 -0.16794191191E+03  0.60744340656E+03  0.63770203557E+03  0.46999998093E+01 0. -1.
       -5    1    3    3    0  502  0.97210175521E+02  0.16794191191E+03  0.68801341758E+02  0.20593692876E+03  0.46999998093E+01 0.  1.
</event>
<event>
 5   0  0.2413301E-01  0.4930990E+03  0.7818609E-02  0.1015596E+00
       -2   -1    0    0    0  501  0.00000000000E+00  0.00000000000E+00  0.50094957530E+02  0.50094957594E+02  0.25500000920E-02 0. -1.
        2   -1    0    0  501    0  0.00000000000E+00  0.00000000000E+00 -0.12134286044E+04  0.12134286044E+04  0.25500000920E-02 0.  1.
    10030    2    1    2    0    0  0.00000000000E+00  0.00000000000E+00 -0.11633336469E+04  0.12635235620E+04  0.49309899390E+03 0.  0.
        4    1    3    3  502    0  0.97055344877E+01 -0.16498874046E+03 -0.11288126095E+03  0.20014812977E+03  0.12699999809E+01 0. -1.
       -4    1    3    3    0  502 -0.97055344877E+01  0.16498874046E+03 -0.10504523860E+04  0.10633754323E+04  0.12699999809E+01 0.  1.
</event>
<event>
 5   0  0.2413301E-01  0.4519110E+03  0.7818609E-02  0.1027154E+00
        2   -1    0    0  501    0  0.00000000000E+00  0.00000000000E+00  0.40402969506E+03  0.40402969507E+03  0.25500000920E-02 0. -1.
       -2   -1    0    0    0  501  0.00000000000E+00  0.00000000000E+00 -0.12636668118E+03  0.12636668121E+03  0.25500000920E-02 0.  1.
    10030    2    1    2    0    0  0.00000000000E+00  0.00000000000E+00  0.27766301388E+03  0.53039637627E+03  0.45191101634E+03 0.  0.
        4    1    3    3  502    0 -0.58446637698E+02  0.67179531742E+02 -0.10490078895E+03  0.13760409647E+03  0.12699999809E+01 0.  1.
       -4    1    3    3    0  502  0.58446637698E+02 -0.67179531742E+02  0.38256380282E+03  0.39279227980E+03  0.12699999809E+01 0. -1.
</event>
<event>
 5   0  0.2504064E-01  0.5041192E+03  0.7818609E-02  0.1012709E+00
        2   -1    0    0  501    0  0.00000000000E+00  0.00000000000E+00  0.65737662484E+03  0.65737662485E+03  0.25500000920E-02 0. -1.
       -2   -1    0    0    0  501  0.00000000000E+00  0.00000000000E+00 -0.96647848412E+02  0.96647848445E+02  0.25500000920E-02 0.  1.
    10030    2    1    2    0    0  0.00000000000E+00  0.00000000000E+00  0.56072877643E+03  0.75402447329E+03  0.50411917798E+03 0.  0.
        5    1    3    3  502    0 -0.13139298906E+03 -0.21400341652E+03  0.24862231528E+03  0.35340730822E+03  0.46999998093E+01 0.  1.
       -5    1    3    3    0  502  0.13139298906E+03  0.21400341652E+03  0.31210646115E+03  0.40061716507E+03  0.46999998093E+01 0. -1.
</event>
<event>
 5   0  0.9868500E-02  0.4710982E+03  0.7818609E-02  0.1021611E+00
       -3   -1    0    0    0  501  0.00000000000E+00  0.00000000000E+00  0.31092654880E+03  0.31092656520E+03  0.10100000352E+00 0.  1.
        3   -1    0    0  501    0  0.00000000000E+00  0.00000000000E+00 -0.17844522175E+03  0.17844525033E+03  0.10100000352E+00 0. -1.
    10030    2    1    2    0    0  0.00000000000E+00  0.00000000000E+00  0.13248132705E+03  0.48937181553E+03  0.47109815519E+03 0.  0.
        4    1    3    3  502    0  0.88210108270E+02  0.44855571486E+02 -0.15579973378E+03  0.18457577154E+03  0.12699999809E+01 0. -1.
       -4    1    3    3    0  502 -0.88210108270E+02 -0.44855571486E+02  0.28828106083E+03  0.30479604399E+03  0.12699999809E+01 0.  1.
</event>
<event>
 5   0  0.1413361E-01  0.4999348E+03  0.7818609E-02  0.1013796E+00
       -1   -1    0    0    0  501  0.00000000000E+00  0.00000000000E+00  0.69195340811E+02  0.69195340995E+02  0.50400001928E-02 0.  1.
        1   -1    0    0  501    0  0.00000000000E+00  0.00000000000E+00 -0.90300441362E+03  0.90300441364E+03  0.50400001928E-02 0. -1.
    10030    2    1    2    0    0  0.00000000000E+00  0.00000000000E+00 -0.83380907281E+03  0.97219975463E+03  0.49993478875E+03 0.  0.
        3    1    3    3  502    0 -0.18756628254E+03 -0.13778146514E+03 -0.59427188719E+03  0.63821934207E+03  0.10100000352E+00 0. -1.
       -3    1    3    3    0  502  0.18756628254E+03  0.13778146514E+03 -0.23953718562E+03  0.33398041257E+03  0.10100000352E+00 0.  1.
</event>
<event>
 5   0  0.1453602E-01  0.5017464E+03  0.7818609E-02  0.1013324E+00
        1   -1    0    0  501    0  0.00000000000E+00  0.00000000000E+00  0.11620257602E+04  0.11620257602E+04  0.50400001928E-02 0. -1.
       -1   -1    0    0    0  501  0.00000000000E+00  0.00000000000E+00 -0.54161772129E+02  0.54161772363E+02  0.50400001928E-02 0.  1.
    10030    2    1    2    0    0  0.00000000000E+00  0.00000000000E+00  0.11078639881E+04  0.12161875326E+04  0.50174644824E+03 0.  0.
        2    1    3    3  502    0 -0.23480044506E+03  0.79116210168E+02  0.45860268966E+03  0.52125526442E+03  0.25500000920E-02 0.  1.
       -2    1    3    3    0  502  0.23480044506E+03 -0.79116210168E+02  0.64926129842E+03  0.69493226817E+03  0.25500000920E-02 0. -1.
</event>
<event>
 5   0  0.2511944E-01  0.4582071E+03  0.7818609E-02  0.1025303E+00
       -2   -1    0    0    0  501  0.00000000000E+00  0.00000000000E+00  0.43440803306E+02  0.43440803381E+02  0.25500000920E-02 0. -1.
        2   -1    0    0  501    0  0.00000000000E+00  0.00000000000E+00 -0.12082747886E+04  0.12082747886E+04  0.25500000920E-02 0.  1.
    10030    2    1    2    0    0  0.00000000000E+00  0.00000000000E+00 -0.11648339853E+04  0.12517155920E+04  0.45820706009E+03 0.  0.
        1    1    3    3  502    0 -0.75389801419E+02  0.71029721872E+02 -0.24175688296E+02  0.10636403282E+03  0.50400001928E-02 0. -1.
       -1    1    3    3    0  502  0.75389801419E+02 -0.71029721872E+02 -0.11406582970E+04  0.11453515591E+04  0.50400001928E-02 0.  1.
</event>
<event>
 5   0  0.1453602E-01  0.4956730E+03  0.7818609E-02  0.1014915E+00
        1   -1    0    0  501    0  0.00000000000E+00  0.00000000000E+00  0.54591718045E+03  0.54591718047E+03  0.50400001928E-02 0.  1.
       -1   -1    0    0    0  501  0.00000000000E+00  0.00000000000E+00 -0.11251328609E+03  0.11251328620E+03  0.50400001928E-02 0. -1.
    10030    2    1    2    0    0  0.00000000000E+00  0.00000000000E+00  0.43340389436E+03  0.65843046668E+03  0.49567302106E+03 0.  0.
        2    1    3    3  502    0 -0.42017584519E+01  0.82155310929E+02 -0.93848893447E+02  0.12479889701E+03  0.25500000920E-02 0. -1.
       -2    1    3    3    0  502  0.42017584519E+01 -0.82155310929E+02  0.52725278781E+03  0.53363156967E+03  0.25500000920E-02 0.  1.
</event>
<event>
 5   0  0.2511944E-01  0.4991580E+03  0.7818609E-02  0.1013999E+00
       -2   -1    0    0    0  501  0.00000000000E+00  0.00000000000E+00  0.54294017523E+02  0.54294017583E+02  0.25500000920E-02 0.  1.
        2   -1    0    0  501    0  0.00000000000E+00  0.00000000000E+00 -0.11472659825E+04  0.11472659825E+04  0.25500000920E-02 0. -1.
    10030    2    1    2    0    0  0.00000000000E+00  0.00000000000E+00 -0.10929719650E+04  0.12015600001E+04  0.49915800863E+03 0.  0.
        1    1    3    3  502    0 -0.13458145538E+03  0.20177591111E+03 -0.40481010292E+03  0.47190773027E+03  0.50400001928E-02 0.  1.
       -1    1    3    3    0  502  0.13458145538E+03 -0.20177591111E+03 -0.68816186207E+03  0.72965226983E+03  0.50400001928E-02 0. -1.
</event>
<event>
 5   0  0.1448458E-01  0.4884378E+03  0.7818609E-02  0.1016842E+00
        1   -1    0    0  501    0  0.00000000000E+00  0.00000000000E+00  0.85975442391E+03  0.85975442392E+03  0.50400001928E-02 0.  1.
       -1   -1    0    0    0  501  0.00000000000E+00  0.00000000000E+00 -0.69371979434E+02  0.69371979617E+02  0.50400001928E-02 0. -1.
    10030    2    1    2    0    0  0.00000000000E+00  0.00000000000E+00  0.79038244448E+03  0.92912640354E+03  0.48843778030E+03 0.  0.
        5    1    3    3  502    0  0.22427329641E+03 -0.86491178211E+02  0.47682243320E+03  0.53400464249E+03  0.46999998093E+01 0. -1.
       -5    1    3    3    0  502 -0.22427329641E+03  0.86491178211E+02  0.31356001127E+03  0.39512176105E+03  0.46999998093E+01 0.  1.
</event>
<event>
 5   0  0.2488968E-01  0.5116985E+03  0.7818609E-02  0.1010770E+00
        2   -1    0    0  501    0  0.00000000000E+00  0.00000000000E+00  0.13007821130E+04  0.13007821130E+04  0.25500000920E-02 0. -1.
       -2   -1    0    0    0  501  0.00000000000E+00  0.00000000000E+00 -0.50322673951E+02  0.50322674016E+02  0.25500000920E-02 0.  1.
    10030    2    1    2    0    0  0.00000000000E+00  0.00000000000E+00  0.12504594391E+04  0.13511047870E+04  0.51169848231E+03 0.  0.
        2    1    3    3  502    0 -0.43219674248E+02 -0.49461521896E+01  0.12909454404E+04  0.12916781854E+04  0.25500000920E-02 0. -1.
       -2    1    3    3    0  502  0.43219674248E+02  0.49461521896E+01 -0.40486001345E+02  0.59426601577E+02  0.25500000920E-02 0.  1.
</event>
<event>
 5   0  0.1439814E-01  0.4302111E+03  0.7818609E-02  0.1033793E+00
        1   -1    0    0  501    0  0.00000000000E+00  0.00000000000E+00  0.32615894272E+03  0.32615894276E+03  0.50400001928E-02 0.  1.
       -1   -1    0    0    0  501  0.00000000000E+00  0.00000000000E+00 -0.14186458013E+03  0.14186458022E+03  0.50400001928E-02 0. -1.
    10030    2    1    2    0    0  0.00000000000E+00  0.00000000000E+00  0.18429436259E+03  0.46802352298E+03  0.43021111792E+03 0.  0.
        4    1    3    3  502    0 -0.21382313266E+03 -0.19128877842E+02  0.10684551587E+03  0.23979954793E+03  0.12699999809E+01 0. -1.
       -4    1    3    3    0  502  0.21382313266E+03  0.19128877842E+02  0.77448846722E+02  0.22822397505E+03  0.12699999809E+01 0.  1.
</event>
<event>
 5   0  0.2413301E-01  0.5034981E+03  0.7818609E-02  0.1012870E+00
       -2   -1    0    0    0  501  0.00000000000E+00  0.00000000000E+00  0.10132676339E+03  0.10132676342E+03  0.25500000920E-02 0. -1.
        2   -1    0    0  501    0  0.00000000000E+00  0.00000000000E+00 -0.62547731794E+03  0.62547731795E+03  0.25500000920E-02 0.  1.
    10030    2    1    2    0    0  0.00000000000E+00  0.00000000000E+00 -0.52415055456E+03  0.72680408137E+03  0.50349813193E+03 0.  0.
        4    1    3    3  502    0 -0.23274355533E+03 -0.24432356286E+02 -0.12813602436E+03  0.26680883834E+03  0.12699999809E+01 0. -1.
       -4    1    3    3    0  502  0.23274355533E+03  0.24432356286E+02 -0.39601453020E+03  0.45999524303E+03  0.12699999809E+01 0.  1.
</event>
<event>
 5   0  0.1413361E-01  0.4833923E+03  0.7818609E-02  0.1018207E+00
        1   -1    0    0  501    0  0.00000000000E+00  0.00000000000E+00  0.27571800704E+03  0.27571800709E+03  0.50400001928E-02 0.  1.
       -1   -1    0    0    0  501  0.00000000000E+00  0.00000000000E+00 -0.21187234520E+03  0.21187234526E+03  0.50400001928E-02 0. -1.
    10030    2    1    2    0    0  0.00000000000E+00  0.00000000000E+00  0.63845661838E+02  0.48759035235E+03  0.48339226635E+03 0.  0.
        3    1    3    3  502    0  0.22529178033E+01 -0.16087654181E+03 -0.15000616879E+03  0.21997317613E+03  0.10100000352E+00 0. -1.
       -3    1    3    3    0  502 -0.22529178033E+01  0.16087654181E+03  0.21385183062E+03  0.26761717622E+03  0.10100000352E+00 0.  1.
</event>
<event>
 5   0  0.2504064E-01  0.5360166E+03  0.7818609E-02  0.1004783E+00
       -2   -1    0    0    0  501  0.00000000000E+00  0.00000000000E+00  0.17352314437E+03  0.17352314439E+03  0.25500000920E-02 0. -1.
        2   -1    0    0  501    0  0.00000000000E+00  0.00000000000E+00 -0.41394168031E+03  0.41394168032E+03  0.25500000920E-02 0.  1.
    10030    2    1    2    0    0  0.00000000000E+00  0.00000000000E+00 -0.24041853594E+03  0.58746482470E+03  0.53601664885E+03 0.  0.
        5    1    3    3  502    0 -0.22706055004E+03  0.11391002652E+03 -0.21368561084E+03  0.33198737597E+03  0.46999998093E+01 0.  1.
       -5    1    3    3    0  502  0.22706055004E+03 -0.11391002652E+03 -0.26732925106E+02  0.25547744873E+03  0.46999998093E+01 0. -1.
</event>
<event>
 5   0  0.2504064E-01  0.4962303E+03  0.7818609E-02  0.1014768E+00
       -2   -1    0    0    0  501  0.00000000000E+00  0.00000000000E+00  0.85436892403E+02  0.85436892441E+02  0.25500000920E-02 0. -1.
        2   -1    0    0  501    0  0.00000000000E+00  0.00000000000E+00 -0.72054510018E+03  0.72054510018E+03  0.25500000920E-02 0.  1.
    10030    2    1    2    0    0  0.00000000000E+00  0.00000000000E+00 -0.63510820777E+03  0.80598199262E+03  0.49623032641E+03 0.  0.
        5    1    3    3  502    0  0.22430658495E+03  0.74875272561E+02 -0.43930801008E+03  0.49893222807E+03  0.46999998093E+01 0.  1.
       -5    1    3    3    0  502 -0.22430658495E+03 -0.74875272561E+02 -0.19580019770E+03  0.30704976455E+03  0.46999998093E+01 0. -1.
</event>
<event>
 5   0  0.2511944E-01  0.5003180E+03  0.7818609E-02  0.1013696E+00
        2   -1    0    0  501    0  0.00000000000E+00  0.00000000000E+00  0.12996791209E+04  0.12996791209E+04  0.25500000920E-02 0. -1.
       -2   -1    0    0    0  501  0.00000000000E+00  0.00000000000E+00 -0.48149974435E+02  0.48149974502E+02  0.25500000920E-02 0.  1.
    10030    2    1    2    0    0  0.00000000000E+00  0.00000000000E+00  0.12515291464E+04  0.13478290954E+04  0.50031796486E+03 0.  0.
        1    1    3    3  502    0 -0.13358469453E+03 -0.12009267410E+03  0.10947926695E+04  0.11094314355E+04  0.50400001928E-02 0. -1.
       -1    1    3    3    0  502  0.13358469453E+03  0.12009267410E+03  0.15673647697E+03  0.23839765985E+03  0.50400001928E-02 0.  1.
</event>
<event>
 5   0  0.1453602E-01  0.5024190E+03  0.7818609E-02  0.1013149E+00
       -1   -1    0    0    0  501  0.00000000000E+00  0.00000000000E+00  0.22842924658E+02  0.22842925214E+02  0.50400001928E-02 0. -1.
        1   -1    0    0  501    0  0.00000000000E+00  0.00000000000E+00 -0.27626149251E+04  0.27626149251E+04  0.50400001928E-02 0.  1.
    10030    2    1    2    0    0  0.00000000000E+00  0.00000000000E+00 -0.27397720005E+04  0.27854578503E+04  0.50241897008E+03 0.  0.
        2    1    3    3  502    0  0.70581364052E+02 -0.23134076931E+03 -0.17461468110E+04  0.17628184723E+04  0.25500000920E-02 0.  1.
       -2    1    3    3    0  502 -0.70581364052E+02  0.23134076931E+03 -0.99362518942E+03  0.10226393781E+04  0.25500000920E-02 0. -1.
</event>
<event>
 5   0  0.1413361E-01  0.4936941E+03  0.7818609E-02  0.1015438E+00
        1   -1    0    0  501    0  0.00000000000E+00  0.00000000000E+00  0.14032975825E+03  0.14032975834E+03  0.50400001928E-02 0.  1.
       -1   -1    0    0    0  501  0.00000000000E+00  0.00000000000E+00 -0.43421633492E+03  0.43421633495E+03  0.50400001928E-02 0. -1.
    10030    2    1    2    0    0  0.00000000000E+00  0.00000000000E+00 -0.29388657667E+03  0.57454609329E+03  0.49369412937E+03 0.  0.
        3    1    3    3  502    0 -0.12918181210E+03 -0.97434870544E+01  0.97588404368E+02  0.16219242580E+03  0.10100000352E+00 0.  1.
       -3    1    3    3    0  502  0.12918181210E+03  0.97434870544E+01 -0.39147498104E+03  0.41235366750E+03  0.10100000352E+00 0. -1.
</event>
<event>
 5   0  0.1529146E-01  0.4699221E+03  0.7818609E-02  0.1021942E+00
        1   -1    0    0  501    0  0.00000000000E+00  0.00000000000E+00  0.14121393163E+03  0.14121393172E+03  0.50400001928E-02 0. -1.
       -1   -1    0    0    0  501  0.00000000000E+00  0.00000000000E+00 -0.39094367383E+03  0.39094367386E+03  0.50400001928E-02 0.  1.
    10030    2    1    2    0    0  0.00000000000E+00  0.00000000000E+00 -0.24972974220E+03  0.53215760558E+03  0.46992209251E+03 0.  0.
        1    1    3    3  502    0 -0.11858810829E+03  0.20279990281E+03 -0.12037018745E+03  0.26396954760E+03  0.50400001928E-02 0.  1.
       -1    1    3    3    0  502  0.11858810829E+03 -0.20279990281E+03 -0.12935955475E+03  0.26818805797E+03  0.50400001928E-02 0. -1.
</event>
<event>
 5   0  0.2413301E-01  0.4996873E+03  0.7818609E-02  0.1013861E+00
        2   -1    0    0  501    0  0.00000000000E+00  0.00000000000E+00  0.34106369059E+03  0.34106369060E+03  0.25500000920E-02 0.  1.
       -2   -1    0    0    0  501  0.00000000000E+00  0.00000000000E+00 -0.18302107803E+03  0.18302107805E+03  0.25500000920E-02 0. -1.
    10030    2    1    2    0    0  0.00000000000E+00  0.00000000000E+00  0.15804261256E+03  0.52408476864E+03  0.49968727954E+03 0.  0.
        4    1    3    3  502    0 -0.70423826364E+02  0.44097554197E+02 -0.16810148705E+03  0.18752021879E+03  0.12699999809E+01 0. -1.
       -4    1    3    3    0  502  0.70423826364E+02 -0.44097554197E+02  0.32614409961E+03  0.33656454985E+03  0.12699999809E+01 0.  1.
</event>
<event>
 5   0  0.1448458E-01  0.5362616E+03  0.7818609E-02  0.1004725E+00
       -1   -1    0    0    0  501  0.00000000000E+00  0.00000000000E+00  0.27087039210E+03  0.27087039215E+03  0.50400001928E-02 0. -1.
        1   -1    0    0  501    0  0.00000000000E+00  0.00000000000E+00 -0.26541890602E+03  0.26541890606E+03  0.50400001928E-02 0.  1.
    10030    2    1    2    0    0  0.00000000000E+00  0.00000000000E+00  0.54514860857E+01  0.53628929821E+03  0.53626158978E+03 0.  0.
        5    1    3    3  502    0 -0.24246350628E+03 -0.70963122968E+02 -0.86987957894E+02  0.26723269171E+03  0.46999998093E+01 0.  1.
       -5    1    3    3    0  502  0.24246350628E+03  0.70963122968E+02  0.92439443980E+02  0.26905660650E+03  0.46999998093E+01 0. -1.
</event>
<event>
 5   0  0.1439814E-01  0.5063461E+03  0.7818609E-02  0.1012136E+00
       -1   -1    0    0    0  501  0.00000000000E+00  0.00000000000E+00  0.15985085177E+03  0.15985085185E+03  0.50400001928E-02 0. -1.
        1   -1    0    0  501    0  0.00000000000E+00  0.00000000000E+00 -0.40097754298E+03  0.40097754302E+03  0.50400001928E-02 0.  1.
    10030    2    1    2    0    0  0.00000000000E+00  0.00000000000E+00 -0.24112669121E+03  0.56082839486E+03  0.50634613386E+03 0.  0.
        4    1    3    3  502    0 -0.21614989848E+03  0.13006381396E+03 -0.14425702094E+03  0.29060123073E+03  0.12699999809E+01 0.  1.
       -4    1    3    3    0  502  0.21614989848E+03 -0.13006381396E+03 -0.96869670280E+02  0.27022716413E+03  0.12699999809E+01 0. -1.
</event>
<event>
 5   0  0.1453602E-01  0.4958826E+03  0.7818609E-02  0.1014859E+00
        1   -1    0    0  501    0  0.00000000000E+00  0.00000000000E+00  0.51087431283E+03  0.51087431285E+03  0.50400001928E-02 0. -1.
       -1   -1    0    0    0  501  0.00000000000E+00  0.00000000000E+00 -0.12033268219E+03  0.12033268229E+03  0.50400001928E-02 0.  1.
    10030    2    1    2    0    0  0.00000000000E+00  0.00000000000E+00  0.39054163064E+03  0.63120699514E+03  0.49588255208E+03 0.  0.
        2    1    3    3  502    0  0.21500983487E+03  0.63610036919E+02  0.60563693600E+02  0.23225724289E+03  0.25500000920E-02 0.  1.
       -2    1    3    3    0  502 -0.21500983487E+03 -0.63610036919E+02  0.32997793704E+03  0.39894975225E+03  0.25500000920E-02 0. -1.
</event>
<event>
 5   0  0.2466034E-01  0.4038113E+03  0.7818609E-02  0.1042468E+00
        2   -1    0    0  501    0  0.00000000000E+00  0.00000000000E+00  0.46824199550E+03  0.46824199551E+03  0.25500000920E-02 0. -1.
       -2   -1    0    0    0  501  0.00000000000E+00  0.00000000000E+00 -0.87061574618E+02  0.87061574655E+02  0.25500000920E-02 0.  1.
    10030    2    1    2    0    0  0.00000000000E+00  0.00000000000E+00  0.38118042088E+03  0.55530357016E+03  0.40381126999E+03 0.  0.
        3    1    3    3  502    0  0.20072941337E+03 -0.20654278515E+02  0.20001566270E+03  0.28412175584E+03  0.10100000352E+00 0.  1.
       -3    1    3    3    0  502 -0.20072941337E+03  0.20654278515E+02  0.18116475818E+03  0.27118181433E+03  0.10100000352E+00 0. -1.
</event>
<event>
 5   0  0.2413301E-01  0.5408189E+03  0.7818609E-02  0.1003642E+00
        2   -1    0    0  501    0  0.00000000000E+00  0.00000000000E+00  0.65078785908E+03  0.65078785909E+03  0.25500000920E-02 0. -1.
       -2   -1    0    0    0  501  0.00000000000E+00  0.00000000000E+00 -0.11235808426E+03  0.11235808429E+03  0.25500000920E-02 0.  1.
    10030    2    1    2    0    0  0.00000000000E+00  0.00000000000E+00  0.53842977482E+03  0.76314594338E+03  0.54081892392E+03 0.  0.
        4    1    3    3  502    0  0.22348547955E+03  0.76624298151E+01  0.54676767122E+02  0.23020780648E+03  0.12699999809E+01 0.  1.
       -4    1    3    3    0  502 -0.22348547955E+03 -0.76624298151E+01  0.48375300770E+03  0.53293813690E+03  0.12699999809E+01 0. -1.
</event>
<event>
 5   0  0.2511944E-01  0.5097085E+03  0.7818609E-02  0.1011275E+00
        2   -1    0    0  501    0  0.00000000000E+00  0.00000000000E+00  0.51447823282E+03  0.51447823282E+03  0.25500000920E-02 0. -1.
       -2   -1    0    0    0  501  0.00000000000E+00  0.00000000000E+00 -0.12624575316E+03  0.12624575318E+03  0.25500000920E-02 0.  1.
    10030    2    1    2    0    0  0.00000000000E+00  0.00000000000E+00  0.38823247966E+03  0.64072398600E+03  0.50970851276E+03 0.  0.
        1    1    3    3  502    0 -0.79450249055E+02  0.20676994929E+03  0.35686616736E+02  0.22436507893E+03  0.50400001928E-02 0. -1.
       -1    1    3    3    0  502  0.79450249055E+02 -0.20676994929E+03  0.35254586293E+03  0.41635890707E+03  0.50400001928E-02 0.  1.
</event>
<event>
 5   0  0.2466034E-01  0.5054203E+03  0.7818609E-02  0.1012374E+00
       -2   -1    0    0    0  501  0.00000000000E+00  0.00000000000E+00  0.24558975938E+03  0.24558975939E+03  0.25500000920E-02 0.  1.
        2   -1    0    0  501    0  0.00000000000E+00  0.00000000000E+00 -0.26003697553E+03  0.26003697554E+03  0.25500000920E-02 0. -1.
    10030    2    1    2    0    0  0.00000000000E+00  0.00000000000E+00 -0.14447216149E+02  0.50562673494E+03  0.50542029345E+03 0.  0.
        3    1    3    3  502    0 -0.16496925428E+03  0.50992488767E+02  0.17737091668E+03  0.24753896876E+03  0.10100000352E+00 0.  1.
       -3    1    3    3    0  502  0.16496925428E+03 -0.50992488767E+02 -0.19181813283E+03  0.25808776618E+03  0.10100000352E+00 0. -1.
</event>
<event>
 5   0  0.1448458E-01  0.4857572E+03  0.7818609E-02  0.1017565E+00
        1   -1    0    0  501    0  0.00000000000E+00  0.00000000000E+00  0.20978424439E+04  0.20978424439E+04  0.50400001928E-02 0. -1.
       -1   -1    0    0    0  501  0.00000000000E+00  0.00000000000E+00 -0.28119378146E+02  0.28119378598E+02  0.50400001928E-02 0.  1.
    10030    2    1    2    0    0  0.00000000000E+00  0.00000000000E+00  0.20697230658E+04  0.21259618225E+04  0.48575724579E+03 0.  0.
        5    1    3    3  502    0  0.28747004812E+02 -0.20392901581E+03  0.15979728168E+04  0.16111960300E+04  0.46999998093E+01 0. -1.
       -5    1    3    3    0  502 -0.28747004812E+02  0.20392901581E+03  0.47175024896E+03  0.51476579254E+03  0.46999998093E+01 0.  1.
</event>
<event>
 5   0  0.1439814E-01  0.5027962E+03  0.7818609E-02  0.1013052E+00
        1   -1    0    0  501    0  0.00000000000E+00  0.00000000000E+00  0.12607706062E+03  0.12607706072E+03  0.50400001928E-02 0.  1.
       -1   -1    0    0    0  501  0.00000000000E+00  0.00000000000E+00 -0.50128874573E+03  0.50128874576E+03  0.50400001928E-02 0. -1.
    10030    2    1    2    0    0  0.00000000000E+00  0.00000000000E+00 -0.37521168511E+03  0.62736580648E+03  0.50279622760E+03 0.  0.
        4    1    3    3  502    0 -0.22633733594E+03 -0.34896319370E+02 -0.31699407713E+03  0.39106674697E+03  0.12699999809E+01 0. -1.
       -4    1    3    3    0  502  0.22633733594E+03  0.34896319370E+02 -0.58217607980E+02  0.23629905951E+03  0.12699999809E+01 0.  1.
</event>
<event>
 5   0  0.9868500E-02  0.4634978E+03  0.7818609E-02  0.1023772E+00
        3   -1    0    0  501    0  0.00000000000E+00  0.00000000000E+00  0.96680687876E+03  0.96680688404E+03  0.10100000352E+00 0.  1.
       -3   -1    0    0    0  501  0.00000000000E+00  0.00000000000E+00 -0.55551421055E+02  0.55551512871E+02  0.10100000352E+00 0. -1.
    10030    2    1    2    0    0  0.00000000000E+00  0.00000000000E+00  0.91125545771E+03  0.10223583969E+04  0.46349776971E+03 0.  0.
        3    1    3    3  502    0 -0.16765099805E+03  0.15194653123E+03  0.34505559029E+03  0.41262328592E+03  0.10100000352E+00 0. -1.
       -3    1    3    3    0  502  0.16765099805E+03 -0.15194653123E+03  0.56619986742E+03  0.60973511098E+03  0.10100000352E+00 0.  1.
</event>
<event>
 5   0  0.1413361E-01  0.4931998E+03  0.7818609E-02  0.1015569E+00
       -1   -1    0    0    0  501  0.00000000000E+00  0.00000000000E+00  0.16331805047E+03  0.16331805055E+03  0.50400001928E-02 0.  1.
        1   -1    0    0  501    0  0.00000000000E+00  0.00000000000E+00 -0.37235013972E+03  0.37235013975E+03  0.50400001928E-02 0. -1.
    10030    2    1    2    0    0  0.00000000000E+00  0.00000000000E+00 -0.20903208924E+03  0.53566819030E+03  0.49319975240E+03 0.  0.
        3    1    3    3  502    0 -0.27280170527E+02  0.18028584011E+03 -0.28483711096E+03  0.33820020969E+03  0.10100000352E+00 0. -1.
       -3    1    3    3    0  502  0.27280170527E+02 -0.18028584011E+03  0.75805021722E+02  0.19746798061E+03  0.10100000352E+00 0.  1.
</event>
<event>
 5   0  0.1529146E-01  0.3161742E+03  0.7818609E-02  0.1077424E+00
        1   -1    0    0  501    0  0.00000000000E+00  0.00000000000E+00  0.82228045822E+02  0.82228045976E+02  0.50400001928E-02 0. -1.
       -1   -1    0    0    0  501  0.00000000000E+00  0.00000000000E+00 -0.30392961515E+03  0.30392961520E+03  0.50400001928E-02 0.  1.
    10030    2    1    2    0    0  0.00000000000E+00  0.00000000000E+00 -0.22170156933E+03  0.38615766117E+03  0.31617424537E+03 0.  0.
        1    1    3    3  502    0 -0.11101173347E+03  0.96813453999E+02 -0.40742118292E+02  0.15282790999E+03  0.50400001928E-02 0. -1.
       -1    1    3    3    0  502  0.11101173347E+03 -0.96813453999E+02 -0.18095945104E+03  0.23332975119E+03  0.50400001928E-02 0.  1.
</event>
<event>
 5   0  0.2413301E-01  0.5057751E+03  0.7818609E-02  0.1012282E+00
       -2   -1    0    0    0  501  0.00000000000E+00  0.00000000000E+00  0.85648133324E+02  0.85648133362E+02  0.25500000920E-02 0.  1.
        2   -1    0    0  501    0  0.00000000000E+00  0.00000000000E+00 -0.74668434381E+03  0.74668434381E+03  0.25500000920E-02 0. -1.
    10030    2    1    2    0    0  0.00000000000E+00  0.00000000000E+00 -0.66103621048E+03  0.83233247717E+03  0.50577512888E+03 0.  0.
        4    1    3    3  502    0 -0.21664661990E+03 -0.76516423039E+02 -0.50436670813E+03  0.55423633053E+03  0.12699999809E+01 0. -1.
       -4    1    3    3    0  502  0.21664661990E+03  0.76516423039E+02 -0.15666950235E+03  0.27809614664E+03  0.12699999809E+01 0.  1.
</event>
<event>
 5   0  0.2511944E-01  0.5026340E+03  0.7818609E-02  0.1013094E+00
       -2   -1    0    0    0  501  0.00000000000E+00  0.00000000000E+00  0.28957337037E+02  0.28957337149E+02  0.25500000920E-02 0.  1.
        2   -1    0    0  501    0  0.00000000000E+00  0.00000000000E+00 -0.21811481208E+04  0.21811481208E+04  0.25500000920E-02 0. -1.
    10030    2    1    2    0    0  0.00000000000E+00  0.00000000000E+00 -0.21521907837E+04  0.22101054579E+04  0.50263402744E+03 0.  0.
        1    1    3    3  502    0  0.77031605948E+02  0.15640900031E+03 -0.18719803103E+04  0.18800818934E+04  0.50400001928E-02 0. -1.
       -1    1    3    3    0  502 -0.77031605948E+02 -0.15640900031E+03 -0.28021047341E+03  0.33002356451E+03  0.50400001928E-02 0.  1.
</event>
<event>
 5   0  0.2488968E-01  0.4722941E+03  0.7818609E-02  0.1021275E+00
        2   -1    0    0  501    0  0.00000000000E+00  0.00000000000E+00  0.90154622635E+03  0.90154622635E+03  0.25500000920E-02 0. -1.
       -2   -1    0    0    0  501  0.00000000000E+00  0.00000000000E+00 -0.61855308218E+02  0.61855308271E+02  0.25500000920E-02 0.  1.
    10030    2    1    2    0    0  0.00000000000E+00  0.00000000000E+00  0.83969091813E+03  0.96340153462E+03  0.47229405980E+03 0.  0.
        2    1    3    3  502    0  0.54561051122E+02 -0.44797360935E+01  0.88842356441E+03  0.89010864851E+03  0.25500000920E-02 0. -1.
       -2    1    3    3    0  502 -0.54561051122E+02  0.44797360935E+01 -0.48732646283E+02  0.73292886116E+02  0.25500000920E-02 0.  1.
</event>
<event>
 5   0  0.1529146E-01  0.4567182E+03  0.7818609E-02  0.1025737E+00
       -1   -1    0    0    0  501  0.00000000000E+00  0.00000000000E+00  0.88046911312E+03  0.88046911313E+03  0.50400001928E-02 0.  1.
        1   -1    0    0  501    0  0.00000000000E+00  0.00000000000E+00 -0.59227383157E+02  0.59227383371E+02  0.50400001928E-02 0. -1.
    10030    2    1    2    0    0  0.00000000000E+00  0.00000000000E+00  0.82124172996E+03  0.93969649650E+03  0.45671821346E+03 0.  0.
        1    1    3    3  502    0  0.14268250349E+03  0.17576093891E+03  0.47226607868E+03  0.52372268763E+03  0.50400001928E-02 0.  1.
       -1    1    3    3    0  502 -0.14268250349E+03 -0.17576093891E+03  0.34897565128E+03  0.41597380887E+03  0.50400001928E-02 0. -1.
</event>
<event>
 5   0  0.2466034E-01  0.4817031E+03  0.7818609E-02  0.1018668E+00
       -2   -1    0    0    0  501  0.00000000000E+00  0.00000000000E+00  0.76617319679E+02  0.76617319721E+02  0.25500000920E-02 0. -1.
        2   -1    0    0  501    0  0.00000000000E+00  0.00000000000E+00 -0.75713272286E+03  0.75713272286E+03  0.25500000920E-02 0.  1.
    10030    2    1    2    0    0  0.00000000000E+00  0.00000000000E+00 -0.68051540318E+03  0.83375004258E+03  0.48170314463E+03 0.  0.
        3    1    3    3  502    0 -0.59463600369E+02  0.19900856512E+03 -0.12920091263E+03  0.24460828847E+03  0.10100000352E+00 0. -1.
       -3    1    3    3    0  502  0.59463600369E+02 -0.19900856512E+03 -0.55131449054E+03  0.58914175412E+03  0.10100000352E+00 0.  1.
</event>
<event>
 5   0  0.2504064E-01  0.4994152E+03  0.7818609E-02  0.1013932E+00
       -2   -1    0    0    0  501  0.00000000000E+00  0.00000000000E+00  0.36470224895E+03  0.36470224895E+03  0.25500000920E-02 0. -1.
        2   -1    0    0  501    0  0.00000000000E+00  0.00000000000E+00 -0.17097200714E+03  0.17097200716E+03  0.25500000920E-02 0.  1.
    10030    2    1    2    0    0  0.00000000000E+00  0.00000000000E+00  0.19373024181E+03  0.53567425611E+03  0.49941516003E+03 0.  0.
        5    1    3    3  502    0 -0.16291873789E+03  0.15034225519E+03  0.22003469481E+03  0.31238224305E+03  0.46999998093E+01 0. -1.
       -5    1    3    3    0  502  0.16291873789E+03 -0.15034225519E+03 -0.26304453003E+02  0.22329201306E+03  0.46999998093E+01 0.  1.
</event>
<event>
 5   0  0.2511944E-01  0.5000989E+03  0.7818609E-02  0.1013753E+00
        2   -1    0    0  501    0  0.00000000000E+00  0.00000000000E+00  0.41871395276E+03  0.41871395277E+03  0.25500000920E-02 0.  1.
       -2   -1    0    0    0  501  0.00000000000E+00  0.00000000000E+00 -0.14932562341E+03  0.14932562343E+03  0.25500000920E-02 0. -1.
    10030    2    1    2    0    0  0.00000000000E+00  0.00000000000E+00  0.26938832935E+03  0.56803957621E+03  0.50009887837E+03 0.  0.
        1    1    3    3  502    0  0.66191019011E+02  0.49139073559E+02  0.40283480833E+03  0.41118339263E+03  0.50400001928E-02 0.  1.
       -1    1    3    3    0  502 -0.66191019011E+02 -0.49139073559E+02 -0.13344647898E+03  0.15685618357E+03  0.50400001928E-02 0. -1.
</event>
<event>
 5   0  0.1529146E-01  0.4466045E+03  0.7818609E-02  0.1028739E+00
       -1   -1    0    0    0  501  0.00000000000E+00  0.00000000000E+00  0.40237183646E+03  0.40237183650E+03  0.50400001928E-02 0.  1.
        1   -1    0    0  501    0  0.00000000000E+00  0.00000000000E+00 -0.12392491703E+03  0.12392491713E+03  0.50400001928E-02 0. -1.
    10030    2    1    2    0    0  0.00000000000E+00  0.00000000000E+00  0.27844691944E+03  0.52629675363E+03  0.44660450729E+03 0.  0.
        1    1    3    3  502    0 -0.28434425183E+02  0.11909642008E+03  0.35928412529E+03  0.37957549516E+03  0.50400001928E-02 0.  1.
       -1    1    3    3    0  502  0.28434425183E+02 -0.11909642008E+03 -0.80837205854E+02  0.14672125847E+03  0.50400001928E-02 0. -1.
</event>
<event>
 5   0  0.1439814E-01  0.4459826E+03  0.7818609E-02  0.1028927E+00
        1   -1    0    0  501    0  0.00000000000E+00  0.00000000000E+00  0.44018780759E+03  0.44018780762E+03  0.50400001928E-02 0. -1.
       -1   -1    0    0    0  501  0.00000000000E+00  0.00000000000E+00 -0.11296343173E+03  0.11296343184E+03  0.50400001928E-02 0.  1.
    10030    2    1    2    0    0  0.00000000000E+00  0.00000000000E+00  0.32722437586E+03  0.55315123946E+03  0.44598262472E+03 0.  0.
        4    1    3    3  502    0 -0.10389356374E+03 -0.13796090950E+03  0.33856200833E+03  0.38006964036E+03  0.12699999809E+01 0. -1.
       -4    1    3    3    0  502  0.10389356374E+03  0.13796090950E+03 -0.11337632468E+02  0.17308159910E+03  0.12699999809E+01 0.  1.
</event>
<event>
 5   0  0.9868500E-02  0.5247678E+03  0.7818609E-02  0.1007509E+00
        3   -1    0    0  501    0  0.00000000000E+00  0.00000000000E+00  0.20219774361E+03  0.20219776884E+03  0.10100000352E+00 0.  1.
       -3   -1    0    0    0  501  0.00000000000E+00  0.00000000000E+00 -0.34048498116E+03  0.34048499614E+03  0.10100000352E+00 0. -1.
    10030    2    1    2    0    0  0.00000000000E+00  0.00000000000E+00 -0.13828723754E+03  0.54268276498E+03  0.52476778039E+03 0.  0.
        5    1    3    3  502    0  0.14130973650E+03  0.10108283221E+03  0.13412988059E+03  0.21954292397E+03  0.46999998093E+01 0.  1.
       -5    1    3    3    0  502 -0.14130973650E+03 -0.10108283221E+03 -0.27241711814E+03  0.32313984101E+03  0.46999998093E+01 0. -1.
</event>
<event>
 5   0  0.1413361E-01  0.4997481E+03  0.7818609E-02  0.1013845E+00
        1   -1    0    0  501    0  0.00000000000E+00  0.00000000000E+00  0.17336650736E+03  0.17336650743E+03  0.50400001928E-02 0. -1.
       -1   -1    0    0    0  501  0.00000000000E+00  0.00000000000E+00 -0.36014481103E+03  0.36014481107E+03  0.50400001928E-02 0.  1.
    10030    2    1    2    0    0  0.00000000000E+00  0.00000000000E+00 -0.18677830368E+03  0.53351131850E+03  0.49974812880E+03 0.  0.
        3    1    3    3  502    0  0.12358845354E+03 -0.17057240076E+03  0.50109347313E+02  0.21651791298E+03  0.10100000352E+00 0. -1.
       -3    1    3    3    0  502 -0.12358845354E+03  0.17057240076E+03 -0.23688765099E+03  0.31699340552E+03  0.10100000352E+00 0.  1.
</event>
<event>
 5   0  0.2413301E-01  0.5058964E+03  0.7818609E-02  0.1012251E+00
        2   -1    0    0  501    0  0.00000000000E+00  0.00000000000E+00  0.18200010123E+04  0.18200010123E+04  0.25500000920E-02 0. -1.
       -2   -1    0    0    0  501  0.00000000000E+00  0.00000000000E+00 -0.35155364990E+02  0.35155365083E+02  0.25500000920E-02 0.  1.
    10030    2    1    2    0    0  0.00000000000E+00  0.00000000000E+00  0.17848456473E+04  0.18551563774E+04  0.50589643193E+03 0.  0.
        4    1    3    3  502    0  0.27056655819E+02  0.22414977478E+03  0.13106293737E+04  0.13299346421E+04  0.12699999809E+01 0. -1.
       -4    1    3    3    0  502 -0.27056655819E+02 -0.22414977478E+03  0.47421627363E+03  0.52522173530E+03  0.12699999809E+01 0.  1.
</event>
<event>
 5   0  0.2504064E-01  0.5025797E+03  0.7818609E-02  0.1013108E+00
       -2   -1    0    0    0  501  0.00000000000E+00  0.00000000000E+00  0.94131320971E+02  0.94131321005E+02  0.25500000920E-02 0.  1.
        2   -1    0    0  501    0  0.00000000000E+00  0.00000000000E+00 -0.67083507147E+03  0.67083507148E+03  0.25500000920E-02 0. -1.
    10030    2    1    2    0    0  0.00000000000E+00  0.00000000000E+00 -0.57670375050E+03  0.76496639248E+03  0.50257971088E+03 0.  0.
        5    1    3    3  502    0 -0.10031677379E+03 -0.65897192667E+02  0.47606004347E+02  0.12920648882E+03  0.46999998093E+01 0.  1.
       -5    1    3    3    0  502  0.10031677379E+03  0.65897192667E+02 -0.62430975485E+03  0.63575990366E+03  0.46999998093E+01 0. -1.
</event>
<event>
 5   0  0.2488968E-01  0.5040083E+03  0.7818609E-02  0.1012738E+00
        2   -1    0    0  501    0  0.00000000000E+00  0.00000000000E+00  0.19441404982E+04  0.19441404982E+04  0.25500000920E-02 0. -1.
       -2   -1    0    0    0  501  0.00000000000E+00  0.00000000000E+00 -0.32665375972E+02  0.32665376071E+02  0.25500000920E-02 0.  1.
    10030    2    1    2    0    0  0.00000000000E+00  0.00000000000E+00  0.19114751223E+04  0.19768058743E+04  0.50400825556E+03 0.  0.
        2    1    3    3  502    0 -0.13367903173E+03 -0.10669465798E+03  0.16816277147E+04  0.16903034060E+04  0.25500000920E-02 0. -1.
       -2    1    3    3    0  502  0.13367903173E+03  0.10669465798E+03  0.22984740758E+03  0.28650246830E+03  0.25500000920E-02 0.  1.
</event>
<event>
 5   0  0.2466034E-01  0.5012011E+03  0.7818609E-02  0.1013466E+00
        2   -1    0    0  501    0  0.00000000000E+00  0.00000000000E+00  0.52939847118E+03  0.52939847118E+03  0.25500000920E-02 0.  1.
       -2   -1    0    0    0  501  0.00000000000E+00  0.00000000000E+00 -0.11862640727E+03  0.11862640730E+03  0.25500000920E-02 0. -1.
    10030    2    1    2    0    0  0.00000000000E+00  0.00000000000E+00  0.41077206391E+03  0.64802487848E+03  0.50120111197E+03 0.  0.
        3    1    3    3  502    0  0.18187127877E+03 -0.16955762431E+03  0.16504124434E+03  0.29843855740E+03  0.10100000352E+00 0.  1.
       -3    1    3    3    0  502 -0.18187127877E+03  0.16955762431E+03  0.24573081956E+03  0.34958632108E+03  0.10100000352E+00 0. -1.
</event>
<event>
 5   0  0.2488968E-01  0.4945634E+03  0.7818609E-02  0.1015208E+00
        2   -1    0    0  501    0  0.00000000000E+00  0.00000000000E+00  0.24710675898E+03  0.24710675899E+03  0.25500000920E-02 0.  1.
       -2   -1    0    0    0  501  0.00000000000E+00  0.00000000000E+00 -0.24745673074E+03  0.24745673075E+03  0.25500000920E-02 0. -1.
    10030    2    1    2    0    0  0.00000000000E+00  0.00000000000E+00 -0.34997175626E+00  0.49456348974E+03  0.49456336591E+03 0.  0.
        2    1    3    3  502    0  0.19379372810E+02 -0.90848251757E+02 -0.22934586553E+03  0.24744391482E+03  0.25500000920E-02 0. -1.
       -2    1    3    3    0  502 -0.19379372810E+02  0.90848251757E+02  0.22899589377E+03  0.24711957492E+03  0.25500000920E-02 0.  1.
</event>
<event>
 5   0  0.2466034E-01  0.5493742E+03  0.7818609E-02  0.1001639E+00
       -2   -1    0    0    0  501  0.00000000000E+00  0.00000000000E+00  0.71627796988E+02  0.71627797033E+02  0.25500000920E-02 0. -1.
        2   -1    0    0  501    0  0.00000000000E+00  0.00000000000E+00 -0.10534040876E+04  0.10534040876E+04  0.25500000920E-02 0.  1.
    10030    2    1    2    0    0  0.00000000000E+00  0.00000000000E+00 -0.98177629064E+03  0.11250318847E+04  0.54937424098E+03 0.  0.
        3    1    3    3  502    0  0.63405684328E+02  0.82243373995E+02  0.29879235747E+02  0.10806031788E+03  0.10100000352E+00 0. -1.
       -3    1    3    3    0  502 -0.63405684328E+02 -0.82243373995E+02 -0.10116555264E+04  0.10169715668E+04  0.10100000352E+00 0.  1.
</event>
<event>
 5   0  0.2466034E-01  0.4959394E+03  0.7818609E-02  0.1014844E+00
       -2   -1    0    0    0  501  0.00000000000E+00  0.00000000000E+00  0.80754822057E+02  0.80754822097E+02  0.25500000920E-02 0. -1.
        2   -1    0    0  501    0  0.00000000000E+00  0.00000000000E+00 -0.76142776707E+03  0.76142776707E+03  0.25500000920E-02 0.  1.
    10030    2    1    2    0    0  0.00000000000E+00  0.00000000000E+00 -0.68067294501E+03  0.84218258917E+03  0.49593936669E+03 0.  0.
        3    1    3    3  502    0  0.90312818778E+01 -0.23253569230E+03 -0.48576987278E+03  0.53863419103E+03  0.10100000352E+00 0. -1.
       -3    1    3    3    0  502 -0.90312818778E+01  0.23253569230E+03 -0.19490307223E+03  0.30354839814E+03  0.10100000352E+00 0.  1.
</event>
<event>
 5   0  0.2413301E-01  0.4891599E+03  0.7818609E-02  0.1016648E+00
       -2   -1    0    0    0  501  0.00000000000E+00  0.00000000000E+00  0.14805783243E+03  0.14805783246E+03  0.25500000920E-02 0. -1.
        2   -1    0    0  501    0  0.00000000000E+00  0.00000000000E+00 -0.40402690261E+03  0.40402690261E+03  0.25500000920E-02 0.  1.
    10030    2    1    2    0    0  0.00000000000E+00  0.00000000000E+00 -0.25596907017E+03  0.55208473507E+03  0.48915988165E+03 0.  0.
        4    1    3    3  502    0  0.15407551827E+03  0.14226927734E+03  0.14053287874E+02  0.21018782173E+03  0.12699999809E+01 0. -1.
       -4    1    3    3    0  502 -0.15407551827E+03 -0.14226927734E+03 -0.27002235804E+03  0.34189691334E+03  0.12699999809E+01 0.  1.
</event>
<event>
 5   0  0.1413361E-01  0.4395901E+03  0.7818609E-02  0.1030873E+00
       -1   -1    0    0    0  501  0.00000000000E+00  0.00000000000E+00  0.33323139373E+02  0.33323139754E+02  0.50400001928E-02 0. -1.
        1   -1    0    0  501    0  0.00000000000E+00  0.00000000000E+00 -0.14497393499E+04  0.14497393499E+04  0.50400001928E-02 0.  1.
    10030    2    1    2    0    0  0.00000000000E+00  0.00000000000E+00 -0.14164162105E+04  0.14830624896E+04  0.43959011226E+03 0.  0.
        3    1    3    3  502    0 -0.12267177534E+03 -0.17192389702E+03 -0.50288991702E+03  0.54543970306E+03  0.10100000352E+00 0. -1.
       -3    1    3    3    0  502  0.12267177534E+03  0.17192389702E+03 -0.91352629346E+03  0.93762278656E+03  0.10100000352E+00 0.  1.
</event>
<event>
 5   0  0.1453602E-01  0.5022843E+03  0.7818609E-02  0.1013184E+00
        1   -1    0    0  501    0  0.00000000000E+00  0.00000000000E+00  0.74820958523E+03  0.74820958525E+03  0.50400001928E-02 0. -1.
       -1   -1    0    0    0  501  0.00000000000E+00  0.00000000000E+00 -0.84297732782E+02  0.84297732933E+02  0.50400001928E-02 0.  1.
    10030    2    1    2    0    0  0.00000000000E+00  0.00000000000E+00  0.66391185245E+03  0.83250731818E+03  0.50228426912E+03 0.  0.
        2    1    3    3  502    0  0.58511049175E+02  0.11554663923E+03 -0.24674731478E+02  0.13184616450E+03  0.25500000920E-02 0.  1.
       -2    1    3    3    0  502 -0.58511049175E+02 -0.11554663923E+03  0.68858658393E+03  0.70066115369E+03  0.25500000920E-02 0. -1.
</event>
<event>
 5   0  0.9868500E-02  0.4748668E+03  0.7818609E-02  0.1020556E+00
       -3   -1    0    0    0  501  0.00000000000E+00  0.00000000000E+00  0.37792724385E+03  0.37792725734E+03  0.10100000352E+00 0. -1.
        3   -1    0    0  501    0  0.00000000000E+00  0.00000000000E+00 -0.14916785878E+03  0.14916789298E+03  0.10100000352E+00 0.  1.
    10030    2    1    2    0    0  0.00000000000E+00  0.00000000000E+00  0.22875938506E+03  0.52709515032E+03  0.47486676156E+03 0.  0.
        5    1    3    3  502    0  0.14266154832E+03 -0.12771700028E+03 -0.41368976478E+02  0.19595262627E+03  0.46999998093E+01 0.  1.
       -5    1    3    3    0  502 -0.14266154832E+03  0.12771700028E+03  0.27012836154E+03  0.33114252405E+03  0.46999998093E+01 0. -1.
</event>
<event>
 5   0  0.9868500E-02  0.4726795E+03  0.7818609E-02  0.1021167E+00
        3   -1    0    0  501    0  0.00000000000E+00  0.00000000000E+00  0.66803900282E+03  0.66803901046E+03  0.10100000352E+00 0.  1.
       -3   -1    0    0    0  501  0.00000000000E+00  0.00000000000E+00 -0.83612561635E+02  0.83612622636E+02  0.10100000352E+00 0. -1.
    10030    2    1    2    0    0  0.00000000000E+00  0.00000000000E+00  0.58442644119E+03  0.75165163309E+03  0.47267950281E+03 0.  0.
        5    1    3    3  502    0  0.65979377996E+02  0.16055017885E+03  0.54716410698E+03  0.57405599746E+03  0.46999998093E+01 0.  1.
       -5    1    3    3    0  502 -0.65979377996E+02 -0.16055017885E+03  0.37262334208E+02  0.17759563564E+03  0.46999998093E+01 0. -1.
</event>
<event>
 5   0  0.1453602E-01  0.5290126E+03  0.7818609E-02  0.1006472E+00
        1   -1    0    0  501    0  0.00000000000E+00  0.00000000000E+00  0.39093993485E+03  0.39093993488E+03  0.50400001928E-02 0.  1.
       -1   -1    0    0    0  501  0.00000000000E+00  0.00000000000E+00 -0.17896249047E+03  0.17896249054E+03  0.50400001928E-02 0. -1.
    10030    2    1    2    0    0  0.00000000000E+00  0.00000000000E+00  0.21197744438E+03  0.56990242541E+03  0.52901260625E+03 0.  0.
        2    1    3    3  502    0  0.38443110848E+01  0.20284545161E+03 -0.76842259377E+02  0.21694651138E+03  0.25500000920E-02 0. -1.
       -2    1    3    3    0  502 -0.38443110848E+01 -0.20284545161E+03  0.28881970376E+03  0.35295591403E+03  0.25500000920E-02 0.  1.
</event>
<event>
 5   0  0.1413361E-01  0.5132286E+03  0.7818609E-02  0.1010383E+00
        1   -1    0    0  501    0  0.00000000000E+00  0.00000000000E+00  0.13425675995E+04  0.13425675995E+04  0.50400001928E-02 0. -1.
       -1   -1    0    0    0  501  0.00000000000E+00  0.00000000000E+00 -0.49048481794E+02  0.49048482053E+02  0.50400001928E-02 0.  1.
    10030    2    1    2    0    0  0.00000000000E+00  0.00000000000E+00  0.12935191177E+04  0.13916160816E+04  0.51322861436E+03 0.  0.
        3    1    3    3  502    0 -0.54547601375E+02  0.17429817805E+03  0.15797122098E+03  0.24147507645E+03  0.10100000352E+00 0.  1.
       -3    1    3    3    0  502  0.54547601375E+02 -0.17429817805E+03  0.11355478968E+04  0.11501410052E+04  0.10100000352E+00 0. -1.
</event>
<event>
 5   0  0.2511944E-01  0.4474095E+03  0.7818609E-02  0.1028497E+00
       -2   -1    0    0    0  501  0.00000000000E+00  0.00000000000E+00  0.91313419894E+02  0.91313419929E+02  0.25500000920E-02 0. -1.
        2   -1    0    0  501    0  0.00000000000E+00  0.00000000000E+00 -0.54804442264E+03  0.54804442264E+03  0.25500000920E-02 0.  1.
    10030    2    1    2    0    0  0.00000000000E+00  0.00000000000E+00 -0.45673100274E+03  0.63935784257E+03  0.44740947910E+03 0.  0.
        1    1    3    3  502    0  0.16323580599E+03  0.54747514526E+02 -0.43247358180E+03  0.46548535711E+03  0.50400001928E-02 0.  1.
       -1    1    3    3    0  502 -0.16323580599E+03 -0.54747514526E+02 -0.24257420937E+02  0.17387248546E+03  0.50400001928E-02 0. -1.
</event>
<event>
 5   0  0.1413361E-01  0.5051703E+03  0.7818609E-02  0.1012438E+00
        1   -1    0    0  501    0  0.00000000000E+00  0.00000000000E+00  0.20704398403E+03  0.20704398409E+03  0.50400001928E-02 0.  1.
       -1   -1    0    0    0  501  0.00000000000E+00  0.00000000000E+00 -0.30814351557E+03  0.30814351561E+03  0.50400001928E-02 0. -1.
    10030    2    1    2    0    0  0.00000000000E+00  0.00000000000E+00 -0.10109953154E+03  0.51518749971E+03  0.50517031245E+03 0.  0.
        3    1    3    3  502    0 -0.16159192194E+03  0.15651691091E+03 -0.16767377102E+03  0.28057796836E+03  0.10100000352E+00 0. -1.
       -3    1    3    3    0  502  0.16159192194E+03 -0.15651691091E+03  0.66574239483E+02  0.23460953135E+03  0.10100000352E+00 0.  1.
</event>
<event>
 5   0  0.2466034E-01  0.5059478E+03  0.7818609E-02  0.1012238E+00
        2   -1    0    0  501    0  0.00000000000E+00  0.00000000000E+00  0.17618764965E+03  0.17618764967E+03  0.25500000920E-02 0. -1.
       -2   -1    0    0    0  501  0.00000000000E+00  0.00000000000E+00 -0.36322514909E+03  0.36322514910E+03  0.25500000920E-02 0.  1.
    10030    2    1    2    0    0  0.00000000000E+00  0.00000000000E+00 -0.18703749944E+03  0.53941279876E+03  0.50594776536E+03 0.  0.
        3    1    3    3  502    0  0.78623702100E+02 -0.19406256928E+03  0.57835326211E+02  0.21722546464E+03  0.10100000352E+00 0. -1.
       -3    1    3    3    0  502 -0.78623702100E+02  0.19406256928E+03 -0.24487282565E+03  0.32218733413E+03  0.10100000352E+00 0.  1.
</event>
<event>
 5   0  0.1529146E-01  0.5063392E+03  0.7818609E-02  0.1012137E+00
       -1   -1    0    0    0  501  0.00000000000E+00  0.00000000000E+00  0.83038292219E+02  0.83038292372E+02  0.50400001928E-02 0.  1.
        1   -1    0    0  501    0  0.00000000000E+00  0.00000000000E+00 -0.77187085544E+03  0.77187085546E+03  0.50400001928E-02 0. -1.
    10030    2    1    2    0    0  0.00000000000E+00  0.00000000000E+00 -0.68883256322E+03  0.85490914783E+03  0.50633916586E+03 0.  0.
        1    1    3    3  502    0 -0.40657994101E+02 -0.53124549119E+02 -0.75667778258E+03  0.75962922330E+03  0.50400001928E-02 0. -1.
       -1    1    3    3    0  502  0.40657994101E+02  0.53124549119E+02  0.67845219362E+02  0.95279924533E+02  0.50400001928E-02 0.  1.
</event>
<event>
 5   0  0.2413301E-01  0.5017136E+03  0.7818609E-02  0.1013333E+00
        2   -1    0    0  501    0  0.00000000000E+00  0.00000000000E+00  0.10922773306E+04  0.10922773306E+04  0.25500000920E-02 0. -1.
       -2   -1    0    0    0  501  0.00000000000E+00  0.00000000000E+00 -0.57612788211E+02  0.57612788268E+02  0.25500000920E-02 0.  1.
    10030    2    1    2    0    0  0.00000000000E+00  0.00000000000E+00  0.10346645424E+04  0.11498901189E+04  0.50171363366E+03 0.  0.
        4    1    3    3  502    0  0.20610863268E+03  0.14985893663E+02  0.19140967584E+03  0.28168177502E+03  0.12699999809E+01 0.  1.
       -4    1    3    3    0  502 -0.20610863268E+03 -0.14985893663E+02  0.84325486655E+03  0.86820834385E+03  0.12699999809E+01 0. -1.
</event>
<event>
 5   0  0.2413301E-01  0.4994928E+03  0.7818609E-02  0.1013911E+00
        2   -1    0    0  501    0  0.00000000000E+00  0.00000000000E+00  0.91749130491E+02  0.91749130527E+02  0.25500000920E-02 0. -1.
       -2   -1    0    0    0  501  0.00000000000E+00  0.00000000000E+00 -0.67982398384E+03  0.67982398385E+03  0.25500000920E-02 0.  1.
    10030    2    1    2    0    0  0.00000000000E+00  0.00000000000E+00 -0.58807485335E+03  0.77157311437E+03  0.49949278041E+03 0.  0.
        4    1    3    3  502    0  0.20212819921E+03 -0.51335441902E+02 -0.50629086370E+03  0.54756112725E+03  0.12699999809E+01 0.  1.
       -4    1    3    3    0  502 -0.20212819921E+03  0.51335441902E+02 -0.81783989649E+02  0.22401198712E+03  0.12699999809E+01 0. -1.
</event>
<event>
 5   0  0.1413361E-01  0.5075645E+03  0.7818609E-02  0.1011823E+00
       -1   -1    0    0    0  501  0.00000000000E+00  0.00000000000E+00  0.14967022342E+03  0.14967022351E+03  0.50400001928E-02 0.  1.
        1   -1    0    0  501    0  0.00000000000E+00  0.00000000000E+00 -0.43031554829E+03  0.43031554832E+03  0.50400001928E-02 0. -1.
    10030    2    1    2    0    0  0.00000000000E+00  0.00000000000E+00 -0.28064532487E+03  0.57998577182E+03  0.50756447585E+03 0.  0.
        3    1    3    3  502    0  0.12656597328E+02  0.25212983860E+02  0.14787285047E+03  0.15053994194E+03  0.10100000352E+00 0.  1.
       -3    1    3    3    0  502 -0.12656597328E+02 -0.25212983860E+02 -0.42851817534E+03  0.42944582989E+03  0.10100000352E+00 0. -1.
</event>
<event>
 5   0  0.1413361E-01  0.5023568E+03  0.7818609E-02  0.1013166E+00
       -1   -1    0    0    0  501  0.00000000000E+00  0.00000000000E+00  0.39670258437E+03  0.39670258440E+03  0.50400001928E-02 0.  1.
        1   -1    0    0  501    0  0.00000000000E+00  0.00000000000E+00 -0.15903750751E+03  0.15903750759E+03  0.50400001928E-02 0. -1.
    10030    2    1    2    0    0  0.00000000000E+00  0.00000000000E+00  0.23766507686E+03  0.55574009199E+03  0.50235680655E+03 0.  0.
        3    1    3    3  502    0 -0.11595520752E+03  0.17336322309E+03  0.27367086186E+03  0.34408744252E+03  0.10100000352E+00 0.  1.
       -3    1    3    3    0  502  0.11595520752E+03 -0.17336322309E+03 -0.36005784996E+02  0.21165264946E+03  0.10100000352E+00 0. -1.
</event>
<event>
 5   0  0.1453602E-01  0.4909154E+03  0.7818609E-02  0.1016178E+00
       -1   -1    0    0    0  501  0.00000000000E+00  0.00000000000E+00  0.10764039656E+03  0.10764039668E+03  0.50400001928E-02 0. -1.
        1   -1    0    0  501    0  0.00000000000E+00  0.00000000000E+00 -0.55972931926E+03  0.55972931928E+03  0.50400001928E-02 0.  1.
    10030    2    1    2    0    0  0.00000000000E+00  0.00000000000E+00 -0.45208892269E+03  0.66736971596E+03  0.49091541406E+03 0.  0.
        2    1    3    3  502    0  0.47120648106E+02  0.12828904266E+03  0.51131354244E+02  0.14592069537E+03  0.25500000920E-02 0. -1.
       -2    1    3    3    0  502 -0.47120648106E+02 -0.12828904266E+03 -0.50322027694E+03  0.52144902059E+03  0.25500000920E-02 0.  1.
</event>
<event>
 5   0  0.2413301E-01  0.5050838E+03  0.7818609E-02  0.1012460E+00
        2   -1    0    0  501    0  0.00000000000E+00  0.00000000000E+00  0.26285406356E+03  0.26285406358E+03  0.25500000920E-02 0.  1.
       -2   -1    0    0    0  501  0.00000000000E+00  0.00000000000E+00 -0.24263434203E+03  0.24263434204E+03  0.25500000920E-02 0. -1.
    10030    2    1    2    0    0  0.00000000000E+00  0.00000000000E+00  0.20219721535E+02  0.50548840562E+03  0.50508384559E+03 0.  0.
        4    1    3    3  502    0  0.12457219045E+02 -0.21485498638E+03 -0.12212455385E+03  0.24745477775E+03  0.12699999809E+01 0. -1.
       -4    1    3    3    0  502 -0.12457219045E+02  0.21485498638E+03  0.14234427539E+03  0.25803362787E+03  0.12699999809E+01 0.  1.
</event>
<event>
 5   0  0.1413361E-01  0.4952107E+03  0.7818609E-02  0.1015037E+00
       -1   -1    0    0    0  501  0.00000000000E+00  0.00000000000E+00  0.59479489998E+02  0.59479490211E+02  0.50400001928E-02 0. -1.
        1   -1    0    0  501    0  0.00000000000E+00  0.00000000000E+00 -0.10307485860E+04  0.10307485860E+04  0.50400001928E-02 0.  1.
    10030    2    1    2    0    0  0.00000000000E+00  0.00000000000E+00 -0.97126909597E+03  0.10902280762E+04  0.49521066358E+03 0.  0.
        3    1    3    3  502    0 -0.67268916678E+02  0.16592050973E+03 -0.86218011055E+03  0.88057326551E+03  0.10100000352E+00 0.  1.
       -3    1    3    3    0  502  0.67268916678E+02 -0.16592050973E+03 -0.10908898542E+03  0.20965481068E+03  0.10100000352E+00 0. -1.
</event>
<event>
 5   0  0.2488968E-01  0.5043442E+03  0.7818609E-02  0.1012651E+00
       -2   -1    0    0    0  501  0.00000000000E+00  0.00000000000E+00  0.37749777812E+02  0.37749777898E+02  0.25500000920E-02 0. -1.
        2   -1    0    0  501    0  0.00000000000E+00  0.00000000000E+00 -0.16845337726E+04  0.16845337726E+04  0.25500000920E-02 0.  1.
    10030    2    1    2    0    0  0.00000000000E+00  0.00000000000E+00 -0.16467839947E+04  0.17222835505E+04  0.50434423049E+03 0.  0.
        2    1    3    3  502    0  0.11507255471E+03  0.12606869205E+03 -0.18950978905E+03  0.25504699198E+03  0.25500000920E-02 0. -1.
       -2    1    3    3    0  502 -0.11507255471E+03 -0.12606869205E+03 -0.14572742057E+04  0.14672365585E+04  0.25500000920E-02 0.  1.
</event>
<event>
 5   0  0.2413301E-01  0.4877537E+03  0.7818609E-02  0.1017026E+00
        2   -1    0    0  501    0  0.00000000000E+00  0.00000000000E+00  0.31613626214E+03  0.31613626215E+03  0.25500000920E-02 0.  1.
       -2   -1    0    0    0  501  0.00000000000E+00  0.00000000000E+00 -0.18813380109E+03  0.18813380111E+03  0.25500000920E-02 0. -1.
    10030    2    1    2    0    0  0.00000000000E+00  0.00000000000E+00  0.12800246104E+03  0.50427006326E+03  0.48775369467E+03 0.  0.
        4    1    3    3  502    0  0.24154672173E+02  0.93032565127E+02  0.29572429790E+03  0.31095494791E+03  0.12699999809E+01 0.  1.
       -4    1    3    3    0  502 -0.24154672173E+02 -0.93032565127E+02 -0.16772183686E+03  0.19331511535E+03  0.12699999809E+01 0. -1.
</event>
<event>
 5   0  0.1448458E-01  0.5069453E+03  0.7818609E-02  0.1011982E+00
       -1   -1    0    0    0  501  0.00000000000E+00  0.00000000000E+00  0.43652716479E+02  0.43652716770E+02  0.50400001928E-02 0.  1.
        1   -1    0    0  501    0  0.00000000000E+00  0.00000000000E+00 -0.14718070907E+04  0.14718070907E+04  0.50400001928E-02 0. -1.
    10030    2    1    2    0    0  0.00000000000E+00  0.00000000000E+00 -0.14281543742E+04  0.15154598075E+04  0.50694527464E+03 0.  0.
        5    1    3    3  502    0 -0.33374377940E+02 -0.93008038006E+02 -0.14117148389E+04  0.14151767453E+04  0.46999998093E+01 0. -1.
       -5    1    3    3    0  502  0.33374377940E+02  0.93008038006E+02 -0.16439535371E+02  0.10028306217E+03  0.46999998093E+01 0.  1.
</event>
<event>
 5   0  0.9868500E-02  0.4796216E+03  0.7818609E-02  0.1019239E+00
        4   -1    0    0  501    0  0.00000000000E+00  0.00000000000E+00  0.18148215101E+03  0.18148659464E+03  0.12699999809E+01 0.  1.
       -4   -1    0    0    0  501  0.00000000000E+00  0.00000000000E+00 -0.31687676383E+03  0.31687930882E+03  0.12699999809E+01 0. -1.
    10030    2    1    2    0    0  0.00000000000E+00  0.00000000000E+00 -0.13539461282E+03  0.49836590346E+03  0.47962159308E+03 0.  0.
        1    1    3    3  502    0  0.32644668002E+02  0.11373897961E+03 -0.28443233370E+03  0.30806489951E+03  0.50400001928E-02 0. -1.
       -1    1    3    3    0  502 -0.32644668002E+02 -0.11373897961E+03  0.14903772088E+03  0.19030100395E+03  0.50400001928E-02 0.  1.
</event>
<event>
 5   0  0.2488968E-01  0.5042757E+03  0.7818609E-02  0.1012669E+00
        2   -1    0    0  501    0  0.00000000000E+00  0.00000000000E+00  0.62499430215E+03  0.62499430216E+03  0.25500000920E-02 0.  1.
       -2   -1    0    0    0  501  0.00000000000E+00  0.00000000000E+00 -0.10171852702E+03  0.10171852705E+03  0.25500000920E-02 0. -1.
    10030    2    1    2    0    0  0.00000000000E+00  0.00000000000E+00  0.52327577514E+03  0.72671282920E+03  0.50427571753E+03 0.  0.
        2    1    3    3  502    0 -0.22640586338E+03 -0.89736050818E+02  0.35571135511E+03  0.43109481782E+03  0.25500000920E-02 0.  1.
       -2    1    3    3    0  502  0.22640586338E+03  0.89736050818E+02  0.16756442002E+03  0.29561801138E+03  0.25500000920E-02 0. -1.
</event>
<event>
 5   0  0.2466034E-01  0.5016710E+03  0.7818609E-02  0.1013344E+00
        2   -1    0    0  501    0  0.00000000000E+00  0.00000000000E+00  0.10771975045E+04  0.10771975045E+04  0.25500000920E-02 0. -1.
       -2   -1    0    0    0  501  0.00000000000E+00  0.00000000000E+00 -0.58409395882E+02  0.58409395938E+02  0.25500000920E-02 0.  1.
    10030    2    1    2    0    0  0.00000000000E+00  0.00000000000E+00  0.10187881086E+04  0.11356069004E+04  0.50167102973E+03 0.  0.
        3    1    3    3  502    0  0.10855512036E+03 -0.10432681445E+03  0.96353717051E+03  0.97522929998E+03  0.10100000352E+00 0. -1.
       -3    1    3    3    0  502 -0.10855512036E+03  0.10432681445E+03  0.55250938109E+02  0.16037760047E+03  0.10100000352E+00 0.  1.
</event>
<event>
 5   0  0.2504064E-01  0.5271190E+03  0.7818609E-02  0.1006933E+00
       -2   -1    0    0    0  501  0.00000000000E+00  0.00000000000E+00  0.21811015390E+03  0.21811015391E+03  0.25500000920E-02 0.  1.
        2   -1    0    0  501    0  0.00000000000E+00  0.00000000000E+00 -0.31847948518E+03  0.31847948519E+03  0.25500000920E-02 0. -1.
    10030    2    1    2    0    0  0.00000000000E+00  0.00000000000E+00 -0.10036933129E+03  0.53658963911E+03  0.52711899808E+03 0.  0.
        5    1    3    3  502    0 -0.36718530994E+02  0.49956961928E+02 -0.31090655384E+03  0.31706296501E+03  0.46999998093E+01 0. -1.
       -5    1    3    3    0  502  0.36718530994E+02 -0.49956961928E+02  0.21053722255E+03  0.21952667410E+03  0.46999998093E+01 0.  1.
</event>
<event>
 5   0  0.1453602E-01  0.5037357E+03  0.7818609E-02  0.1012808E+00
        1   -1    0    0  501    0  0.00000000000E+00  0.00000000000E+00  0.29047827725E+03  0.29047827730E+03  0.50400001928E-02 0.  1.
       -1   -1    0    0    0  501  0.00000000000E+00  0.00000000000E+00 -0.21838948542E+03  0.21838948548E+03  0.50400001928E-02 0. -1.
    10030    2    1    2    0    0  0.00000000000E+00  0.00000000000E+00  0.72088791832E+02  0.50886776278E+03  0.50373565100E+03 0.  0.
        2    1    3    3  502    0 -0.10844209748E+03  0.14090707729E+03 -0.14416282368E+03  0.22890481138E+03  0.25500000920E-02 0. -1.
       -2    1    3    3    0  502  0.10844209748E+03 -0.14090707729E+03  0.21625161551E+03  0.27996295140E+03  0.25500000920E-02 0.  1.
</event>
<event>
 5   0  0.2488968E-01  0.5007498E+03  0.7818609E-02  0.1013583E+00
        2   -1    0    0  501    0  0.00000000000E+00  0.00000000000E+00  0.79499825600E+03  0.79499825600E+03  0.25500000920E-02 0.  1.
       -2   -1    0    0    0  501  0.00000000000E+00  0.00000000000E+00 -0.78852502169E+02  0.78852502210E+02  0.25500000920E-02 0. -1.
    10030    2    1    2    0    0  0.00000000000E+00  0.00000000000E+00  0.71614575383E+03  0.87385075821E+03  0.50074984463E+03 0.  0.
        2    1    3    3  502    0  0.28033717635E+02  0.57401190930E+02  0.78053765516E+03  0.78314737896E+03  0.25500000920E-02 0.  1.
       -2    1    3    3    0  502 -0.28033717635E+02 -0.57401190930E+02 -0.64391901329E+02  0.90703379253E+02  0.25500000920E-02 0. -1.
</event>
<event>
 5   0  0.9868500E-02  0.4996872E+03  0.7818609E-02  0.1013861E+00
        4   -1    0    0  501    0  0.00000000000E+00  0.00000000000E+00  0.79413648274E+02  0.79423802680E+02  0.12699999809E+01 0.  1.
       -4   -1    0    0    0  501  0.00000000000E+00  0.00000000000E+00 -0.78597298614E+03  0.78597401219E+03  0.12699999809E+01 0. -1.
    10030    2    1    2    0    0  0.00000000000E+00  0.00000000000E+00 -0.70655933787E+03  0.86539781487E+03  0.49968718221E+03 0.  0.
        5    1    3    3  502    0  0.19085120553E+03 -0.15528664567E+03 -0.27855545448E+03  0.37168986561E+03  0.46999998093E+01 0.  1.
       -5    1    3    3    0  502 -0.19085120553E+03  0.15528664567E+03 -0.42800388339E+03  0.49370794927E+03  0.46999998093E+01 0. -1.
</event>
<event>
 5   0  0.2504064E-01  0.5039550E+03  0.7818609E-02  0.1012752E+00
       -2   -1    0    0    0  501  0.00000000000E+00  0.00000000000E+00  0.28487075183E+02  0.28487075297E+02  0.25500000920E-02 0.  1.
        2   -1    0    0  501    0  0.00000000000E+00  0.00000000000E+00 -0.22288237142E+04  0.22288237142E+04  0.25500000920E-02 0. -1.
    10030    2    1    2    0    0  0.00000000000E+00  0.00000000000E+00 -0.22003366391E+04  0.22573107895E+04  0.50395503310E+03 0.  0.
        5    1    3    3  502    0 -0.23259202705E+03 -0.18402154596E+02 -0.67445925717E+03  0.71369115864E+03  0.46999998093E+01 0.  1.
       -5    1    3    3    0  502  0.23259202705E+03  0.18402154596E+02 -0.15258773819E+04  0.15436196309E+04  0.46999998093E+01 0. -1.
</event>
<event>
 5   0  0.1439814E-01  0.5348074E+03  0.7818609E-02  0.1005073E+00
        1   -1    0    0  501    0  0.00000000000E+00  0.00000000000E+00  0.40223960671E+03  0.40223960674E+03  0.50400001928E-02 0. -1.
       -1   -1    0    0    0  501  0.00000000000E+00  0.00000000000E+00 -0.17776653024E+03  0.17776653031E+03  0.50400001928E-02 0.  1.
    10030    2    1    2    0    0  0.00000000000E+00  0.00000000000E+00  0.22447307647E+03  0.58000613705E+03  0.53480740174E+03 0.  0.
        4    1    3    3  502    0 -0.13995425193E+03 -0.17940424275E+03 -0.40098318260E+02  0.23104666840E+03  0.12699999809E+01 0.  1.
       -4    1    3    3    0  502  0.13995425193E+03  0.17940424275E+03  0.26457139473E+03  0.34895946865E+03  0.12699999809E+01 0. -1.
</event>
<event>
 5   0  0.1453602E-01  0.5000267E+03  0.7818609E-02  0.1013772E+00
       -1   -1    0    0    0  501  0.00000000000E+00  0.00000000000E+00  0.12678167789E+03  0.12678167799E+03  0.50400001928E-02 0.  1.
        1   -1    0    0  501    0  0.00000000000E+00  0.00000000000E+00 -0.49302600004E+03  0.49302600007E+03  0.50400001928E-02 0. -1.
    10030    2    1    2    0    0  0.00000000000E+00  0.00000000000E+00 -0.36624432215E+03  0.61980767806E+03  0.50002665356E+03 0.  0.
        2    1    3    3  502    0  0.17366759081E+02  0.10641293146E+03 -0.46272597964E+03  0.47512171972E+03  0.25500000920E-02 0. -1.
       -2    1    3    3    0  502 -0.17366759081E+02 -0.10641293146E+03  0.96481657494E+02  0.14468595834E+03  0.25500000920E-02 0.  1.
</event>
<event>
 5   0  0.1529146E-01  0.5040553E+03  0.7818609E-02  0.1012726E+00
       -1   -1    0    0    0  501  0.00000000000E+00  0.00000000000E+00  0.14553580385E+03  0.14553580394E+03  0.50400001928E-02 0.  1.
        1   -1    0    0  501    0  0.00000000000E+00  0.00000000000E+00 -0.43644201824E+03  0.43644201827E+03  0.50400001928E-02 0. -1.
    10030    2    1    2    0    0  0.00000000000E+00  0.00000000000E+00 -0.29090621439E+03  0.58197782220E+03  0.50405531439E+03 0.  0.
        1    1    3    3  502    0  0.20418003836E+03 -0.14771366361E+03 -0.14196527044E+03  0.28924548833E+03  0.50400001928E-02 0.  1.
       -1    1    3    3    0  502 -0.20418003836E+03  0.14771366361E+03 -0.14894094395E+03  0.29273233387E+03  0.50400001928E-02 0. -1.
</event>
<event>
 5   0  0.2504064E-01  0.4782367E+03  0.7818609E-02  0.1019621E+00
       -2   -1    0    0    0  501  0.00000000000E+00  0.00000000000E+00  0.34752027240E+02  0.34752027334E+02  0.25500000920E-02 0.  1.
        2   -1    0    0  501    0  0.00000000000E+00  0.00000000000E+00 -0.16453019258E+04  0.16453019258E+04  0.25500000920E-02 0. -1.
    10030    2    1    2    0    0  0.00000000000E+00  0.00000000000E+00 -0.16105498985E+04  0.16800539531E+04  0.47823666703E+03 0.  0.
        5    1    3    3  502    0  0.22859583650E+03  0.65270775066E+02 -0.89408949373E+03  0.92516725155E+03  0.46999998093E+01 0. -1.
       -5    1    3    3    0  502 -0.22859583650E+03 -0.65270775066E+02 -0.71646040479E+03  0.75488670154E+03  0.46999998093E+01 0.  1.
</event>
<event>
 5   0  0.1448458E-01  0.4935432E+03  0.7818609E-02  0.1015478E+00
       -1   -1    0    0    0  501  0.00000000000E+00  0.00000000000E+00  0.38509157077E+03  0.38509157081E+03  0.50400001928E-02 0.  1.
        1   -1    0    0  501    0  0.00000000000E+00  0.00000000000E+00 -0.15813436300E+03  0.15813436308E+03  0.50400001928E-02 0. -1.
    10030    2    1    2    0    0  0.00000000000E+00  0.00000000000E+00  0.22695720778E+03  0.54322593389E+03  0.49354315017E+03 0.  0.
        5    1    3    3  502    0  0.13437391230E+03 -0.28167282972E+02  0.33911336312E+03  0.36588209465E+03  0.46999998093E+01 0.  1.
       -5    1    3    3    0  502 -0.13437391230E+03  0.28167282972E+02 -0.11215615535E+03  0.17734383924E+03  0.46999998093E+01 0. -1.
</event>
<event>
 5   0  0.1413361E-01  0.4949148E+03  0.7818609E-02  0.1015115E+00
        1   -1    0    0  501    0  0.00000000000E+00  0.00000000000E+00  0.62069936874E+03  0.62069936876E+03  0.50400001928E-02 0.  1.
       -1   -1    0    0    0  501  0.00000000000E+00  0.00000000000E+00 -0.98655125356E+02  0.98655125485E+02  0.50400001928E-02 0. -1.
    10030    2    1    2    0    0  0.00000000000E+00  0.00000000000E+00  0.52204424338E+03  0.71935449424E+03  0.49491483746E+03 0.  0.
        3    1    3    3  502    0 -0.19637562268E+03 -0.60860946365E+02  0.46120185066E+03  0.50495009380E+03  0.10100000352E+00 0. -1.
       -3    1    3    3    0  502  0.19637562268E+03  0.60860946365E+02  0.60842392720E+02  0.21440440044E+03  0.10100000352E+00 0.  1.
</event>
<event>
 5   0  0.2511944E-01  0.4857684E+03  0.7818609E-02  0.1017562E+00
        2   -1    0    0  501    0  0.00000000000E+00  0.00000000000E+00  0.30105949529E+03  0.30105949530E+03  0.25500000920E-02 0. -1.
       -2   -1    0    0    0  501  0.00000000000E+00  0.00000000000E+00 -0.19595041630E+03  0.19595041632E+03  0.25500000920E-02 0.  1.
    10030    2    1    2    0    0  0.00000000000E+00  0.00000000000E+00  0.10510907898E+03  0.49700991162E+03  0.48576839518E+03 0.  0.
        1    1    3    3  502    0 -0.99499190473E+02 -0.23380212035E+02 -0.17287590408E+03  0.20083028022E+03  0.50400001928E-02 0.  1.
       -1    1    3    3    0  502  0.99499190473E+02  0.23380212035E+02  0.27798498306E+03  0.29617963139E+03  0.50400001928E-02 0. -1.
</event>
<event>
 5   0  0.1529146E-01  0.4893965E+03  0.7818609E-02  0.1016584E+00
       -1   -1    0    0    0  501  0.00000000000E+00  0.00000000000E+00  0.66997880535E+03  0.66997880537E+03  0.50400001928E-02 0.  1.
        1   -1    0    0  501    0  0.00000000000E+00  0.00000000000E+00 -0.89371847632E+02  0.89371847774E+02  0.50400001928E-02 0. -1.
    10030    2    1    2    0    0  0.00000000000E+00  0.00000000000E+00  0.58060695771E+03  0.75935065314E+03  0.48939654175E+03 0.  0.
        1    1    3    3  502    0  0.21085148933E+03 -0.48734515800E+01  0.48282236200E+03  0.52687715300E+03  0.50400001928E-02 0.  1.
       -1    1    3    3    0  502 -0.21085148933E+03  0.48734515800E+01  0.97784595716E+02  0.23247350014E+03  0.50400001928E-02 0. -1.
</event>
<event>
 5   0  0.2466034E-01  0.5056960E+03  0.7818609E-02  0.1012303E+00
       -2   -1    0    0    0  501  0.00000000000E+00  0.00000000000E+00  0.60590976941E+02  0.60590976995E+02  0.25500000920E-02 0. -1.
        2   -1    0    0  501    0  0.00000000000E+00  0.00000000000E+00 -0.10551424634E+04  0.10551424634E+04  0.25500000920E-02 0.  1.
    10030    2    1    2    0    0  0.00000000000E+00  0.00000000000E+00 -0.99455148644E+03  0.11157334404E+04  0.50569600631E+03 0.  0.
        3    1    3    3  502    0  0.96038836623E+02  0.20204314143E+03 -0.23727267083E+03  0.32610308134E+03  0.10100000352E+00 0. -1.
       -3    1    3    3    0  502 -0.96038836623E+02 -0.20204314143E+03 -0.75727881561E+03  0.78963035904E+03  0.10100000352E+00 0.  1.
</event>
<event>
 5   0  0.1529146E-01  0.5007621E+03  0.7818609E-02  0.1013580E+00
       -1   -1    0    0    0  501  0.00000000000E+00  0.00000000000E+00  0.11419006347E+03  0.11419006358E+03  0.50400001928E-02 0.  1.
        1   -1    0    0  501    0  0.00000000000E+00  0.00000000000E+00 -0.54900288899E+03  0.54900288902E+03  0.50400001928E-02 0. -1.
    10030    2    1    2    0    0  0.00000000000E+00  0.00000000000E+00 -0.43481282553E+03  0.66319295259E+03  0.50076211830E+03 0.  0.
        1    1    3    3  502    0 -0.55356181653E+02 -0.23123445325E+02  0.10453109814E+03  0.12052282388E+03  0.50400001928E-02 0.  1.
       -1    1    3    3    0  502  0.55356181653E+02  0.23123445325E+02 -0.53934392367E+03  0.54267012871E+03  0.50400001928E-02 0. -1.
</event>
<event>
 5   0  0.1439814E-01  0.4888346E+03  0.7818609E-02  0.1016735E+00
       -1   -1    0    0    0  501  0.00000000000E+00  0.00000000000E+00  0.44081217057E+02  0.44081217345E+02  0.50400001928E-02 0. -1.
        1   -1    0    0  501    0  0.00000000000E+00  0.00000000000E+00 -0.13552215474E+04  0.13552215474E+04  0.50400001928E-02 0.  1.
    10030    2    1    2    0    0  0.00000000000E+00  0.00000000000E+00 -0.13111403304E+04  0.13993027648E+04  0.48883459534E+03 0.  0.
        4    1    3    3  502    0 -0.13301161517E+03 -0.81144046194E+02 -0.11946211950E+04  0.12047397472E+04  0.12699999809E+01 0.  1.
       -4    1    3    3    0  502  0.13301161517E+03  0.81144046194E+02 -0.11651913533E+03  0.19456301756E+03  0.12699999809E+01 0. -1.
</event>
<event>
 5   0  0.2511944E-01  0.5024425E+03  0.7818609E-02  0.1013143E+00
        2   -1    0    0  501    0  0.00000000000E+00  0.00000000000E+00  0.33507573995E+03  0.33507573996E+03  0.25500000920E-02 0.  1.
       -2   -1    0    0    0  501  0.00000000000E+00  0.00000000000E+00 -0.18835178207E+03  0.18835178209E+03  0.25500000920E-02 0. -1.
    10030    2    1    2    0    0  0.00000000000E+00  0.00000000000E+00  0.14672395787E+03  0.52342752205E+03  0.50244248529E+03 0.  0.
        1    1    3    3  502    0  0.14568272051E+03 -0.18067870451E+03  0.17352258850E+03  0.28979016213E+03  0.50400001928E-02 0. -1.
       -1    1    3    3    0  502 -0.14568272051E+03  0.18067870451E+03 -0.26798630627E+02  0.23363735992E+03  0.50400001928E-02 0.  1.
</event>
<event>
 5   0  0.1529146E-01  0.5075491E+03  0.7818609E-02  0.1011827E+00
       -1   -1    0    0    0  501  0.00000000000E+00  0.00000000000E+00  0.10076308901E+03  0.10076308913E+03  0.50400001928E-02 0. -1.
        1   -1    0    0  501    0  0.00000000000E+00  0.00000000000E+00 -0.63913803902E+03  0.63913803904E+03  0.50400001928E-02 0.  1.
    10030    2    1    2    0    0  0.00000000000E+00  0.00000000000E+00 -0.53837495001E+03  0.73990112817E+03  0.50754910371E+03 0.  0.
        1    1    3    3  502    0 -0.21468872864E+02  0.25285484298E+03 -0.26591505645E+03  0.36756945111E+03  0.50400001928E-02 0.  1.
       -1    1    3    3    0  502  0.21468872864E+02 -0.25285484298E+03 -0.27245989357E+03  0.37233167706E+03  0.50400001928E-02 0. -1.
</event>
<event>
 5   0  0.1529146E-01  0.5116550E+03  0.7818609E-02  0.1010781E+00
       -1   -1    0    0    0  501  0.00000000000E+00  0.00000000000E+00  0.50015137946E+02  0.50015138200E+02  0.50400001928E-02 0.  1.
        1   -1    0    0  501    0  0.00000000000E+00  0.00000000000E+00 -0.13085581675E+04  0.13085581676E+04  0.50400001928E-02 0. -1.
    10030    2    1    2    0    0  0.00000000000E+00  0.00000000000E+00 -0.12585430296E+04  0.13585733058E+04  0.51165503003E+03 0.  0.
        1    1    3    3  502    0  0.76657011693E+02  0.80934046819E+02 -0.12406782182E+04  0.12456761451E+04  0.50400001928E-02 0. -1.
       -1    1    3    3    0  502 -0.76657011693E+02 -0.80934046819E+02 -0.17864811442E+02  0.11289716068E+03  0.50400001928E-02 0.  1.
</event>
<event>
 5   0  0.2466034E-01  0.4878615E+03  0.7818609E-02  0.1016997E+00
        2   -1    0    0  501    0  0.00000000000E+00  0.00000000000E+00  0.15057939875E+03  0.15057939877E+03  0.25500000920E-02 0. -1.
       -2   -1    0    0    0  501  0.00000000000E+00  0.00000000000E+00 -0.39515504747E+03  0.39515504748E+03  0.25500000920E-02 0.  1.
    10030    2    1    2    0    0  0.00000000000E+00  0.00000000000E+00 -0.24457564872E+03  0.54573444624E+03  0.48786149456E+03 0.  0.
        3    1    3    3  502    0 -0.20102750215E+03  0.34435807264E+02 -0.27196780360E+03  0.33994761043E+03  0.10100000352E+00 0.  1.
       -3    1    3    3    0  502  0.20102750215E+03 -0.34435807264E+02  0.27392154879E+02  0.20578683581E+03  0.10100000352E+00 0. -1.
</event>
<event>
 5   0  0.2504064E-01  0.5137175E+03  0.7818609E-02  0.1010259E+00
        2   -1    0    0  501    0  0.00000000000E+00  0.00000000000E+00  0.15882347969E+03  0.15882347971E+03  0.25500000920E-02 0.  1.
       -2   -1    0    0    0  501  0.00000000000E+00  0.00000000000E+00 -0.41540712512E+03  0.41540712513E+03  0.25500000920E-02 0. -1.
    10030    2    1    2    0    0  0.00000000000E+00  0.00000000000E+00 -0.25658364544E+03  0.57423060484E+03  0.51371745194E+03 0.  0.
        5    1    3    3  502    0  0.34698633616E+02 -0.84871116479E+02 -0.39643957782E+03  0.40693184989E+03  0.46999998093E+01 0. -1.
       -5    1    3    3    0  502 -0.34698633616E+02  0.84871116479E+02  0.13985593239E+03  0.16729875495E+03  0.46999998093E+01 0.  1.
</event>
<event>
 5   0  0.9868500E-02  0.5247108E+03  0.7818609E-02  0.1007523E+00
       -3   -1    0    0    0  501  0.00000000000E+00  0.00000000000E+00  0.56188759331E+03  0.56188760239E+03  0.10100000352E+00 0. -1.
        3   -1    0    0  501    0  0.00000000000E+00  0.00000000000E+00 -0.12249843454E+03  0.12249847618E+03  0.10100000352E+00 0.  1.
    10030    2    1    2    0    0  0.00000000000E+00  0.00000000000E+00  0.43938915877E+03  0.68438607857E+03  0.52471084580E+03 0.  0.
        1    1    3    3  502    0  0.13059428051E+03  0.20068260325E+03  0.79810688310E+02  0.25238486354E+03  0.50400001928E-02 0. -1.
       -1    1    3    3    0  502 -0.13059428051E+03 -0.20068260325E+03  0.35957847046E+03  0.43200121503E+03  0.50400001928E-02 0.  1.
</event>
<event>
 5   0  0.2488968E-01  0.4995798E+03  0.7818609E-02  0.1013889E+00
       -2   -1    0    0    0  501  0.00000000000E+00  0.00000000000E+00  0.51208897926E+03  0.51208897927E+03  0.25500000920E-02 0. -1.
        2   -1    0    0  501    0  0.00000000000E+00  0.00000000000E+00 -0.12184405534E+03  0.12184405537E+03  0.25500000920E-02 0.  1.
    10030    2    1    2    0    0  0.00000000000E+00  0.00000000000E+00  0.39024492392E+03  0.63393303464E+03  0.49957981520E+03 0.  0.
        2    1    3    3  502    0  0.19523269284E+02  0.24222356170E+02 -0.11937603072E+03  0.12336335477E+03  0.25500000920E-02 0.  1.
       -2    1    3    3    0  502 -0.19523269284E+02 -0.24222356170E+02  0.50962095465E+03  0.51056967987E+03  0.25500000920E-02 0. -1.
</event>
<event>
 5   0  0.2488968E-01  0.5063358E+03  0.7818609E-02  0.1012138E+00
        2   -1    0    0  501    0  0.00000000000E+00  0.00000000000E+00  0.13457672651E+04  0.13457672651E+04  0.25500000920E-02 0. -1.
       -2   -1    0    0    0  501  0.00000000000E+00  0.00000000000E+00 -0.47626348701E+02  0.47626348770E+02  0.25500000920E-02 0.  1.
    10030    2    1    2    0    0  0.00000000000E+00  0.00000000000E+00  0.12981409164E+04  0.13933936138E+04  0.50633578221E+03 0.  0.
        2    1    3    3  502    0 -0.11722289122E+03  0.16885340841E+03  0.10557707194E+04  0.10755949478E+04  0.25500000920E-02 0. -1.
       -2    1    3    3    0  502  0.11722289122E+03 -0.16885340841E+03  0.24237019694E+03  0.31779866603E+03  0.25500000920E-02 0.  1.
</event>
<event>
 5   0  0.2466034E-01  0.5029052E+03  0.7818609E-02  0.1013023E+00
       -2   -1    0    0    0  501  0.00000000000E+00  0.00000000000E+00  0.41444114840E+03  0.41444114840E+03  0.25500000920E-02 0. -1.
        2   -1    0    0  501    0  0.00000000000E+00  0.00000000000E+00 -0.15256304001E+03  0.15256304003E+03  0.25500000920E-02 0.  1.
    10030    2    1    2    0    0  0.00000000000E+00  0.00000000000E+00  0.26187810838E+03  0.56700418844E+03  0.50290516606E+03 0.  0.
        3    1    3    3  502    0 -0.15520650964E+03 -0.16794088056E+03  0.13039174248E+02  0.22904853255E+03  0.10100000352E+00 0.  1.
       -3    1    3    3    0  502  0.15520650964E+03  0.16794088056E+03  0.24883893414E+03  0.33795565588E+03  0.10100000352E+00 0. -1.
</event>
<event>
 5   0  0.1453602E-01  0.4431406E+03  0.7818609E-02  0.1029788E+00
        1   -1    0    0  501    0  0.00000000000E+00  0.00000000000E+00  0.74541006353E+02  0.74541006523E+02  0.50400001928E-02 0.  1.
       -1   -1    0    0    0  501  0.00000000000E+00  0.00000000000E+00 -0.65860913619E+03  0.65860913621E+03  0.50400001928E-02 0. -1.
    10030    2    1    2    0    0  0.00000000000E+00  0.00000000000E+00 -0.58406812983E+03  0.73315014273E+03  0.44314055501E+03 0.  0.
        2    1    3    3  502    0 -0.13801248157E+03  0.10232699261E+03 -0.52350888050E+03  0.55098076777E+03  0.25500000920E-02 0. -1.
       -2    1    3    3    0  502  0.13801248157E+03 -0.10232699261E+03 -0.60559249335E+02  0.18216937496E+03  0.25500000920E-02 0.  1.
</event>
<event>
 5   0  0.2511944E-01  0.5030585E+03  0.7818609E-02  0.1012984E+00
       -2   -1    0    0    0  501  0.00000000000E+00  0.00000000000E+00  0.43192581804E+02  0.43192581879E+02  0.25500000920E-02 0. -1.
        2   -1    0    0  501    0  0.00000000000E+00  0.00000000000E+00 -0.14647642817E+04  0.14647642817E+04  0.25500000920E-02 0.  1.
    10030    2    1    2    0    0  0.00000000000E+00  0.00000000000E+00 -0.14215716999E+04  0.15079568635E+04  0.50305845035E+03 0.  0.
        1    1    3    3  502    0 -0.87064214524E+02 -0.23488836957E+03 -0.77876067684E+03  0.81805923712E+03  0.50400001928E-02 0. -1.
       -1    1    3    3    0  502  0.87064214524E+02  0.23488836957E+03 -0.64281102302E+03  0.68989762643E+03  0.50400001928E-02 0.  1.
</event>
<event>
 5   0  0.1529146E-01  0.5212208E+03  0.7818609E-02  0.1008384E+00
        1   -1    0    0  501    0  0.00000000000E+00  0.00000000000E+00  0.13555476536E+03  0.13555476545E+03  0.50400001928E-02 0.  1.
       -1   -1    0    0    0  501  0.00000000000E+00  0.00000000000E+00 -0.50103571332E+03  0.50103571334E+03  0.50400001928E-02 0. -1.
    10030    2    1    2    0    0  0.00000000000E+00  0.00000000000E+00 -0.36548094796E+03  0.63659047879E+03  0.52122079234E+03 0.  0.
        1    1    3    3  502    0 -0.21932216568E+03 -0.40692510836E+02 -0.34732635302E+03  0.41278770370E+03  0.50400001928E-02 0. -1.
       -1    1    3    3    0  502  0.21932216568E+03  0.40692510836E+02 -0.18154594942E+02  0.22380277510E+03  0.50400001928E-02 0.  1.
</event>
<event>
 5   0  0.1413361E-01  0.4963901E+03  0.7818609E-02  0.1014725E+00
        1   -1    0    0  501    0  0.00000000000E+00  0.00000000000E+00  0.71866860635E+03  0.71866860637E+03  0.50400001928E-02 0.  1.
       -1   -1    0    0    0  501  0.00000000000E+00  0.00000000000E+00 -0.85715156255E+02  0.85715156404E+02  0.50400001928E-02 0. -1.
    10030    2    1    2    0    0  0.00000000000E+00  0.00000000000E+00  0.63295345010E+03  0.80438376277E+03  0.49639013671E+03 0.  0.
        3    1    3    3  502    0  0.17560943789E+03 -0.17428829076E+03  0.28465202750E+03  0.37714966516E+03  0.10100000352E+00 0. -1.
       -3    1    3    3    0  502 -0.17560943789E+03  0.17428829076E+03  0.34830142260E+03  0.42723409761E+03  0.10100000352E+00 0.  1.
</event>
<event>
 5   0  0.1439814E-01  0.5010296E+03  0.7818609E-02  0.1013511E+00
       -1   -1    0    0    0  501  0.00000000000E+00  0.00000000000E+00  0.80158580654E+02  0.80158580812E+02  0.50400001928E-02 0.  1.
        1   -1    0    0  501    0  0.00000000000E+00  0.00000000000E+00 -0.78291887280E+03  0.78291887281E+03  0.50400001928E-02 0. -1.
    10030    2    1    2    0    0  0.00000000000E+00  0.00000000000E+00 -0.70276029214E+03  0.86307745363E+03  0.50102960266E+03 0.  0.
        4    1    3    3  502    0  0.99455867826E+02  0.10557008132E+03  0.46871247540E+00  0.14504600755E+03  0.12699999809E+01 0.  1.
       -4    1    3    3    0  502 -0.99455867826E+02 -0.10557008132E+03 -0.70322900462E+03  0.71803144607E+03  0.12699999809E+01 0. -1.
</event>
<event>
 5   0  0.2413301E-01  0.5031132E+03  0.7818609E-02  0.1012970E+00
        2   -1    0    0  501    0  0.00000000000E+00  0.00000000000E+00  0.68306703672E+03  0.68306703673E+03  0.25500000920E-02 0.  1.
       -2   -1    0    0    0  501  0.00000000000E+00  0.00000000000E+00 -0.92642034916E+02  0.92642034951E+02  0.25500000920E-02 0. -1.
    10030    2    1    2    0    0  0.00000000000E+00  0.00000000000E+00  0.59042500181E+03  0.77570907168E+03  0.50311318918E+03 0.  0.
        4    1    3    3  502    0 -0.31112212769E+02 -0.16935531681E+03  0.12466775482E+02  0.17264479866E+03  0.12699999809E+01 0. -1.
       -4    1    3    3    0  502  0.31112212769E+02  0.16935531681E+03  0.57795822633E+03  0.60306427302E+03  0.12699999809E+01 0.  1.
</event>
<event>
 5   0  0.1413361E-01  0.4942002E+03  0.7818609E-02  0.1015304E+00
        1   -1    0    0  501    0  0.00000000000E+00  0.00000000000E+00  0.78784645477E+03  0.78784645478E+03  0.50400001928E-02 0.  1.
       -1   -1    0    0    0  501  0.00000000000E+00  0.00000000000E+00 -0.77500461055E+02  0.77500461219E+02  0.50400001928E-02 0. -1.
    10030    2    1    2    0    0  0.00000000000E+00  0.00000000000E+00  0.71034599371E+03  0.86534691600E+03  0.49420021677E+03 0.  0.
        3    1    3    3  502    0 -0.20863617089E+03  0.13239058527E+03  0.35261479752E+03  0.43057348328E+03  0.10100000352E+00 0. -1.
       -3    1    3    3    0  502  0.20863617089E+03 -0.13239058527E+03  0.35773119619E+03  0.43477343272E+03  0.10100000352E+00 0.  1.
</event>
<event>
 5   0  0.2504064E-01  0.4993545E+03  0.7818609E-02  0.1013948E+00
       -2   -1    0    0    0  501  0.00000000000E+00  0.00000000000E+00  0.28594725637E+03  0.28594725638E+03  0.25500000920E-02 0. -1.
        2   -1    0    0  501    0  0.00000000000E+00  0.00000000000E+00 -0.21800777554E+03  0.21800777555E+03  0.25500000920E-02 0.  1.
    10030    2    1    2    0    0  0.00000000000E+00  0.00000000000E+00  0.67939480826E+02  0.50395503193E+03  0.49935448446E+03 0.  0.
        5    1    3    3  502    0  0.74884818275E+02 -0.14232684859E+03  0.22665270445E+03  0.27795360453E+03  0.46999998093E+01 0. -1.
       -5    1    3    3    0  502 -0.74884818275E+02  0.14232684859E+03 -0.15871322362E+03  0.22600142740E+03  0.46999998093E+01 0.  1.
</event>
<event>
 5   0  0.1413361E-01  0.5032753E+03  0.7818609E-02  0.1012928E+00
        1   -1    0    0  501    0  0.00000000000E+00  0.00000000000E+00  0.34025836400E+03  0.34025836404E+03  0.50400001928E-02 0.  1.
       -1   -1    0    0    0  501  0.00000000000E+00  0.00000000000E+00 -0.18609830618E+03  0.18609830625E+03  0.50400001928E-02 0. -1.
    10030    2    1    2    0    0  0.00000000000E+00  0.00000000000E+00  0.15416005782E+03  0.52635667028E+03  0.50327529338E+03 0.  0.
        3    1    3    3  502    0 -0.11999220342E+03  0.10242085601E+03  0.28211528858E+03  0.32322934099E+03  0.10100000352E+00 0.  1.
       -3    1    3    3    0  502  0.11999220342E+03 -0.10242085601E+03 -0.12795523076E+03  0.20312732929E+03  0.10100000352E+00 0. -1.
</event>
<event>
 5   0  0.2511944E-01  0.5002329E+03  0.7818609E-02  0.1013718E+00
       -2   -1    0    0    0  501  0.00000000000E+00  0.00000000000E+00  0.77651587625E+02  0.77651587666E+02  0.25500000920E-02 0. -1.
        2   -1    0    0  501    0  0.00000000000E+00  0.00000000000E+00 -0.80562719963E+03  0.80562719964E+03  0.25500000920E-02 0.  1.
    10030    2    1    2    0    0  0.00000000000E+00  0.00000000000E+00 -0.72797561201E+03  0.88327878730E+03  0.50023287019E+03 0.  0.
        1    1    3    3  502    0  0.51358862457E+02 -0.13058433712E+03 -0.72957699711E+03  0.74294858274E+03  0.50400001928E-02 0.  1.
       -1    1    3    3    0  502 -0.51358862457E+02  0.13058433712E+03  0.16013851044E+01  0.14033020456E+03  0.50400001928E-02 0. -1.
</event>
<event>
 5   0  0.1413361E-01  0.4984223E+03  0.7818609E-02  0.1014192E+00
        1   -1    0    0  501    0  0.00000000000E+00  0.00000000000E+00  0.16974414664E+03  0.16974414672E+03  0.50400001928E-02 0.  1.
       -1   -1    0    0    0  501  0.00000000000E+00  0.00000000000E+00 -0.36588120634E+03  0.36588120637E+03  0.50400001928E-02 0. -1.
    10030    2    1    2    0    0  0.00000000000E+00  0.00000000000E+00 -0.19613705970E+03  0.53562535309E+03  0.49842228350E+03 0.  0.
        3    1    3    3  502    0  0.24833564082E+03 -0.14447665147E+02 -0.11425455419E+03  0.27373972836E+03  0.10100000352E+00 0. -1.
       -3    1    3    3    0  502 -0.24833564082E+03  0.14447665147E+02 -0.81882505511E+02  0.26188562473E+03  0.10100000352E+00 0.  1.
</event>
<event>
 5   0  0.2504064E-01  0.5008375E+03  0.7818609E-02  0.1013561E+00
       -2   -1    0    0    0  501  0.00000000000E+00  0.00000000000E+00  0.24740550266E+03  0.24740550267E+03  0.25500000920E-02 0.  1.
        2   -1    0    0  501    0  0.00000000000E+00  0.00000000000E+00 -0.25346869906E+03  0.25346869908E+03  0.25500000920E-02 0. -1.
    10030    2    1    2    0    0  0.00000000000E+00  0.00000000000E+00 -0.60631964050E+01  0.50087420175E+03  0.50083750222E+03 0.  0.
        5    1    3    3  502    0 -0.11436144715E+03  0.91663295032E+02 -0.20604095720E+03  0.25289457545E+03  0.46999998093E+01 0. -1.
       -5    1    3    3    0  502  0.11436144715E+03 -0.91663295032E+02  0.19997776079E+03  0.24797962630E+03  0.46999998093E+01 0.  1.
</event>
<event>
 5   0  0.2466034E-01  0.4944756E+03  0.7818609E-02  0.1015231E+00
       -2   -1    0    0    0  501  0.00000000000E+00  0.00000000000E+00  0.93469046781E+02  0.93469046816E+02  0.25500000920E-02 0. -1.
        2   -1    0    0  501    0  0.00000000000E+00  0.00000000000E+00 -0.65397624475E+03  0.65397624476E+03  0.25500000920E-02 0.  1.
    10030    2    1    2    0    0  0.00000000000E+00  0.00000000000E+00 -0.56050719797E+03  0.74744529157E+03  0.49447562621E+03 0.  0.
        3    1    3    3  502    0  0.15966266316E+03 -0.11855385861E+03 -0.58202142238E+02  0.20720686031E+03  0.10100000352E+00 0. -1.
       -3    1    3    3    0  502 -0.15966266316E+03  0.11855385861E+03 -0.50230505573E+03  0.54023843126E+03  0.10100000352E+00 0.  1.
</event>
<event>
 5   0  0.9868500E-02  0.4991593E+03  0.7818609E-02  0.1013999E+00
        3   -1    0    0  501    0  0.00000000000E+00  0.00000000000E+00  0.33531690237E+03  0.33531691758E+03  0.10100000352E+00 0.  1.
       -3   -1    0    0    0  501  0.00000000000E+00  0.00000000000E+00 -0.18576453037E+03  0.18576455783E+03  0.10100000352E+00 0. -1.
    10030    2    1    2    0    0  0.00000000000E+00  0.00000000000E+00  0.14955237200E+03  0.52108147541E+03  0.49915928524E+03 0.  0.
        4    1    3    3  502    0 -0.67580094776E+02 -0.15580135264E+02  0.32505234279E+03  0.33237094981E+03  0.12699999809E+01 0.  1.
       -4    1    3    3    0  502  0.67580094776E+02  0.15580135264E+02 -0.17549997079E+03  0.18871052560E+03  0.12699999809E+01 0. -1.
</event>
<event>
 5   0  0.2466034E-01  0.4313013E+03  0.7818609E-02  0.1033450E+00
       -2   -1    0    0    0  501  0.00000000000E+00  0.00000000000E+00  0.26042034585E+03  0.26042034586E+03  0.25500000920E-02 0. -1.
        2   -1    0    0  501    0  0.00000000000E+00  0.00000000000E+00 -0.17857745266E+03  0.17857745267E+03  0.25500000920E-02 0.  1.
    10030    2    1    2    0    0  0.00000000000E+00  0.00000000000E+00  0.81842893193E+02  0.43899779853E+03  0.43130129602E+03 0.  0.
        3    1    3    3  502    0 -0.80338391802E+02 -0.17567063598E+03  0.13850066720E+03  0.23769071197E+03  0.10100000352E+00 0. -1.
       -3    1    3    3    0  502  0.80338391802E+02  0.17567063598E+03 -0.56657774004E+02  0.20130708656E+03  0.10100000352E+00 0.  1.
</event>
<event>
 5   0  0.1439814E-01  0.5099296E+03  0.7818609E-02  0.1011219E+00
       -1   -1    0    0    0  501  0.00000000000E+00  0.00000000000E+00  0.11481206949E+03  0.11481206960E+03  0.50400001928E-02 0. -1.
        1   -1    0    0  501    0  0.00000000000E+00  0.00000000000E+00 -0.56620389061E+03  0.56620389063E+03  0.50400001928E-02 0.  1.
    10030    2    1    2    0    0  0.00000000000E+00  0.00000000000E+00 -0.45139182112E+03  0.68101596023E+03  0.50992956565E+03 0.  0.
        4    1    3    3  502    0  0.15820713291E+03 -0.10216999611E+03 -0.45522192993E+03  0.49264269344E+03  0.12699999809E+01 0.  1.
       -4    1    3    3    0  502 -0.15820713291E+03  0.10216999611E+03  0.38301088137E+01  0.18837326679E+03  0.12699999809E+01 0. -1.
</event>
<event>
 5   0  0.1439814E-01  0.4720485E+03  0.7818609E-02  0.1021344E+00
       -1   -1    0    0    0  501  0.00000000000E+00  0.00000000000E+00  0.11658254321E+03  0.11658254332E+03  0.50400001928E-02 0. -1.
        1   -1    0    0  501    0  0.00000000000E+00  0.00000000000E+00 -0.47783686092E+03  0.47783686094E+03  0.50400001928E-02 0.  1.
    10030    2    1    2    0    0  0.00000000000E+00  0.00000000000E+00 -0.36125431770E+03  0.59441940427E+03  0.47204845738E+03 0.  0.
        4    1    3    3  502    0  0.20607120815E+03 -0.70068472628E+02 -0.65692213414E+02  0.22735877702E+03  0.12699999809E+01 0.  1.
       -4    1    3    3    0  502 -0.20607120815E+03  0.70068472628E+02 -0.29556210429E+03  0.36706062725E+03  0.12699999809E+01 0. -1.
</event>
<event>
 5   0  0.1529146E-01  0.5032406E+03  0.7818609E-02  0.1012937E+00
       -1   -1    0    0    0  501  0.00000000000E+00  0.00000000000E+00  0.21840275948E+03  0.21840275954E+03  0.50400001928E-02 0. -1.
        1   -1    0    0  501    0  0.00000000000E+00  0.00000000000E+00 -0.28989001213E+03  0.28989001217E+03  0.50400001928E-02 0.  1.
    10030    2    1    2    0    0  0.00000000000E+00  0.00000000000E+00 -0.71487252648E+02  0.50829277171E+03  0.50324061291E+03 0.  0.
        1    1    3    3  502    0  0.48720772674E+02 -0.24482815837E+02  0.21236374554E+03  0.21925209783E+03  0.50400001928E-02 0. -1.
       -1    1    3    3    0  502 -0.48720772674E+02  0.24482815837E+02 -0.28385099818E+03  0.28904067388E+03  0.50400001928E-02 0.  1.
</event>
<event>
 5   0  0.1448458E-01  0.5123676E+03  0.7818609E-02  0.1010600E+00
        1   -1    0    0  501    0  0.00000000000E+00  0.00000000000E+00  0.59245332553E+03  0.59245332555E+03  0.50400001928E-02 0.  1.
       -1   -1    0    0    0  501  0.00000000000E+00  0.00000000000E+00 -0.11077691196E+03  0.11077691208E+03  0.50400001928E-02 0. -1.
    10030    2    1    2    0    0  0.00000000000E+00  0.00000000000E+00  0.48167641357E+03  0.70323023763E+03  0.51236764118E+03 0.  0.
        5    1    3    3  502    0 -0.10306118444E+03  0.10066071468E+03 -0.49842237716E+02  0.15251401862E+03  0.46999998093E+01 0. -1.
       -5    1    3    3    0  502  0.10306118444E+03 -0.10066071468E+03  0.53151865129E+03  0.55071621901E+03  0.46999998093E+01 0.  1.
</event>
<event>
 5   0  0.1413361E-01  0.5045864E+03  0.7818609E-02  0.1012589E+00
       -1   -1    0    0    0  501  0.00000000000E+00  0.00000000000E+00  0.12303869268E+03  0.12303869278E+03  0.50400001928E-02 0.  1.
        1   -1    0    0  501    0  0.00000000000E+00  0.00000000000E+00 -0.51733203904E+03  0.51733203906E+03  0.50400001928E-02 0. -1.
    10030    2    1    2    0    0  0.00000000000E+00  0.00000000000E+00 -0.39429334636E+03  0.64037073184E+03  0.50458639618E+03 0.  0.
        3    1    3    3  502    0 -0.37725920456E+02 -0.23745066147E+03 -0.29417921079E+03  0.37993088841E+03  0.10100000352E+00 0.  1.
       -3    1    3    3    0  502  0.37725920456E+02  0.23745066147E+03 -0.10011413557E+03  0.26043984343E+03  0.10100000352E+00 0. -1.
</event>
<event>
 5   0  0.1453602E-01  0.5210301E+03  0.7818609E-02  0.1008431E+00
       -1   -1    0    0    0  501  0.00000000000E+00  0.00000000000E+00  0.73849763531E+02  0.73849763703E+02  0.50400001928E-02 0. -1.
        1   -1    0    0  501    0  0.00000000000E+00  0.00000000000E+00 -0.91900199608E+03  0.91900199610E+03  0.50400001928E-02 0.  1.
    10030    2    1    2    0    0  0.00000000000E+00  0.00000000000E+00 -0.84515223255E+03  0.99285175980E+03  0.52103005743E+03 0.  0.
        2    1    3    3  502    0 -0.63351514929E+02  0.50278454704E+02  0.49320193669E+02  0.94730243118E+02  0.25500000920E-02 0. -1.
       -2    1    3    3    0  502  0.63351514929E+02 -0.50278454704E+02 -0.89447242622E+03  0.89812151668E+03  0.25500000920E-02 0.  1.
</event>
<event>
 5   0  0.1453602E-01  0.4985069E+03  0.7818609E-02  0.1014169E+00
        1   -1    0    0  501    0  0.00000000000E+00  0.00000000000E+00  0.14804883065E+04  0.14804883065E+04  0.50400001928E-02 0. -1.
       -1   -1    0    0    0  501  0.00000000000E+00  0.00000000000E+00 -0.41964049370E+02  0.41964049673E+02  0.50400001928E-02 0.  1.
    10030    2    1    2    0    0  0.00000000000E+00  0.00000000000E+00  0.14385242572E+04  0.15224523562E+04  0.49850690917E+03 0.  0.
        2    1    3    3  502    0  0.15923709814E+03 -0.11747587150E+03  0.11821282529E+04  0.11985759217E+04  0.25500000920E-02 0. -1.
       -2    1    3    3    0  502 -0.15923709814E+03  0.11747587150E+03  0.25639600422E+03  0.32387643446E+03  0.25500000920E-02 0.  1.
</event>
<event>
 5   0  0.2488968E-01  0.4989398E+03  0.7818609E-02  0.1014056E+00
        2   -1    0    0  501    0  0.00000000000E+00  0.00000000000E+00  0.45276312574E+03  0.45276312575E+03  0.25500000920E-02 0. -1.
       -2   -1    0    0    0  501  0.00000000000E+00  0.00000000000E+00 -0.13745648147E+03  0.13745648150E+03  0.25500000920E-02 0.  1.
    10030    2    1    2    0    0  0.00000000000E+00  0.00000000000E+00  0.31530664427E+03  0.59021960725E+03  0.49893978079E+03 0.  0.
        2    1    3    3  502    0 -0.10809524020E+03  0.42432741288E+02 -0.10353472047E+03  0.15557813740E+03  0.25500000920E-02 0.  1.
       -2    1    3    3    0  502  0.10809524020E+03 -0.42432741288E+02  0.41884136474E+03  0.43464146985E+03  0.25500000920E-02 0. -1.
</event>
<event>
 5   0  0.1413361E-01  0.4980998E+03  0.7818609E-02  0.1014276E+00
        1   -1    0    0  501    0  0.00000000000E+00  0.00000000000E+00  0.56628108789E+03  0.56628108791E+03  0.50400001928E-02 0. -1.
       -1   -1    0    0    0  501  0.00000000000E+00  0.00000000000E+00 -0.10953189574E+03  0.10953189585E+03  0.50400001928E-02 0.  1.
    10030    2    1    2    0    0  0.00000000000E+00  0.00000000000E+00  0.45674919215E+03  0.67581298376E+03  0.49809975356E+03 0.  0.
        3    1    3    3  502    0  0.14458029269E+03  0.16197636059E+02  0.50263266887E+03  0.52326421095E+03  0.10100000352E+00 0. -1.
       -3    1    3    3    0  502 -0.14458029269E+03 -0.16197636059E+02 -0.45883476722E+02  0.15254877281E+03  0.10100000352E+00 0.  1.
</event>
<event>
 5   0  0.1529146E-01  0.5040254E+03  0.7818609E-02  0.1012734E+00
        1   -1    0    0  501    0  0.00000000000E+00  0.00000000000E+00  0.13317173202E+04  0.13317173203E+04  0.50400001928E-02 0. -1.
       -1   -1    0    0    0  501  0.00000000000E+00  0.00000000000E+00 -0.47690599416E+02  0.47690599682E+02  0.50400001928E-02 0.  1.
    10030    2    1    2    0    0  0.00000000000E+00  0.00000000000E+00  0.12840267208E+04  0.13794079199E+04  0.50402538605E+03 0.  0.
        1    1    3    3  502    0 -0.16974654481E+03  0.18153573588E+03  0.52781097472E+03  0.58339826700E+03  0.50400001928E-02 0. -1.
       -1    1    3    3    0  502  0.16974654481E+03 -0.18153573588E+03  0.75621574611E+03  0.79600965294E+03  0.50400001928E-02 0.  1.
</event>
<event>
 5   0  0.2488968E-01  0.5019788E+03  0.7818609E-02  0.1013264E+00
       -2   -1    0    0    0  501  0.00000000000E+00  0.00000000000E+00  0.20378673558E+03  0.20378673560E+03  0.25500000920E-02 0.  1.
        2   -1    0    0  501    0  0.00000000000E+00  0.00000000000E+00 -0.30912555925E+03  0.30912555926E+03  0.25500000920E-02 0. -1.
    10030    2    1    2    0    0  0.00000000000E+00  0.00000000000E+00 -0.10533882367E+03  0.51291229486E+03  0.50197883865E+03 0.  0.
        2    1    3    3  502    0 -0.20242243159E+03  0.11729326171E+03  0.40212301407E+02  0.23738066316E+03  0.25500000920E-02 0.  1.
       -2    1    3    3    0  502  0.20242243159E+03 -0.11729326171E+03 -0.14555112507E+03  0.27553163170E+03  0.25500000920E-02 0. -1.
</event>
<event>
 5   0  0.1453602E-01  0.5018124E+03  0.7818609E-02  0.1013307E+00
       -1   -1    0    0    0  501  0.00000000000E+00  0.00000000000E+00  0.99236701625E+02  0.99236701753E+02  0.50400001928E-02 0.  1.
        1   -1    0    0  501    0  0.00000000000E+00  0.00000000000E+00 -0.63438144412E+03  0.63438144414E+03  0.50400001928E-02 0. -1.
    10030    2    1    2    0    0  0.00000000000E+00  0.00000000000E+00 -0.53514474249E+03  0.73361814589E+03  0.50181240376E+03 0.  0.
        2    1    3    3  502    0  0.11817260089E+03 -0.15632669938E+03 -0.49664032780E+03  0.53390487518E+03  0.25500000920E-02 0. -1.
       -2    1    3    3    0  502 -0.11817260089E+03  0.15632669938E+03 -0.38504414697E+02  0.19971327071E+03  0.25500000920E-02 0.  1.
</event>
<event>
 5   0  0.1413361E-01  0.5079547E+03  0.7818609E-02  0.1011723E+00
       -1   -1    0    0    0  501  0.00000000000E+00  0.00000000000E+00  0.50192861234E+02  0.50192861487E+02  0.50400001928E-02 0. -1.
        1   -1    0    0  501    0  0.00000000000E+00  0.00000000000E+00 -0.12851329750E+04  0.12851329750E+04  0.50400001928E-02 0.  1.
    10030    2    1    2    0    0  0.00000000000E+00  0.00000000000E+00 -0.12349401138E+04  0.13353258365E+04  0.50795472734E+03 0.  0.
        3    1    3    3  502    0  0.68675632760E+02  0.97914356944E+02 -0.28466232169E+02  0.12293860421E+03  0.10100000352E+00 0. -1.
       -3    1    3    3    0  502 -0.68675632760E+02 -0.97914356944E+02 -0.12064738816E+04  0.12123872323E+04  0.10100000352E+00 0.  1.
</event>
<event>
 5   0  0.2511944E-01  0.4994063E+03  0.7818609E-02  0.1013934E+00
        2   -1    0    0  501    0  0.00000000000E+00  0.00000000000E+00  0.23576338277E+03  0.23576338279E+03  0.25500000920E-02 0.  1.
       -2   -1    0    0    0  501  0.00000000000E+00  0.00000000000E+00 -0.26446715067E+03  0.26446715068E+03  0.25500000920E-02 0. -1.
    10030    2    1    2    0    0  0.00000000000E+00  0.00000000000E+00 -0.28703767898E+02  0.50023053347E+03  0.49940632788E+03 0.  0.
        1    1    3    3  502    0  0.12811945665E+03 -0.10252670168E+03  0.17417497551E+03  0.23929739207E+03  0.50400001928E-02 0.  1.
       -1    1    3    3    0  502 -0.12811945665E+03  0.10252670168E+03 -0.20287874341E+03  0.26093314140E+03  0.50400001928E-02 0. -1.
</event>
<event>
 5   0  0.2488968E-01  0.4928534E+03  0.7818609E-02  0.1015661E+00
        2   -1    0    0  501    0  0.00000000000E+00  0.00000000000E+00  0.10363717981E+04  0.10363717981E+04  0.25500000920E-02 0.  1.
       -2   -1    0    0    0  501  0.00000000000E+00  0.00000000000E+00 -0.58594906364E+02  0.58594906420E+02  0.25500000920E-02 0. -1.
    10030    2    1    2    0    0  0.00000000000E+00  0.00000000000E+00  0.97777689172E+03  0.10949667045E+04  0.49285335953E+03 0.  0.
        2    1    3    3  502    0 -0.20012032368E+01 -0.23079533599E+03  0.29705471445E+03  0.37618080136E+03  0.25500000920E-02 0. -1.
       -2    1    3    3    0  502  0.20012032368E+01  0.23079533599E+03  0.68072217726E+03  0.71878590314E+03  0.25500000920E-02 0.  1.
</event>
<event>
 5   0  0.2413301E-01  0.4960256E+03  0.7818609E-02  0.1014822E+00
        2   -1    0    0  501    0  0.00000000000E+00  0.00000000000E+00  0.13355833306E+04  0.13355833306E+04  0.25500000920E-02 0. -1.
       -2   -1    0    0    0  501  0.00000000000E+00  0.00000000000E+00 -0.46055040163E+02  0.46055040234E+02  0.25500000920E-02 0.  1.
    10030    2    1    2    0    0  0.00000000000E+00  0.00000000000E+00  0.12895282904E+04  0.13816383708E+04  0.49602557991E+03 0.  0.
        4    1    3    3  502    0 -0.10773066047E+03 -0.15925204152E+02  0.24114453750E+02  0.11154652443E+03  0.12699999809E+01 0.  1.
       -4    1    3    3    0  502  0.10773066047E+03  0.15925204152E+02  0.12654138367E+04  0.12700918464E+04  0.12699999809E+01 0. -1.
</event>
<event>
 5   0  0.2504064E-01  0.5035695E+03  0.7818609E-02  0.1012851E+00
        2   -1    0    0  501    0  0.00000000000E+00  0.00000000000E+00  0.37941876103E+03  0.37941876103E+03  0.25500000920E-02 0.  1.
       -2   -1    0    0    0  501  0.00000000000E+00  0.00000000000E+00 -0.16708598905E+03  0.16708598907E+03  0.25500000920E-02 0. -1.
    10030    2    1    2    0    0  0.00000000000E+00  0.00000000000E+00  0.21233277197E+03  0.54650475011E+03  0.50356949455E+03 0.  0.
        5    1    3    3  502    0 -0.24267746268E+03 -0.53266296895E+02  0.62165480304E+02  0.25615676102E+03  0.46999998093E+01 0. -1.
       -5    1    3    3    0  502  0.24267746268E+03  0.53266296895E+02  0.15016729167E+03  0.29034798908E+03  0.46999998093E+01 0.  1.
</event>
<event>
 5   0  0.2413301E-01  0.5081714E+03  0.7818609E-02  0.1011668E+00
       -2   -1    0    0    0  501  0.00000000000E+00  0.00000000000E+00  0.35666723651E+03  0.35666723652E+03  0.25500000920E-02 0. -1.
        2   -1    0    0  501    0  0.00000000000E+00  0.00000000000E+00 -0.18100779633E+03  0.18100779635E+03  0.25500000920E-02 0.  1.
    10030    2    1    2    0    0  0.00000000000E+00  0.00000000000E+00  0.17565944018E+03  0.53767503287E+03  0.50817142978E+03 0.  0.
        4    1    3    3  502    0 -0.90209135647E+02 -0.12968378780E+03  0.29838696279E+03  0.33762696195E+03  0.12699999809E+01 0. -1.
       -4    1    3    3    0  502  0.90209135647E+02  0.12968378780E+03 -0.12272752261E+03  0.20004807092E+03  0.12699999809E+01 0.  1.
</event>
<event>
 5   0  0.2511944E-01  0.4927904E+03  0.7818609E-02  0.1015678E+00
        2   -1    0    0  501    0  0.00000000000E+00  0.00000000000E+00  0.12200871891E+04  0.12200871891E+04  0.25500000920E-02 0. -1.
       -2   -1    0    0    0  501  0.00000000000E+00  0.00000000000E+00 -0.49759232161E+02  0.49759232227E+02  0.25500000920E-02 0.  1.
    10030    2    1    2    0    0  0.00000000000E+00  0.00000000000E+00  0.11703279569E+04  0.12698464213E+04  0.49279042905E+03 0.  0.
        1    1    3    3  502    0  0.14153252861E+03 -0.19496990207E+03  0.71821230744E+03  0.75754447919E+03  0.50400001928E-02 0. -1.
       -1    1    3    3    0  502 -0.14153252861E+03  0.19496990207E+03  0.45211564948E+03  0.51230194211E+03  0.50400001928E-02 0.  1.
</event>
<event>
 5   0  0.1453602E-01  0.4976475E+03  0.7818609E-02  0.1014395E+00
       -1   -1    0    0    0  501  0.00000000000E+00  0.00000000000E+00  0.18227754913E+03  0.18227754920E+03  0.50400001928E-02 0.  1.
        1   -1    0    0  501    0  0.00000000000E+00  0.00000000000E+00 -0.33966479589E+03  0.33966479593E+03  0.50400001928E-02 0. -1.
    10030    2    1    2    0    0  0.00000000000E+00  0.00000000000E+00 -0.15738724676E+03  0.52194234513E+03  0.49764753209E+03 0.  0.
        2    1    3    3  502    0 -0.14293967764E+03  0.19590674518E+02 -0.29131628255E+03  0.32508571555E+03  0.25500000920E-02 0. -1.
       -2    1    3    3    0  502  0.14293967764E+03 -0.19590674518E+02  0.13392903579E+03  0.19685662957E+03  0.25500000920E-02 0.  1.
</event>
<event>
 5   0  0.2488968E-01  0.5078038E+03  0.7818609E-02  0.1011762E+00
        2   -1    0    0  501    0  0.00000000000E+00  0.00000000000E+00  0.95257353929E+03  0.95257353929E+03  0.25500000920E-02 0.  1.
       -2   -1    0    0    0  501  0.00000000000E+00  0.00000000000E+00 -0.67675809884E+02  0.67675809932E+02  0.25500000920E-02 0. -1.
    10030    2    1    2    0    0  0.00000000000E+00  0.00000000000E+00  0.88489772940E+03  0.10202493492E+04  0.50780384312E+03 0.  0.
        2    1    3    3  502    0 -0.98549683831E+02 -0.22417951406E+03  0.57719153610E+03  0.62699167782E+03  0.25500000920E-02 0.  1.
       -2    1    3    3    0  502  0.98549683831E+02  0.22417951406E+03  0.30770619330E+03  0.39325767140E+03  0.25500000920E-02 0. -1.
</event>
<event>
 5   0  0.2466034E-01  0.4916433E+03  0.7818609E-02  0.1015983E+00
       -2   -1    0    0    0  501  0.00000000000E+00  0.00000000000E+00  0.56803420092E+02  0.56803420149E+02  0.25500000920E-02 0. -1.
        2   -1    0    0  501    0  0.00000000000E+00  0.00000000000E+00 -0.10638141529E+04  0.10638141529E+04  0.25500000920E-02 0.  1.
    10030    2    1    2    0    0  0.00000000000E+00  0.00000000000E+00 -0.10070107328E+04  0.11206175730E+04  0.49164329451E+03 0.  0.
        3    1    3    3  502    0 -0.12014270006E+03  0.21947520103E+02 -0.98976895184E+03  0.99727556384E+03  0.10100000352E+00 0.  1.
       -3    1    3    3    0  502  0.12014270006E+03 -0.21947520103E+02 -0.17241780940E+02  0.12334200918E+03  0.10100000352E+00 0. -1.
</event>
<event>
 5   0  0.9868500E-02  0.5004583E+03  0.7818609E-02  0.1013659E+00
        4   -1    0    0  501    0  0.00000000000E+00  0.00000000000E+00  0.16261382947E+03  0.16261878869E+03  0.12699999809E+01 0. -1.
       -4   -1    0    0    0  501  0.00000000000E+00  0.00000000000E+00 -0.38503924168E+03  0.38504133614E+03  0.12699999809E+01 0.  1.
    10030    2    1    2    0    0  0.00000000000E+00  0.00000000000E+00 -0.22242541221E+03  0.54766012483E+03  0.50045833826E+03 0.  0.
        2    1    3    3  502    0 -0.24748540114E+03 -0.15485120755E+02 -0.74494749213E+02  0.25891751661E+03  0.25500000920E-02 0. -1.
       -2    1    3    3    0  502  0.24748540114E+03  0.15485120755E+02 -0.14793066300E+03  0.28874260822E+03  0.25500000920E-02 0.  1.
</event>
<event>
 5   0  0.2511944E-01  0.6558410E+03  0.7818609E-02  0.9795880E-01
       -2   -1    0    0    0  501  0.00000000000E+00  0.00000000000E+00  0.19289780935E+03  0.19289780936E+03  0.25500000920E-02 0. -1.
        2   -1    0    0  501    0  0.00000000000E+00  0.00000000000E+00 -0.55745499853E+03  0.55745499854E+03  0.25500000920E-02 0.  1.
    10030    2    1    2    0    0  0.00000000000E+00  0.00000000000E+00 -0.36455718919E+03  0.75035280790E+03  0.65584098083E+03 0.  0.
        1    1    3    3  502    0 -0.21873099932E+03 -0.21702902033E+03 -0.31063812425E+03  0.43753958677E+03  0.50400001928E-02 0. -1.
       -1    1    3    3    0  502  0.21873099932E+03  0.21702902033E+03 -0.53919064939E+02  0.31281322113E+03  0.50400001928E-02 0.  1.
</event>
<event>
 5   0  0.1529146E-01  0.4885782E+03  0.7818609E-02  0.1016804E+00
        1   -1    0    0  501    0  0.00000000000E+00  0.00000000000E+00  0.11614432562E+04  0.11614432563E+04  0.50400001928E-02 0.  1.
       -1   -1    0    0    0  501  0.00000000000E+00  0.00000000000E+00 -0.51381901142E+02  0.51381901389E+02  0.50400001928E-02 0. -1.
    10030    2    1    2    0    0  0.00000000000E+00  0.00000000000E+00  0.11100613551E+04  0.12128251576E+04  0.48857819325E+03 0.  0.
        1    1    3    3  502    0 -0.22527186199E+03  0.74653801803E+02  0.69884805844E+03  0.73804417940E+03  0.50400001928E-02 0.  1.
       -1    1    3    3    0  502  0.22527186199E+03 -0.74653801803E+02  0.41121329666E+03  0.47478097824E+03  0.50400001928E-02 0. -1.
</event>
<event>
 5   0  0.2488968E-01  0.5077762E+03  0.7818609E-02  0.1011769E+00
        2   -1    0    0  501    0  0.00000000000E+00  0.00000000000E+00  0.73710211336E+03  0.73710211336E+03  0.25500000920E-02 0. -1.
       -2   -1    0    0    0  501  0.00000000000E+00  0.00000000000E+00 -0.87449432819E+02  0.87449432857E+02  0.25500000920E-02 0.  1.
    10030    2    1    2    0    0  0.00000000000E+00  0.00000000000E+00  0.64965268054E+03  0.82455154622E+03  0.50777617809E+03 0.  0.
        2    1    3    3  502    0  0.96262077106E+02  0.42367699355E+02  0.70006448173E+03  0.70792067919E+03  0.25500000920E-02 0. -1.
       -2    1    3    3    0  502 -0.96262077106E+02 -0.42367699355E+02 -0.50411801194E+02  0.11663086703E+03  0.25500000920E-02 0.  1.
</event>
<event>
 5   0  0.1413361E-01  0.4995641E+03  0.7818609E-02  0.1013893E+00
        1   -1    0    0  501    0  0.00000000000E+00  0.00000000000E+00  0.20989427015E+03  0.20989427021E+03  0.50400001928E-02 0.  1.
       -1   -1    0    0    0  501  0.00000000000E+00  0.00000000000E+00 -0.29724996157E+03  0.29724996162E+03  0.50400001928E-02 0. -1.
    10030    2    1    2    0    0  0.00000000000E+00  0.00000000000E+00 -0.87355691422E+02  0.50714423183E+03  0.49956406501E+03 0.  0.
        3    1    3    3  502    0  0.52558559257E+02 -0.57463485964E+02 -0.28461127648E+03  0.29507294568E+03  0.10100000352E+00 0. -1.
       -3    1    3    3    0  502 -0.52558559257E+02  0.57463485964E+02  0.19725558506E+03  0.21207128615E+03  0.10100000352E+00 0.  1.
</event>
<event>
 5   0  0.2504064E-01  0.5060259E+03  0.7818609E-02  0.1012218E+00
       -2   -1    0    0    0  501  0.00000000000E+00  0.00000000000E+00  0.16943175696E+03  0.16943175698E+03  0.25500000920E-02 0.  1.
        2   -1    0    0  501    0  0.00000000000E+00  0.00000000000E+00 -0.37782492612E+03  0.37782492613E+03  0.25500000920E-02 0. -1.
    10030    2    1    2    0    0  0.00000000000E+00  0.00000000000E+00 -0.20839316916E+03  0.54725668311E+03  0.50602585334E+03 0.  0.
        5    1    3    3  502    0 -0.21394329410E+02  0.61211260684E+02  0.16024436328E+03  0.17293027996E+03  0.46999998093E+01 0.  1.
       -5    1    3    3    0  502  0.21394329410E+02 -0.61211260684E+02 -0.36863753244E+03  0.37432640314E+03  0.46999998093E+01 0. -1.
</event>
<event>
 5   0  0.1453602E-01  0.5009692E+03  0.7818609E-02  0.1013526E+00
       -1   -1    0    0    0  501  0.00000000000E+00  0.00000000000E+00  0.91033698793E+02  0.91033698932E+02  0.50400001928E-02 0.  1.
        1   -1    0    0  501    0  0.00000000000E+00  0.00000000000E+00 -0.68922307054E+03  0.68922307056E+03  0.50400001928E-02 0. -1.
    10030    2    1    2    0    0  0.00000000000E+00  0.00000000000E+00 -0.59818937175E+03  0.78025676949E+03  0.50096916259E+03 0.  0.
        2    1    3    3  502    0  0.10718344511E+03 -0.21382131081E+03 -0.18322418812E+03  0.30129544800E+03  0.25500000920E-02 0.  1.
       -2    1    3    3    0  502 -0.10718344511E+03  0.21382131081E+03 -0.41496518362E+03  0.47896132149E+03  0.25500000920E-02 0. -1.
</event>
<event>
 5   0  0.2413301E-01  0.4961350E+03  0.7818609E-02  0.1014793E+00
        2   -1    0    0  501    0  0.00000000000E+00  0.00000000000E+00  0.86827983654E+03  0.86827983655E+03  0.25500000920E-02 0. -1.
       -2   -1    0    0    0  501  0.00000000000E+00  0.00000000000E+00 -0.70872864006E+02  0.70872864052E+02  0.25500000920E-02 0.  1.
    10030    2    1    2    0    0  0.00000000000E+00  0.00000000000E+00  0.79740697254E+03  0.93915270060E+03  0.49613497679E+03 0.  0.
        4    1    3    3  502    0  0.18448173701E+03  0.19461077145E+02  0.86950802553E+02  0.20487630360E+03  0.12699999809E+01 0.  1.
       -4    1    3    3    0  502 -0.18448173701E+03 -0.19461077145E+02  0.71045616998E+03  0.73427639699E+03  0.12699999809E+01 0. -1.
</event>
<event>
 5   0  0.1529146E-01  0.4948759E+03  0.7818609E-02  0.1015125E+00
        1   -1    0    0  501    0  0.00000000000E+00  0.00000000000E+00  0.10778678650E+04  0.10778678650E+04  0.50400001928E-02 0. -1.
       -1   -1    0    0    0  501  0.00000000000E+00  0.00000000000E+00 -0.56802454809E+02  0.56802455033E+02  0.50400001928E-02 0.  1.
    10030    2    1    2    0    0  0.00000000000E+00  0.00000000000E+00  0.10210654102E+04  0.11346703200E+04  0.49487590697E+03 0.  0.
        1    1    3    3  502    0  0.10078787132E+03  0.89710219546E+02  0.34972318584E+02  0.13938859921E+03  0.50400001928E-02 0.  1.
       -1    1    3    3    0  502 -0.10078787132E+03 -0.89710219546E+02  0.98609309159E+03  0.99528172082E+03  0.50400001928E-02 0. -1.
</event>
<event>
 5   0  0.2511944E-01  0.4989692E+03  0.7818609E-02  0.1014048E+00
        2   -1    0    0  501    0  0.00000000000E+00  0.00000000000E+00  0.88126941756E+03  0.88126941757E+03  0.25500000920E-02 0. -1.
       -2   -1    0    0    0  501  0.00000000000E+00  0.00000000000E+00 -0.70628316771E+02  0.70628316817E+02  0.25500000920E-02 0.  1.
    10030    2    1    2    0    0  0.00000000000E+00  0.00000000000E+00  0.81064110079E+03  0.95189773438E+03  0.49896923997E+03 0.  0.
        1    1    3    3  502    0  0.38112566602E+02 -0.13934743739E+03  0.17285148283E+02  0.14549588453E+03  0.50400001928E-02 0.  1.
       -1    1    3    3    0  502 -0.38112566602E+02  0.13934743739E+03  0.79335595251E+03  0.80640184985E+03  0.50400001928E-02 0. -1.
</event>
<event>
 5   0  0.1439814E-01  0.4970088E+03  0.7818609E-02  0.1014563E+00
        1   -1    0    0  501    0  0.00000000000E+00  0.00000000000E+00  0.49863395169E+02  0.49863395424E+02  0.50400001928E-02 0. -1.
       -1   -1    0    0    0  501  0.00000000000E+00  0.00000000000E+00 -0.12384724526E+04  0.12384724526E+04  0.50400001928E-02 0.  1.
    10030    2    1    2    0    0  0.00000000000E+00  0.00000000000E+00 -0.11886090575E+04  0.12883358481E+04  0.49700881876E+03 0.  0.
        4    1    3    3  502    0 -0.14868306787E+03  0.67165876231E+02 -0.10801906282E+04  0.10924428204E+04  0.12699999809E+01 0.  1.
       -4    1    3    3    0  502  0.14868306787E+03 -0.67165876231E+02 -0.10841842926E+03  0.19589302771E+03  0.12699999809E+01 0. -1.
</event>
<event>
 5   0  0.1448458E-01  0.5029279E+03  0.7818609E-02  0.1013018E+00
        1   -1    0    0  501    0  0.00000000000E+00  0.00000000000E+00  0.38274611570E+03  0.38274611573E+03  0.50400001928E-02 0.  1.
       -1   -1    0    0    0  501  0.00000000000E+00  0.00000000000E+00 -0.16521164479E+03  0.16521164487E+03  0.50400001928E-02 0. -1.
    10030    2    1    2    0    0  0.00000000000E+00  0.00000000000E+00  0.21753447091E+03  0.54795776060E+03  0.50292788883E+03 0.  0.
        5    1    3    3  502    0  0.40260528959E+02 -0.22592963291E+03  0.22066054233E+03  0.31839955112E+03  0.46999998093E+01 0.  1.
       -5    1    3    3    0  502 -0.40260528959E+02  0.22592963291E+03 -0.31260714179E+01  0.22955820948E+03  0.46999998093E+01 0. -1.
</event>
<event>
 5   0  0.2466034E-01  0.4981123E+03  0.7818609E-02  0.1014273E+00
       -2   -1    0    0    0  501  0.00000000000E+00  0.00000000000E+00  0.38528076209E+02  0.38528076293E+02  0.25500000920E-02 0.  1.
        2   -1    0    0  501    0  0.00000000000E+00  0.00000000000E+00 -0.16099676483E+04  0.16099676483E+04  0.25500000920E-02 0. -1.
    10030    2    1    2    0    0  0.00000000000E+00  0.00000000000E+00 -0.15714395721E+04  0.16484957246E+04  0.49811226172E+03 0.  0.
        3    1    3    3  502    0 -0.22447210395E+03  0.74921751759E+02 -0.52877164660E+03  0.57931033030E+03  0.10100000352E+00 0.  1.
       -3    1    3    3    0  502  0.22447210395E+03 -0.74921751759E+02 -0.10426679255E+04  0.10691853943E+04  0.10100000352E+00 0. -1.
</event>
<event>
 5   0  0.1413361E-01  0.4839438E+03  0.7818609E-02  0.1018057E+00
        1   -1    0    0  501    0  0.00000000000E+00  0.00000000000E+00  0.20539095904E+03  0.20539095910E+03  0.50400001928E-02 0.  1.
       -1   -1    0    0    0  501  0.00000000000E+00  0.00000000000E+00 -0.28506805002E+03  0.28506805007E+03  0.50400001928E-02 0. -1.
    10030    2    1    2    0    0  0.00000000000E+00  0.00000000000E+00 -0.79677090980E+02  0.49045900917E+03  0.48394379927E+03 0.  0.
        3    1    3    3  502    0  0.32781633908E+02 -0.20548098131E+03  0.85328496536E+02  0.22489560184E+03  0.10100000352E+00 0.  1.
       -3    1    3    3    0  502 -0.32781633908E+02  0.20548098131E+03 -0.16500558752E+03  0.26556340734E+03  0.10100000352E+00 0. -1.
</event>
<event>
 5   0  0.2511944E-01  0.4137229E+03  0.7818609E-02  0.1039129E+00
       -2   -1    0    0    0  501  0.00000000000E+00  0.00000000000E+00  0.21518789252E+03  0.21518789254E+03  0.25500000920E-02 0. -1.
        2   -1    0    0  501    0  0.00000000000E+00  0.00000000000E+00 -0.19885715691E+03  0.19885715692E+03  0.25500000920E-02 0.  1.
    10030    2    1    2    0    0  0.00000000000E+00  0.00000000000E+00  0.16330735617E+02  0.41404504946E+03  0.41372286625E+03 0.  0.
        1    1    3    3  502    0 -0.17852996498E+02 -0.58477918030E+02  0.20593822890E+03  0.21482306796E+03  0.50400001928E-02 0. -1.
       -1    1    3    3    0  502  0.17852996498E+02  0.58477918030E+02 -0.18960749328E+03  0.19922198150E+03  0.50400001928E-02 0.  1.
</event>
<event>
 5   0  0.1439814E-01  0.5008366E+03  0.7818609E-02  0.1013561E+00
        1   -1    0    0  501    0  0.00000000000E+00  0.00000000000E+00  0.67634656778E+03  0.67634656780E+03  0.50400001928E-02 0.  1.
       -1   -1    0    0    0  501  0.00000000000E+00  0.00000000000E+00 -0.92717728552E+02  0.92717728689E+02  0.50400001928E-02 0. -1.
    10030    2    1    2    0    0  0.00000000000E+00  0.00000000000E+00  0.58362883923E+03  0.76906429649E+03  0.50083657031E+03 0.  0.
        4    1    3    3  502    0  0.88896761758E+02  0.12046517708E+03 -0.16421011562E+02  0.15061791282E+03  0.12699999809E+01 0. -1.
       -4    1    3    3    0  502 -0.88896761758E+02 -0.12046517708E+03  0.60004985079E+03  0.61844638367E+03  0.12699999809E+01 0.  1.
</event>
<event>
 5   0  0.2466034E-01  0.5003078E+03  0.7818609E-02  0.1013699E+00
        2   -1    0    0  501    0  0.00000000000E+00  0.00000000000E+00  0.79956204667E+03  0.79956204667E+03  0.25500000920E-02 0.  1.
       -2   -1    0    0    0  501  0.00000000000E+00  0.00000000000E+00 -0.78264067012E+02  0.78264067054E+02  0.25500000920E-02 0. -1.
    10030    2    1    2    0    0  0.00000000000E+00  0.00000000000E+00  0.72129797965E+03  0.87782611372E+03  0.50030781573E+03 0.  0.
        3    1    3    3  502    0  0.19012678412E+03 -0.16155094812E+03  0.32877248884E+03  0.41272056224E+03  0.10100000352E+00 0. -1.
       -3    1    3    3    0  502 -0.19012678412E+03  0.16155094812E+03  0.39252549081E+03  0.46510555148E+03  0.10100000352E+00 0.  1.
</event>
<event>
 5   0  0.1439814E-01  0.4930954E+03  0.7818609E-02  0.1015597E+00
       -1   -1    0    0    0  501  0.00000000000E+00  0.00000000000E+00  0.60348526035E+03  0.60348526038E+03  0.50400001928E-02 0. -1.
        1   -1    0    0  501    0  0.00000000000E+00  0.00000000000E+00 -0.10072453094E+03  0.10072453106E+03  0.50400001928E-02 0.  1.
    10030    2    1    2    0    0  0.00000000000E+00  0.00000000000E+00  0.50276072942E+03  0.70420979144E+03  0.49309540590E+03 0.  0.
        4    1    3    3  502    0  0.79416105152E+02  0.96621461003E+02  0.55481087824E+03  0.56873486617E+03  0.12699999809E+01 0. -1.
       -4    1    3    3    0  502 -0.79416105152E+02 -0.96621461003E+02 -0.52050148825E+02  0.13547492527E+03  0.12699999809E+01 0.  1.
</event>
<event>
 5   0  0.1448458E-01  0.4630594E+03  0.7818609E-02  0.1023898E+00
        1   -1    0    0  501    0  0.00000000000E+00  0.00000000000E+00  0.44129061077E+03  0.44129061080E+03  0.50400001928E-02 0. -1.
       -1   -1    0    0    0  501  0.00000000000E+00  0.00000000000E+00 -0.12147553566E+03  0.12147553577E+03  0.50400001928E-02 0.  1.
    10030    2    1    2    0    0  0.00000000000E+00  0.00000000000E+00  0.31981507511E+03  0.56276614657E+03  0.46305944916E+03 0.  0.
        5    1    3    3  502    0  0.18137829121E+03 -0.67886717024E+02  0.31400548699E+03  0.36895558911E+03  0.46999998093E+01 0. -1.
       -5    1    3    3    0  502 -0.18137829121E+03  0.67886717024E+02  0.58095881127E+01  0.19381055746E+03  0.46999998093E+01 0.  1.
</event>
<event>
 5   0  0.1439814E-01  0.4663617E+03  0.7818609E-02  0.1022952E+00
       -1   -1    0    0    0  501  0.00000000000E+00  0.00000000000E+00  0.12610786429E+03  0.12610786439E+03  0.50400001928E-02 0. -1.
        1   -1    0    0  501    0  0.00000000000E+00  0.00000000000E+00 -0.43116512730E+03  0.43116512733E+03  0.50400001928E-02 0.  1.
    10030    2    1    2    0    0  0.00000000000E+00  0.00000000000E+00 -0.30505726301E+03  0.55727299172E+03  0.46636171968E+03 0.  0.
        4    1    3    3  502    0  0.21467598157E+02  0.70266058355E+02  0.11191053355E+03  0.13387963679E+03  0.12699999809E+01 0. -1.
       -4    1    3    3    0  502 -0.21467598157E+02 -0.70266058355E+02 -0.41696779656E+03  0.42339335493E+03  0.12699999809E+01 0.  1.
</event>
<event>
 5   0  0.1413361E-01  0.4948913E+03  0.7818609E-02  0.1015121E+00
       -1   -1    0    0    0  501  0.00000000000E+00  0.00000000000E+00  0.48371570753E+02  0.48371571016E+02  0.50400001928E-02 0. -1.
        1   -1    0    0  501    0  0.00000000000E+00  0.00000000000E+00 -0.12658127669E+04  0.12658127669E+04  0.50400001928E-02 0.  1.
    10030    2    1    2    0    0  0.00000000000E+00  0.00000000000E+00 -0.12174411961E+04  0.13141843379E+04  0.49489130925E+03 0.  0.
        3    1    3    3  502    0  0.26866857697E+02  0.12735542820E+03 -0.11675638701E+04  0.11747964224E+04  0.10100000352E+00 0.  1.
       -3    1    3    3    0  502 -0.26866857697E+02 -0.12735542820E+03 -0.49877326031E+02  0.13938791550E+03  0.10100000352E+00 0. -1.
</event>
<event>
 5   0  0.2488968E-01  0.4985152E+03  0.7818609E-02  0.1014167E+00
       -2   -1    0    0    0  501  0.00000000000E+00  0.00000000000E+00  0.38289307142E+02  0.38289307227E+02  0.25500000920E-02 0.  1.
        2   -1    0    0  501    0  0.00000000000E+00  0.00000000000E+00 -0.16226289787E+04  0.16226289787E+04  0.25500000920E-02 0. -1.
    10030    2    1    2    0    0  0.00000000000E+00  0.00000000000E+00 -0.15843396716E+04  0.16609182860E+04  0.49851515289E+03 0.  0.
        2    1    3    3  502    0  0.14547215898E+03 -0.19610493887E+03 -0.95909065659E+03  0.98968388067E+03  0.25500000920E-02 0. -1.
       -2    1    3    3    0  502 -0.14547215898E+03  0.19610493887E+03 -0.62524901499E+03  0.67123440529E+03  0.25500000920E-02 0.  1.
</event>
<event>
 5   0  0.2413301E-01  0.5049182E+03  0.7818609E-02  0.1012503E+00
        2   -1    0    0  501    0  0.00000000000E+00  0.00000000000E+00  0.13484767354E+04  0.13484767354E+04  0.25500000920E-02 0. -1.
       -2   -1    0    0    0  501  0.00000000000E+00  0.00000000000E+00 -0.47264890757E+02  0.47264890826E+02  0.25500000920E-02 0.  1.
    10030    2    1    2    0    0  0.00000000000E+00  0.00000000000E+00  0.13012118446E+04  0.13957416262E+04  0.50491823352E+03 0.  0.
        4    1    3    3  502    0 -0.96869861968E+02  0.20885854580E+03  0.93692484233E+03  0.96479813194E+03  0.12699999809E+01 0. -1.
       -4    1    3    3    0  502  0.96869861968E+02 -0.20885854580E+03  0.36428700226E+03  0.43094349424E+03  0.12699999809E+01 0.  1.
</event>
<event>
 5   0  0.2504064E-01  0.4961943E+03  0.7818609E-02  0.1014777E+00
        2   -1    0    0  501    0  0.00000000000E+00  0.00000000000E+00  0.11001969016E+03  0.11001969019E+03  0.25500000920E-02 0. -1.
       -2   -1    0    0    0  501  0.00000000000E+00  0.00000000000E+00 -0.55946534475E+03  0.55946534476E+03  0.25500000920E-02 0.  1.
    10030    2    1    2    0    0  0.00000000000E+00  0.00000000000E+00 -0.44944565459E+03  0.66948503495E+03  0.49619433249E+03 0.  0.
        5    1    3    3  502    0 -0.38160820544E+01  0.24505212217E+03 -0.17308009678E+03  0.30007318267E+03  0.46999998093E+01 0. -1.
       -5    1    3    3    0  502  0.38160820544E+01 -0.24505212217E+03 -0.27636555781E+03  0.36941185228E+03  0.46999998093E+01 0.  1.
</event>
<event>
 5   0  0.9868500E-02  0.4510552E+03  0.7818609E-02  0.1027408E+00
       -4   -1    0    0    0  501  0.00000000000E+00  0.00000000000E+00  0.80396905289E+03  0.80397005597E+03  0.12699999809E+01 0.  1.
        4   -1    0    0  501    0  0.00000000000E+00  0.00000000000E+00 -0.63257068303E+02  0.63269815791E+02  0.12699999809E+01 0. -1.
    10030    2    1    2    0    0  0.00000000000E+00  0.00000000000E+00  0.74071198458E+03  0.86723987176E+03  0.45105515302E+03 0.  0.
        2    1    3    3  502    0 -0.16714574288E+03 -0.12482162656E+03  0.53513131921E+03  0.57435500053E+03  0.25500000920E-02 0.  1.
       -2    1    3    3    0  502  0.16714574288E+03  0.12482162656E+03  0.20558066537E+03  0.29288487124E+03  0.25500000920E-02 0. -1.
</event>
<event>
 5   0  0.1453602E-01  0.4971321E+03  0.7818609E-02  0.1014530E+00
        1   -1    0    0  501    0  0.00000000000E+00  0.00000000000E+00  0.14516153154E+03  0.14516153163E+03  0.50400001928E-02 0. -1.
       -1   -1    0    0    0  501  0.00000000000E+00  0.00000000000E+00 -0.42562980166E+03  0.42562980169E+03  0.50400001928E-02 0.  1.
    10030    2    1    2    0    0  0.00000000000E+00  0.00000000000E+00 -0.28046827012E+03  0.57079133332E+03  0.49713207063E+03 0.  0.
        2    1    3    3  502    0  0.15352090287E+03  0.62572398315E+02 -0.35288131184E+03  0.38988356326E+03  0.25500000920E-02 0.  1.
       -2    1    3    3    0  502 -0.15352090287E+03 -0.62572398315E+02  0.72413041718E+02  0.18090777006E+03  0.25500000920E-02 0. -1.
</event>
<event>
 5   0  0.1439814E-01  0.4939650E+03  0.7818609E-02  0.1015366E+00
        1   -1    0    0  501    0  0.00000000000E+00  0.00000000000E+00  0.68092868784E+03  0.68092868786E+03  0.50400001928E-02 0. -1.
       -1   -1    0    0    0  501  0.00000000000E+00  0.00000000000E+00 -0.89584050530E+02  0.89584050672E+02  0.50400001928E-02 0.  1.
    10030    2    1    2    0    0  0.00000000000E+00  0.00000000000E+00  0.59134463731E+03  0.77051273853E+03  0.49396497868E+03 0.  0.
        4    1    3    3  502    0  0.13848133824E+03 -0.19904379739E+03  0.22245515942E+03  0.32906446963E+03  0.12699999809E+01 0.  1.
       -4    1    3    3    0  502 -0.13848133824E+03  0.19904379739E+03  0.36888947789E+03  0.44144826890E+03  0.12699999809E+01 0. -1.
</event>
<event>
 5   0  0.2466034E-01  0.4685922E+03  0.7818609E-02  0.1022318E+00
        2   -1    0    0  501    0  0.00000000000E+00  0.00000000000E+00  0.16493296464E+03  0.16493296466E+03  0.25500000920E-02 0.  1.
       -2   -1    0    0    0  501  0.00000000000E+00  0.00000000000E+00 -0.33283012180E+03  0.33283012181E+03  0.25500000920E-02 0. -1.
    10030    2    1    2    0    0  0.00000000000E+00  0.00000000000E+00 -0.16789715716E+03  0.49776308647E+03  0.46859218396E+03 0.  0.
        3    1    3    3  502    0 -0.98816074849E+02  0.13360880377E+03  0.91495872009E+02  0.18970354211E+03  0.10100000352E+00 0.  1.
       -3    1    3    3    0  502  0.98816074849E+02 -0.13360880377E+03 -0.25939302916E+03  0.30805954436E+03  0.10100000352E+00 0. -1.
</event>
<event>
 5   0  0.2511944E-01  0.4952639E+03  0.7818609E-02  0.1015023E+00
       -2   -1    0    0    0  501  0.00000000000E+00  0.00000000000E+00  0.56979453802E+03  0.56979453803E+03  0.25500000920E-02 0. -1.
        2   -1    0    0  501    0  0.00000000000E+00  0.00000000000E+00 -0.10762051697E+03  0.10762051700E+03  0.25500000920E-02 0.  1.
    10030    2    1    2    0    0  0.00000000000E+00  0.00000000000E+00  0.46217402105E+03  0.67741505503E+03  0.49526390040E+03 0.  0.
        1    1    3    3  502    0  0.19985196005E+03  0.13000878967E+03  0.32262134818E+03  0.40115785628E+03  0.50400001928E-02 0. -1.
       -1    1    3    3    0  502 -0.19985196005E+03 -0.13000878967E+03  0.13955267287E+03  0.27625719875E+03  0.50400001928E-02 0.  1.
</event>
<event>
 5   0  0.1448458E-01  0.5082730E+03  0.7818609E-02  0.1011642E+00
        1   -1    0    0  501    0  0.00000000000E+00  0.00000000000E+00  0.54067994192E+03  0.54067994194E+03  0.50400001928E-02 0. -1.
       -1   -1    0    0    0  501  0.00000000000E+00  0.00000000000E+00 -0.11945209431E+03  0.11945209442E+03  0.50400001928E-02 0.  1.
    10030    2    1    2    0    0  0.00000000000E+00  0.00000000000E+00  0.42122784761E+03  0.66013203636E+03  0.50827296389E+03 0.  0.
        5    1    3    3  502    0  0.63450814969E+02 -0.20290222556E+03  0.39136277381E+03  0.44540120092E+03  0.46999998093E+01 0. -1.
       -5    1    3    3    0  502 -0.63450814969E+02  0.20290222556E+03  0.29865073795E+02  0.21473083544E+03  0.46999998093E+01 0.  1.
</event>
<event>
 5   0  0.2504064E-01  0.5009996E+03  0.7818609E-02  0.1013518E+00
       -2   -1    0    0    0  501  0.00000000000E+00  0.00000000000E+00  0.35701681962E+02  0.35701682053E+02  0.25500000920E-02 0.  1.
        2   -1    0    0  501    0  0.00000000000E+00  0.00000000000E+00 -0.17576241322E+04  0.17576241322E+04  0.25500000920E-02 0. -1.
    10030    2    1    2    0    0  0.00000000000E+00  0.00000000000E+00 -0.17219224503E+04  0.17933258143E+04  0.50099955234E+03 0.  0.
        5    1    3    3  502    0  0.33134782960E+02 -0.21337371888E+02  0.24375176010E+02  0.46577209927E+02  0.46999998093E+01 0.  1.
       -5    1    3    3    0  502 -0.33134782960E+02  0.21337371888E+02 -0.17462976263E+04  0.17467486043E+04  0.46999998093E+01 0. -1.
</event>
<event>
 5   0  0.1413361E-01  0.4966114E+03  0.7818609E-02  0.1014667E+00
        1   -1    0    0  501    0  0.00000000000E+00  0.00000000000E+00  0.63446231056E+03  0.63446231058E+03  0.50400001928E-02 0. -1.
       -1   -1    0    0    0  501  0.00000000000E+00  0.00000000000E+00 -0.97177917432E+02  0.97177917563E+02  0.50400001928E-02 0.  1.
    10030    2    1    2    0    0  0.00000000000E+00  0.00000000000E+00  0.53728439312E+03  0.73164022814E+03  0.49661142187E+03 0.  0.
        3    1    3    3  502    0  0.47823425543E+02 -0.89052769231E+02  0.60277869980E+03  0.61119526084E+03  0.10100000352E+00 0. -1.
       -3    1    3    3    0  502 -0.47823425543E+02  0.89052769231E+02 -0.65494306680E+02  0.12044496730E+03  0.10100000352E+00 0.  1.
</event>
<event>
 5   0  0.9868500E-02  0.5015948E+03  0.7818609E-02  0.1013363E+00
       -3   -1    0    0    0  501  0.00000000000E+00  0.00000000000E+00  0.29144704815E+03  0.29144706565E+03  0.10100000352E+00 0. -1.
        3   -1    0    0  501    0  0.00000000000E+00  0.00000000000E+00 -0.21581737410E+03  0.21581739773E+03  0.10100000352E+00 0.  1.
    10030    2    1    2    0    0  0.00000000000E+00  0.00000000000E+00  0.75629674058E+02  0.50726446338E+03  0.50159484468E+03 0.  0.
        2    1    3    3  502    0 -0.12884304013E+03 -0.17779777714E+03  0.16037363679E+03  0.27190491339E+03  0.25500000920E-02 0.  1.
       -2    1    3    3    0  502  0.12884304013E+03  0.17779777714E+03 -0.84743962728E+02  0.23535954999E+03  0.25500000920E-02 0. -1.
</event>
<event>
 5   0  0.2488968E-01  0.4938623E+03  0.7818609E-02  0.1015393E+00
       -2   -1    0    0    0  501  0.00000000000E+00  0.00000000000E+00  0.88504237548E+02  0.88504237585E+02  0.25500000920E-02 0. -1.
        2   -1    0    0  501    0  0.00000000000E+00  0.00000000000E+00 -0.68895008486E+03  0.68895008487E+03  0.25500000920E-02 0.  1.
    10030    2    1    2    0    0  0.00000000000E+00  0.00000000000E+00 -0.60044584731E+03  0.77745432245E+03  0.49386233704E+03 0.  0.
        2    1    3    3  502    0  0.66910586539E+01 -0.23921339184E+03 -0.20437314870E+03  0.31470017639E+03  0.25500000920E-02 0.  1.
       -2    1    3    3    0  502 -0.66910586539E+01  0.23921339184E+03 -0.39607269862E+03  0.46275414607E+03  0.25500000920E-02 0. -1.
</event>
<event>
 5   0  0.1529146E-01  0.5069764E+03  0.7818609E-02  0.1011974E+00
        1   -1    0    0  501    0  0.00000000000E+00  0.00000000000E+00  0.90937182267E+03  0.90937182268E+03  0.50400001928E-02 0.  1.
       -1   -1    0    0    0  501  0.00000000000E+00  0.00000000000E+00 -0.70660055900E+02  0.70660056079E+02  0.50400001928E-02 0. -1.
    10030    2    1    2    0    0  0.00000000000E+00  0.00000000000E+00  0.83871176677E+03  0.98003187876E+03  0.50697638571E+03 0.  0.
        1    1    3    3  502    0  0.14311009551E+03 -0.16300700291E+03  0.67291151772E+03  0.70700897671E+03  0.50400001928E-02 0.  1.
       -1    1    3    3    0  502 -0.14311009551E+03  0.16300700291E+03  0.16580024904E+03  0.27302290205E+03  0.50400001928E-02 0. -1.
</event>
<event>
 5   0  0.2466034E-01  0.5048388E+03  0.7818609E-02  0.1012524E+00
        2   -1    0    0  501    0  0.00000000000E+00  0.00000000000E+00  0.27816113302E+03  0.27816113303E+03  0.25500000920E-02 0.  1.
       -2   -1    0    0    0  501  0.00000000000E+00  0.00000000000E+00 -0.22905982949E+03  0.22905982951E+03  0.25500000920E-02 0. -1.
    10030    2    1    2    0    0  0.00000000000E+00  0.00000000000E+00  0.49101303521E+02  0.50722096254E+03  0.50483875329E+03 0.  0.
        3    1    3    3  502    0 -0.12056702361E+03  0.13570676662E+03  0.20077155538E+03  0.27066946880E+03  0.10100000352E+00 0.  1.
       -3    1    3    3    0  502  0.12056702361E+03 -0.13570676662E+03 -0.15167025186E+03  0.23655149374E+03  0.10100000352E+00 0. -1.
</event>
<event>
 5   0  0.2488968E-01  0.5037208E+03  0.7818609E-02  0.1012812E+00
       -2   -1    0    0    0  501  0.00000000000E+00  0.00000000000E+00  0.39793406154E+03  0.39793406155E+03  0.25500000920E-02 0.  1.
        2   -1    0    0  501    0  0.00000000000E+00  0.00000000000E+00 -0.15940747130E+03  0.15940747132E+03  0.25500000920E-02 0. -1.
    10030    2    1    2    0    0  0.00000000000E+00  0.00000000000E+00  0.23852659024E+03  0.55734153287E+03  0.50372080561E+03 0.  0.
        2    1    3    3  502    0  0.16493953236E+03 -0.83301085006E+02  0.30862310624E+03  0.35971147022E+03  0.25500000920E-02 0.  1.
       -2    1    3    3    0  502 -0.16493953236E+03  0.83301085006E+02 -0.70096515995E+02  0.19763006264E+03  0.25500000920E-02 0. -1.
</event>
<event>
 5   0  0.1529146E-01  0.5017425E+03  0.7818609E-02  0.1013325E+00
       -1   -1    0    0    0  501  0.00000000000E+00  0.00000000000E+00  0.19206557507E+03  0.19206557514E+03  0.50400001928E-02 0.  1.
        1   -1    0    0  501    0  0.00000000000E+00  0.00000000000E+00 -0.32768174573E+03  0.32768174577E+03  0.50400001928E-02 0. -1.
    10030    2    1    2    0    0  0.00000000000E+00  0.00000000000E+00 -0.13561617065E+03  0.51974732091E+03  0.50174249556E+03 0.  0.
        1    1    3    3  502    0  0.30047524976E+02  0.13778221781E+03 -0.28273751279E+03  0.31595457659E+03  0.50400001928E-02 0. -1.
       -1    1    3    3    0  502 -0.30047524976E+02 -0.13778221781E+03  0.14712134213E+03  0.20379274432E+03  0.50400001928E-02 0.  1.
</event>
<event>
 5   0  0.2504064E-01  0.4857302E+03  0.7818609E-02  0.1017572E+00
        2   -1    0    0  501    0  0.00000000000E+00  0.00000000000E+00  0.12469793597E+03  0.12469793600E+03  0.25500000920E-02 0.  1.
       -2   -1    0    0    0  501  0.00000000000E+00  0.00000000000E+00 -0.47301072525E+03  0.47301072526E+03  0.25500000920E-02 0. -1.
    10030    2    1    2    0    0  0.00000000000E+00  0.00000000000E+00 -0.34831278928E+03  0.59770866125E+03  0.48573021788E+03 0.  0.
        5    1    3    3  502    0  0.13305644875E+03  0.10993767749E+03  0.36013511140E+02  0.17637849775E+03  0.46999998093E+01 0.  1.
       -5    1    3    3    0  502 -0.13305644875E+03 -0.10993767749E+03 -0.38432630042E+03  0.42133016350E+03  0.46999998093E+01 0. -1.
</event>
<event>
 5   0  0.2488968E-01  0.4949795E+03  0.7818609E-02  0.1015098E+00
       -2   -1    0    0    0  501  0.00000000000E+00  0.00000000000E+00  0.88013292152E+02  0.88013292189E+02  0.25500000920E-02 0. -1.
        2   -1    0    0  501    0  0.00000000000E+00  0.00000000000E+00 -0.69593096278E+03  0.69593096278E+03  0.25500000920E-02 0.  1.
    10030    2    1    2    0    0  0.00000000000E+00  0.00000000000E+00 -0.60791767063E+03  0.78394425497E+03  0.49497949518E+03 0.  0.
        2    1    3    3  502    0 -0.82943256111E+02  0.59706244492E+02 -0.66095101753E+03  0.66880540290E+03  0.25500000920E-02 0.  1.
       -2    1    3    3    0  502  0.82943256111E+02 -0.59706244492E+02  0.53033346907E+02  0.11513885207E+03  0.25500000920E-02 0. -1.
</event>
<event>
 5   0  0.9868500E-02  0.4689272E+03  0.7818609E-02  0.1022223E+00
       -4   -1    0    0    0  501  0.00000000000E+00  0.00000000000E+00  0.31823690859E+03  0.31823944270E+03  0.12699999809E+01 0. -1.
        4   -1    0    0  501    0  0.00000000000E+00  0.00000000000E+00 -0.17273737671E+03  0.17274204530E+03  0.12699999809E+01 0.  1.
    10030    2    1    2    0    0  0.00000000000E+00  0.00000000000E+00  0.14549953188E+03  0.49098148800E+03  0.46892718814E+03 0.  0.
        2    1    3    3  502    0 -0.20652356818E+03  0.78599287503E+01  0.18867942647E+03  0.27984583019E+03  0.25500000920E-02 0. -1.
       -2    1    3    3    0  502  0.20652356818E+03 -0.78599287503E+01 -0.43179894590E+02  0.21113565781E+03  0.25500000920E-02 0.  1.
</event>
<event>
 5   0  0.1439814E-01  0.5035358E+03  0.7818609E-02  0.1012860E+00
       -1   -1    0    0    0  501  0.00000000000E+00  0.00000000000E+00  0.10228175066E+03  0.10228175078E+03  0.50400001928E-02 0. -1.
        1   -1    0    0  501    0  0.00000000000E+00  0.00000000000E+00 -0.61973013888E+03  0.61973013890E+03  0.50400001928E-02 0.  1.
    10030    2    1    2    0    0  0.00000000000E+00  0.00000000000E+00 -0.51744838822E+03  0.72201188968E+03  0.50353583226E+03 0.  0.
        4    1    3    3  502    0 -0.90341198099E+02  0.54545724269E+02  0.69032615661E+02  0.12611059842E+03  0.12699999809E+01 0. -1.
       -4    1    3    3    0  502  0.90341198099E+02 -0.54545724269E+02 -0.58648100388E+03  0.59590129126E+03  0.12699999809E+01 0.  1.
</event>
<event>
 5   0  0.2413301E-01  0.4985926E+03  0.7818609E-02  0.1014147E+00
       -2   -1    0    0    0  501  0.00000000000E+00  0.00000000000E+00  0.70816411363E+02  0.70816411409E+02  0.25500000920E-02 0. -1.
        2   -1    0    0  501    0  0.00000000000E+00  0.00000000000E+00 -0.87760245857E+03  0.87760245857E+03  0.25500000920E-02 0.  1.
    10030    2    1    2    0    0  0.00000000000E+00  0.00000000000E+00 -0.80678604721E+03  0.94841886998E+03  0.49859264633E+03 0.  0.
        4    1    3    3  502    0 -0.72264341959E+02 -0.19260272111E+03 -0.67125176559E+03  0.70206729663E+03  0.12699999809E+01 0.  1.
       -4    1    3    3    0  502  0.72264341959E+02  0.19260272111E+03 -0.13553428162E+03  0.24635157335E+03  0.12699999809E+01 0. -1.
</event>
<event>
 5   0  0.2466034E-01  0.5021084E+03  0.7818609E-02  0.1013230E+00
        2   -1    0    0  501    0  0.00000000000E+00  0.00000000000E+00  0.59851491239E+03  0.59851491240E+03  0.25500000920E-02 0. -1.
       -2   -1    0    0    0  501  0.00000000000E+00  0.00000000000E+00 -0.10530765192E+03  0.10530765195E+03  0.25500000920E-02 0.  1.
    10030    2    1    2    0    0  0.00000000000E+00  0.00000000000E+00  0.49320726048E+03  0.70382256435E+03  0.50210835514E+03 0.  0.
        3    1    3    3  502    0 -0.24367966165E+02  0.22513550514E+02 -0.10222138722E+03  0.10747036772E+03  0.10100000352E+00 0.  1.
       -3    1    3    3    0  502  0.24367966165E+02 -0.22513550514E+02  0.59542864769E+03  0.59635219663E+03  0.10100000352E+00 0. -1.
</event>
<event>
 5   0  0.9868500E-02  0.5054497E+03  0.7818609E-02  0.1012366E+00
        4   -1    0    0  501    0  0.00000000000E+00  0.00000000000E+00  0.13794471416E+03  0.13795056021E+03  0.12699999809E+01 0. -1.
       -4   -1    0    0    0  501  0.00000000000E+00  0.00000000000E+00 -0.46299402382E+03  0.46299576563E+03  0.12699999809E+01 0.  1.
    10030    2    1    2    0    0  0.00000000000E+00  0.00000000000E+00 -0.32504930967E+03  0.60094632585E+03  0.50544973324E+03 0.  0.
        2    1    3    3  502    0 -0.45856326095E+02  0.20155965895E+03 -0.33539400714E+03  0.39397745975E+03  0.25500000920E-02 0.  1.
       -2    1    3    3    0  502  0.45856326095E+02 -0.20155965895E+03  0.10344697475E+02  0.20696886610E+03  0.25500000920E-02 0. -1.
</event>
<event>
 5   0  0.2466034E-01  0.5092280E+03  0.7818609E-02  0.1011398E+00
       -2   -1    0    0    0  501  0.00000000000E+00  0.00000000000E+00  0.13951300100E+03  0.13951300102E+03  0.25500000920E-02 0. -1.
        2   -1    0    0  501    0  0.00000000000E+00  0.00000000000E+00 -0.46467552376E+03  0.46467552377E+03  0.25500000920E-02 0.  1.
    10030    2    1    2    0    0  0.00000000000E+00  0.00000000000E+00 -0.32516252276E+03  0.60418852479E+03  0.50922795218E+03 0.  0.
        3    1    3    3  502    0  0.24341540605E+02 -0.44784685628E+01 -0.46324485657E+03  0.46390556648E+03  0.10100000352E+00 0.  1.
       -3    1    3    3    0  502 -0.24341540605E+02  0.44784685628E+01  0.13808233381E+03  0.14028295830E+03  0.10100000352E+00 0. -1.
</event>
<event>
 5   0  0.1413361E-01  0.5013387E+03  0.7818609E-02  0.1013430E+00
        1   -1    0    0  501    0  0.00000000000E+00  0.00000000000E+00  0.13299167235E+03  0.13299167244E+03  0.50400001928E-02 0.  1.
       -1   -1    0    0    0  501  0.00000000000E+00  0.00000000000E+00 -0.47247404353E+03  0.47247404356E+03  0.50400001928E-02 0. -1.
    10030    2    1    2    0    0  0.00000000000E+00  0.00000000000E+00 -0.33948237118E+03  0.60546571600E+03  0.50133866090E+03 0.  0.
        3    1    3    3  502    0 -0.49114616659E+02  0.83230233955E+02 -0.44907102583E+03  0.45935205872E+03  0.10100000352E+00 0. -1.
       -3    1    3    3    0  502  0.49114616659E+02 -0.83230233955E+02  0.10958865465E+03  0.14611365728E+03  0.10100000352E+00 0.  1.
</event>
<event>
 5   0  0.1413361E-01  0.4882916E+03  0.7818609E-02  0.1016881E+00
        1   -1    0    0  501    0  0.00000000000E+00  0.00000000000E+00  0.89139356641E+02  0.89139356784E+02  0.50400001928E-02 0.  1.
       -1   -1    0    0    0  501  0.00000000000E+00  0.00000000000E+00 -0.66869649351E+03  0.66869649353E+03  0.50400001928E-02 0. -1.
    10030    2    1    2    0    0  0.00000000000E+00  0.00000000000E+00 -0.57955713687E+03  0.75783585032E+03  0.48829161484E+03 0.  0.
        3    1    3    3  502    0  0.17057652776E+03  0.16112332911E+02 -0.55971855763E+03  0.58535530497E+03  0.10100000352E+00 0. -1.
       -3    1    3    3    0  502 -0.17057652776E+03 -0.16112332911E+02 -0.19838579239E+02  0.17248054535E+03  0.10100000352E+00 0.  1.
</event>
<event>
 5   0  0.2413301E-01  0.5019769E+03  0.7818609E-02  0.1013264E+00
       -2   -1    0    0    0  501  0.00000000000E+00  0.00000000000E+00  0.99941259721E+02  0.99941259754E+02  0.25500000920E-02 0. -1.
        2   -1    0    0  501    0  0.00000000000E+00  0.00000000000E+00 -0.63032222607E+03  0.63032222608E+03  0.25500000920E-02 0.  1.
    10030    2    1    2    0    0  0.00000000000E+00  0.00000000000E+00 -0.53038096635E+03  0.73026348583E+03  0.50197688121E+03 0.  0.
        4    1    3    3  502    0  0.51407073078E+02 -0.58413716538E+02  0.81945614419E+02  0.11301126521E+03  0.12699999809E+01 0. -1.
       -4    1    3    3    0  502 -0.51407073078E+02  0.58413716538E+02 -0.61232658077E+03  0.61725222062E+03  0.12699999809E+01 0.  1.
</event>
<event>
 5   0  0.1448458E-01  0.4997258E+03  0.7818609E-02  0.1013851E+00
        1   -1    0    0  501    0  0.00000000000E+00  0.00000000000E+00  0.49932620767E+03  0.49932620770E+03  0.50400001928E-02 0.  1.
       -1   -1    0    0    0  501  0.00000000000E+00  0.00000000000E+00 -0.12503144314E+03  0.12503144324E+03  0.50400001928E-02 0. -1.
    10030    2    1    2    0    0  0.00000000000E+00  0.00000000000E+00  0.37429476453E+03  0.62435765094E+03  0.49972583037E+03 0.  0.
        5    1    3    3  502    0  0.85536959514E+02  0.20419584526E+03  0.33175905149E+03  0.39887174995E+03  0.46999998093E+01 0.  1.
       -5    1    3    3    0  502 -0.85536959514E+02 -0.20419584526E+03  0.42535713045E+02  0.22548590100E+03  0.46999998093E+01 0. -1.
</event>
<event>
 5   0  0.1448458E-01  0.4952380E+03  0.7818609E-02  0.1015029E+00
       -1   -1    0    0    0  501  0.00000000000E+00  0.00000000000E+00  0.38146473239E+02  0.38146473572E+02  0.50400001928E-02 0. -1.
        1   -1    0    0  501    0  0.00000000000E+00  0.00000000000E+00 -0.16073616308E+04  0.16073616308E+04  0.50400001928E-02 0.  1.
    10030    2    1    2    0    0  0.00000000000E+00  0.00000000000E+00 -0.15692151576E+04  0.16455081044E+04  0.49523803455E+03 0.  0.
        5    1    3    3  502    0  0.66871874598E+01 -0.23259425085E+03 -0.50368481989E+03  0.55485610008E+03  0.46999998093E+01 0. -1.
       -5    1    3    3    0  502 -0.66871874598E+01  0.23259425085E+03 -0.10655303377E+04  0.10906520043E+04  0.46999998093E+01 0.  1.
</event>
<event>
 5   0  0.1413361E-01  0.4841632E+03  0.7818609E-02  0.1017997E+00
       -1   -1    0    0    0  501  0.00000000000E+00  0.00000000000E+00  0.26370682751E+03  0.26370682756E+03  0.50400001928E-02 0.  1.
        1   -1    0    0  501    0  0.00000000000E+00  0.00000000000E+00 -0.22222973702E+03  0.22222973708E+03  0.50400001928E-02 0. -1.
    10030    2    1    2    0    0  0.00000000000E+00  0.00000000000E+00  0.41477090497E+02  0.48593656464E+03  0.48416319131E+03 0.  0.
        3    1    3    3  502    0 -0.95560966524E+02  0.21777718968E+03 -0.24645283411E+02  0.23909454796E+03  0.10100000352E+00 0. -1.
       -3    1    3    3    0  502  0.95560966524E+02 -0.21777718968E+03  0.66122373908E+02  0.24684201668E+03  0.10100000352E+00 0.  1.
</event>
<event>
 5   0  0.9868500E-02  0.5016781E+03  0.7818609E-02  0.1013342E+00
        3   -1    0    0  501    0  0.00000000000E+00  0.00000000000E+00  0.18101899683E+04  0.18101899711E+04  0.10100000352E+00 0. -1.
       -3   -1    0    0    0  501  0.00000000000E+00  0.00000000000E+00 -0.34758830786E+02  0.34758977526E+02  0.10100000352E+00 0.  1.
    10030    2    1    2    0    0  0.00000000000E+00  0.00000000000E+00  0.17754311375E+04  0.18449489486E+04  0.50167808308E+03 0.  0.
        5    1    3    3  502    0  0.21132400959E+02  0.10464050009E+03  0.17223012780E+04  0.17256129331E+04  0.46999998093E+01 0. -1.
       -5    1    3    3    0  502 -0.21132400959E+02 -0.10464050009E+03  0.53129859437E+02  0.11933601548E+03  0.46999998093E+01 0.  1.
</event>
<event>
 5   0  0.1448458E-01  0.4989270E+03  0.7818609E-02  0.1014059E+00
        1   -1    0    0  501    0  0.00000000000E+00  0.00000000000E+00  0.12256252958E+04  0.12256252958E+04  0.50400001928E-02 0.  1.
       -1   -1    0    0    0  501  0.00000000000E+00  0.00000000000E+00 -0.50775742417E+02  0.50775742667E+02  0.50400001928E-02 0. -1.
    10030    2    1    2    0    0  0.00000000000E+00  0.00000000000E+00  0.11748495534E+04  0.12764010385E+04  0.49892698659E+03 0.  0.
        5    1    3    3  502    0  0.69929600692E+02 -0.14634921026E+03  0.10268608635E+03  0.19202802588E+03  0.46999998093E+01 0. -1.
       -5    1    3    3    0  502 -0.69929600692E+02  0.14634921026E+03  0.10721634671E+04  0.10843730126E+04  0.46999998093E+01 0.  1.
</event>
<event>
 5   0  0.1529146E-01  0.4990327E+03  0.7818609E-02  0.1014032E+00
       -1   -1    0    0    0  501  0.00000000000E+00  0.00000000000E+00  0.12445196865E+03  0.12445196875E+03  0.50400001928E-02 0.  1.
        1   -1    0    0  501    0  0.00000000000E+00  0.00000000000E+00 -0.50026054453E+03  0.50026054455E+03  0.50400001928E-02 0. -1.
    10030    2    1    2    0    0  0.00000000000E+00  0.00000000000E+00 -0.37580857588E+03  0.62471251330E+03  0.49903270291E+03 0.  0.
        1    1    3    3  502    0  0.24551131584E+03 -0.28404072640E+02 -0.23083026160E+03  0.33817925313E+03  0.50400001928E-02 0. -1.
       -1    1    3    3    0  502 -0.24551131584E+03  0.28404072640E+02 -0.14497831428E+03  0.28653326018E+03  0.50400001928E-02 0.  1.
</event>
<event>
 5   0  0.2511944E-01  0.5071352E+03  0.7818609E-02  0.1011933E+00
       -2   -1    0    0    0  501  0.00000000000E+00  0.00000000000E+00  0.13662612472E+03  0.13662612475E+03  0.25500000920E-02 0.  1.
        2   -1    0    0  501    0  0.00000000000E+00  0.00000000000E+00 -0.47060195586E+03  0.47060195586E+03  0.25500000920E-02 0. -1.
    10030    2    1    2    0    0  0.00000000000E+00  0.00000000000E+00 -0.33397583113E+03  0.60722808061E+03  0.50713517537E+03 0.  0.
        1    1    3    3  502    0 -0.58273712732E+02 -0.42855307268E+02 -0.45798589651E+03  0.46366311519E+03  0.50400001928E-02 0. -1.
       -1    1    3    3    0  502  0.58273712732E+02  0.42855307268E+02  0.12401006538E+03  0.14356496542E+03  0.50400001928E-02 0.  1.
</event>
<event>
 5   0  0.1453602E-01  0.4984026E+03  0.7818609E-02  0.1014197E+00
        1   -1    0    0  501    0  0.00000000000E+00  0.00000000000E+00  0.10343407122E+04  0.10343407122E+04  0.50400001928E-02 0.  1.
       -1   -1    0    0    0  501  0.00000000000E+00  0.00000000000E+00 -0.60039479900E+02  0.60039480112E+02  0.50400001928E-02 0. -1.
    10030    2    1    2    0    0  0.00000000000E+00  0.00000000000E+00  0.97430123228E+03  0.10943801923E+04  0.49840256228E+03 0.  0.
        2    1    3    3  502    0 -0.14600512590E+03 -0.26601538306E+02  0.92672350554E+03  0.93853161606E+03  0.25500000920E-02 0.  1.
       -2    1    3    3    0  502  0.14600512590E+03  0.26601538306E+02  0.47577726746E+02  0.15584857624E+03  0.25500000920E-02 0. -1.
</event>
<event>
 5   0  0.1413361E-01  0.5104663E+03  0.7818609E-02  0.1011083E+00
       -1   -1    0    0    0  501  0.00000000000E+00  0.00000000000E+00  0.41143094122E+03  0.41143094126E+03  0.50400001928E-02 0. -1.
        1   -1    0    0  501    0  0.00000000000E+00  0.00000000000E+00 -0.15833511893E+03  0.15833511901E+03  0.50400001928E-02 0.  1.
    10030    2    1    2    0    0  0.00000000000E+00  0.00000000000E+00  0.25309582230E+03  0.56976606026E+03  0.51046632422E+03 0.  0.
        3    1    3    3  502    0  0.13518259979E+03 -0.21409779924E+03  0.90695568214E+02  0.26895705832E+03  0.10100000352E+00 0. -1.
       -3    1    3    3    0  502 -0.13518259979E+03  0.21409779924E+03  0.16240025408E+03  0.30080900195E+03  0.10100000352E+00 0.  1.
</event>
<event>
 5   0  0.9868500E-02  0.4949556E+03  0.7818609E-02  0.1015104E+00
       -3   -1    0    0    0  501  0.00000000000E+00  0.00000000000E+00  0.64223677101E+03  0.64223677896E+03  0.10100000352E+00 0.  1.
        3   -1    0    0  501    0  0.00000000000E+00  0.00000000000E+00 -0.95362382363E+02  0.95362435848E+02  0.10100000352E+00 0. -1.
    10030    2    1    2    0    0  0.00000000000E+00  0.00000000000E+00  0.54687438865E+03  0.73759921480E+03  0.49495555833E+03 0.  0.
        3    1    3    3  502    0 -0.14402728512E+03  0.87143293503E+02  0.54377153220E+03  0.56923220384E+03  0.10100000352E+00 0.  1.
       -3    1    3    3    0  502  0.14402728512E+03 -0.87143293503E+02  0.31028564534E+01  0.16836701096E+03  0.10100000352E+00 0. -1.
</event>
<event>
 5   0  0.1453602E-01  0.5125217E+03  0.7818609E-02  0.1010561E+00
       -1   -1    0    0    0  501  0.00000000000E+00  0.00000000000E+00  0.10384768371E+03  0.10384768383E+03  0.50400001928E-02 0.  1.
        1   -1    0    0  501    0  0.00000000000E+00  0.00000000000E+00 -0.63236485435E+03  0.63236485437E+03  0.50400001928E-02 0. -1.
    10030    2    1    2    0    0  0.00000000000E+00  0.00000000000E+00 -0.52851717064E+03  0.73621253820E+03  0.51252170856E+03 0.  0.
        2    1    3    3  502    0 -0.69080068240E+02  0.33600495521E+02 -0.61543666505E+03  0.62021233285E+03  0.25500000920E-02 0. -1.
       -2    1    3    3    0  502  0.69080068240E+02 -0.33600495521E+02  0.86919494409E+02  0.11600020535E+03  0.25500000920E-02 0.  1.
</event>
<event>
 5   0  0.1413361E-01  0.4953317E+03  0.7818609E-02  0.1015005E+00
       -1   -1    0    0    0  501  0.00000000000E+00  0.00000000000E+00  0.38481905854E+03  0.38481905857E+03  0.50400001928E-02 0. -1.
        1   -1    0    0  501    0  0.00000000000E+00  0.00000000000E+00 -0.15939533269E+03  0.15939533276E+03  0.50400001928E-02 0.  1.
    10030    2    1    2    0    0  0.00000000000E+00  0.00000000000E+00  0.22542372586E+03  0.54421439134E+03  0.49533165411E+03 0.  0.
        3    1    3    3  502    0  0.17293838316E+03 -0.10412314443E+03 -0.44937408706E+02  0.20680593434E+03  0.10100000352E+00 0.  1.
       -3    1    3    3    0  502 -0.17293838316E+03  0.10412314443E+03  0.27036113456E+03  0.33740845700E+03  0.10100000352E+00 0. -1.
</event>
<event>
 5   0  0.2504064E-01  0.5027422E+03  0.7818609E-02  0.1013066E+00
        2   -1    0    0  501    0  0.00000000000E+00  0.00000000000E+00  0.45389449972E+03  0.45389449973E+03  0.25500000920E-02 0.  1.
       -2   -1    0    0    0  501  0.00000000000E+00  0.00000000000E+00 -0.13921169037E+03  0.13921169039E+03  0.25500000920E-02 0. -1.
    10030    2    1    2    0    0  0.00000000000E+00  0.00000000000E+00  0.31468280936E+03  0.59310619012E+03  0.50274216279E+03 0.  0.
        5    1    3    3  502    0 -0.73276773263E+02  0.21943980778E+03  0.41498065509E+02  0.23509039576E+03  0.46999998093E+01 0. -1.
       -5    1    3    3    0  502  0.73276773263E+02 -0.21943980778E+03  0.27318474385E+03  0.35801579436E+03  0.46999998093E+01 0.  1.
</event>
<event>
 5   0  0.2511944E-01  0.5004584E+03  0.7818609E-02  0.1013659E+00
        2   -1    0    0  501    0  0.00000000000E+00  0.00000000000E+00  0.38401816151E+03  0.38401816152E+03  0.25500000920E-02 0.  1.
       -2   -1    0    0    0  501  0.00000000000E+00  0.00000000000E+00 -0.16305128248E+03  0.16305128250E+03  0.25500000920E-02 0. -1.
    10030    2    1    2    0    0  0.00000000000E+00  0.00000000000E+00  0.22096687903E+03  0.54706944402E+03  0.50045840482E+03 0.  0.
        1    1    3    3  502    0 -0.45016672070E+01 -0.68671673862E+02 -0.15250305252E+03  0.16731181922E+03  0.50400001928E-02 0. -1.
       -1    1    3    3    0  502  0.45016672070E+01  0.68671673862E+02  0.37346993154E+03  0.37975762480E+03  0.50400001928E-02 0.  1.
</event>
<event>
 5   0  0.1529146E-01  0.5143603E+03  0.7818609E-02  0.1010097E+00
        1   -1    0    0  501    0  0.00000000000E+00  0.00000000000E+00  0.14050098060E+03  0.14050098069E+03  0.50400001928E-02 0.  1.
       -1   -1    0    0    0  501  0.00000000000E+00  0.00000000000E+00 -0.47075572847E+03  0.47075572849E+03  0.50400001928E-02 0. -1.
    10030    2    1    2    0    0  0.00000000000E+00  0.00000000000E+00 -0.33025474787E+03  0.61125670918E+03  0.51436034648E+03 0.  0.
        1    1    3    3  502    0 -0.12657243148E+03 -0.48105223276E+02 -0.42496477934E+03  0.44601542195E+03  0.50400001928E-02 0. -1.
       -1    1    3    3    0  502  0.12657243148E+03  0.48105223276E+02  0.94710031469E+02  0.16524128723E+03  0.50400001928E-02 0.  1.
</event>
<event>
 5   0  0.2488968E-01  0.4899640E+03  0.7818609E-02  0.1016432E+00
        2   -1    0    0  501    0  0.00000000000E+00  0.00000000000E+00  0.33806835742E+03  0.33806835743E+03  0.25500000920E-02 0.  1.
       -2   -1    0    0    0  501  0.00000000000E+00  0.00000000000E+00 -0.17752672872E+03  0.17752672874E+03  0.25500000920E-02 0. -1.
    10030    2    1    2    0    0  0.00000000000E+00  0.00000000000E+00  0.16054162871E+03  0.51559508617E+03  0.48996395616E+03 0.  0.
        2    1    3    3  502    0 -0.21342161123E+03 -0.41907452328E+02 -0.38370807204E+02  0.22085592035E+03  0.25500000920E-02 0.  1.
       -2    1    3    3    0  502  0.21342161123E+03  0.41907452328E+02  0.19891243591E+03  0.29473916582E+03  0.25500000920E-02 0. -1.
</event>
<event>
 5   0  0.2504064E-01  0.5046019E+03  0.7818609E-02  0.1012585E+00
        2   -1    0    0  501    0  0.00000000000E+00  0.00000000000E+00  0.18129281374E+04  0.18129281374E+04  0.25500000920E-02 0. -1.
       -2   -1    0    0    0  501  0.00000000000E+00  0.00000000000E+00 -0.35112132725E+02  0.35112132818E+02  0.25500000920E-02 0.  1.
    10030    2    1    2    0    0  0.00000000000E+00  0.00000000000E+00  0.17778160046E+04  0.18480402702E+04  0.50460191624E+03 0.  0.
        5    1    3    3  502    0 -0.43319418038E+02 -0.16831074391E+03  0.21929841716E+03  0.27985525591E+03  0.46999998093E+01 0.  1.
       -5    1    3    3    0  502  0.43319418038E+02  0.16831074391E+03  0.15585175875E+04  0.15681850143E+04  0.46999998093E+01 0. -1.
</event>
<event>
 5   0  0.1453602E-01  0.5084712E+03  0.7818609E-02  0.1011591E+00
       -1   -1    0    0    0  501  0.00000000000E+00  0.00000000000E+00  0.39242840151E+03  0.39242840154E+03  0.50400001928E-02 0.  1.
        1   -1    0    0  501    0  0.00000000000E+00  0.00000000000E+00 -0.16470707635E+03  0.16470707643E+03  0.50400001928E-02 0. -1.
    10030    2    1    2    0    0  0.00000000000E+00  0.00000000000E+00  0.22772132516E+03  0.55713547797E+03  0.50847117802E+03 0.  0.
        2    1    3    3  502    0  0.44893969334E+00 -0.23127130645E+03 -0.18343641987E+01  0.23127901684E+03  0.25500000920E-02 0. -1.
       -2    1    3    3    0  502 -0.44893969334E+00  0.23127130645E+03  0.22955568936E+03  0.32585646112E+03  0.25500000920E-02 0.  1.
</event>
<event>
 5   0  0.2488968E-01  0.5124392E+03  0.7818609E-02  0.1010582E+00
       -2   -1    0    0    0  501  0.00000000000E+00  0.00000000000E+00  0.44569957247E+03  0.44569957248E+03  0.25500000920E-02 0.  1.
        2   -1    0    0  501    0  0.00000000000E+00  0.00000000000E+00 -0.14729310251E+03  0.14729310253E+03  0.25500000920E-02 0. -1.
    10030    2    1    2    0    0  0.00000000000E+00  0.00000000000E+00  0.29840646997E+03  0.59299267501E+03  0.51243915863E+03 0.  0.
        2    1    3    3  502    0  0.72213750045E+02  0.19870052382E+03 -0.18297670898E+02  0.21220633504E+03  0.25500000920E-02 0. -1.
       -2    1    3    3    0  502 -0.72213750045E+02 -0.19870052382E+03  0.31670414086E+03  0.38078633997E+03  0.25500000920E-02 0.  1.
</event>
<event>
 5   0  0.2466034E-01  0.4964106E+03  0.7818609E-02  0.1014720E+00
       -2   -1    0    0    0  501  0.00000000000E+00  0.00000000000E+00  0.25173537914E+02  0.25173538043E+02  0.25500000920E-02 0.  1.
        2   -1    0    0  501    0  0.00000000000E+00  0.00000000000E+00 -0.24472471481E+04  0.24472471481E+04  0.25500000920E-02 0. -1.
    10030    2    1    2    0    0  0.00000000000E+00  0.00000000000E+00 -0.24220736102E+04  0.24724206862E+04  0.49641059227E+03 0.  0.
        3    1    3    3  502    0  0.16217972733E+03  0.98839169230E+02 -0.41516288743E+03  0.45654318376E+03  0.10100000352E+00 0.  1.
       -3    1    3    3    0  502 -0.16217972733E+03 -0.98839169230E+02 -0.20069107228E+04  0.20158775024E+04  0.10100000352E+00 0. -1.
</event>
<event>
 5   0  0.1448458E-01  0.4688517E+03  0.7818609E-02  0.1022245E+00
       -1   -1    0    0    0  501  0.00000000000E+00  0.00000000000E+00  0.34371056635E+03  0.34371056639E+03  0.50400001928E-02 0.  1.
        1   -1    0    0  501    0  0.00000000000E+00  0.00000000000E+00 -0.15988879834E+03  0.15988879842E+03  0.50400001928E-02 0. -1.
    10030    2    1    2    0    0  0.00000000000E+00  0.00000000000E+00  0.18382176801E+03  0.50359936481E+03  0.46885165868E+03 0.  0.
        5    1    3    3  502    0 -0.10158708469E+03  0.17996907813E+03  0.21066990110E+03  0.29514861017E+03  0.46999998093E+01 0. -1.
       -5    1    3    3    0  502  0.10158708469E+03 -0.17996907813E+03 -0.26848133088E+02  0.20845075464E+03  0.46999998093E+01 0.  1.
</event>
<event>
 5   0  0.1413361E-01  0.4675744E+03  0.7818609E-02  0.1022607E+00
       -1   -1    0    0    0  501  0.00000000000E+00  0.00000000000E+00  0.14158070633E+04  0.14158070633E+04  0.50400001928E-02 0.  1.
        1   -1    0    0  501    0  0.00000000000E+00  0.00000000000E+00 -0.38604451265E+02  0.38604451594E+02  0.50400001928E-02 0. -1.
    10030    2    1    2    0    0  0.00000000000E+00  0.00000000000E+00  0.13772026120E+04  0.14544115149E+04  0.46757440059E+03 0.  0.
        3    1    3    3  502    0 -0.16672275818E+03  0.25150871596E+02  0.18485230072E+03  0.25019877642E+03  0.10100000352E+00 0. -1.
       -3    1    3    3    0  502  0.16672275818E+03 -0.25150871596E+02  0.11923503113E+04  0.12042127385E+04  0.10100000352E+00 0.  1.
</event>
<event>
 5   0  0.2511944E-01  0.5205601E+03  0.7818609E-02  0.1008548E+00
       -2   -1    0    0    0  501  0.00000000000E+00  0.00000000000E+00  0.17532473234E+03  0.17532473236E+03  0.25500000920E-02 0.  1.
        2   -1    0    0  501    0  0.00000000000E+00  0.00000000000E+00 -0.38640133740E+03  0.38640133741E+03  0.25500000920E-02 0. -1.
    10030    2    1    2    0    0  0.00000000000E+00  0.00000000000E+00 -0.21107660506E+03  0.56172606977E+03  0.52056012550E+03 0.  0.
        1    1    3    3  502    0  0.15017924865E+03 -0.17254208982E+03  0.28463858627E+02  0.23050980621E+03  0.50400001928E-02 0.  1.
       -1    1    3    3    0  502 -0.15017924865E+03  0.17254208982E+03 -0.23954046369E+03  0.33121626357E+03  0.50400001928E-02 0. -1.
</event>
<event>
 5   0  0.1439814E-01  0.3815842E+03  0.7818609E-02  0.1050350E+00
        1   -1    0    0  501    0  0.00000000000E+00  0.00000000000E+00  0.15894092153E+03  0.15894092161E+03  0.50400001928E-02 0.  1.
       -1   -1    0    0    0  501  0.00000000000E+00  0.00000000000E+00 -0.22902609102E+03  0.22902609108E+03  0.50400001928E-02 0. -1.
    10030    2    1    2    0    0  0.00000000000E+00  0.00000000000E+00 -0.70085169489E+02  0.38796701269E+03  0.38158416104E+03 0.  0.
        4    1    3    3  502    0 -0.15827422611E+03 -0.73392929866E+02 -0.11355310314E+03  0.20816621469E+03  0.12699999809E+01 0. -1.
       -4    1    3    3    0  502  0.15827422611E+03  0.73392929866E+02  0.43467933655E+02  0.17980079800E+03  0.12699999809E+01 0.  1.
</event>
<event>
 5   0  0.1453602E-01  0.4998967E+03  0.7818609E-02  0.1013806E+00
       -1   -1    0    0    0  501  0.00000000000E+00  0.00000000000E+00  0.17078491387E+03  0.17078491395E+03  0.50400001928E-02 0. -1.
        1   -1    0    0  501    0  0.00000000000E+00  0.00000000000E+00 -0.36580616451E+03  0.36580616455E+03  0.50400001928E-02 0.  1.
    10030    2    1    2    0    0  0.00000000000E+00  0.00000000000E+00 -0.19502125064E+03  0.53659107850E+03  0.49989668665E+03 0.  0.
        2    1    3    3  502    0  0.86692959820E+02  0.92909697469E+02 -0.32854519332E+03  0.35226385739E+03  0.25500000920E-02 0.  1.
       -2    1    3    3    0  502 -0.86692959820E+02 -0.92909697469E+02  0.13352394268E+03  0.18432722111E+03  0.25500000920E-02 0. -1.
</event>
<event>
 5   0  0.2413301E-01  0.5023035E+03  0.7818609E-02  0.1013179E+00
       -2   -1    0    0    0  501  0.00000000000E+00  0.00000000000E+00  0.47940307234E+02  0.47940307301E+02  0.25500000920E-02 0.  1.
        2   -1    0    0  501    0  0.00000000000E+00  0.00000000000E+00 -0.13157448663E+04  0.13157448663E+04  0.25500000920E-02 0. -1.
    10030    2    1    2    0    0  0.00000000000E+00  0.00000000000E+00 -0.12678045590E+04  0.13636851736E+04  0.50230354638E+03 0.  0.
        4    1    3    3  502    0 -0.14442509486E+03  0.16298848623E+03 -0.97355043826E+03  0.99761010591E+03  0.12699999809E+01 0. -1.
       -4    1    3    3    0  502  0.14442509486E+03 -0.16298848623E+03 -0.29425412076E+03  0.36607506765E+03  0.12699999809E+01 0.  1.
</event>
<event>
 5   0  0.2488968E-01  0.4867803E+03  0.7818609E-02  0.1017288E+00
        2   -1    0    0  501    0  0.00000000000E+00  0.00000000000E+00  0.81858175799E+03  0.81858175799E+03  0.25500000920E-02 0.  1.
       -2   -1    0    0    0  501  0.00000000000E+00  0.00000000000E+00 -0.72367570929E+02  0.72367570974E+02  0.25500000920E-02 0. -1.
    10030    2    1    2    0    0  0.00000000000E+00  0.00000000000E+00  0.74621418706E+03  0.89094932897E+03  0.48678033425E+03 0.  0.
        2    1    3    3  502    0 -0.75314849356E+01 -0.64213539155E+02 -0.56362918979E+02  0.85772259609E+02  0.25500000920E-02 0. -1.
       -2    1    3    3    0  502  0.75314849356E+01  0.64213539155E+02  0.80257710604E+03  0.80517706936E+03  0.25500000920E-02 0.  1.
</event>
<event>
 5   0  0.2504064E-01  0.5004240E+03  0.7818609E-02  0.1013668E+00
        2   -1    0    0  501    0  0.00000000000E+00  0.00000000000E+00  0.49656431872E+03  0.49656431873E+03  0.25500000920E-02 0. -1.
       -2   -1    0    0    0  501  0.00000000000E+00  0.00000000000E+00 -0.12607840931E+03  0.12607840934E+03  0.25500000920E-02 0.  1.
    10030    2    1    2    0    0  0.00000000000E+00  0.00000000000E+00  0.37048590941E+03  0.62264272807E+03  0.50042397798E+03 0.  0.
        5    1    3    3  502    0  0.22450622267E+03 -0.52112974972E+02  0.64193063005E+02  0.23929405658E+03  0.46999998093E+01 0.  1.
       -5    1    3    3    0  502 -0.22450622267E+03  0.52112974972E+02  0.30629284641E+03  0.38334867149E+03  0.46999998093E+01 0. -1.
</event>
<event>
 5   0  0.9868500E-02  0.4971448E+03  0.7818609E-02  0.1014527E+00
       -4   -1    0    0    0  501  0.00000000000E+00  0.00000000000E+00  0.51847979619E+03  0.51848135160E+03  0.12699999809E+01 0.  1.
        4   -1    0    0  501    0  0.00000000000E+00  0.00000000000E+00 -0.11916682749E+03  0.11917359470E+03  0.12699999809E+01 0. -1.
    10030    2    1    2    0    0  0.00000000000E+00  0.00000000000E+00  0.39931296870E+03  0.63765494630E+03  0.49714483158E+03 0.  0.
        1    1    3    3  502    0 -0.79528991987E+02 -0.22552994303E+03  0.28664546820E+03  0.37330180850E+03  0.50400001928E-02 0. -1.
       -1    1    3    3    0  502  0.79528991987E+02  0.22552994303E+03  0.11266750050E+03  0.26435313779E+03  0.50400001928E-02 0.  1.
</event>
<event>
 5   0  0.2413301E-01  0.5213161E+03  0.7818609E-02  0.1008360E+00
        2   -1    0    0  501    0  0.00000000000E+00  0.00000000000E+00  0.15445877045E+04  0.15445877045E+04  0.25500000920E-02 0. -1.
       -2   -1    0    0    0  501  0.00000000000E+00  0.00000000000E+00 -0.43987539363E+02  0.43987539437E+02  0.25500000920E-02 0.  1.
    10030    2    1    2    0    0  0.00000000000E+00  0.00000000000E+00  0.15006001652E+04  0.15885752440E+04  0.52131607500E+03 0.  0.
        4    1    3    3  502    0  0.26445028559E+02 -0.20021143106E+03  0.24813337914E+03  0.31993084160E+03  0.12699999809E+01 0.  1.
       -4    1    3    3    0  502 -0.26445028559E+02  0.20021143106E+03  0.12524667860E+04  0.12686444024E+04  0.12699999809E+01 0. -1.
</event>
<event>
 5   0  0.2466034E-01  0.4864488E+03  0.7818609E-02  0.1017378E+00
        2   -1    0    0  501    0  0.00000000000E+00  0.00000000000E+00  0.11052590082E+03  0.11052590085E+03  0.25500000920E-02 0. -1.
       -2   -1    0    0    0  501  0.00000000000E+00  0.00000000000E+00 -0.53524195371E+03  0.53524195372E+03  0.25500000920E-02 0.  1.
    10030    2    1    2    0    0  0.00000000000E+00  0.00000000000E+00 -0.42471605289E+03  0.64576785457E+03  0.48644876032E+03 0.  0.
        3    1    3    3  502    0 -0.14154870671E+03  0.18360034667E+03 -0.31002707129E+03  0.38712003152E+03  0.10100000352E+00 0.  1.
       -3    1    3    3    0  502  0.14154870671E+03 -0.18360034667E+03 -0.11468898160E+03  0.25864782305E+03  0.10100000352E+00 0. -1.
</event>
<event>
 5   0  0.1413361E-01  0.5043240E+03  0.7818609E-02  0.1012656E+00
       -1   -1    0    0    0  501  0.00000000000E+00  0.00000000000E+00  0.39216065132E+02  0.39216065456E+02  0.50400001928E-02 0.  1.
        1   -1    0    0  501    0  0.00000000000E+00  0.00000000000E+00 -0.16214191692E+04  0.16214191692E+04  0.50400001928E-02 0. -1.
    10030    2    1    2    0    0  0.00000000000E+00  0.00000000000E+00 -0.15822031041E+04  0.16606352347E+04  0.50432402292E+03 0.  0.
        3    1    3    3  502    0 -0.11487247866E+03 -0.15905637284E+03 -0.26951781364E+03  0.33336838207E+03  0.10100000352E+00 0.  1.
       -3    1    3    3    0  502  0.11487247866E+03  0.15905637284E+03 -0.13126852905E+04  0.13272668526E+04  0.10100000352E+00 0. -1.
</event>
<event>
 5   0  0.2466034E-01  0.5492633E+03  0.7818609E-02  0.1001665E+00
        2   -1    0    0  501    0  0.00000000000E+00  0.00000000000E+00  0.85751156646E+03  0.85751156646E+03  0.25500000920E-02 0. -1.
       -2   -1    0    0    0  501  0.00000000000E+00  0.00000000000E+00 -0.87955138683E+02  0.87955138720E+02  0.25500000920E-02 0.  1.
    10030    2    1    2    0    0  0.00000000000E+00  0.00000000000E+00  0.76955642777E+03  0.94546670518E+03  0.54926332035E+03 0.  0.
        3    1    3    3  502    0 -0.87712593215E+02  0.24155576076E+03  0.21806743479E+03  0.33704020662E+03  0.10100000352E+00 0.  1.
       -3    1    3    3    0  502  0.87712593215E+02 -0.24155576076E+03  0.55148899299E+03  0.60842649856E+03  0.10100000352E+00 0. -1.
</event>
<event>
 5   0  0.1453602E-01  0.5116485E+03  0.7818609E-02  0.1010782E+00
       -1   -1    0    0    0  501  0.00000000000E+00  0.00000000000E+00  0.22021937556E+04  0.22021937556E+04  0.50400001928E-02 0.  1.
        1   -1    0    0  501    0  0.00000000000E+00  0.00000000000E+00 -0.29718564704E+02  0.29718565132E+02  0.50400001928E-02 0. -1.
    10030    2    1    2    0    0  0.00000000000E+00  0.00000000000E+00  0.21724751909E+04  0.22319123207E+04  0.51164846565E+03 0.  0.
        2    1    3    3  502    0 -0.17557830101E+03  0.17897028163E+03  0.13081503528E+04  0.13319592513E+04  0.25500000920E-02 0. -1.
       -2    1    3    3    0  502  0.17557830101E+03 -0.17897028163E+03  0.86432483804E+03  0.89995306942E+03  0.25500000920E-02 0.  1.
</event>
<event>
 5   0  0.1529146E-01  0.4982383E+03  0.7818609E-02  0.1014240E+00
        1   -1    0    0  501    0  0.00000000000E+00  0.00000000000E+00  0.11118194888E+04  0.11118194888E+04  0.50400001928E-02 0.  1.
       -1   -1    0    0    0  501  0.00000000000E+00  0.00000000000E+00 -0.55818731399E+02  0.55818731626E+02  0.50400001928E-02 0. -1.
    10030    2    1    2    0    0  0.00000000000E+00  0.00000000000E+00  0.10560007574E+04  0.11676382204E+04  0.49823831064E+03 0.  0.
        1    1    3    3  502    0  0.18469590668E+03 -0.16533495520E+03  0.47001848885E+03  0.53138084764E+03  0.50400001928E-02 0.  1.
       -1    1    3    3    0  502 -0.18469590668E+03  0.16533495520E+03  0.58598226852E+03  0.63625737277E+03  0.50400001928E-02 0. -1.
</event>
<event>
 5   0  0.2413301E-01  0.4978108E+03  0.7818609E-02  0.1014352E+00
       -2   -1    0    0    0  501  0.00000000000E+00  0.00000000000E+00  0.74370498158E+02  0.74370498202E+02  0.25500000920E-02 0. -1.
        2   -1    0    0  501    0  0.00000000000E+00  0.00000000000E+00 -0.83304387675E+03  0.83304387675E+03  0.25500000920E-02 0.  1.
    10030    2    1    2    0    0  0.00000000000E+00  0.00000000000E+00 -0.75867337859E+03  0.90741437496E+03  0.49781075972E+03 0.  0.
        4    1    3    3  502    0  0.23442958740E+03 -0.64127400844E+02 -0.28146825868E+03  0.37188109462E+03  0.12699999809E+01 0. -1.
       -4    1    3    3    0  502 -0.23442958740E+03  0.64127400844E+02 -0.47720511991E+03  0.53553328034E+03  0.12699999809E+01 0.  1.
</event>
<event>
 5   0  0.2413301E-01  0.5031567E+03  0.7818609E-02  0.1012958E+00
       -2   -1    0    0    0  501  0.00000000000E+00  0.00000000000E+00  0.18578085683E+03  0.18578085685E+03  0.25500000920E-02 0.  1.
        2   -1    0    0  501    0  0.00000000000E+00  0.00000000000E+00 -0.34067914446E+03  0.34067914447E+03  0.25500000920E-02 0. -1.
    10030    2    1    2    0    0  0.00000000000E+00  0.00000000000E+00 -0.15489828762E+03  0.52646000132E+03  0.50315668880E+03 0.  0.
        4    1    3    3  502    0  0.12528594599E+03  0.17488828072E+03 -0.21390220481E+03  0.30337805642E+03  0.12699999809E+01 0. -1.
       -4    1    3    3    0  502 -0.12528594599E+03 -0.17488828072E+03  0.59003917192E+02  0.22308194490E+03  0.12699999809E+01 0.  1.
</event>
<event>
 5   0  0.2413301E-01  0.4928738E+03  0.7818609E-02  0.1015656E+00
       -2   -1    0    0    0  501  0.00000000000E+00  0.00000000000E+00  0.31625009426E+03  0.31625009427E+03  0.25500000920E-02 0.  1.
        2   -1    0    0  501    0  0.00000000000E+00  0.00000000000E+00 -0.19203516339E+03  0.19203516341E+03  0.25500000920E-02 0. -1.
    10030    2    1    2    0    0  0.00000000000E+00  0.00000000000E+00  0.12421493087E+03  0.50828525768E+03  0.49287377099E+03 0.  0.
        4    1    3    3  502    0 -0.31868338898E+02  0.21250166445E+03 -0.62317465272E+02  0.22373562031E+03  0.12699999809E+01 0. -1.
       -4    1    3    3    0  502  0.31868338898E+02 -0.21250166445E+03  0.18653239614E+03  0.28454963737E+03  0.12699999809E+01 0.  1.
</event>
<event>
 5   0  0.1448458E-01  0.5138807E+03  0.7818609E-02  0.1010218E+00
        1   -1    0    0  501    0  0.00000000000E+00  0.00000000000E+00  0.82200522618E+03  0.82200522619E+03  0.50400001928E-02 0. -1.
       -1   -1    0    0    0  501  0.00000000000E+00  0.00000000000E+00 -0.80313788532E+02  0.80313788690E+02  0.50400001928E-02 0.  1.
    10030    2    1    2    0    0  0.00000000000E+00  0.00000000000E+00  0.74169143765E+03  0.90231901488E+03  0.51388074097E+03 0.  0.
        5    1    3    3  502    0  0.86567816237E+02  0.17761156655E+03  0.65913519115E+03  0.68812872749E+03  0.46999998093E+01 0. -1.
       -5    1    3    3    0  502 -0.86567816237E+02 -0.17761156655E+03  0.82556246493E+02  0.21419028739E+03  0.46999998093E+01 0.  1.
</event>
<event>
 5   0  0.1529146E-01  0.5038177E+03  0.7818609E-02  0.1012787E+00
       -1   -1    0    0    0  501  0.00000000000E+00  0.00000000000E+00  0.15309743919E+03  0.15309743927E+03  0.50400001928E-02 0.  1.
        1   -1    0    0  501    0  0.00000000000E+00  0.00000000000E+00 -0.41449465935E+03  0.41449465938E+03  0.50400001928E-02 0. -1.
    10030    2    1    2    0    0  0.00000000000E+00  0.00000000000E+00 -0.26139722017E+03  0.56759209865E+03  0.50381770884E+03 0.  0.
        1    1    3    3  502    0 -0.23153865203E+02 -0.17384546885E+03 -0.33441920952E+03  0.37761694379E+03  0.50400001928E-02 0. -1.
       -1    1    3    3    0  502  0.23153865203E+02  0.17384546885E+03  0.73021989354E+02  0.18997515487E+03  0.50400001928E-02 0.  1.
</event>
<event>
 5   0  0.1448458E-01  0.5113140E+03  0.7818609E-02  0.1010867E+00
       -1   -1    0    0    0  501  0.00000000000E+00  0.00000000000E+00  0.43172182920E+02  0.43172183215E+02  0.50400001928E-02 0. -1.
        1   -1    0    0  501    0  0.00000000000E+00  0.00000000000E+00 -0.15139492443E+04  0.15139492444E+04  0.50400001928E-02 0.  1.
    10030    2    1    2    0    0  0.00000000000E+00  0.00000000000E+00 -0.14707770614E+04  0.15571214276E+04  0.51131396986E+03 0.  0.
        5    1    3    3  502    0  0.51932882378E+02 -0.22581372799E+03 -0.40669647339E+03  0.46809504963E+03  0.46999998093E+01 0. -1.
       -5    1    3    3    0  502 -0.51932882378E+02  0.22581372799E+03 -0.10640805880E+04  0.10890263779E+04  0.46999998093E+01 0.  1.
</event>
<event>
 5   0  0.2466034E-01  0.4961686E+03  0.7818609E-02  0.1014784E+00
       -2   -1    0    0    0  501  0.00000000000E+00  0.00000000000E+00  0.97387438536E+02  0.97387438569E+02  0.25500000920E-02 0. -1.
        2   -1    0    0  501    0  0.00000000000E+00  0.00000000000E+00 -0.63196873479E+03  0.63196873480E+03  0.25500000920E-02 0.  1.
    10030    2    1    2    0    0  0.00000000000E+00  0.00000000000E+00 -0.53458129626E+03  0.72935617337E+03  0.49616858558E+03 0.  0.
        3    1    3    3  502    0 -0.14750534469E+03 -0.21200246153E+02  0.24263656096E+02  0.15098348373E+03  0.10100000352E+00 0. -1.
       -3    1    3    3    0  502  0.14750534469E+03  0.21200246153E+02 -0.55884495235E+03  0.57837268964E+03  0.10100000352E+00 0.  1.
</event>
<event>
 5   0  0.9868500E-02  0.4850579E+03  0.7818609E-02  0.1017754E+00
        3   -1    0    0  501    0  0.00000000000E+00  0.00000000000E+00  0.30662402752E+03  0.30662404415E+03  0.10100000352E+00 0.  1.
       -3   -1    0    0    0  501  0.00000000000E+00  0.00000000000E+00 -0.19183189808E+03  0.19183192467E+03  0.10100000352E+00 0. -1.
    10030    2    1    2    0    0  0.00000000000E+00  0.00000000000E+00  0.11479212944E+03  0.49845596882E+03  0.48505785209E+03 0.  0.
        5    1    3    3  502    0 -0.23339491779E+03  0.38893617336E+02  0.11189188879E+03  0.26177812340E+03  0.46999998093E+01 0.  1.
       -5    1    3    3    0  502  0.23339491779E+03 -0.38893617336E+02  0.29002406474E+01  0.23667784542E+03  0.46999998093E+01 0. -1.
</event>
<event>
 5   0  0.9868500E-02  0.5015227E+03  0.7818609E-02  0.1013382E+00
        3   -1    0    0  501    0  0.00000000000E+00  0.00000000000E+00  0.20404613605E+03  0.20404616105E+03  0.10100000352E+00 0. -1.
       -3   -1    0    0    0  501  0.00000000000E+00  0.00000000000E+00 -0.30817165736E+03  0.30817167391E+03  0.10100000352E+00 0.  1.
    10030    2    1    2    0    0  0.00000000000E+00  0.00000000000E+00 -0.10412552131E+03  0.51221783496E+03  0.50152266775E+03 0.  0.
        2    1    3    3  502    0  0.18146077503E+03 -0.25596150664E+02  0.12275423041E+03  0.22057147797E+03  0.25500000920E-02 0. -1.
       -2    1    3    3    0  502 -0.18146077503E+03  0.25596150664E+02 -0.22687975171E+03  0.29164635699E+03  0.25500000920E-02 0.  1.
</event>
<event>
 5   0  0.2466034E-01  0.5004128E+03  0.7818609E-02  0.1013671E+00
        2   -1    0    0  501    0  0.00000000000E+00  0.00000000000E+00  0.13873938222E+04  0.13873938222E+04  0.25500000920E-02 0.  1.
       -2   -1    0    0    0  501  0.00000000000E+00  0.00000000000E+00 -0.45122905324E+02  0.45122905396E+02  0.25500000920E-02 0. -1.
    10030    2    1    2    0    0  0.00000000000E+00  0.00000000000E+00  0.13422709169E+04  0.14325167276E+04  0.50041279016E+03 0.  0.
        3    1    3    3  502    0  0.12045764968E+03 -0.19487444102E+03  0.95907420644E+03  0.98605752205E+03  0.10100000352E+00 0.  1.
       -3    1    3    3    0  502 -0.12045764968E+03  0.19487444102E+03  0.38319671044E+03  0.44645920555E+03  0.10100000352E+00 0. -1.
</event>
<event>
 5   0  0.9868500E-02  0.5014429E+03  0.7818609E-02  0.1013403E+00
        4   -1    0    0  501    0  0.00000000000E+00  0.00000000000E+00  0.21755617965E+03  0.21755988648E+03  0.12699999809E+01 0. -1.
       -4   -1    0    0    0  501  0.00000000000E+00  0.00000000000E+00 -0.28893501648E+03  0.28893780758E+03  0.12699999809E+01 0.  1.
    10030    2    1    2    0    0  0.00000000000E+00  0.00000000000E+00 -0.71378836830E+02  0.50649769406E+03  0.50144289380E+03 0.  0.
        1    1    3    3  502    0  0.15701193259E+03  0.19545653694E+03 -0.38001400202E+02  0.25357466603E+03  0.50400001928E-02 0.  1.
       -1    1    3    3    0  502 -0.15701193259E+03 -0.19545653694E+03 -0.33377436628E+02  0.25292302803E+03  0.50400001928E-02 0. -1.
</event>
<event>
 5   0  0.1529146E-01  0.4171362E+03  0.7818609E-02  0.1038002E+00
        1   -1    0    0  501    0  0.00000000000E+00  0.00000000000E+00  0.10449718209E+04  0.10449718209E+04  0.50400001928E-02 0. -1.
       -1   -1    0    0    0  501  0.00000000000E+00  0.00000000000E+00 -0.41628547770E+02  0.41628548075E+02  0.50400001928E-02 0.  1.
    10030    2    1    2    0    0  0.00000000000E+00  0.00000000000E+00  0.10033432731E+04  0.10866003689E+04  0.41713623451E+03 0.  0.
        1    1    3    3  502    0  0.20038233702E+03  0.33815197068E+02  0.37937664830E+03  0.43037563807E+03  0.50400001928E-02 0.  1.
       -1    1    3    3    0  502 -0.20038233702E+03 -0.33815197068E+02  0.62396662478E+03  0.65622473087E+03  0.50400001928E-02 0. -1.
</event>
<event>
 5   0  0.1453602E-01  0.5217928E+03  0.7818609E-02  0.1008242E+00
        1   -1    0    0  501    0  0.00000000000E+00  0.00000000000E+00  0.66796294721E+03  0.66796294723E+03  0.50400001928E-02 0. -1.
       -1   -1    0    0    0  501  0.00000000000E+00  0.00000000000E+00 -0.10190225346E+03  0.10190225358E+03  0.50400001928E-02 0.  1.
    10030    2    1    2    0    0  0.00000000000E+00  0.00000000000E+00  0.56606069375E+03  0.76986520081E+03  0.52179279260E+03 0.  0.
        2    1    3    3  502    0  0.21137640245E+03 -0.61868197561E+02  0.76685817775E+02  0.23321314722E+03  0.25500000920E-02 0.  1.
       -2    1    3    3    0  502 -0.21137640245E+03  0.61868197561E+02  0.48937487598E+03  0.53665205359E+03  0.25500000920E-02 0. -1.
</event>
<event>
 5   0  0.2466034E-01  0.4911267E+03  0.7818609E-02  0.1016121E+00
       -2   -1    0    0    0  501  0.00000000000E+00  0.00000000000E+00  0.18277400007E+03  0.18277400009E+03  0.25500000920E-02 0. -1.
        2   -1    0    0  501    0  0.00000000000E+00  0.00000000000E+00 -0.32992309515E+03  0.32992309516E+03  0.25500000920E-02 0.  1.
    10030    2    1    2    0    0  0.00000000000E+00  0.00000000000E+00 -0.14714909508E+03  0.51269709525E+03  0.49112672020E+03 0.  0.
        3    1    3    3  502    0  0.19276559337E+03 -0.71254908363E+02 -0.21388579938E+03  0.29661925313E+03  0.10100000352E+00 0.  1.
       -3    1    3    3    0  502 -0.19276559337E+03  0.71254908363E+02  0.66736704297E+02  0.21607784212E+03  0.10100000352E+00 0. -1.
</event>
<event>
 5   0  0.1453602E-01  0.5013312E+03  0.7818609E-02  0.1013432E+00
       -1   -1    0    0    0  501  0.00000000000E+00  0.00000000000E+00  0.68649467572E+03  0.68649467573E+03  0.50400001928E-02 0.  1.
        1   -1    0    0  501    0  0.00000000000E+00  0.00000000000E+00 -0.91527636265E+02  0.91527636404E+02  0.50400001928E-02 0. -1.
    10030    2    1    2    0    0  0.00000000000E+00  0.00000000000E+00  0.59496703945E+03  0.77802231214E+03  0.50133116814E+03 0.  0.
        2    1    3    3  502    0  0.59751101896E+02 -0.23125533984E+03  0.17945639895E+03  0.29875378745E+03  0.25500000920E-02 0.  1.
       -2    1    3    3    0  502 -0.59751101896E+02  0.23125533984E+03  0.41551064050E+03  0.47926852469E+03  0.25500000920E-02 0. -1.
</event>
<event>
 5   0  0.2413301E-01  0.5280007E+03  0.7818609E-02  0.1006718E+00
        2   -1    0    0  501    0  0.00000000000E+00  0.00000000000E+00  0.27044304418E+03  0.27044304419E+03  0.25500000920E-02 0.  1.
       -2   -1    0    0    0  501  0.00000000000E+00  0.00000000000E+00 -0.25771111838E+03  0.25771111839E+03  0.25500000920E-02 0. -1.
    10030    2    1    2    0    0  0.00000000000E+00  0.00000000000E+00  0.12731925799E+02  0.52815416258E+03  0.52800067947E+03 0.  0.
        4    1    3    3  502    0 -0.21985854808E+03 -0.36592766242E+02 -0.13515927967E+03  0.26066540907E+03  0.12699999809E+01 0. -1.
       -4    1    3    3    0  502  0.21985854808E+03  0.36592766242E+02  0.14789120547E+03  0.26748875352E+03  0.12699999809E+01 0.  1.
</event>
<event>
 5   0  0.1413361E-01  0.4979403E+03  0.7818609E-02  0.1014318E+00
       -1   -1    0    0    0  501  0.00000000000E+00  0.00000000000E+00  0.48562186060E+03  0.48562186062E+03  0.50400001928E-02 0.  1.
        1   -1    0    0  501    0  0.00000000000E+00  0.00000000000E+00 -0.12764279389E+03  0.12764279399E+03  0.50400001928E-02 0. -1.
    10030    2    1    2    0    0  0.00000000000E+00  0.00000000000E+00  0.35797906670E+03  0.61326465461E+03  0.49794028196E+03 0.  0.
        3    1    3    3  502    0  0.37892318440E+02  0.86126357026E+02 -0.10490104410E+03  0.14091776476E+03  0.10100000352E+00 0. -1.
       -3    1    3    3    0  502 -0.37892318440E+02 -0.86126357026E+02  0.46288011081E+03  0.47234688985E+03  0.10100000352E+00 0.  1.
</event>
<event>
 5   0  0.1529146E-01  0.5005128E+03  0.7818609E-02  0.1013645E+00
        1   -1    0    0  501    0  0.00000000000E+00  0.00000000000E+00  0.50631845281E+03  0.50631845284E+03  0.50400001928E-02 0.  1.
       -1   -1    0    0    0  501  0.00000000000E+00  0.00000000000E+00 -0.12369344797E+03  0.12369344807E+03  0.50400001928E-02 0. -1.
    10030    2    1    2    0    0  0.00000000000E+00  0.00000000000E+00  0.38262500484E+03  0.63001190091E+03  0.50051283796E+03 0.  0.
        1    1    3    3  502    0  0.37053603102E+01 -0.16515251447E+03  0.42793816477E+03  0.45871576780E+03  0.50400001928E-02 0.  1.
       -1    1    3    3    0  502 -0.37053603102E+01  0.16515251447E+03 -0.45313159929E+02  0.17129613311E+03  0.50400001928E-02 0. -1.
</event>
<event>
 5   0  0.2413301E-01  0.5126698E+03  0.7818609E-02  0.1010524E+00
       -2   -1    0    0    0  501  0.00000000000E+00  0.00000000000E+00  0.21467716059E+03  0.21467716060E+03  0.25500000920E-02 0.  1.
        2   -1    0    0  501    0  0.00000000000E+00  0.00000000000E+00 -0.30607619643E+03  0.30607619644E+03  0.25500000920E-02 0. -1.
    10030    2    1    2    0    0  0.00000000000E+00  0.00000000000E+00 -0.91399035844E+02  0.52075335704E+03  0.51266975249E+03 0.  0.
        4    1    3    3  502    0 -0.16307713447E+03 -0.15670241416E+03  0.76851735193E+02  0.23886732822E+03  0.12699999809E+01 0.  1.
       -4    1    3    3    0  502  0.16307713447E+03  0.15670241416E+03 -0.16825077104E+03  0.28188602882E+03  0.12699999809E+01 0. -1.
</event>
<event>
 5   0  0.2504064E-01  0.4774380E+03  0.7818609E-02  0.1019842E+00
        2   -1    0    0  501    0  0.00000000000E+00  0.00000000000E+00  0.14065467863E+04  0.14065467863E+04  0.25500000920E-02 0.  1.
       -2   -1    0    0    0  501  0.00000000000E+00  0.00000000000E+00 -0.40515372769E+02  0.40515372849E+02  0.25500000920E-02 0. -1.
    10030    2    1    2    0    0  0.00000000000E+00  0.00000000000E+00  0.13660314135E+04  0.14470621591E+04  0.47743802707E+03 0.  0.
        5    1    3    3  502    0  0.23537330308E+03  0.15981671568E+02  0.79265987844E+03  0.82703553643E+03  0.46999998093E+01 0. -1.
       -5    1    3    3    0  502 -0.23537330308E+03 -0.15981671568E+02  0.57337153505E+03  0.62002662268E+03  0.46999998093E+01 0.  1.
</event>
<event>
 5   0  0.9868500E-02  0.4776887E+03  0.7818609E-02  0.1019772E+00
       -4   -1    0    0    0  501  0.00000000000E+00  0.00000000000E+00  0.76625524386E+03  0.76625629632E+03  0.12699999809E+01 0.  1.
        4   -1    0    0  501    0  0.00000000000E+00  0.00000000000E+00 -0.74442080983E+02  0.74452913449E+02  0.12699999809E+01 0. -1.
    10030    2    1    2    0    0  0.00000000000E+00  0.00000000000E+00  0.69181316288E+03  0.84070920977E+03  0.47768873030E+03 0.  0.
        5    1    3    3  502    0 -0.96138649485E+02  0.90153114725E+02 -0.45595423263E+01  0.13195871871E+03  0.46999998093E+01 0. -1.
       -5    1    3    3    0  502  0.96138649485E+02 -0.90153114725E+02  0.69637270521E+03  0.70875049106E+03  0.46999998093E+01 0.  1.
</event>
<event>
 5   0  0.1453602E-01  0.4888145E+03  0.7818609E-02  0.1016740E+00
        1   -1    0    0  501    0  0.00000000000E+00  0.00000000000E+00  0.44551750239E+03  0.44551750242E+03  0.50400001928E-02 0.  1.
       -1   -1    0    0    0  501  0.00000000000E+00  0.00000000000E+00 -0.13407982000E+03  0.13407982009E+03  0.50400001928E-02 0. -1.
    10030    2    1    2    0    0  0.00000000000E+00  0.00000000000E+00  0.31143768240E+03  0.57959732251E+03  0.48881451108E+03 0.  0.
        2    1    3    3  502    0 -0.14665533790E+03 -0.10294098406E+03 -0.41375820868E+02  0.18389288429E+03  0.25500000920E-02 0.  1.
       -2    1    3    3    0  502  0.14665533790E+03  0.10294098406E+03  0.35281350327E+03  0.39570443822E+03  0.25500000920E-02 0. -1.
</event>
<event>
 5   0  0.1529146E-01  0.5052199E+03  0.7818609E-02  0.1012425E+00
        1   -1    0    0  501    0  0.00000000000E+00  0.00000000000E+00  0.20676557916E+03  0.20676557922E+03  0.50400001928E-02 0.  1.
       -1   -1    0    0    0  501  0.00000000000E+00  0.00000000000E+00 -0.30861897328E+03  0.30861897333E+03  0.50400001928E-02 0. -1.
    10030    2    1    2    0    0  0.00000000000E+00  0.00000000000E+00 -0.10185339412E+03  0.51538455255E+03  0.50521987600E+03 0.  0.
        1    1    3    3  502    0  0.22004963100E+03 -0.84386133577E+02 -0.14368982699E+03  0.27602468377E+03  0.50400001928E-02 0.  1.
       -1    1    3    3    0  502 -0.22004963100E+03  0.84386133577E+02  0.41836432868E+02  0.23935986878E+03  0.50400001928E-02 0. -1.
</event>
<event>
 5   0  0.1448458E-01  0.5007193E+03  0.7818609E-02  0.1013591E+00
       -1   -1    0    0    0  501  0.00000000000E+00  0.00000000000E+00  0.33815645257E+03  0.33815645261E+03  0.50400001928E-02 0. -1.
        1   -1    0    0  501    0  0.00000000000E+00  0.00000000000E+00 -0.18535788977E+03  0.18535788983E+03  0.50400001928E-02 0.  1.
    10030    2    1    2    0    0  0.00000000000E+00  0.00000000000E+00  0.15279856280E+03  0.52351434244E+03  0.50071934849E+03 0.  0.
        5    1    3    3  502    0 -0.69954636840E+02  0.14141140730E+03 -0.12678526799E+03  0.20245352925E+03  0.46999998093E+01 0.  1.
       -5    1    3    3    0  502  0.69954636840E+02 -0.14141140730E+03  0.27958383079E+03  0.32106081319E+03  0.46999998093E+01 0. -1.
</event>
<event>
 5   0  0.1413361E-01  0.4559031E+03  0.7818609E-02  0.1025976E+00
       -1   -1    0    0    0  501  0.00000000000E+00  0.00000000000E+00  0.12641408756E+03  0.12641408766E+03  0.50400001928E-02 0. -1.
        1   -1    0    0  501    0  0.00000000000E+00  0.00000000000E+00 -0.41104525075E+03  0.41104525078E+03  0.50400001928E-02 0.  1.
    10030    2    1    2    0    0  0.00000000000E+00  0.00000000000E+00 -0.28463116320E+03  0.53745933844E+03  0.45590310529E+03 0.  0.
        3    1    3    3  502    0 -0.37910944084E+02  0.13986617480E+03 -0.34975360373E+03  0.37858602729E+03  0.10100000352E+00 0.  1.
       -3    1    3    3    0  502  0.37910944084E+02 -0.13986617480E+03  0.65122440534E+02  0.15887331115E+03  0.10100000352E+00 0. -1.
</event>
<event>
 5   0  0.2511944E-01  0.5008224E+03  0.7818609E-02  0.1013564E+00
        2   -1    0    0  501    0  0.00000000000E+00  0.00000000000E+00  0.19639074146E+03  0.19639074148E+03  0.25500000920E-02 0.  1.
       -2   -1    0    0    0  501  0.00000000000E+00  0.00000000000E+00 -0.31929084861E+03  0.31929084862E+03  0.25500000920E-02 0. -1.
    10030    2    1    2    0    0  0.00000000000E+00  0.00000000000E+00 -0.12290010715E+03  0.51568159010E+03  0.50082238971E+03 0.  0.
        1    1    3    3  502    0 -0.12960986232E+03 -0.20519825899E+03  0.20290946964E+01  0.24271209107E+03  0.50400001928E-02 0. -1.
       -1    1    3    3    0  502  0.12960986232E+03  0.20519825899E+03 -0.12492920184E+03  0.27296949903E+03  0.50400001928E-02 0.  1.
</event>
<event>
 5   0  0.1413361E-01  0.4750864E+03  0.7818609E-02  0.1020494E+00
       -1   -1    0    0    0  501  0.00000000000E+00  0.00000000000E+00  0.23333375561E+03  0.23333375566E+03  0.50400001928E-02 0.  1.
        1   -1    0    0  501    0  0.00000000000E+00  0.00000000000E+00 -0.24182858071E+03  0.24182858076E+03  0.50400001928E-02 0. -1.
    10030    2    1    2    0    0  0.00000000000E+00  0.00000000000E+00 -0.84948251033E+01  0.47516233642E+03  0.47508639625E+03 0.  0.
        3    1    3    3  502    0  0.70827355965E+02 -0.19849834978E+03  0.10535409706E+03  0.23562174175E+03  0.10100000352E+00 0. -1.
       -3    1    3    3    0  502 -0.70827355965E+02  0.19849834978E+03 -0.11384892216E+03  0.23954059467E+03  0.10100000352E+00 0.  1.
</event>
<event>
 5   0  0.1529146E-01  0.5127999E+03  0.7818609E-02  0.1010491E+00
       -1   -1    0    0    0  501  0.00000000000E+00  0.00000000000E+00  0.54218508278E+03  0.54218508280E+03  0.50400001928E-02 0. -1.
        1   -1    0    0  501    0  0.00000000000E+00  0.00000000000E+00 -0.12125181452E+03  0.12125181463E+03  0.50400001928E-02 0.  1.
    10030    2    1    2    0    0  0.00000000000E+00  0.00000000000E+00  0.42093326826E+03  0.66343689743E+03  0.51279986402E+03 0.  0.
        1    1    3    3  502    0 -0.87975101895E+02 -0.12376996387E+03  0.47775228243E+03  0.50130416505E+03  0.50400001928E-02 0. -1.
       -1    1    3    3    0  502  0.87975101895E+02  0.12376996387E+03 -0.56819014172E+02  0.16213273237E+03  0.50400001928E-02 0.  1.
</event>
<event>
 5   0  0.1529146E-01  0.5030562E+03  0.7818609E-02  0.1012984E+00
        1   -1    0    0  501    0  0.00000000000E+00  0.00000000000E+00  0.10618160465E+04  0.10618160466E+04  0.50400001928E-02 0. -1.
       -1   -1    0    0    0  501  0.00000000000E+00  0.00000000000E+00 -0.59583187742E+02  0.59583187955E+02  0.50400001928E-02 0.  1.
    10030    2    1    2    0    0  0.00000000000E+00  0.00000000000E+00  0.10022328588E+04  0.11213992345E+04  0.50305619955E+03 0.  0.
        1    1    3    3  502    0  0.36741371096E+02  0.15289043480E+03  0.93874440721E+03  0.95182271222E+03  0.50400001928E-02 0. -1.
       -1    1    3    3    0  502 -0.36741371096E+02 -0.15289043480E+03  0.63488451597E+02  0.16957652230E+03  0.50400001928E-02 0.  1.
</event>
<event>
 5   0  0.1453602E-01  0.4876979E+03  0.7818609E-02  0.1017041E+00
        1   -1    0    0  501    0  0.00000000000E+00  0.00000000000E+00  0.41064106952E+03  0.41064106955E+03  0.50400001928E-02 0. -1.
       -1   -1    0    0    0  501  0.00000000000E+00  0.00000000000E+00 -0.14480360663E+03  0.14480360672E+03  0.50400001928E-02 0.  1.
    10030    2    1    2    0    0  0.00000000000E+00  0.00000000000E+00  0.26583746289E+03  0.55544467627E+03  0.48769788980E+03 0.  0.
        2    1    3    3  502    0 -0.12757079388E+02  0.18175534103E+03  0.31749463538E+03  0.36606091101E+03  0.25500000920E-02 0. -1.
       -2    1    3    3    0  502  0.12757079388E+02 -0.18175534103E+03 -0.51657172482E+02  0.18938376526E+03  0.25500000920E-02 0.  1.
</event>
<event>
 5   0  0.1413361E-01  0.4690794E+03  0.7818609E-02  0.1022180E+00
       -1   -1    0    0    0  501  0.00000000000E+00  0.00000000000E+00  0.16942751081E+03  0.16942751088E+03  0.50400001928E-02 0.  1.
        1   -1    0    0  501    0  0.00000000000E+00  0.00000000000E+00 -0.32467496452E+03  0.32467496456E+03  0.50400001928E-02 0. -1.
    10030    2    1    2    0    0  0.00000000000E+00  0.00000000000E+00 -0.15524745372E+03  0.49410247544E+03  0.46907940090E+03 0.  0.
        3    1    3    3  502    0 -0.22764805630E+03 -0.56291237528E+02 -0.73342435786E+02  0.24570605212E+03  0.10100000352E+00 0.  1.
       -3    1    3    3    0  502  0.22764805630E+03  0.56291237528E+02 -0.81905017931E+02  0.24839642333E+03  0.10100000352E+00 0. -1.
</event>
<event>
 5   0  0.2511944E-01  0.4968256E+03  0.7818609E-02  0.1014611E+00
       -2   -1    0    0    0  501  0.00000000000E+00  0.00000000000E+00  0.15322372191E+03  0.15322372193E+03  0.25500000920E-02 0.  1.
        2   -1    0    0  501    0  0.00000000000E+00  0.00000000000E+00 -0.40273732529E+03  0.40273732530E+03  0.25500000920E-02 0. -1.
    10030    2    1    2    0    0  0.00000000000E+00  0.00000000000E+00 -0.24951360339E+03  0.55596104723E+03  0.49682557076E+03 0.  0.
        1    1    3    3  502    0  0.20480333403E+03  0.65821817560E+01  0.32390484505E+02  0.20745330622E+03  0.50400001928E-02 0.  1.
       -1    1    3    3    0  502 -0.20480333403E+03 -0.65821817560E+01 -0.28190408789E+03  0.34850774101E+03  0.50400001928E-02 0. -1.
</event>
<event>
 5   0  0.2504064E-01  0.4926232E+03  0.7818609E-02  0.1015723E+00
       -2   -1    0    0    0  501  0.00000000000E+00  0.00000000000E+00  0.27450969219E+02  0.27450969337E+02  0.25500000920E-02 0. -1.
        2   -1    0    0  501    0  0.00000000000E+00  0.00000000000E+00 -0.22101003460E+04  0.22101003460E+04  0.25500000920E-02 0.  1.
    10030    2    1    2    0    0  0.00000000000E+00  0.00000000000E+00 -0.21826493768E+04  0.22375513154E+04  0.49262316918E+03 0.  0.
        5    1    3    3  502    0  0.10210581797E+03  0.33846068011E+02 -0.85103581256E+02  0.13724381197E+03  0.46999998093E+01 0. -1.
       -5    1    3    3    0  502 -0.10210581797E+03 -0.33846068011E+02 -0.20975457956E+04  0.21003075034E+04  0.46999998093E+01 0.  1.
</event>
<event>
 5   0  0.1413361E-01  0.4941491E+03  0.7818609E-02  0.1015317E+00
        1   -1    0    0  501    0  0.00000000000E+00  0.00000000000E+00  0.97466114682E+03  0.97466114683E+03  0.50400001928E-02 0.  1.
       -1   -1    0    0    0  501  0.00000000000E+00  0.00000000000E+00 -0.62632867826E+02  0.62632868029E+02  0.50400001928E-02 0. -1.
    10030    2    1    2    0    0  0.00000000000E+00  0.00000000000E+00  0.91202827899E+03  0.10372940149E+04  0.49414905806E+03 0.  0.
        3    1    3    3  502    0 -0.15951734460E+03 -0.85387182862E+02  0.80920268716E+03  0.82918378743E+03  0.10100000352E+00 0.  1.
       -3    1    3    3    0  502  0.15951734460E+03  0.85387182862E+02  0.10282559183E+03  0.20811022743E+03  0.10100000352E+00 0. -1.
</event>
<event>
 5   0  0.9868500E-02  0.6182974E+03  0.7818609E-02  0.9868155E-01
        4   -1    0    0  501    0  0.00000000000E+00  0.00000000000E+00  0.16348218386E+04  0.16348223319E+04  0.12699999809E+01 0. -1.
       -4   -1    0    0    0  501  0.00000000000E+00  0.00000000000E+00 -0.58453359724E+02  0.58467154565E+02  0.12699999809E+01 0.  1.
    10030    2    1    2    0    0  0.00000000000E+00  0.00000000000E+00  0.15763684789E+04  0.16932894865E+04  0.61829742338E+03 0.  0.
        4    1    3    3  502    0 -0.26094236258E+03  0.16366114625E+03  0.71596396572E+03  0.77941125248E+03  0.12699999809E+01 0.  1.
       -4    1    3    3    0  502  0.26094236258E+03 -0.16366114625E+03  0.86040451315E+03  0.91387823397E+03  0.12699999809E+01 0. -1.
</event>
<event>
 5   0  0.1453602E-01  0.5017305E+03  0.7818609E-02  0.1013328E+00
       -1   -1    0    0    0  501  0.00000000000E+00  0.00000000000E+00  0.67066167567E+03  0.67066167569E+03  0.50400001928E-02 0.  1.
        1   -1    0    0  501    0  0.00000000000E+00  0.00000000000E+00 -0.93837742964E+02  0.93837743099E+02  0.50400001928E-02 0. -1.
    10030    2    1    2    0    0  0.00000000000E+00  0.00000000000E+00  0.57682393271E+03  0.76449941879E+03  0.50173051730E+03 0.  0.
        2    1    3    3  502    0 -0.19186900598E+02  0.18547093354E+03  0.54413360846E+03  0.57519473938E+03  0.25500000920E-02 0.  1.
       -2    1    3    3    0  502  0.19186900598E+02 -0.18547093354E+03  0.32690324246E+02  0.18930467941E+03  0.25500000920E-02 0. -1.
</event>
<event>
 5   0  0.1453602E-01  0.4983844E+03  0.7818609E-02  0.1014201E+00
       -1   -1    0    0    0  501  0.00000000000E+00  0.00000000000E+00  0.48833867924E+03  0.48833867927E+03  0.50400001928E-02 0. -1.
        1   -1    0    0  501    0  0.00000000000E+00  0.00000000000E+00 -0.12715919421E+03  0.12715919431E+03  0.50400001928E-02 0.  1.
    10030    2    1    2    0    0  0.00000000000E+00  0.00000000000E+00  0.36117948503E+03  0.61549787358E+03  0.49838440182E+03 0.  0.
        2    1    3    3  502    0 -0.53769719090E+02  0.73884010106E+02 -0.10572130883E+03  0.13973913120E+03  0.25500000920E-02 0.  1.
       -2    1    3    3    0  502  0.53769719090E+02 -0.73884010106E+02  0.46690079386E+03  0.47575874238E+03  0.25500000920E-02 0. -1.
</event>
<event>
 5   0  0.1529146E-01  0.4921350E+03  0.7818609E-02  0.1015852E+00
        1   -1    0    0  501    0  0.00000000000E+00  0.00000000000E+00  0.93599336918E+03  0.93599336920E+03  0.50400001928E-02 0. -1.
       -1   -1    0    0    0  501  0.00000000000E+00  0.00000000000E+00 -0.64689789880E+02  0.64689790076E+02  0.50400001928E-02 0.  1.
    10030    2    1    2    0    0  0.00000000000E+00  0.00000000000E+00  0.87130357930E+03  0.10006831593E+04  0.49213499972E+03 0.  0.
        1    1    3    3  502    0 -0.19518056779E+03 -0.93045011012E+02  0.19681841650E+03  0.29238727266E+03  0.50400001928E-02 0.  1.
       -1    1    3    3    0  502  0.19518056779E+03  0.93045011012E+02  0.67448516281E+03  0.70829588661E+03  0.50400001928E-02 0. -1.
</event>
<event>
 5   0  0.1413361E-01  0.4865359E+03  0.7818609E-02  0.1017354E+00
        1   -1    0    0  501    0  0.00000000000E+00  0.00000000000E+00  0.13576956747E+04  0.13576956747E+04  0.50400001928E-02 0. -1.
       -1   -1    0    0    0  501  0.00000000000E+00  0.00000000000E+00 -0.43588034863E+02  0.43588035155E+02  0.50400001928E-02 0.  1.
    10030    2    1    2    0    0  0.00000000000E+00  0.00000000000E+00  0.13141076399E+04  0.14012837099E+04  0.48653586348E+03 0.  0.
        3    1    3    3  502    0  0.10717530259E+03  0.12565704580E+03  0.11714849410E+04  0.11830694045E+04  0.10100000352E+00 0. -1.
       -3    1    3    3    0  502 -0.10717530259E+03 -0.12565704580E+03  0.14262269883E+03  0.21821430537E+03  0.10100000352E+00 0.  1.
</event>
<event>
 5   0  0.2504064E-01  0.5019541E+03  0.7818609E-02  0.1013270E+00
       -2   -1    0    0    0  501  0.00000000000E+00  0.00000000000E+00  0.52238899899E+02  0.52238899961E+02  0.25500000920E-02 0.  1.
        2   -1    0    0  501    0  0.00000000000E+00  0.00000000000E+00 -0.12057966032E+04  0.12057966033E+04  0.25500000920E-02 0. -1.
    10030    2    1    2    0    0  0.00000000000E+00  0.00000000000E+00 -0.11535577033E+04  0.12580355032E+04  0.50195413375E+03 0.  0.
        5    1    3    3  502    0 -0.18968681243E+03 -0.16331944471E+03 -0.53243332945E+03  0.58835505279E+03  0.46999998093E+01 0.  1.
       -5    1    3    3    0  502  0.18968681243E+03  0.16331944471E+03 -0.62112437390E+03  0.66968045042E+03  0.46999998093E+01 0. -1.
</event>
<event>
 5   0  0.2413301E-01  0.3255174E+03  0.7818609E-02  0.1073138E+00
       -2   -1    0    0    0  501  0.00000000000E+00  0.00000000000E+00  0.30208556598E+02  0.30208556706E+02  0.25500000920E-02 0. -1.
        2   -1    0    0  501    0  0.00000000000E+00  0.00000000000E+00 -0.87691678667E+03  0.87691678668E+03  0.25500000920E-02 0.  1.
    10030    2    1    2    0    0  0.00000000000E+00  0.00000000000E+00 -0.84670823008E+03  0.90712534338E+03  0.32551737547E+03 0.  0.
        4    1    3    3  502    0 -0.15105299147E+03  0.33601516103E+02 -0.28283303121E+03  0.32240068945E+03  0.12699999809E+01 0. -1.
       -4    1    3    3    0  502  0.15105299147E+03 -0.33601516103E+02 -0.56387519887E+03  0.58472465393E+03  0.12699999809E+01 0.  1.
</event>
<event>
 5   0  0.1448458E-01  0.5110112E+03  0.7818609E-02  0.1010944E+00
       -1   -1    0    0    0  501  0.00000000000E+00  0.00000000000E+00  0.12245876002E+03  0.12245876012E+03  0.50400001928E-02 0. -1.
        1   -1    0    0  501    0  0.00000000000E+00  0.00000000000E+00 -0.53310292323E+03  0.53310292325E+03  0.50400001928E-02 0.  1.
    10030    2    1    2    0    0  0.00000000000E+00  0.00000000000E+00 -0.41064416321E+03  0.65556168337E+03  0.51101124443E+03 0.  0.
        5    1    3    3  502    0  0.12607115235E+03 -0.35966309324E+02 -0.48660028290E+03  0.50397364632E+03  0.46999998093E+01 0.  1.
       -5    1    3    3    0  502 -0.12607115235E+03  0.35966309324E+02  0.75956119695E+02  0.15158803706E+03  0.46999998093E+01 0. -1.
</event>
<event>
 5   0  0.1448458E-01  0.4899150E+03  0.7818609E-02  0.1016445E+00
        1   -1    0    0  501    0  0.00000000000E+00  0.00000000000E+00  0.63776003142E+03  0.63776003144E+03  0.50400001928E-02 0.  1.
       -1   -1    0    0    0  501  0.00000000000E+00  0.00000000000E+00 -0.94085831072E+02  0.94085831207E+02  0.50400001928E-02 0. -1.
    10030    2    1    2    0    0  0.00000000000E+00  0.00000000000E+00  0.54367420035E+03  0.73184586265E+03  0.48991502380E+03 0.  0.
        5    1    3    3  502    0  0.31858939714E+02 -0.21696573374E+03  0.43474571232E+03  0.48694460263E+03  0.46999998093E+01 0.  1.
       -5    1    3    3    0  502 -0.31858939714E+02  0.21696573374E+03  0.10892848804E+03  0.24490126002E+03  0.46999998093E+01 0. -1.
</event>
<event>
 5   0  0.2466034E-01  0.5047861E+03  0.7818609E-02  0.1012537E+00
        2   -1    0    0  501    0  0.00000000000E+00  0.00000000000E+00  0.84407394275E+03  0.84407394276E+03  0.25500000920E-02 0. -1.
       -2   -1    0    0    0  501  0.00000000000E+00  0.00000000000E+00 -0.75469976055E+02  0.75469976098E+02  0.25500000920E-02 0.  1.
    10030    2    1    2    0    0  0.00000000000E+00  0.00000000000E+00  0.76860396670E+03  0.91954391885E+03  0.50478605476E+03 0.  0.
        3    1    3    3  502    0  0.19677046358E+03 -0.15790345879E+03  0.37140649238E+03  0.44899321868E+03  0.10100000352E+00 0. -1.
       -3    1    3    3    0  502 -0.19677046358E+03  0.15790345879E+03  0.39719747432E+03  0.47055070018E+03  0.10100000352E+00 0.  1.
</event>
<event>
 5   0  0.2413301E-01  0.5074899E+03  0.7818609E-02  0.1011842E+00
        2   -1    0    0  501    0  0.00000000000E+00  0.00000000000E+00  0.65676865885E+03  0.65676865885E+03  0.25500000920E-02 0. -1.
       -2   -1    0    0    0  501  0.00000000000E+00  0.00000000000E+00 -0.98035288552E+02  0.98035288585E+02  0.25500000920E-02 0.  1.
    10030    2    1    2    0    0  0.00000000000E+00  0.00000000000E+00  0.55873337030E+03  0.75480394744E+03  0.50748992107E+03 0.  0.
        4    1    3    3  502    0  0.40850580380E+02  0.48816172090E+02  0.64469604365E+03  0.64783206943E+03  0.12699999809E+01 0. -1.
       -4    1    3    3    0  502 -0.40850580380E+02 -0.48816172090E+02 -0.85962673357E+02  0.10697187801E+03  0.12699999809E+01 0.  1.
</event>
<event>
 5   0  0.2413301E-01  0.5121770E+03  0.7818609E-02  0.1010649E+00
       -2   -1    0    0    0  501  0.00000000000E+00  0.00000000000E+00  0.40924055637E+02  0.40924055717E+02  0.25500000920E-02 0. -1.
        2   -1    0    0  501    0  0.00000000000E+00  0.00000000000E+00 -0.16025127308E+04  0.16025127308E+04  0.25500000920E-02 0.  1.
    10030    2    1    2    0    0  0.00000000000E+00  0.00000000000E+00 -0.15615886752E+04  0.16434367865E+04  0.51217700152E+03 0.  0.
        4    1    3    3  502    0 -0.81824976743E+02  0.24182437266E+03 -0.71619176955E+03  0.76033322806E+03  0.12699999809E+01 0. -1.
       -4    1    3    3    0  502  0.81824976743E+02 -0.24182437266E+03 -0.84539690563E+03  0.88310355847E+03  0.12699999809E+01 0.  1.
</event>
<event>
 5   0  0.1439814E-01  0.5166497E+03  0.7818609E-02  0.1009522E+00
        1   -1    0    0  501    0  0.00000000000E+00  0.00000000000E+00  0.29525397229E+03  0.29525397234E+03  0.50400001928E-02 0. -1.
       -1   -1    0    0    0  501  0.00000000000E+00  0.00000000000E+00 -0.22601464810E+03  0.22601464816E+03  0.50400001928E-02 0.  1.
    10030    2    1    2    0    0  0.00000000000E+00  0.00000000000E+00  0.69239324190E+02  0.52126862050E+03  0.51664967889E+03 0.  0.
        4    1    3    3  502    0 -0.13907747376E+03 -0.86127149545E+02  0.23633120656E+03  0.28742735029E+03  0.12699999809E+01 0. -1.
       -4    1    3    3    0  502  0.13907747376E+03  0.86127149545E+02 -0.16709188237E+03  0.23384127021E+03  0.12699999809E+01 0.  1.
</event>
<event>
 5   0  0.1413361E-01  0.5073541E+03  0.7818609E-02  0.1011877E+00
        1   -1    0    0  501    0  0.00000000000E+00  0.00000000000E+00  0.62997923532E+03  0.62997923534E+03  0.50400001928E-02 0.  1.
       -1   -1    0    0    0  501  0.00000000000E+00  0.00000000000E+00 -0.10214949024E+03  0.10214949037E+03  0.50400001928E-02 0. -1.
    10030    2    1    2    0    0  0.00000000000E+00  0.00000000000E+00  0.52782974507E+03  0.73212872571E+03  0.50735414773E+03 0.  0.
        3    1    3    3  502    0  0.66638358720E+02  0.20504511181E+03  0.71023531774E+02  0.22699894492E+03  0.10100000352E+00 0. -1.
       -3    1    3    3    0  502 -0.66638358720E+02 -0.20504511181E+03  0.45680621330E+03  0.50512978079E+03  0.10100000352E+00 0.  1.
</event>
<event>
 5   0  0.1529146E-01  0.4946929E+03  0.7818609E-02  0.1015174E+00
        1   -1    0    0  501    0  0.00000000000E+00  0.00000000000E+00  0.11482673961E+04  0.11482673961E+04  0.50400001928E-02 0. -1.
       -1   -1    0    0    0  501  0.00000000000E+00  0.00000000000E+00 -0.53280494229E+02  0.53280494467E+02  0.50400001928E-02 0.  1.
    10030    2    1    2    0    0  0.00000000000E+00  0.00000000000E+00  0.10949869019E+04  0.12015478906E+04  0.49469285228E+03 0.  0.
        1    1    3    3  502    0  0.21943951253E+03 -0.78433005802E+02  0.34610430205E+03  0.41724528036E+03  0.50400001928E-02 0.  1.
       -1    1    3    3    0  502 -0.21943951253E+03  0.78433005802E+02  0.74888259986E+03  0.78430261026E+03  0.50400001928E-02 0. -1.
</event>
<event>
 5   0  0.2413301E-01  0.4970803E+03  0.7818609E-02  0.1014544E+00
       -2   -1    0    0    0  501  0.00000000000E+00  0.00000000000E+00  0.40015168637E+02  0.40015168719E+02  0.25500000920E-02 0. -1.
        2   -1    0    0  501    0  0.00000000000E+00  0.00000000000E+00 -0.15437196062E+04  0.15437196062E+04  0.25500000920E-02 0.  1.
    10030    2    1    2    0    0  0.00000000000E+00  0.00000000000E+00 -0.15037044376E+04  0.15837347749E+04  0.49708027697E+03 0.  0.
        4    1    3    3  502    0  0.56300385471E+02  0.16391089800E+03 -0.18428301824E+03  0.25297897066E+03  0.12699999809E+01 0. -1.
       -4    1    3    3    0  502 -0.56300385471E+02 -0.16391089800E+03 -0.13194214193E+04  0.13307558043E+04  0.12699999809E+01 0.  1.
</event>
<event>
 5   0  0.1439814E-01  0.5044287E+03  0.7818609E-02  0.1012629E+00
       -1   -1    0    0    0  501  0.00000000000E+00  0.00000000000E+00  0.26810455528E+03  0.26810455533E+03  0.50400001928E-02 0.  1.
        1   -1    0    0  501    0  0.00000000000E+00  0.00000000000E+00 -0.23726596412E+03  0.23726596418E+03  0.50400001928E-02 0. -1.
    10030    2    1    2    0    0  0.00000000000E+00  0.00000000000E+00  0.30838591158E+02  0.50537051951E+03  0.50442872963E+03 0.  0.
        4    1    3    3  502    0 -0.11994102032E+03  0.43322475252E+02 -0.20258243243E+03  0.23938241382E+03  0.12699999809E+01 0. -1.
       -4    1    3    3    0  502  0.11994102032E+03 -0.43322475252E+02  0.23342102358E+03  0.26598810569E+03  0.12699999809E+01 0.  1.
</event>
<event>
 5   0  0.9868500E-02  0.4971574E+03  0.7818609E-02  0.1014524E+00
       -3   -1    0    0    0  501  0.00000000000E+00  0.00000000000E+00  0.60847364862E+02  0.60847448687E+02  0.10100000352E+00 0. -1.
        3   -1    0    0  501    0  0.00000000000E+00  0.00000000000E+00 -0.10155137054E+04  0.10155137104E+04  0.10100000352E+00 0.  1.
    10030    2    1    2    0    0  0.00000000000E+00  0.00000000000E+00 -0.95466634051E+03  0.10763611591E+04  0.49715744295E+03 0.  0.
        4    1    3    3  502    0  0.16059639733E+03 -0.84405348488E+02 -0.10944161355E+03  0.21188332961E+03  0.12699999809E+01 0. -1.
       -4    1    3    3    0  502 -0.16059639733E+03  0.84405348488E+02 -0.84522472696E+03  0.86447782948E+03  0.12699999809E+01 0.  1.
</event>
<event>
 5   0  0.2466034E-01  0.5042283E+03  0.7818609E-02  0.1012681E+00
       -2   -1    0    0    0  501  0.00000000000E+00  0.00000000000E+00  0.40655370037E+02  0.40655370117E+02  0.25500000920E-02 0. -1.
        2   -1    0    0  501    0  0.00000000000E+00  0.00000000000E+00 -0.15634230531E+04  0.15634230531E+04  0.25500000920E-02 0.  1.
    10030    2    1    2    0    0  0.00000000000E+00  0.00000000000E+00 -0.15227676830E+04  0.16040784232E+04  0.50422829279E+03 0.  0.
        3    1    3    3  502    0 -0.76925574554E+02 -0.20530829144E+03 -0.36541678478E+03  0.42614372617E+03  0.10100000352E+00 0. -1.
       -3    1    3    3    0  502  0.76925574554E+02  0.20530829144E+03 -0.11573508983E+04  0.11779346970E+04  0.10100000352E+00 0.  1.
</event>
<event>
 5   0  0.1413361E-01  0.5089809E+03  0.7818609E-02  0.1011461E+00
       -1   -1    0    0    0  501  0.00000000000E+00  0.00000000000E+00  0.92343785691E+02  0.92343785829E+02  0.50400001928E-02 0.  1.
        1   -1    0    0  501    0  0.00000000000E+00  0.00000000000E+00 -0.70135079914E+03  0.70135079915E+03  0.50400001928E-02 0. -1.
    10030    2    1    2    0    0  0.00000000000E+00  0.00000000000E+00 -0.60900701345E+03  0.79369458498E+03  0.50898089533E+03 0.  0.
        3    1    3    3  502    0  0.20840835413E+03  0.11131763782E+03 -0.45194301525E+03  0.50997858562E+03  0.10100000352E+00 0. -1.
       -3    1    3    3    0  502 -0.20840835413E+03 -0.11131763782E+03 -0.15706399820E+03  0.28371599936E+03  0.10100000352E+00 0.  1.
</event>
<event>
 5   0  0.2466034E-01  0.4972589E+03  0.7818609E-02  0.1014497E+00
       -2   -1    0    0    0  501  0.00000000000E+00  0.00000000000E+00  0.56411140130E+02  0.56411140188E+02  0.25500000920E-02 0.  1.
        2   -1    0    0  501    0  0.00000000000E+00  0.00000000000E+00 -0.10958226566E+04  0.10958226566E+04  0.25500000920E-02 0. -1.
    10030    2    1    2    0    0  0.00000000000E+00  0.00000000000E+00 -0.10394115165E+04  0.11522337968E+04  0.49725890831E+03 0.  0.
        3    1    3    3  502    0 -0.23452545227E+03  0.54952028384E+02 -0.66244577253E+03  0.70488036214E+03  0.10100000352E+00 0. -1.
       -3    1    3    3    0  502  0.23452545227E+03 -0.54952028384E+02 -0.37696574394E+03  0.44735343465E+03  0.10100000352E+00 0.  1.
</event>
<event>
 5   0  0.2511944E-01  0.5356951E+03  0.7818609E-02  0.1004860E+00
        2   -1    0    0  501    0  0.00000000000E+00  0.00000000000E+00  0.19709336912E+03  0.19709336914E+03  0.25500000920E-02 0. -1.
       -2   -1    0    0    0  501  0.00000000000E+00  0.00000000000E+00 -0.36400164943E+03  0.36400164944E+03  0.25500000920E-02 0.  1.
    10030    2    1    2    0    0  0.00000000000E+00  0.00000000000E+00 -0.16690828031E+03  0.56109501858E+03  0.53569510530E+03 0.  0.
        1    1    3    3  502    0  0.12601630653E+03 -0.12999886388E+02 -0.33063784652E+03  0.35407695793E+03  0.50400001928E-02 0.  1.
       -1    1    3    3    0  502 -0.12601630653E+03  0.12999886388E+02  0.16372956622E+03  0.20701806065E+03  0.50400001928E-02 0. -1.
</event>
<event>
 5   0  0.1448458E-01  0.5013812E+03  0.7818609E-02  0.1013419E+00
        1   -1    0    0  501    0  0.00000000000E+00  0.00000000000E+00  0.13170764549E+03  0.13170764559E+03  0.50400001928E-02 0. -1.
       -1   -1    0    0    0  501  0.00000000000E+00  0.00000000000E+00 -0.47716114270E+03  0.47716114273E+03  0.50400001928E-02 0.  1.
    10030    2    1    2    0    0  0.00000000000E+00  0.00000000000E+00 -0.34545349721E+03  0.60886878832E+03  0.50138117501E+03 0.  0.
        5    1    3    3  502    0 -0.72895620201E+02  0.98650019504E+02 -0.43816899731E+03  0.45503819399E+03  0.46999998093E+01 0.  1.
       -5    1    3    3    0  502  0.72895620201E+02 -0.98650019504E+02  0.92715500103E+02  0.15383059432E+03  0.46999998093E+01 0. -1.
</event>
<event>
 5   0  0.1453602E-01  0.3923424E+03  0.7818609E-02  0.1046464E+00
        1   -1    0    0  501    0  0.00000000000E+00  0.00000000000E+00  0.68952353034E+03  0.68952353036E+03  0.50400001928E-02 0.  1.
       -1   -1    0    0    0  501  0.00000000000E+00  0.00000000000E+00 -0.55811197319E+02  0.55811197546E+02  0.50400001928E-02 0. -1.
    10030    2    1    2    0    0  0.00000000000E+00  0.00000000000E+00  0.63371233303E+03  0.74533472791E+03  0.39234237038E+03 0.  0.
        2    1    3    3  502    0 -0.15042382135E+03  0.19545510102E+02  0.80544933052E+02  0.17174643881E+03  0.25500000920E-02 0. -1.
       -2    1    3    3    0  502  0.15042382135E+03 -0.19545510102E+02  0.55316739997E+03  0.57358828910E+03  0.25500000920E-02 0.  1.
</event>
<event>
 5   0  0.2488968E-01  0.4923781E+03  0.7818609E-02  0.1015788E+00
       -2   -1    0    0    0  501  0.00000000000E+00  0.00000000000E+00  0.38474817075E+03  0.38474817076E+03  0.25500000920E-02 0.  1.
        2   -1    0    0  501    0  0.00000000000E+00  0.00000000000E+00 -0.15752911750E+03  0.15752911752E+03  0.25500000920E-02 0. -1.
    10030    2    1    2    0    0  0.00000000000E+00  0.00000000000E+00  0.22721905325E+03  0.54227728827E+03  0.49237806533E+03 0.  0.
        2    1    3    3  502    0  0.45128846200E+02  0.17664411724E+03  0.29581206676E+03  0.34748314457E+03  0.25500000920E-02 0.  1.
       -2    1    3    3    0  502 -0.45128846200E+02 -0.17664411724E+03 -0.68593013504E+02  0.19479414370E+03  0.25500000920E-02 0. -1.
</event>
<event>
 5   0  0.2488968E-01  0.5003670E+03  0.7818609E-02  0.1013683E+00
       -2   -1    0    0    0  501  0.00000000000E+00  0.00000000000E+00  0.30291010794E+03  0.30291010795E+03  0.25500000920E-02 0. -1.
        2   -1    0    0  501    0  0.00000000000E+00  0.00000000000E+00 -0.20663486729E+03  0.20663486731E+03  0.25500000920E-02 0.  1.
    10030    2    1    2    0    0  0.00000000000E+00  0.00000000000E+00  0.96275240650E+02  0.50954497526E+03  0.50036702514E+03 0.  0.
        2    1    3    3  502    0  0.56284608991E+02  0.23914484313E+03  0.10011795564E-01  0.24567908603E+03  0.25500000920E-02 0.  1.
       -2    1    3    3    0  502 -0.56284608991E+02 -0.23914484313E+03  0.96265228854E+02  0.26386588923E+03  0.25500000920E-02 0. -1.
</event>
<event>
 5   0  0.1529146E-01  0.4850627E+03  0.7818609E-02  0.1017753E+00
       -1   -1    0    0    0  501  0.00000000000E+00  0.00000000000E+00  0.38842418717E+02  0.38842419044E+02  0.50400001928E-02 0.  1.
        1   -1    0    0  501    0  0.00000000000E+00  0.00000000000E+00 -0.15143612469E+04  0.15143612469E+04  0.50400001928E-02 0. -1.
    10030    2    1    2    0    0  0.00000000000E+00  0.00000000000E+00 -0.14755188282E+04  0.15532036660E+04  0.48506269245E+03 0.  0.
        1    1    3    3  502    0 -0.70323896519E+02  0.57346445436E+02 -0.14579570055E+04  0.14607781129E+04  0.50400001928E-02 0. -1.
       -1    1    3    3    0  502  0.70323896519E+02 -0.57346445436E+02 -0.17561822754E+02  0.92425553120E+02  0.50400001928E-02 0.  1.
</event>
<event>
 5   0  0.1453602E-01  0.4865236E+03  0.7818609E-02  0.1017358E+00
        1   -1    0    0  501    0  0.00000000000E+00  0.00000000000E+00  0.82671726320E+03  0.82671726321E+03  0.50400001928E-02 0. -1.
       -1   -1    0    0    0  501  0.00000000000E+00  0.00000000000E+00 -0.71579852475E+02  0.71579852653E+02  0.50400001928E-02 0.  1.
    10030    2    1    2    0    0  0.00000000000E+00  0.00000000000E+00  0.75513741072E+03  0.89829711586E+03  0.48652358555E+03 0.  0.
        2    1    3    3  502    0 -0.48955900650E+02  0.19064064678E+03  0.64151255072E+03  0.67102823275E+03  0.25500000920E-02 0. -1.
       -2    1    3    3    0  502  0.48955900650E+02 -0.19064064678E+03  0.11362486000E+03  0.22726888311E+03  0.25500000920E-02 0.  1.
</event>
<event>
 5   0  0.2511944E-01  0.5149356E+03  0.7818609E-02  0.1009952E+00
       -2   -1    0    0    0  501  0.00000000000E+00  0.00000000000E+00  0.29571503174E+03  0.29571503175E+03  0.25500000920E-02 0. -1.
        2   -1    0    0  501    0  0.00000000000E+00  0.00000000000E+00 -0.22416737802E+03  0.22416737804E+03  0.25500000920E-02 0.  1.
    10030    2    1    2    0    0  0.00000000000E+00  0.00000000000E+00  0.71547653721E+02  0.51988240979E+03  0.51493558166E+03 0.  0.
        1    1    3    3  502    0 -0.15061737878E+03  0.80973029994E+02  0.23010000288E+03  0.28668491018E+03  0.50400001928E-02 0. -1.
       -1    1    3    3    0  502  0.15061737878E+03 -0.80973029994E+02 -0.15855234916E+03  0.23319749961E+03  0.50400001928E-02 0.  1.
</event>
<event>
 5   0  0.1439814E-01  0.4696003E+03  0.7818609E-02  0.1022033E+00
       -1   -1    0    0    0  501  0.00000000000E+00  0.00000000000E+00  0.70168331596E+02  0.70168331777E+02  0.50400001928E-02 0.  1.
        1   -1    0    0  501    0  0.00000000000E+00  0.00000000000E+00 -0.78569786595E+03  0.78569786597E+03  0.50400001928E-02 0. -1.
    10030    2    1    2    0    0  0.00000000000E+00  0.00000000000E+00 -0.71552953435E+03  0.85586619774E+03  0.46960029164E+03 0.  0.
        4    1    3    3  502    0 -0.10059257335E+02  0.16356719354E+03 -0.51306205800E+02  0.17172464912E+03  0.12699999809E+01 0.  1.
       -4    1    3    3    0  502  0.10059257335E+02 -0.16356719354E+03 -0.66422332855E+03  0.68414154863E+03  0.12699999809E+01 0. -1.
</event>
<event>
 5   0  0.2511944E-01  0.5008404E+03  0.7818609E-02  0.1013560E+00
       -2   -1    0    0    0  501  0.00000000000E+00  0.00000000000E+00  0.49519973973E+02  0.49519974038E+02  0.25500000920E-02 0. -1.
        2   -1    0    0  501    0  0.00000000000E+00  0.00000000000E+00 -0.12663631287E+04  0.12663631287E+04  0.25500000920E-02 0.  1.
    10030    2    1    2    0    0  0.00000000000E+00  0.00000000000E+00 -0.12168431548E+04  0.13158831028E+04  0.50084037065E+03 0.  0.
        1    1    3    3  502    0  0.11347978662E+03 -0.21651000408E+03 -0.46557426969E+03  0.52584564699E+03  0.50400001928E-02 0. -1.
       -1    1    3    3    0  502 -0.11347978662E+03  0.21651000408E+03 -0.75126888506E+03  0.79003745577E+03  0.50400001928E-02 0.  1.
</event>
<event>
 5   0  0.1529146E-01  0.4990478E+03  0.7818609E-02  0.1014028E+00
        1   -1    0    0  501    0  0.00000000000E+00  0.00000000000E+00  0.12799388445E+04  0.12799388445E+04  0.50400001928E-02 0.  1.
       -1   -1    0    0    0  501  0.00000000000E+00  0.00000000000E+00 -0.48644655541E+02  0.48644655802E+02  0.50400001928E-02 0. -1.
    10030    2    1    2    0    0  0.00000000000E+00  0.00000000000E+00  0.12312941889E+04  0.13285835003E+04  0.49904783091E+03 0.  0.
        1    1    3    3  502    0 -0.98941128042E+02 -0.18139613247E+03  0.24323565169E+03  0.31915119610E+03  0.50400001928E-02 0. -1.
       -1    1    3    3    0  502  0.98941128042E+02  0.18139613247E+03  0.98805853724E+03  0.10094323042E+04  0.50400001928E-02 0.  1.
</event>
<event>
 5   0  0.2413301E-01  0.5001546E+03  0.7818609E-02  0.1013739E+00
        2   -1    0    0  501    0  0.00000000000E+00  0.00000000000E+00  0.51369836558E+03  0.51369836559E+03  0.25500000920E-02 0.  1.
       -2   -1    0    0    0  501  0.00000000000E+00  0.00000000000E+00 -0.12174199587E+03  0.12174199589E+03  0.25500000920E-02 0. -1.
    10030    2    1    2    0    0  0.00000000000E+00  0.00000000000E+00  0.39195636972E+03  0.63544036148E+03  0.50015463333E+03 0.  0.
        4    1    3    3  502    0 -0.59896647087E+02  0.17956201075E+01 -0.11248154665E+03  0.12745408514E+03  0.12699999809E+01 0. -1.
       -4    1    3    3    0  502  0.59896647087E+02 -0.17956201075E+01  0.50443791636E+03  0.50798627634E+03  0.12699999809E+01 0.  1.
</event>
<event>
 5   0  0.1448458E-01  0.5033847E+03  0.7818609E-02  0.1012899E+00
        1   -1    0    0  501    0  0.00000000000E+00  0.00000000000E+00  0.32650426617E+03  0.32650426621E+03  0.50400001928E-02 0.  1.
       -1   -1    0    0    0  501  0.00000000000E+00  0.00000000000E+00 -0.19402205040E+03  0.19402205047E+03  0.50400001928E-02 0. -1.
    10030    2    1    2    0    0  0.00000000000E+00  0.00000000000E+00  0.13248221577E+03  0.52052631667E+03  0.50338465298E+03 0.  0.
        5    1    3    3  502    0  0.19991296576E+03 -0.10571040085E+03 -0.47913145259E+02  0.23120908766E+03  0.46999998093E+01 0. -1.
       -5    1    3    3    0  502 -0.19991296576E+03  0.10571040085E+03  0.18039536102E+03  0.28931722902E+03  0.46999998093E+01 0.  1.
</event>
<event>
 5   0  0.2466034E-01  0.5026844E+03  0.7818609E-02  0.1013081E+00
        2   -1    0    0  501    0  0.00000000000E+00  0.00000000000E+00  0.10585709711E+04  0.10585709711E+04  0.25500000920E-02 0. -1.
       -2   -1    0    0    0  501  0.00000000000E+00  0.00000000000E+00 -0.59677523861E+02  0.59677523916E+02  0.25500000920E-02 0.  1.
    10030    2    1    2    0    0  0.00000000000E+00  0.00000000000E+00  0.99889344726E+03  0.11182484950E+04  0.50268437183E+03 0.  0.
        3    1    3    3  502    0 -0.20724154144E+03 -0.12638430334E+03  0.35440929456E+03  0.42956723211E+03  0.10100000352E+00 0.  1.
       -3    1    3    3    0  502  0.20724154144E+03  0.12638430334E+03  0.64448415270E+03  0.68868126293E+03  0.10100000352E+00 0. -1.
</event>
<event>
 5   0  0.2488968E-01  0.5040474E+03  0.7818609E-02  0.1012728E+00
        2   -1    0    0  501    0  0.00000000000E+00  0.00000000000E+00  0.13183019182E+04  0.13183019182E+04  0.25500000920E-02 0. -1.
       -2   -1    0    0    0  501  0.00000000000E+00  0.00000000000E+00 -0.48180117902E+02  0.48180117969E+02  0.25500000920E-02 0.  1.
    10030    2    1    2    0    0  0.00000000000E+00  0.00000000000E+00  0.12701218003E+04  0.13664820362E+04  0.50404738626E+03 0.  0.
        2    1    3    3  502    0 -0.11800465861E+03 -0.59624508260E+02  0.53386138517E+02  0.14258422504E+03  0.25500000920E-02 0.  1.
       -2    1    3    3    0  502  0.11800465861E+03  0.59624508260E+02  0.12167356618E+04  0.12238978112E+04  0.25500000920E-02 0. -1.
</event>
<event>
 5   0  0.2511944E-01  0.5114031E+03  0.7818609E-02  0.1010845E+00
        2   -1    0    0  501    0  0.00000000000E+00  0.00000000000E+00  0.90791666781E+03  0.90791666781E+03  0.25500000920E-02 0. -1.
       -2   -1    0    0    0  501  0.00000000000E+00  0.00000000000E+00 -0.72014622574E+02  0.72014622619E+02  0.25500000920E-02 0.  1.
    10030    2    1    2    0    0  0.00000000000E+00  0.00000000000E+00  0.83590204523E+03  0.97993129043E+03  0.51140307463E+03 0.  0.
        1    1    3    3  502    0  0.24654306647E+01  0.94133069841E+02  0.87348274427E+03  0.87854380525E+03  0.50400001928E-02 0. -1.
       -1    1    3    3    0  502 -0.24654306647E+01 -0.94133069841E+02 -0.37580699033E+02  0.10138748518E+03  0.50400001928E-02 0.  1.
</event>
<event>
 5   0  0.1453602E-01  0.5064284E+03  0.7818609E-02  0.1012114E+00
        1   -1    0    0  501    0  0.00000000000E+00  0.00000000000E+00  0.49292858152E+03  0.49292858154E+03  0.50400001928E-02 0. -1.
       -1   -1    0    0    0  501  0.00000000000E+00  0.00000000000E+00 -0.13007448669E+03  0.13007448678E+03  0.50400001928E-02 0.  1.
    10030    2    1    2    0    0  0.00000000000E+00  0.00000000000E+00  0.36285409483E+03  0.62300306833E+03  0.50642840462E+03 0.  0.
        2    1    3    3  502    0 -0.18707520678E+03  0.15774414918E+03  0.10135045257E+03  0.26486272640E+03  0.25500000920E-02 0. -1.
       -2    1    3    3    0  502  0.18707520678E+03 -0.15774414918E+03  0.26150364227E+03  0.35814034193E+03  0.25500000920E-02 0.  1.
</event>
<event>
 5   0  0.2488968E-01  0.5071607E+03  0.7818609E-02  0.1011927E+00
       -2   -1    0    0    0  501  0.00000000000E+00  0.00000000000E+00  0.59044585120E+02  0.59044585175E+02  0.25500000920E-02 0.  1.
        2   -1    0    0  501    0  0.00000000000E+00  0.00000000000E+00 -0.10890582020E+04  0.10890582020E+04  0.25500000920E-02 0. -1.
    10030    2    1    2    0    0  0.00000000000E+00  0.00000000000E+00 -0.10300136169E+04  0.11481027872E+04  0.50716068357E+03 0.  0.
        2    1    3    3  502    0 -0.23895821964E+03  0.50352819643E+02 -0.36036273765E+03  0.43531338122E+03  0.25500000920E-02 0. -1.
       -2    1    3    3    0  502  0.23895821964E+03 -0.50352819643E+02 -0.66965087920E+03  0.71278940593E+03  0.25500000920E-02 0.  1.
</event>
<event>
 5   0  0.1413361E-01  0.4986306E+03  0.7818609E-02  0.1014137E+00
        1   -1    0    0  501    0  0.00000000000E+00  0.00000000000E+00  0.51324894458E+03  0.51324894460E+03  0.50400001928E-02 0.  1.
       -1   -1    0    0    0  501  0.00000000000E+00  0.00000000000E+00 -0.12110714904E+03  0.12110714915E+03  0.50400001928E-02 0. -1.
    10030    2    1    2    0    0  0.00000000000E+00  0.00000000000E+00  0.39214179554E+03  0.63435609375E+03  0.49863059058E+03 0.  0.
        3    1    3    3  502    0  0.14796378963E+03 -0.16250392536E+03  0.34583008260E+03  0.40975512813E+03  0.10100000352E+00 0.  1.
       -3    1    3    3    0  502 -0.14796378963E+03  0.16250392536E+03  0.46311712936E+02  0.22460096561E+03  0.10100000352E+00 0. -1.
</event>
<event>
 5   0  0.1453602E-01  0.5193676E+03  0.7818609E-02  0.1008844E+00
       -1   -1    0    0    0  501  0.00000000000E+00  0.00000000000E+00  0.21263756431E+03  0.21263756437E+03  0.50400001928E-02 0. -1.
        1   -1    0    0  501    0  0.00000000000E+00  0.00000000000E+00 -0.31713905009E+03  0.31713905013E+03  0.50400001928E-02 0.  1.
    10030    2    1    2    0    0  0.00000000000E+00  0.00000000000E+00 -0.10450148577E+03  0.52977661450E+03  0.51936759693E+03 0.  0.
        2    1    3    3  502    0 -0.13012802716E+03  0.16345905190E+03 -0.20956058965E+03  0.29591857975E+03  0.25500000920E-02 0.  1.
       -2    1    3    3    0  502  0.13012802716E+03 -0.16345905190E+03  0.10505910388E+03  0.23385803475E+03  0.25500000920E-02 0. -1.
</event>
<event>
 5   0  0.1453602E-01  0.5059575E+03  0.7818609E-02  0.1012236E+00
        1   -1    0    0  501    0  0.00000000000E+00  0.00000000000E+00  0.37870662861E+03  0.37870662865E+03  0.50400001928E-02 0.  1.
       -1   -1    0    0    0  501  0.00000000000E+00  0.00000000000E+00 -0.16899163670E+03  0.16899163677E+03  0.50400001928E-02 0. -1.
    10030    2    1    2    0    0  0.00000000000E+00  0.00000000000E+00  0.20971499191E+03  0.54769826542E+03  0.50595752006E+03 0.  0.
        2    1    3    3  502    0  0.88177773791E+02  0.23636836122E+03  0.84521181872E+02  0.26606230881E+03  0.25500000920E-02 0. -1.
       -2    1    3    3    0  502 -0.88177773791E+02 -0.23636836122E+03  0.12519381004E+03  0.28163595661E+03  0.25500000920E-02 0.  1.
</event>
<event>
 5   0  0.1448458E-01  0.5086053E+03  0.7818609E-02  0.1011557E+00
       -1   -1    0    0    0  501  0.00000000000E+00  0.00000000000E+00  0.66438483713E+02  0.66438483904E+02  0.50400001928E-02 0.  1.
        1   -1    0    0  501    0  0.00000000000E+00  0.00000000000E+00 -0.97337915286E+03  0.97337915287E+03  0.50400001928E-02 0. -1.
    10030    2    1    2    0    0  0.00000000000E+00  0.00000000000E+00 -0.90694066915E+03  0.10398176368E+04  0.50860528939E+03 0.  0.
        5    1    3    3  502    0  0.25058992184E+03 -0.42584281942E+02 -0.46624038768E+03  0.53104700272E+03  0.46999998093E+01 0.  1.
       -5    1    3    3    0  502 -0.25058992184E+03  0.42584281942E+02 -0.44070028147E+03  0.50877063406E+03  0.46999998093E+01 0. -1.
</event>
<event>
 5   0  0.2466034E-01  0.4934847E+03  0.7818609E-02  0.1015494E+00
       -2   -1    0    0    0  501  0.00000000000E+00  0.00000000000E+00  0.13131921137E+03  0.13131921140E+03  0.25500000920E-02 0.  1.
        2   -1    0    0  501    0  0.00000000000E+00  0.00000000000E+00 -0.46361672575E+03  0.46361672576E+03  0.25500000920E-02 0. -1.
    10030    2    1    2    0    0  0.00000000000E+00  0.00000000000E+00 -0.33229751438E+03  0.59493593716E+03  0.49348468189E+03 0.  0.
        3    1    3    3  502    0  0.19675518602E+03  0.99531183782E+02 -0.32646131871E+02  0.22290096432E+03  0.10100000352E+00 0.  1.
       -3    1    3    3    0  502 -0.19675518602E+03 -0.99531183782E+02 -0.29965138251E+03  0.37203497283E+03  0.10100000352E+00 0. -1.
</event>
<event>
 5   0  0.2413301E-01  0.5046157E+03  0.7818609E-02  0.1012581E+00
       -2   -1    0    0    0  501  0.00000000000E+00  0.00000000000E+00  0.58380270160E+03  0.58380270160E+03  0.25500000920E-02 0.  1.
        2   -1    0    0  501    0  0.00000000000E+00  0.00000000000E+00 -0.10904240208E+03  0.10904240211E+03  0.25500000920E-02 0. -1.
    10030    2    1    2    0    0  0.00000000000E+00  0.00000000000E+00  0.47476029952E+03  0.69284510372E+03  0.50461569114E+03 0.  0.
        4    1    3    3  502    0  0.47971816914E+02  0.95986201660E+02 -0.76145709261E+02  0.13158430023E+03  0.12699999809E+01 0. -1.
       -4    1    3    3    0  502 -0.47971816914E+02 -0.95986201660E+02  0.55090600878E+03  0.56126080349E+03  0.12699999809E+01 0.  1.
</event>
<event>
 5   0  0.2504064E-01  0.5041591E+03  0.7818609E-02  0.1012699E+00
        2   -1    0    0  501    0  0.00000000000E+00  0.00000000000E+00  0.34103958166E+03  0.34103958167E+03  0.25500000920E-02 0. -1.
       -2   -1    0    0    0  501  0.00000000000E+00  0.00000000000E+00 -0.18632472033E+03  0.18632472035E+03  0.25500000920E-02 0.  1.
    10030    2    1    2    0    0  0.00000000000E+00  0.00000000000E+00  0.15471486133E+03  0.52736430202E+03  0.50415912044E+03 0.  0.
        5    1    3    3  502    0 -0.18558116592E+03 -0.52731511906E+02  0.24699791550E+03  0.31345022213E+03  0.46999998093E+01 0. -1.
       -5    1    3    3    0  502  0.18558116592E+03  0.52731511906E+02 -0.92283054162E+02  0.21391407989E+03  0.46999998093E+01 0.  1.
</event>
<event>
 5   0  0.1453602E-01  0.4951082E+03  0.7818609E-02  0.1015064E+00
        1   -1    0    0  501    0  0.00000000000E+00  0.00000000000E+00  0.50768703803E+03  0.50768703806E+03  0.50400001928E-02 0.  1.
       -1   -1    0    0    0  501  0.00000000000E+00  0.00000000000E+00 -0.12071027597E+03  0.12071027608E+03  0.50400001928E-02 0. -1.
    10030    2    1    2    0    0  0.00000000000E+00  0.00000000000E+00  0.38697676206E+03  0.62839731414E+03  0.49510824073E+03 0.  0.
        2    1    3    3  502    0  0.46021680702E+02  0.74654414460E+02  0.48730962878E+03  0.49513831502E+03  0.25500000920E-02 0.  1.
       -2    1    3    3    0  502 -0.46021680702E+02 -0.74654414460E+02 -0.10033286673E+03  0.13325899911E+03  0.25500000920E-02 0. -1.
</event>
<event>
 5   0  0.9868500E-02  0.5090710E+03  0.7818609E-02  0.1011438E+00
        4   -1    0    0  501    0  0.00000000000E+00  0.00000000000E+00  0.53586670467E+03  0.53586820961E+03  0.12699999809E+01 0. -1.
       -4   -1    0    0    0  501  0.00000000000E+00  0.00000000000E+00 -0.12089879488E+03  0.12090546515E+03  0.12699999809E+01 0.  1.
    10030    2    1    2    0    0  0.00000000000E+00  0.00000000000E+00  0.41496790979E+03  0.65677367476E+03  0.50907101047E+03 0.  0.
        1    1    3    3  502    0  0.24665129131E+03 -0.38855548242E+01  0.12653986841E+03  0.27724410790E+03  0.50400001928E-02 0. -1.
       -1    1    3    3    0  502 -0.24665129131E+03  0.38855548242E+01  0.28842804138E+03  0.37952956686E+03  0.50400001928E-02 0.  1.
</event>
<event>
 5   0  0.1448458E-01  0.4818438E+03  0.7818609E-02  0.1018630E+00
        1   -1    0    0  501    0  0.00000000000E+00  0.00000000000E+00  0.45769732588E+03  0.45769732590E+03  0.50400001928E-02 0.  1.
       -1   -1    0    0    0  501  0.00000000000E+00  0.00000000000E+00 -0.12681605764E+03  0.12681605774E+03  0.50400001928E-02 0. -1.
    10030    2    1    2    0    0  0.00000000000E+00  0.00000000000E+00  0.33088126823E+03  0.58451338365E+03  0.48184383569E+03 0.  0.
        5    1    3    3  502    0 -0.10440550107E+03  0.13471781233E+03 -0.41038662845E+02  0.17537291541E+03  0.46999998093E+01 0. -1.
       -5    1    3    3    0  502  0.10440550107E+03 -0.13471781233E+03  0.37191993108E+03  0.40914046823E+03  0.46999998093E+01 0.  1.
</event>
<event>
 5   0  0.1448458E-01  0.4967732E+03  0.7818609E-02  0.1014625E+00
       -1   -1    0    0    0  501  0.00000000000E+00  0.00000000000E+00  0.14921880158E+03  0.14921880167E+03  0.50400001928E-02 0.  1.
        1   -1    0    0  501    0  0.00000000000E+00  0.00000000000E+00 -0.41345933883E+03  0.41345933886E+03  0.50400001928E-02 0. -1.
    10030    2    1    2    0    0  0.00000000000E+00  0.00000000000E+00 -0.26424053725E+03  0.56267814053E+03  0.49677321617E+03 0.  0.
        5    1    3    3  502    0  0.69525625569E+02 -0.15105206328E+03 -0.34104504790E+03  0.37945270210E+03  0.46999998093E+01 0. -1.
       -5    1    3    3    0  502 -0.69525625569E+02  0.15105206328E+03  0.76804510652E+02  0.18322543843E+03  0.46999998093E+01 0.  1.
</event>
<event>
 5   0  0.1439814E-01  0.5037001E+03  0.7818609E-02  0.1012818E+00
        1   -1    0    0  501    0  0.00000000000E+00  0.00000000000E+00  0.72815676251E+03  0.72815676252E+03  0.50400001928E-02 0.  1.
       -1   -1    0    0    0  501  0.00000000000E+00  0.00000000000E+00 -0.87108216896E+02  0.87108217042E+02  0.50400001928E-02 0. -1.
    10030    2    1    2    0    0  0.00000000000E+00  0.00000000000E+00  0.64104854561E+03  0.81526497956E+03  0.50370005864E+03 0.  0.
        4    1    3    3  502    0  0.74446219693E+02 -0.36071249257E+02 -0.64485272257E+02  0.10489679636E+03  0.12699999809E+01 0. -1.
       -4    1    3    3    0  502 -0.74446219693E+02  0.36071249257E+02  0.70553381787E+03  0.71036818320E+03  0.12699999809E+01 0.  1.
</event>
<event>
 5   0  0.1529146E-01  0.5162477E+03  0.7818609E-02  0.1009623E+00
        1   -1    0    0  501    0  0.00000000000E+00  0.00000000000E+00  0.37274965893E+03  0.37274965896E+03  0.50400001928E-02 0. -1.
       -1   -1    0    0    0  501  0.00000000000E+00  0.00000000000E+00 -0.17874710549E+03  0.17874710557E+03  0.50400001928E-02 0.  1.
    10030    2    1    2    0    0  0.00000000000E+00  0.00000000000E+00  0.19400255343E+03  0.55149676453E+03  0.51624770270E+03 0.  0.
        1    1    3    3  502    0  0.51008794058E+02 -0.25283197575E+03  0.86211254417E+02  0.27195272649E+03  0.50400001928E-02 0.  1.
       -1    1    3    3    0  502 -0.51008794058E+02  0.25283197575E+03  0.10779129901E+03  0.27954403804E+03  0.50400001928E-02 0. -1.
</event>
<event>
 5   0  0.2413301E-01  0.4982472E+03  0.7818609E-02  0.1014237E+00
        2   -1    0    0  501    0  0.00000000000E+00  0.00000000000E+00  0.11662390270E+04  0.11662390270E+04  0.25500000920E-02 0.  1.
       -2   -1    0    0    0  501  0.00000000000E+00  0.00000000000E+00 -0.53216002309E+02  0.53216002370E+02  0.25500000920E-02 0. -1.
    10030    2    1    2    0    0  0.00000000000E+00  0.00000000000E+00  0.11130230247E+04  0.12194550293E+04  0.49824724301E+03 0.  0.
        4    1    3    3  502    0  0.35471865831E+02 -0.75362479163E+02 -0.18118271612E+02  0.85250461567E+02  0.12699999809E+01 0. -1.
       -4    1    3    3    0  502 -0.35471865831E+02  0.75362479163E+02  0.11311412963E+04  0.11342045678E+04  0.12699999809E+01 0.  1.
</event>
<event>
 5   0  0.2504064E-01  0.4940633E+03  0.7818609E-02  0.1015340E+00
       -2   -1    0    0    0  501  0.00000000000E+00  0.00000000000E+00  0.38658370213E+03  0.38658370214E+03  0.25500000920E-02 0.  1.
        2   -1    0    0  501    0  0.00000000000E+00  0.00000000000E+00 -0.15785623428E+03  0.15785623430E+03  0.25500000920E-02 0. -1.
    10030    2    1    2    0    0  0.00000000000E+00  0.00000000000E+00  0.22872746785E+03  0.54443993643E+03  0.49406334597E+03 0.  0.
        5    1    3    3  502    0 -0.24467665842E+03  0.33691109785E+02  0.11534899297E+03  0.27263389047E+03  0.46999998093E+01 0.  1.
       -5    1    3    3    0  502  0.24467665842E+03 -0.33691109785E+02  0.11337847488E+03  0.27180604596E+03  0.46999998093E+01 0. -1.
</event>
<event>
 5   0  0.1448458E-01  0.5104242E+03  0.7818609E-02  0.1011093E+00
        1   -1    0    0  501    0  0.00000000000E+00  0.00000000000E+00  0.30056894399E+03  0.30056894403E+03  0.50400001928E-02 0.  1.
       -1   -1    0    0    0  501  0.00000000000E+00  0.00000000000E+00 -0.21669972400E+03  0.21669972406E+03  0.50400001928E-02 0. -1.
    10030    2    1    2    0    0  0.00000000000E+00  0.00000000000E+00  0.83869219988E+02  0.51726866809E+03  0.51042416569E+03 0.  0.
        5    1    3    3  502    0  0.15553297130E+03 -0.88012027494E+02 -0.14264643757E+03  0.22870662058E+03  0.46999998093E+01 0. -1.
       -5    1    3    3    0  502 -0.15553297130E+03  0.88012027494E+02  0.22651565756E+03  0.28856204751E+03  0.46999998093E+01 0.  1.
</event>
<event>
 5   0  0.2511944E-01  0.4998693E+03  0.7818609E-02  0.1013813E+00
       -2   -1    0    0    0  501  0.00000000000E+00  0.00000000000E+00  0.80274432891E+02  0.80274432931E+02  0.25500000920E-02 0.  1.
        2   -1    0    0  501    0  0.00000000000E+00  0.00000000000E+00 -0.77817213859E+03  0.77817213859E+03  0.25500000920E-02 0. -1.
    10030    2    1    2    0    0  0.00000000000E+00  0.00000000000E+00 -0.69789770570E+03  0.85844657152E+03  0.49986929146E+03 0.  0.
        1    1    3    3  502    0  0.12257820379E+02  0.11127234604E+03  0.34812891436E+02  0.11723364103E+03  0.50400001928E-02 0.  1.
       -1    1    3    3    0  502 -0.12257820379E+02 -0.11127234604E+03 -0.73271059713E+03  0.74121293049E+03  0.50400001928E-02 0. -1.
</event>
<event>
 5   0  0.2488968E-01  0.5035931E+03  0.7818609E-02  0.1012845E+00
       -2   -1    0    0    0  501  0.00000000000E+00  0.00000000000E+00  0.50845743923E+02  0.50845743987E+02  0.25500000920E-02 0.  1.
        2   -1    0    0  501    0  0.00000000000E+00  0.00000000000E+00 -0.12469381959E+04  0.12469381959E+04  0.25500000920E-02 0. -1.
    10030    2    1    2    0    0  0.00000000000E+00  0.00000000000E+00 -0.11960924520E+04  0.12977839399E+04  0.50359309065E+03 0.  0.
        2    1    3    3  502    0 -0.34444866396E+02 -0.24754876866E+03 -0.67683223884E+03  0.72150448455E+03  0.25500000920E-02 0. -1.
       -2    1    3    3    0  502  0.34444866396E+02  0.24754876866E+03 -0.51926021312E+03  0.57627945532E+03  0.25500000920E-02 0.  1.
</event>
<event>
 5   0  0.2488968E-01  0.5036545E+03  0.7818609E-02  0.1012829E+00
       -2   -1    0    0    0  501  0.00000000000E+00  0.00000000000E+00  0.76198434243E+02  0.76198434286E+02  0.25500000920E-02 0. -1.
        2   -1    0    0  501    0  0.00000000000E+00  0.00000000000E+00 -0.83226077898E+03  0.83226077899E+03  0.25500000920E-02 0.  1.
    10030    2    1    2    0    0  0.00000000000E+00  0.00000000000E+00 -0.75606234474E+03  0.90845921327E+03  0.50365451755E+03 0.  0.
        2    1    3    3  502    0  0.23054913145E+03 -0.88720046288E+02 -0.28979885587E+03  0.38079853662E+03  0.25500000920E-02 0. -1.
       -2    1    3    3    0  502 -0.23054913145E+03  0.88720046288E+02 -0.46626348887E+03  0.52766067665E+03  0.25500000920E-02 0.  1.
</event>
<event>
 5   0  0.1439814E-01  0.5017631E+03  0.7818609E-02  0.1013320E+00
       -1   -1    0    0    0  501  0.00000000000E+00  0.00000000000E+00  0.52945832167E+03  0.52945832169E+03  0.50400001928E-02 0.  1.
        1   -1    0    0  501    0  0.00000000000E+00  0.00000000000E+00 -0.11887914578E+03  0.11887914589E+03  0.50400001928E-02 0. -1.
    10030    2    1    2    0    0  0.00000000000E+00  0.00000000000E+00  0.41057917589E+03  0.64833746758E+03  0.50176310366E+03 0.  0.
        4    1    3    3  502    0  0.18957056136E+03 -0.12605092482E+03  0.34150921267E+03  0.41043390287E+03  0.12699999809E+01 0.  1.
       -4    1    3    3    0  502 -0.18957056136E+03  0.12605092482E+03  0.69069963216E+02  0.23790356471E+03  0.12699999809E+01 0. -1.
</event>
<event>
 5   0  0.1529146E-01  0.4944169E+03  0.7818609E-02  0.1015247E+00
       -1   -1    0    0    0  501  0.00000000000E+00  0.00000000000E+00  0.17427692381E+03  0.17427692389E+03  0.50400001928E-02 0. -1.
        1   -1    0    0  501    0  0.00000000000E+00  0.00000000000E+00 -0.35066043006E+03  0.35066043009E+03  0.50400001928E-02 0.  1.
    10030    2    1    2    0    0  0.00000000000E+00  0.00000000000E+00 -0.17638350624E+03  0.52493735398E+03  0.49441691347E+03 0.  0.
        1    1    3    3  502    0  0.29406648781E+02 -0.15211033103E+02  0.17191240829E+03  0.17507142162E+03  0.50400001928E-02 0. -1.
       -1    1    3    3    0  502 -0.29406648781E+02  0.15211033103E+02 -0.34829591453E+03  0.34986593236E+03  0.50400001928E-02 0.  1.
</event>
<event>
 5   0  0.2504064E-01  0.4705663E+03  0.7818609E-02  0.1021761E+00
       -2   -1    0    0    0  501  0.00000000000E+00  0.00000000000E+00  0.84161361491E+02  0.84161361530E+02  0.25500000920E-02 0. -1.
        2   -1    0    0  501    0  0.00000000000E+00  0.00000000000E+00 -0.65776205295E+03  0.65776205295E+03  0.25500000920E-02 0.  1.
    10030    2    1    2    0    0  0.00000000000E+00  0.00000000000E+00 -0.57360069146E+03  0.74192341448E+03  0.47056625433E+03 0.  0.
        5    1    3    3  502    0  0.50875578832E+02 -0.18657438451E+03 -0.49796542174E+03  0.53421903441E+03  0.46999998093E+01 0.  1.
       -5    1    3    3    0  502 -0.50875578832E+02  0.18657438451E+03 -0.75635269711E+02  0.20770438007E+03  0.46999998093E+01 0. -1.
</event>
<event>
 5   0  0.1448458E-01  0.4953410E+03  0.7818609E-02  0.1015002E+00
        1   -1    0    0  501    0  0.00000000000E+00  0.00000000000E+00  0.19231819945E+04  0.19231819945E+04  0.50400001928E-02 0.  1.
       -1   -1    0    0    0  501  0.00000000000E+00  0.00000000000E+00 -0.31895414472E+02  0.31895414870E+02  0.50400001928E-02 0. -1.
    10030    2    1    2    0    0  0.00000000000E+00  0.00000000000E+00  0.18912865800E+04  0.19550774094E+04  0.49534104298E+03 0.  0.
        5    1    3    3  502    0  0.23379041048E+03  0.50514380426E+02  0.69264099145E+03  0.73279143806E+03  0.46999998093E+01 0. -1.
       -5    1    3    3    0  502 -0.23379041048E+03 -0.50514380426E+02  0.11986455886E+04  0.12222859713E+04  0.46999998093E+01 0.  1.
</event>
<event>
 5   0  0.2488968E-01  0.5117706E+03  0.7818609E-02  0.1010751E+00
       -2   -1    0    0    0  501  0.00000000000E+00  0.00000000000E+00  0.35738638996E+03  0.35738638997E+03  0.25500000920E-02 0. -1.
        2   -1    0    0  501    0  0.00000000000E+00  0.00000000000E+00 -0.18321146963E+03  0.18321146965E+03  0.25500000920E-02 0.  1.
    10030    2    1    2    0    0  0.00000000000E+00  0.00000000000E+00  0.17417492033E+03  0.54059785962E+03  0.51177059603E+03 0.  0.
        2    1    3    3  502    0  0.54478617152E+02  0.15673770315E+03 -0.11867344900E+03  0.20400493822E+03  0.25500000920E-02 0.  1.
       -2    1    3    3    0  502 -0.54478617152E+02 -0.15673770315E+03  0.29284836933E+03  0.33659292140E+03  0.25500000920E-02 0. -1.
</event>
<event>
 5   0  0.2413301E-01  0.4829397E+03  0.7818609E-02  0.1018330E+00
        2   -1    0    0  501    0  0.00000000000E+00  0.00000000000E+00  0.10541417834E+03  0.10541417838E+03  0.25500000920E-02 0.  1.
       -2   -1    0    0    0  501  0.00000000000E+00  0.00000000000E+00 -0.55312952540E+03  0.55312952540E+03  0.25500000920E-02 0. -1.
    10030    2    1    2    0    0  0.00000000000E+00  0.00000000000E+00 -0.44771534705E+03  0.65854370378E+03  0.48293972481E+03 0.  0.
        4    1    3    3  502    0  0.18916938683E+03 -0.12009802135E+03 -0.10115136836E+03  0.24584914860E+03  0.12699999809E+01 0.  1.
       -4    1    3    3    0  502 -0.18916938683E+03  0.12009802135E+03 -0.34656397869E+03  0.41269455518E+03  0.12699999809E+01 0. -1.
</event>
<event>
 5   0  0.1439814E-01  0.5015001E+03  0.7818609E-02  0.1013388E+00
        1   -1    0    0  501    0  0.00000000000E+00  0.00000000000E+00  0.79883155546E+03  0.79883155547E+03  0.50400001928E-02 0. -1.
       -1   -1    0    0    0  501  0.00000000000E+00  0.00000000000E+00 -0.78709448770E+02  0.78709448931E+02  0.50400001928E-02 0.  1.
    10030    2    1    2    0    0  0.00000000000E+00  0.00000000000E+00  0.72012210669E+03  0.87754100440E+03  0.50150011552E+03 0.  0.
        4    1    3    3  502    0  0.88576190183E+02 -0.43604456063E+02 -0.43262488087E+02  0.10779770791E+03  0.12699999809E+01 0.  1.
       -4    1    3    3    0  502 -0.88576190183E+02  0.43604456063E+02  0.76338459477E+03  0.76974329649E+03  0.12699999809E+01 0. -1.
</event>
<event>
 5   0  0.2504064E-01  0.5756087E+03  0.7818609E-02  0.9957344E-01
       -2   -1    0    0    0  501  0.00000000000E+00  0.00000000000E+00  0.16839234059E+03  0.16839234061E+03  0.25500000920E-02 0. -1.
        2   -1    0    0  501    0  0.00000000000E+00  0.00000000000E+00 -0.49189499646E+03  0.49189499646E+03  0.25500000920E-02 0.  1.
    10030    2    1    2    0    0  0.00000000000E+00  0.00000000000E+00 -0.32350265586E+03  0.66028733707E+03  0.57560872053E+03 0.  0.
        5    1    3    3  502    0  0.21202993967E+03 -0.19325434643E+03 -0.13596498636E+03  0.31750985063E+03  0.46999998093E+01 0. -1.
       -5    1    3    3    0  502 -0.21202993967E+03  0.19325434643E+03 -0.18753766951E+03  0.34277748645E+03  0.46999998093E+01 0.  1.
</event>
<event>
 5   0  0.2466034E-01  0.5029117E+03  0.7818609E-02  0.1013022E+00
        2   -1    0    0  501    0  0.00000000000E+00  0.00000000000E+00  0.28866843985E+03  0.28866843986E+03  0.25500000920E-02 0.  1.
       -2   -1    0    0    0  501  0.00000000000E+00  0.00000000000E+00 -0.21904035544E+03  0.21904035546E+03  0.25500000920E-02 0. -1.
    10030    2    1    2    0    0  0.00000000000E+00  0.00000000000E+00  0.69628084406E+02  0.50770879532E+03  0.50291167286E+03 0.  0.
        3    1    3    3  502    0 -0.14883632437E+03 -0.82297211373E+02  0.22179670269E+03  0.27949753125E+03  0.10100000352E+00 0.  1.
       -3    1    3    3    0  502  0.14883632437E+03  0.82297211373E+02 -0.15216861828E+03  0.22821126406E+03  0.10100000352E+00 0. -1.
</event>
<event>
 5   0  0.2413301E-01  0.5313647E+03  0.7818609E-02  0.1005902E+00
       -2   -1    0    0    0  501  0.00000000000E+00  0.00000000000E+00  0.14795929486E+03  0.14795929489E+03  0.25500000920E-02 0.  1.
        2   -1    0    0  501    0  0.00000000000E+00  0.00000000000E+00 -0.47707110392E+03  0.47707110392E+03  0.25500000920E-02 0. -1.
    10030    2    1    2    0    0  0.00000000000E+00  0.00000000000E+00 -0.32911180905E+03  0.62503039881E+03  0.53136467382E+03 0.  0.
        4    1    3    3  502    0  0.18742879033E+03 -0.20910554838E+02 -0.38467534508E+03  0.42841981369E+03  0.12699999809E+01 0. -1.
       -4    1    3    3    0  502 -0.18742879033E+03  0.20910554838E+02  0.55563536028E+02  0.19661058512E+03  0.12699999809E+01 0.  1.
</event>
<event>
 5   0  0.1453602E-01  0.5006780E+03  0.7818609E-02  0.1013602E+00
       -1   -1    0    0    0  501  0.00000000000E+00  0.00000000000E+00  0.55951225933E+02  0.55951226160E+02  0.50400001928E-02 0.  1.
        1   -1    0    0  501    0  0.00000000000E+00  0.00000000000E+00 -0.11200756641E+04  0.11200756642E+04  0.50400001928E-02 0. -1.
    10030    2    1    2    0    0  0.00000000000E+00  0.00000000000E+00 -0.10641244382E+04  0.11760268903E+04  0.50067796711E+03 0.  0.
        2    1    3    3  502    0 -0.18942729474E+03 -0.24282282239E+02 -0.91224010545E+03  0.93201627627E+03  0.25500000920E-02 0.  1.
       -2    1    3    3    0  502  0.18942729474E+03  0.24282282239E+02 -0.15188433276E+03  0.24401061405E+03  0.25500000920E-02 0. -1.
</event>
<event>
 5   0  0.2504064E-01  0.5024599E+03  0.7818609E-02  0.1013139E+00
       -2   -1    0    0    0  501  0.00000000000E+00  0.00000000000E+00  0.82354945193E+02  0.82354945232E+02  0.25500000920E-02 0. -1.
        2   -1    0    0  501    0  0.00000000000E+00  0.00000000000E+00 -0.76639572412E+03  0.76639572412E+03  0.25500000920E-02 0.  1.
    10030    2    1    2    0    0  0.00000000000E+00  0.00000000000E+00 -0.68404077892E+03  0.84875066935E+03  0.50245986058E+03 0.  0.
        5    1    3    3  502    0 -0.13375379107E+03 -0.20094249390E+03 -0.45937267571E+03  0.51895405160E+03  0.46999998093E+01 0.  1.
       -5    1    3    3    0  502  0.13375379107E+03  0.20094249390E+03 -0.22466810321E+03  0.32979661775E+03  0.46999998093E+01 0. -1.
</event>
<event>
 5   0  0.1413361E-01  0.5067262E+03  0.7818609E-02  0.1012038E+00
       -1   -1    0    0    0  501  0.00000000000E+00  0.00000000000E+00  0.31428526635E+03  0.31428526639E+03  0.50400001928E-02 0. -1.
        1   -1    0    0  501    0  0.00000000000E+00  0.00000000000E+00 -0.20425032113E+03  0.20425032119E+03  0.50400001928E-02 0.  1.
    10030    2    1    2    0    0  0.00000000000E+00  0.00000000000E+00  0.11003494523E+03  0.51853558758E+03  0.50672622432E+03 0.  0.
        3    1    3    3  502    0  0.18681901223E+03  0.14461387179E+03  0.14868395427E+03  0.27914412711E+03  0.10100000352E+00 0. -1.
       -3    1    3    3    0  502 -0.18681901223E+03 -0.14461387179E+03 -0.38649009037E+02  0.23939146047E+03  0.10100000352E+00 0.  1.
</event>
<event>
 5   0  0.2413301E-01  0.4850203E+03  0.7818609E-02  0.1017764E+00
        2   -1    0    0  501    0  0.00000000000E+00  0.00000000000E+00  0.77452983526E+03  0.77452983526E+03  0.25500000920E-02 0.  1.
       -2   -1    0    0    0  501  0.00000000000E+00  0.00000000000E+00 -0.75931454067E+02  0.75931454110E+02  0.25500000920E-02 0. -1.
    10030    2    1    2    0    0  0.00000000000E+00  0.00000000000E+00  0.69859838119E+03  0.85046128937E+03  0.48502031557E+03 0.  0.
        4    1    3    3  502    0  0.21987969682E+03  0.87366027425E+02  0.25602494581E+03  0.34861194701E+03  0.12699999809E+01 0.  1.
       -4    1    3    3    0  502 -0.21987969682E+03 -0.87366027425E+02  0.44257343538E+03  0.50184934236E+03  0.12699999809E+01 0. -1.
</event>
<event>
 5   0  0.9868500E-02  0.4979193E+03  0.7818609E-02  0.1014323E+00
        3   -1    0    0  501    0  0.00000000000E+00  0.00000000000E+00  0.17072635044E+03  0.17072638032E+03  0.10100000352E+00 0. -1.
       -3   -1    0    0    0  501  0.00000000000E+00  0.00000000000E+00 -0.36304233550E+03  0.36304234955E+03  0.10100000352E+00 0.  1.
    10030    2    1    2    0    0  0.00000000000E+00  0.00000000000E+00 -0.19231598506E+03  0.53376872987E+03  0.49791928953E+03 0.  0.
        5    1    3    3  502    0 -0.12008179084E+03 -0.21796752797E+03 -0.10196412679E+03  0.26897630545E+03  0.46999998093E+01 0.  1.
       -5    1    3    3    0  502  0.12008179084E+03  0.21796752797E+03 -0.90351858269E+02  0.26479242443E+03  0.46999998093E+01 0. -1.
</event>
<event>
 5   0  0.1529146E-01  0.5018791E+03  0.7818609E-02  0.1013290E+00
       -1   -1    0    0    0  501  0.00000000000E+00  0.00000000000E+00  0.45112562353E+03  0.45112562356E+03  0.50400001928E-02 0. -1.
        1   -1    0    0  501    0  0.00000000000E+00  0.00000000000E+00 -0.13958566477E+03  0.13958566486E+03  0.50400001928E-02 0.  1.
    10030    2    1    2    0    0  0.00000000000E+00  0.00000000000E+00  0.31153995876E+03  0.59071128842E+03  0.50187914917E+03 0.  0.
        1    1    3    3  502    0 -0.33932307096E+02  0.20012863733E+03  0.32942340612E+03  0.38694011613E+03  0.50400001928E-02 0. -1.
       -1    1    3    3    0  502  0.33932307096E+02 -0.20012863733E+03 -0.17883447365E+02  0.20377117229E+03  0.50400001928E-02 0.  1.
</event>
<event>
 5   0  0.2504064E-01  0.4972790E+03  0.7818609E-02  0.1014492E+00
       -2   -1    0    0    0  501  0.00000000000E+00  0.00000000000E+00  0.10107797871E+03  0.10107797874E+03  0.25500000920E-02 0.  1.
        2   -1    0    0  501    0  0.00000000000E+00  0.00000000000E+00 -0.61162294407E+03  0.61162294407E+03  0.25500000920E-02 0. -1.
    10030    2    1    2    0    0  0.00000000000E+00  0.00000000000E+00 -0.51054496536E+03  0.71270092282E+03  0.49727904011E+03 0.  0.
        5    1    3    3  502    0 -0.20050013469E+03 -0.10460252747E+03 -0.40322944671E+03  0.46233977707E+03  0.46999998093E+01 0. -1.
       -5    1    3    3    0  502  0.20050013469E+03  0.10460252747E+03 -0.10731551864E+03  0.25036114575E+03  0.46999998093E+01 0.  1.
</event>
<event>
 5   0  0.1448458E-01  0.5001424E+03  0.7818609E-02  0.1013742E+00
       -1   -1    0    0    0  501  0.00000000000E+00  0.00000000000E+00  0.81641236715E+02  0.81641236870E+02  0.50400001928E-02 0. -1.
        1   -1    0    0  501    0  0.00000000000E+00  0.00000000000E+00 -0.76598066036E+03  0.76598066038E+03  0.50400001928E-02 0.  1.
    10030    2    1    2    0    0  0.00000000000E+00  0.00000000000E+00 -0.68433942365E+03  0.84762189725E+03  0.50014241366E+03 0.  0.
        5    1    3    3  502    0 -0.12165380150E+03 -0.20894283446E+03 -0.45011366032E+03  0.51096100898E+03  0.46999998093E+01 0.  1.
       -5    1    3    3    0  502  0.12165380150E+03  0.20894283446E+03 -0.23422576333E+03  0.33666088827E+03  0.46999998093E+01 0. -1.
</event>
<event>
 5   0  0.1448458E-01  0.5097116E+03  0.7818609E-02  0.1011275E+00
       -1   -1    0    0    0  501  0.00000000000E+00  0.00000000000E+00  0.96632106493E+02  0.96632106624E+02  0.50400001928E-02 0.  1.
        1   -1    0    0  501    0  0.00000000000E+00  0.00000000000E+00 -0.67215218423E+03  0.67215218425E+03  0.50400001928E-02 0. -1.
    10030    2    1    2    0    0  0.00000000000E+00  0.00000000000E+00 -0.57552007774E+03  0.76878429087E+03  0.50971161063E+03 0.  0.
        5    1    3    3  502    0  0.44489689915E+02 -0.15729691364E+03 -0.58257916102E+03  0.60509686862E+03  0.46999998093E+01 0. -1.
       -5    1    3    3    0  502 -0.44489689915E+02  0.15729691364E+03  0.70590832856E+01  0.16368742226E+03  0.46999998093E+01 0.  1.
</event>
<event>
 5   0  0.2504064E-01  0.4919855E+03  0.7818609E-02  0.1015892E+00
        2   -1    0    0  501    0  0.00000000000E+00  0.00000000000E+00  0.38073076491E+03  0.38073076492E+03  0.25500000920E-02 0.  1.
       -2   -1    0    0    0  501  0.00000000000E+00  0.00000000000E+00 -0.15893762547E+03  0.15893762549E+03  0.25500000920E-02 0. -1.
    10030    2    1    2    0    0  0.00000000000E+00  0.00000000000E+00  0.22179313944E+03  0.53966839040E+03  0.49198554338E+03 0.  0.
        5    1    3    3  502    0  0.66047805991E+02 -0.76325454060E+02  0.35691592624E+03  0.37094333262E+03  0.46999998093E+01 0.  1.
       -5    1    3    3    0  502 -0.66047805991E+02  0.76325454060E+02 -0.13512278680E+03  0.16872505778E+03  0.46999998093E+01 0. -1.
</event>
<event>
 5   0  0.1439814E-01  0.5013758E+03  0.7818609E-02  0.1013420E+00
        1   -1    0    0  501    0  0.00000000000E+00  0.00000000000E+00  0.15980067072E+03  0.15980067079E+03  0.50400001928E-02 0.  1.
       -1   -1    0    0    0  501  0.00000000000E+00  0.00000000000E+00 -0.39326764657E+03  0.39326764661E+03  0.50400001928E-02 0. -1.
    10030    2    1    2    0    0  0.00000000000E+00  0.00000000000E+00 -0.23346697586E+03  0.55306831740E+03  0.50137584196E+03 0.  0.
        4    1    3    3  502    0  0.47455125517E+01 -0.77808348065E+02  0.14608755966E+03  0.16558939249E+03  0.12699999809E+01 0.  1.
       -4    1    3    3    0  502 -0.47455125517E+01  0.77808348065E+02 -0.37955453552E+03  0.38747892491E+03  0.12699999809E+01 0. -1.
</event>
<event>
 5   0  0.1439814E-01  0.4967096E+03  0.7818609E-02  0.1014641E+00
        1   -1    0    0  501    0  0.00000000000E+00  0.00000000000E+00  0.87464333850E+02  0.87464333995E+02  0.50400001928E-02 0. -1.
       -1   -1    0    0    0  501  0.00000000000E+00  0.00000000000E+00 -0.70520309162E+03  0.70520309164E+03  0.50400001928E-02 0.  1.
    10030    2    1    2    0    0  0.00000000000E+00  0.00000000000E+00 -0.61773875777E+03  0.79266742564E+03  0.49670964840E+03 0.  0.
        4    1    3    3  502    0  0.56162856696E+02 -0.10735221924E+03 -0.65483754913E+03  0.66595239627E+03  0.12699999809E+01 0.  1.
       -4    1    3    3    0  502 -0.56162856696E+02  0.10735221924E+03  0.37098791354E+02  0.12671502937E+03  0.12699999809E+01 0. -1.
</event>
<event>
 5   0  0.1448458E-01  0.5030408E+03  0.7818609E-02  0.1012988E+00
       -1   -1    0    0    0  501  0.00000000000E+00  0.00000000000E+00  0.22198427872E+03  0.22198427878E+03  0.50400001928E-02 0.  1.
        1   -1    0    0  501    0  0.00000000000E+00  0.00000000000E+00 -0.28498647666E+03  0.28498647671E+03  0.50400001928E-02 0. -1.
    10030    2    1    2    0    0  0.00000000000E+00  0.00000000000E+00 -0.63002197942E+02  0.50697075549E+03  0.50304082337E+03 0.  0.
        5    1    3    3  502    0 -0.71936125649E+02 -0.62593528134E+02  0.20301333068E+03  0.22434183375E+03  0.46999998093E+01 0.  1.
       -5    1    3    3    0  502  0.71936125649E+02  0.62593528134E+02 -0.26601552862E+03  0.28262892174E+03  0.46999998093E+01 0. -1.
</event>
<event>
 5   0  0.1453602E-01  0.4996624E+03  0.7818609E-02  0.1013867E+00
        1   -1    0    0  501    0  0.00000000000E+00  0.00000000000E+00  0.32619575524E+03  0.32619575528E+03  0.50400001928E-02 0. -1.
       -1   -1    0    0    0  501  0.00000000000E+00  0.00000000000E+00 -0.19134410219E+03  0.19134410226E+03  0.50400001928E-02 0.  1.
    10030    2    1    2    0    0  0.00000000000E+00  0.00000000000E+00  0.13485165305E+03  0.51753985754E+03  0.49966242185E+03 0.  0.
        2    1    3    3  502    0  0.16713048747E+03  0.77328936791E+01 -0.12474743605E+03  0.20869671846E+03  0.25500000920E-02 0.  1.
       -2    1    3    3    0  502 -0.16713048747E+03 -0.77328936791E+01  0.25959908910E+03  0.30884313908E+03  0.25500000920E-02 0. -1.
</event>
<event>
 5   0  0.1439814E-01  0.4976642E+03  0.7818609E-02  0.1014390E+00
       -1   -1    0    0    0  501  0.00000000000E+00  0.00000000000E+00  0.16813680373E+03  0.16813680380E+03  0.50400001928E-02 0.  1.
        1   -1    0    0  501    0  0.00000000000E+00  0.00000000000E+00 -0.36825611066E+03  0.36825611069E+03  0.50400001928E-02 0. -1.
    10030    2    1    2    0    0  0.00000000000E+00  0.00000000000E+00 -0.20011930693E+03  0.53639291450E+03  0.49766416559E+03 0.  0.
        4    1    3    3  502    0  0.19044162061E+02  0.21648138648E+03 -0.23068926047E+03  0.31693219874E+03  0.12699999809E+01 0.  1.
       -4    1    3    3    0  502 -0.19044162061E+02 -0.21648138648E+03  0.30569953539E+02  0.21946071576E+03  0.12699999809E+01 0. -1.
</event>
<event>
 5   0  0.1439814E-01  0.5066631E+03  0.7818609E-02  0.1012054E+00
        1   -1    0    0  501    0  0.00000000000E+00  0.00000000000E+00  0.48403565277E+03  0.48403565280E+03  0.50400001928E-02 0. -1.
       -1   -1    0    0    0  501  0.00000000000E+00  0.00000000000E+00 -0.13258706791E+03  0.13258706800E+03  0.50400001928E-02 0.  1.
    10030    2    1    2    0    0  0.00000000000E+00  0.00000000000E+00  0.35144858486E+03  0.61662272080E+03  0.50666307543E+03 0.  0.
        4    1    3    3  502    0  0.10343248578E+03 -0.59529567854E+02 -0.96229422780E+02  0.15330937112E+03  0.12699999809E+01 0.  1.
       -4    1    3    3    0  502 -0.10343248578E+03  0.59529567854E+02  0.44767800764E+03  0.46331334968E+03  0.12699999809E+01 0. -1.
</event>
<event>
 5   0  0.1529146E-01  0.5062847E+03  0.7818609E-02  0.1012151E+00
       -1   -1    0    0    0  501  0.00000000000E+00  0.00000000000E+00  0.39056149918E+03  0.39056149921E+03  0.50400001928E-02 0. -1.
        1   -1    0    0  501    0  0.00000000000E+00  0.00000000000E+00 -0.16407415723E+03  0.16407415731E+03  0.50400001928E-02 0.  1.
    10030    2    1    2    0    0  0.00000000000E+00  0.00000000000E+00  0.22648734194E+03  0.55463565652E+03  0.50628469800E+03 0.  0.
        1    1    3    3  502    0  0.89263805210E+02  0.15798165014E+03 -0.80120323400E+02  0.19835698866E+03  0.50400001928E-02 0.  1.
       -1    1    3    3    0  502 -0.89263805210E+02 -0.15798165014E+03  0.30660766534E+03  0.35627866786E+03  0.50400001928E-02 0. -1.
</event>
<event>
 5   0  0.2488968E-01  0.4944520E+03  0.7818609E-02  0.1015237E+00
        2   -1    0    0  501    0  0.00000000000E+00  0.00000000000E+00  0.91884302337E+02  0.91884302372E+02  0.25500000920E-02 0. -1.
       -2   -1    0    0    0  501  0.00000000000E+00  0.00000000000E+00 -0.66519190414E+03  0.66519190414E+03  0.25500000920E-02 0.  1.
    10030    2    1    2    0    0  0.00000000000E+00  0.00000000000E+00 -0.57330760180E+03  0.75707620652E+03  0.49445199584E+03 0.  0.
        2    1    3    3  502    0 -0.55779792314E+02 -0.23291789962E+03 -0.19278392241E+03  0.30745369398E+03  0.25500000920E-02 0. -1.
       -2    1    3    3    0  502  0.55779792314E+02  0.23291789962E+03 -0.38052367940E+03  0.44962251254E+03  0.25500000920E-02 0.  1.
</event>
<event>
 5   0  0.1529146E-01  0.4823137E+03  0.7818609E-02  0.1018501E+00
        1   -1    0    0  501    0  0.00000000000E+00  0.00000000000E+00  0.53490969886E+03  0.53490969888E+03  0.50400001928E-02 0. -1.
       -1   -1    0    0    0  501  0.00000000000E+00  0.00000000000E+00 -0.10872234550E+03  0.10872234562E+03  0.50400001928E-02 0.  1.
    10030    2    1    2    0    0  0.00000000000E+00  0.00000000000E+00  0.42618735336E+03  0.64363204450E+03  0.48231374493E+03 0.  0.
        1    1    3    3  502    0  0.14188556918E+02 -0.17400585739E+03  0.43510225267E+03  0.46882120671E+03  0.50400001928E-02 0. -1.
       -1    1    3    3    0  502 -0.14188556918E+02  0.17400585739E+03 -0.89148993164E+01  0.17481083779E+03  0.50400001928E-02 0.  1.
</event>
<event>
 5   0  0.9868500E-02  0.4908718E+03  0.7818609E-02  0.1016189E+00
       -3   -1    0    0    0  501  0.00000000000E+00  0.00000000000E+00  0.56270813068E+02  0.56270903710E+02  0.10100000352E+00 0. -1.
        3   -1    0    0  501    0  0.00000000000E+00  0.00000000000E+00 -0.10705146179E+04  0.10705146226E+04  0.10100000352E+00 0.  1.
    10030    2    1    2    0    0  0.00000000000E+00  0.00000000000E+00 -0.10142438048E+04  0.11267855264E+04  0.49087180282E+03 0.  0.
        5    1    3    3  502    0 -0.24590256403E+02  0.19468198073E+03 -0.84535216398E+03  0.86784107156E+03  0.46999998093E+01 0.  1.
       -5    1    3    3    0  502  0.24590256403E+02 -0.19468198073E+03 -0.16889164083E+03  0.25894445480E+03  0.46999998093E+01 0. -1.
</event>
<event>
 5   0  0.1439814E-01  0.4950083E+03  0.7818609E-02  0.1015090E+00
        1   -1    0    0  501    0  0.00000000000E+00  0.00000000000E+00  0.19759585193E+03  0.19759585199E+03  0.50400001928E-02 0.  1.
       -1   -1    0    0    0  501  0.00000000000E+00  0.00000000000E+00 -0.31001813944E+03  0.31001813948E+03  0.50400001928E-02 0. -1.
    10030    2    1    2    0    0  0.00000000000E+00  0.00000000000E+00 -0.11242228751E+03  0.50761399147E+03  0.49500827630E+03 0.  0.
        4    1    3    3  502    0  0.10955364577E+03 -0.19496768729E+03  0.52518614274E+02  0.22972639843E+03  0.12699999809E+01 0.  1.
       -4    1    3    3    0  502 -0.10955364577E+03  0.19496768729E+03 -0.16494090178E+03  0.27788759304E+03  0.12699999809E+01 0. -1.
</event>
<event>
 5   0  0.9868500E-02  0.4894950E+03  0.7818609E-02  0.1016558E+00
       -3   -1    0    0    0  501  0.00000000000E+00  0.00000000000E+00  0.48959326828E+03  0.48959327870E+03  0.10100000352E+00 0.  1.
        3   -1    0    0  501    0  0.00000000000E+00  0.00000000000E+00 -0.12234917658E+03  0.12234921826E+03  0.10100000352E+00 0. -1.
    10030    2    1    2    0    0  0.00000000000E+00  0.00000000000E+00  0.36724409170E+03  0.61194249696E+03  0.48949504257E+03 0.  0.
        3    1    3    3  502    0  0.78310357562E+02  0.60757103121E+02 -0.96136401038E+02  0.13808025017E+03  0.10100000352E+00 0. -1.
       -3    1    3    3    0  502 -0.78310357562E+02 -0.60757103121E+02  0.46338049274E+03  0.47386224679E+03  0.10100000352E+00 0.  1.
</event>
<event>
 5   0  0.2504064E-01  0.4987822E+03  0.7818609E-02  0.1014097E+00
        2   -1    0    0  501    0  0.00000000000E+00  0.00000000000E+00  0.43715662607E+03  0.43715662608E+03  0.25500000920E-02 0. -1.
       -2   -1    0    0    0  501  0.00000000000E+00  0.00000000000E+00 -0.14227376210E+03  0.14227376213E+03  0.25500000920E-02 0.  1.
    10030    2    1    2    0    0  0.00000000000E+00  0.00000000000E+00  0.29488286396E+03  0.57943038820E+03  0.49878218825E+03 0.  0.
        5    1    3    3  502    0  0.18130522452E+03 -0.16006254984E+03  0.76948527268E+02  0.25384004835E+03  0.46999998093E+01 0.  1.
       -5    1    3    3    0  502 -0.18130522452E+03  0.16006254984E+03  0.21793433669E+03  0.32559033986E+03  0.46999998093E+01 0. -1.
</event>
<event>
 5   0  0.9868500E-02  0.5032739E+03  0.7818609E-02  0.1012928E+00
        4   -1    0    0  501    0  0.00000000000E+00  0.00000000000E+00  0.86887346147E+03  0.86887438963E+03  0.12699999809E+01 0. -1.
       -4   -1    0    0    0  501  0.00000000000E+00  0.00000000000E+00 -0.72870791566E+02  0.72881857574E+02  0.12699999809E+01 0.  1.
    10030    2    1    2    0    0  0.00000000000E+00  0.00000000000E+00  0.79600266991E+03  0.94175624720E+03  0.50327386048E+03 0.  0.
        4    1    3    3  502    0  0.14073909912E+03  0.20215867961E+03  0.30178315430E+03  0.38955142264E+03  0.12699999809E+01 0.  1.
       -4    1    3    3    0  502 -0.14073909912E+03 -0.20215867961E+03  0.49421951560E+03  0.55220482456E+03  0.12699999809E+01 0. -1.
</event>
<event>
 5   0  0.1413361E-01  0.4978958E+03  0.7818609E-02  0.1014330E+00
        1   -1    0    0  501    0  0.00000000000E+00  0.00000000000E+00  0.92039568523E+03  0.92039568525E+03  0.50400001928E-02 0. -1.
       -1   -1    0    0    0  501  0.00000000000E+00  0.00000000000E+00 -0.67335238927E+02  0.67335239116E+02  0.50400001928E-02 0.  1.
    10030    2    1    2    0    0  0.00000000000E+00  0.00000000000E+00  0.85306044630E+03  0.98773092436E+03  0.49789582634E+03 0.  0.
        3    1    3    3  502    0  0.24162651966E+03  0.51410725887E+02  0.48763079591E+03  0.54663538218E+03  0.10100000352E+00 0. -1.
       -3    1    3    3    0  502 -0.24162651966E+03 -0.51410725887E+02  0.36542965040E+03  0.44109554218E+03  0.10100000352E+00 0.  1.
</event>
<event>
 5   0  0.1439814E-01  0.4911237E+03  0.7818609E-02  0.1016122E+00
        1   -1    0    0  501    0  0.00000000000E+00  0.00000000000E+00  0.13384400619E+04  0.13384400619E+04  0.50400001928E-02 0.  1.
       -1   -1    0    0    0  501  0.00000000000E+00  0.00000000000E+00 -0.45052913734E+02  0.45052914016E+02  0.50400001928E-02 0. -1.
    10030    2    1    2    0    0  0.00000000000E+00  0.00000000000E+00  0.12933871481E+04  0.13834929759E+04  0.49112371088E+03 0.  0.
        4    1    3    3  502    0  0.23873800305E+03 -0.30514336812E+01  0.80836715581E+03  0.84289039432E+03  0.12699999809E+01 0. -1.
       -4    1    3    3    0  502 -0.23873800305E+03  0.30514336812E+01  0.48501999232E+03  0.54060258156E+03  0.12699999809E+01 0.  1.
</event>
<event>
 5   0  0.1453602E-01  0.5026635E+03  0.7818609E-02  0.1013086E+00
       -1   -1    0    0    0  501  0.00000000000E+00  0.00000000000E+00  0.87041746314E+02  0.87041746460E+02  0.50400001928E-02 0.  1.
        1   -1    0    0  501    0  0.00000000000E+00  0.00000000000E+00 -0.72571669773E+03  0.72571669775E+03  0.50400001928E-02 0. -1.
    10030    2    1    2    0    0  0.00000000000E+00  0.00000000000E+00 -0.63867495141E+03  0.81275844421E+03  0.50266350083E+03 0.  0.
        2    1    3    3  502    0  0.13732945756E+02  0.18504950963E+03 -0.59342879782E+03  0.62176334156E+03  0.25500000920E-02 0. -1.
       -2    1    3    3    0  502 -0.13732945756E+02 -0.18504950963E+03 -0.45246153592E+02  0.19099510265E+03  0.25500000920E-02 0.  1.
</event>
<event>
 5   0  0.2413301E-01  0.5069954E+03  0.7818609E-02  0.1011969E+00
       -2   -1    0    0    0  501  0.00000000000E+00  0.00000000000E+00  0.10219653064E+03  0.10219653067E+03  0.25500000920E-02 0. -1.
        2   -1    0    0  501    0  0.00000000000E+00  0.00000000000E+00 -0.62879918094E+03  0.62879918095E+03  0.25500000920E-02 0.  1.
    10030    2    1    2    0    0  0.00000000000E+00  0.00000000000E+00 -0.52660265030E+03  0.73099571162E+03  0.50699544288E+03 0.  0.
        4    1    3    3  502    0 -0.53491945410E+02 -0.21135705028E+03 -0.76830626966E+02  0.23116606383E+03  0.12699999809E+01 0. -1.
       -4    1    3    3    0  502  0.53491945410E+02  0.21135705028E+03 -0.44977202334E+03  0.49982964778E+03  0.12699999809E+01 0.  1.
</event>
<event>
 5   0  0.1448458E-01  0.4862645E+03  0.7818609E-02  0.1017428E+00
       -1   -1    0    0    0  501  0.00000000000E+00  0.00000000000E+00  0.50756950752E+02  0.50756951003E+02  0.50400001928E-02 0. -1.
        1   -1    0    0  501    0  0.00000000000E+00  0.00000000000E+00 -0.11646341872E+04  0.11646341872E+04  0.50400001928E-02 0.  1.
    10030    2    1    2    0    0  0.00000000000E+00  0.00000000000E+00 -0.11138772365E+04  0.12153911382E+04  0.48626445580E+03 0.  0.
        5    1    3    3  502    0 -0.80239066415E+02  0.15706011878E+03 -0.97506368820E+03  0.99089730787E+03  0.46999998093E+01 0.  1.
       -5    1    3    3    0  502  0.80239066415E+02 -0.15706011878E+03 -0.13881354825E+03  0.22449383035E+03  0.46999998093E+01 0. -1.
</event>
<event>
 5   0  0.1413361E-01  0.4993138E+03  0.7818609E-02  0.1013958E+00
       -1   -1    0    0    0  501  0.00000000000E+00  0.00000000000E+00  0.11206829080E+03  0.11206829091E+03  0.50400001928E-02 0. -1.
        1   -1    0    0  501    0  0.00000000000E+00  0.00000000000E+00 -0.55616602113E+03  0.55616602115E+03  0.50400001928E-02 0.  1.
    10030    2    1    2    0    0  0.00000000000E+00  0.00000000000E+00 -0.44409773033E+03  0.66823431206E+03  0.49931383090E+03 0.  0.
        3    1    3    3  502    0 -0.12551947356E+03 -0.99066047448E+02 -0.47863847073E+03  0.50464246340E+03  0.10100000352E+00 0.  1.
       -3    1    3    3    0  502  0.12551947356E+03  0.99066047448E+02  0.34540740402E+02  0.16359184866E+03  0.10100000352E+00 0. -1.
</event>
<event>
 5   0  0.2488968E-01  0.5124812E+03  0.7818609E-02  0.1010572E+00
       -2   -1    0    0    0  501  0.00000000000E+00  0.00000000000E+00  0.73363845195E+02  0.73363845239E+02  0.25500000920E-02 0. -1.
        2   -1    0    0  501    0  0.00000000000E+00  0.00000000000E+00 -0.89498107165E+03  0.89498107165E+03  0.25500000920E-02 0.  1.
    10030    2    1    2    0    0  0.00000000000E+00  0.00000000000E+00 -0.82161722645E+03  0.96834491689E+03  0.51248123016E+03 0.  0.
        2    1    3    3  502    0  0.15175714862E+03  0.10335327665E+03 -0.73079907469E+02  0.19761782520E+03  0.25500000920E-02 0. -1.
       -2    1    3    3    0  502 -0.15175714862E+03 -0.10335327665E+03 -0.74853731898E+03  0.77072709169E+03  0.25500000920E-02 0.  1.
</event>
<event>
 5   0  0.2504064E-01  0.4956794E+03  0.7818609E-02  0.1014913E+00
       -2   -1    0    0    0  501  0.00000000000E+00  0.00000000000E+00  0.10312920645E+03  0.10312920648E+03  0.25500000920E-02 0.  1.
        2   -1    0    0  501    0  0.00000000000E+00  0.00000000000E+00 -0.59560727606E+03  0.59560727607E+03  0.25500000920E-02 0. -1.
    10030    2    1    2    0    0  0.00000000000E+00  0.00000000000E+00 -0.49247806961E+03  0.69873648255E+03  0.49567935502E+03 0.  0.
        5    1    3    3  502    0  0.12552382708E+03 -0.17696594417E+03 -0.77496660948E+02  0.23043654010E+03  0.46999998093E+01 0.  1.
       -5    1    3    3    0  502 -0.12552382708E+03  0.17696594417E+03 -0.41498140866E+03  0.46829994244E+03  0.46999998093E+01 0. -1.
</event>
<event>
 5   0  0.2466034E-01  0.5049161E+03  0.7818609E-02  0.1012504E+00
        2   -1    0    0  501    0  0.00000000000E+00  0.00000000000E+00  0.27507236393E+03  0.27507236394E+03  0.25500000920E-02 0. -1.
       -2   -1    0    0    0  501  0.00000000000E+00  0.00000000000E+00 -0.23170292368E+03  0.23170292369E+03  0.25500000920E-02 0.  1.
    10030    2    1    2    0    0  0.00000000000E+00  0.00000000000E+00  0.43369440251E+02  0.50677528764E+03  0.50491611562E+03 0.  0.
        3    1    3    3  502    0  0.17469876447E+03 -0.24207769802E+02 -0.15961646763E+03  0.23787202729E+03  0.10100000352E+00 0.  1.
       -3    1    3    3    0  502 -0.17469876447E+03  0.24207769802E+02  0.20298590788E+03  0.26890326035E+03  0.10100000352E+00 0. -1.
</event>
<event>
 5   0  0.9868500E-02  0.5042749E+03  0.7818609E-02  0.1012669E+00
       -4   -1    0    0    0  501  0.00000000000E+00  0.00000000000E+00  0.17395766127E+03  0.17396229711E+03  0.12699999809E+01 0. -1.
        4   -1    0    0  501    0  0.00000000000E+00  0.00000000000E+00 -0.36544211892E+03  0.36544432569E+03  0.12699999809E+01 0.  1.
    10030    2    1    2    0    0  0.00000000000E+00  0.00000000000E+00 -0.19148445765E+03  0.53940662280E+03  0.50427493216E+03 0.  0.
        5    1    3    3  502    0 -0.69885572009E+02 -0.11600462269E+03 -0.32318223067E+03  0.35044244874E+03  0.46999998093E+01 0.  1.
       -5    1    3    3    0  502  0.69885572009E+02  0.11600462269E+03  0.13169777302E+03  0.18896417406E+03  0.46999998093E+01 0. -1.
</event>
<event>
 5   0  0.2466034E-01  0.4918525E+03  0.7818609E-02  0.1015928E+00
       -2   -1    0    0    0  501  0.00000000000E+00  0.00000000000E+00  0.68675101389E+02  0.68675101436E+02  0.25500000920E-02 0.  1.
        2   -1    0    0  501    0  0.00000000000E+00  0.00000000000E+00 -0.88066443946E+03  0.88066443946E+03  0.25500000920E-02 0. -1.
    10030    2    1    2    0    0  0.00000000000E+00  0.00000000000E+00 -0.81198933807E+03  0.94933954090E+03  0.49185249697E+03 0.  0.
        3    1    3    3  502    0 -0.16230282007E+03  0.14128866673E+03 -0.17619548632E+03  0.27811787492E+03  0.10100000352E+00 0.  1.
       -3    1    3    3    0  502  0.16230282007E+03 -0.14128866673E+03 -0.63579385175E+03  0.67122166598E+03  0.10100000352E+00 0. -1.
</event>
<event>
 5   0  0.1448458E-01  0.4979166E+03  0.7818609E-02  0.1014324E+00
        1   -1    0    0  501    0  0.00000000000E+00  0.00000000000E+00  0.74058732668E+03  0.74058732669E+03  0.50400001928E-02 0.  1.
       -1   -1    0    0    0  501  0.00000000000E+00  0.00000000000E+00 -0.83690659859E+02  0.83690660011E+02  0.50400001928E-02 0. -1.
    10030    2    1    2    0    0  0.00000000000E+00  0.00000000000E+00  0.65689666682E+03  0.82427798670E+03  0.49791662805E+03 0.  0.
        5    1    3    3  502    0 -0.15658109420E+03  0.19322961412E+03  0.34523542616E+03  0.42551722916E+03  0.46999998093E+01 0.  1.
       -5    1    3    3    0  502  0.15658109420E+03 -0.19322961412E+03  0.31166124065E+03  0.39876075755E+03  0.46999998093E+01 0. -1.
</event>
<event>
 5   0  0.1413361E-01  0.4951605E+03  0.7818609E-02  0.1015050E+00
       -1   -1    0    0    0  501  0.00000000000E+00  0.00000000000E+00  0.11910921135E+03  0.11910921145E+03  0.50400001928E-02 0.  1.
        1   -1    0    0  501    0  0.00000000000E+00  0.00000000000E+00 -0.51461996789E+03  0.51461996791E+03  0.50400001928E-02 0. -1.
    10030    2    1    2    0    0  0.00000000000E+00  0.00000000000E+00 -0.39551075654E+03  0.63372917936E+03  0.49516049341E+03 0.  0.
        3    1    3    3  502    0 -0.11680307661E+03  0.18317923772E+03 -0.45790834811E+02  0.22202342802E+03  0.10100000352E+00 0.  1.
       -3    1    3    3    0  502  0.11680307661E+03 -0.18317923772E+03 -0.34971992173E+03  0.41170575135E+03  0.10100000352E+00 0. -1.
</event>
<event>
 5   0  0.9868500E-02  0.4940566E+03  0.7818609E-02  0.1015342E+00
       -3   -1    0    0    0  501  0.00000000000E+00  0.00000000000E+00  0.56674609676E+02  0.56674699672E+02  0.10100000352E+00 0.  1.
        3   -1    0    0  501    0  0.00000000000E+00  0.00000000000E+00 -0.10767241360E+04  0.10767241407E+04  0.10100000352E+00 0. -1.
    10030    2    1    2    0    0  0.00000000000E+00  0.00000000000E+00 -0.10200495263E+04  0.11333988404E+04  0.49405657093E+03 0.  0.
        2    1    3    3  502    0 -0.68099839855E+02 -0.17239369687E+03 -0.13541129769E+03  0.22955041812E+03  0.25500000920E-02 0.  1.
       -2    1    3    3    0  502  0.68099839855E+02  0.17239369687E+03 -0.88463822859E+03  0.90384842225E+03  0.25500000920E-02 0. -1.
</event>
<event>
 5   0  0.1439814E-01  0.4903027E+03  0.7818609E-02  0.1016342E+00
       -1   -1    0    0    0  501  0.00000000000E+00  0.00000000000E+00  0.73548340434E+03  0.73548340436E+03  0.50400001928E-02 0.  1.
        1   -1    0    0  501    0  0.00000000000E+00  0.00000000000E+00 -0.81713846939E+02  0.81713847094E+02  0.50400001928E-02 0. -1.
    10030    2    1    2    0    0  0.00000000000E+00  0.00000000000E+00  0.65376955740E+03  0.81719725145E+03  0.49030267549E+03 0.  0.
        4    1    3    3  502    0 -0.90900631227E+02  0.26643963626E+02  0.70374317016E+03  0.71009076040E+03  0.12699999809E+01 0.  1.
       -4    1    3    3    0  502  0.90900631227E+02 -0.26643963626E+02 -0.49973612754E+02  0.10710649106E+03  0.12699999809E+01 0. -1.
</event>
<event>
 5   0  0.2413301E-01  0.5037665E+03  0.7818609E-02  0.1012800E+00
        2   -1    0    0  501    0  0.00000000000E+00  0.00000000000E+00  0.81458525791E+03  0.81458525792E+03  0.25500000920E-02 0. -1.
       -2   -1    0    0    0  501  0.00000000000E+00  0.00000000000E+00 -0.77886485718E+02  0.77886485760E+02  0.25500000920E-02 0.  1.
    10030    2    1    2    0    0  0.00000000000E+00  0.00000000000E+00  0.73669877220E+03  0.89247174368E+03  0.50376654544E+03 0.  0.
        4    1    3    3  502    0  0.20555939580E+03  0.30578665323E+02  0.11622262276E+03  0.23811558310E+03  0.12699999809E+01 0.  1.
       -4    1    3    3    0  502 -0.20555939580E+03 -0.30578665323E+02  0.62047614943E+03  0.65435616058E+03  0.12699999809E+01 0. -1.
</event>
<event>
 5   0  0.1439814E-01  0.4928444E+03  0.7818609E-02  0.1015664E+00
        1   -1    0    0  501    0  0.00000000000E+00  0.00000000000E+00  0.50754639956E+03  0.50754639958E+03  0.50400001928E-02 0.  1.
       -1   -1    0    0    0  501  0.00000000000E+00  0.00000000000E+00 -0.11964208857E+03  0.11964208867E+03  0.50400001928E-02 0. -1.
    10030    2    1    2    0    0  0.00000000000E+00  0.00000000000E+00  0.38790431099E+03  0.62718848826E+03  0.49284444333E+03 0.  0.
        4    1    3    3  502    0 -0.10027417074E+03 -0.11336945352E+03 -0.53515740565E+02  0.16053999407E+03  0.12699999809E+01 0. -1.
       -4    1    3    3    0  502  0.10027417074E+03  0.11336945352E+03  0.44142005156E+03  0.46664849418E+03  0.12699999809E+01 0.  1.
</event>
<event>
 5   0  0.9868500E-02  0.4948945E+03  0.7818609E-02  0.1015120E+00
        4   -1    0    0  501    0  0.00000000000E+00  0.00000000000E+00  0.57842182485E+03  0.57842321908E+03  0.12699999809E+01 0. -1.
       -4   -1    0    0    0  501  0.00000000000E+00  0.00000000000E+00 -0.10585191090E+03  0.10585952929E+03  0.12699999809E+01 0.  1.
    10030    2    1    2    0    0  0.00000000000E+00  0.00000000000E+00  0.47256991395E+03  0.68428274836E+03  0.49489448990E+03 0.  0.
        2    1    3    3  502    0 -0.23774689049E+03  0.41695006734E+02  0.16095618562E+03  0.29011885706E+03  0.25500000920E-02 0.  1.
       -2    1    3    3    0  502  0.23774689049E+03 -0.41695006734E+02  0.31161372833E+03  0.39416389131E+03  0.25500000920E-02 0. -1.
</event>
<event>
 5   0  0.1413361E-01  0.5084736E+03  0.7818609E-02  0.1011591E+00
        1   -1    0    0  501    0  0.00000000000E+00  0.00000000000E+00  0.10056677199E+03  0.10056677211E+03  0.50400001928E-02 0.  1.
       -1   -1    0    0    0  501  0.00000000000E+00  0.00000000000E+00 -0.64272063453E+03  0.64272063455E+03  0.50400001928E-02 0. -1.
    10030    2    1    2    0    0  0.00000000000E+00  0.00000000000E+00 -0.54215386255E+03  0.74328740667E+03  0.50847355706E+03 0.  0.
        3    1    3    3  502    0 -0.13017686457E+03 -0.17275510738E+03 -0.75796521331E+02  0.22920616493E+03  0.10100000352E+00 0.  1.
       -3    1    3    3    0  502  0.13017686457E+03  0.17275510738E+03 -0.46635734122E+03  0.51408124174E+03  0.10100000352E+00 0. -1.
</event>
<event>
 5   0  0.2488968E-01  0.5016611E+03  0.7818609E-02  0.1013346E+00
        2   -1    0    0  501    0  0.00000000000E+00  0.00000000000E+00  0.83789313701E+02  0.83789313740E+02  0.25500000920E-02 0. -1.
       -2   -1    0    0    0  501  0.00000000000E+00  0.00000000000E+00 -0.75088302676E+03  0.75088302676E+03  0.25500000920E-02 0.  1.
    10030    2    1    2    0    0  0.00000000000E+00  0.00000000000E+00 -0.66709371306E+03  0.83467234050E+03  0.50166113463E+03 0.  0.
        2    1    3    3  502    0 -0.95650332279E+01 -0.13460854747E+03 -0.68533704706E+03  0.69849682819E+03  0.25500000920E-02 0.  1.
       -2    1    3    3    0  502  0.95650332279E+01  0.13460854747E+03  0.18243334000E+02  0.13617551232E+03  0.25500000920E-02 0. -1.
</event>
<event>
 5   0  0.2413301E-01  0.4977175E+03  0.7818609E-02  0.1014376E+00
       -2   -1    0    0    0  501  0.00000000000E+00  0.00000000000E+00  0.14425040572E+03  0.14425040574E+03  0.25500000920E-02 0.  1.
        2   -1    0    0  501    0  0.00000000000E+00  0.00000000000E+00 -0.42932760541E+03  0.42932760542E+03  0.25500000920E-02 0. -1.
    10030    2    1    2    0    0  0.00000000000E+00  0.00000000000E+00 -0.28507719969E+03  0.57357801116E+03  0.49771751536E+03 0.  0.
        4    1    3    3  502    0  0.15885407156E+03 -0.12377994956E+03  0.25938963400E+02  0.20305303417E+03  0.12699999809E+01 0.  1.
       -4    1    3    3    0  502 -0.15885407156E+03  0.12377994956E+03 -0.31101616309E+03  0.37052497698E+03  0.12699999809E+01 0. -1.
</event>
<event>
 5   0  0.2488968E-01  0.5042756E+03  0.7818609E-02  0.1012669E+00
       -2   -1    0    0    0  501  0.00000000000E+00  0.00000000000E+00  0.22496326143E+03  0.22496326144E+03  0.25500000920E-02 0. -1.
        2   -1    0    0  501    0  0.00000000000E+00  0.00000000000E+00 -0.28259494536E+03  0.28259494537E+03  0.25500000920E-02 0.  1.
    10030    2    1    2    0    0  0.00000000000E+00  0.00000000000E+00 -0.57631683926E+02  0.50755820681E+03  0.50427564120E+03 0.  0.
        2    1    3    3  502    0 -0.63292194357E+02 -0.24550653113E+02  0.21559160896E+03  0.22602738395E+03  0.25500000920E-02 0. -1.
       -2    1    3    3    0  502  0.63292194357E+02  0.24550653113E+02 -0.27322329289E+03  0.28153082286E+03  0.25500000920E-02 0.  1.
</event>
<event>
 5   0  0.1439814E-01  0.4973550E+03  0.7818609E-02  0.1014472E+00
        1   -1    0    0  501    0  0.00000000000E+00  0.00000000000E+00  0.63859203876E+03  0.63859203878E+03  0.50400001928E-02 0.  1.
       -1   -1    0    0    0  501  0.00000000000E+00  0.00000000000E+00 -0.96838821823E+02  0.96838821955E+02  0.50400001928E-02 0. -1.
    10030    2    1    2    0    0  0.00000000000E+00  0.00000000000E+00  0.54175321694E+03  0.73543086073E+03  0.49735500687E+03 0.  0.
        4    1    3    3  502    0  0.10737173401E+03  0.22423081238E+03  0.26267806540E+03  0.36167599509E+03  0.12699999809E+01 0. -1.
       -4    1    3    3    0  502 -0.10737173401E+03 -0.22423081238E+03  0.27907515154E+03  0.37375486564E+03  0.12699999809E+01 0.  1.
</event>
<event>
 5   0  0.2504064E-01  0.4969590E+03  0.7818609E-02  0.1014576E+00
        2   -1    0    0  501    0  0.00000000000E+00  0.00000000000E+00  0.29805887410E+03  0.29805887412E+03  0.25500000920E-02 0. -1.
       -2   -1    0    0    0  501  0.00000000000E+00  0.00000000000E+00 -0.20714719999E+03  0.20714720001E+03  0.25500000920E-02 0.  1.
    10030    2    1    2    0    0  0.00000000000E+00  0.00000000000E+00  0.90911674111E+02  0.50520607413E+03  0.49695899715E+03 0.  0.
        5    1    3    3  502    0 -0.15901383993E+03  0.15360095148E+03  0.16065592217E+03  0.27333325614E+03  0.46999998093E+01 0. -1.
       -5    1    3    3    0  502  0.15901383993E+03 -0.15360095148E+03 -0.69744248058E+02  0.23187281799E+03  0.46999998093E+01 0.  1.
</event>
<event>
 5   0  0.1453602E-01  0.5055416E+03  0.7818609E-02  0.1012343E+00
       -1   -1    0    0    0  501  0.00000000000E+00  0.00000000000E+00  0.61131956782E+02  0.61131956990E+02  0.50400001928E-02 0. -1.
        1   -1    0    0  501    0  0.00000000000E+00  0.00000000000E+00 -0.10451666331E+04  0.10451666331E+04  0.50400001928E-02 0.  1.
    10030    2    1    2    0    0  0.00000000000E+00  0.00000000000E+00 -0.98403467629E+03  0.11062985901E+04  0.50554161674E+03 0.  0.
        2    1    3    3  502    0  0.17652583936E+03 -0.39144824943E+02 -0.10548261525E+03  0.20933292003E+03  0.25500000920E-02 0. -1.
       -2    1    3    3    0  502 -0.17652583936E+03  0.39144824943E+02 -0.87855206104E+03  0.89696567004E+03  0.25500000920E-02 0.  1.
</event>
<event>
 5   0  0.1439814E-01  0.4955469E+03  0.7818609E-02  0.1014948E+00
       -1   -1    0    0    0  501  0.00000000000E+00  0.00000000000E+00  0.13272169488E+03  0.13272169498E+03  0.50400001928E-02 0. -1.
        1   -1    0    0  501    0  0.00000000000E+00  0.00000000000E+00 -0.46255954166E+03  0.46255954169E+03  0.50400001928E-02 0.  1.
    10030    2    1    2    0    0  0.00000000000E+00  0.00000000000E+00 -0.32983784678E+03  0.59528123667E+03  0.49554691560E+03 0.  0.
        4    1    3    3  502    0 -0.10603916974E+03 -0.49923374898E+00 -0.43391966702E+03  0.44669054733E+03  0.12699999809E+01 0.  1.
       -4    1    3    3    0  502  0.10603916974E+03  0.49923374898E+00  0.10408182023E+03  0.14859068934E+03  0.12699999809E+01 0. -1.
</event>
<event>
 5   0  0.1413361E-01  0.4971581E+03  0.7818609E-02  0.1014523E+00
       -1   -1    0    0    0  501  0.00000000000E+00  0.00000000000E+00  0.11922992248E+03  0.11922992258E+03  0.50400001928E-02 0.  1.
        1   -1    0    0  501    0  0.00000000000E+00  0.00000000000E+00 -0.51825526134E+03  0.51825526137E+03  0.50400001928E-02 0. -1.
    10030    2    1    2    0    0  0.00000000000E+00  0.00000000000E+00 -0.39902533887E+03  0.63748518395E+03  0.49715806209E+03 0.  0.
        3    1    3    3  502    0 -0.68748499194E+02 -0.22448380031E+03 -0.30425201787E+03  0.38430278859E+03  0.10100000352E+00 0.  1.
       -3    1    3    3    0  502  0.68748499194E+02  0.22448380031E+03 -0.94773321003E+02  0.25318239536E+03  0.10100000352E+00 0. -1.
</event>
<event>
 5   0  0.1453602E-01  0.3840917E+03  0.7818609E-02  0.1049432E+00
       -1   -1    0    0    0  501  0.00000000000E+00  0.00000000000E+00  0.11208977187E+03  0.11208977198E+03  0.50400001928E-02 0. -1.
        1   -1    0    0  501    0  0.00000000000E+00  0.00000000000E+00 -0.32903638613E+03  0.32903638617E+03  0.50400001928E-02 0.  1.
    10030    2    1    2    0    0  0.00000000000E+00  0.00000000000E+00 -0.21694661426E+03  0.44112615815E+03  0.38409172597E+03 0.  0.
        2    1    3    3  502    0  0.85154912137E+02  0.16085201513E+03 -0.17886829404E+03  0.25518345646E+03  0.25500000920E-02 0. -1.
       -2    1    3    3    0  502 -0.85154912137E+02 -0.16085201513E+03 -0.38078320220E+02  0.18594270168E+03  0.25500000920E-02 0.  1.
</event>
<event>
 5   0  0.2511944E-01  0.4978542E+03  0.7818609E-02  0.1014341E+00
       -2   -1    0    0    0  501  0.00000000000E+00  0.00000000000E+00  0.40404338672E+02  0.40404338753E+02  0.25500000920E-02 0.  1.
        2   -1    0    0  501    0  0.00000000000E+00  0.00000000000E+00 -0.15336149589E+04  0.15336149589E+04  0.25500000920E-02 0. -1.
    10030    2    1    2    0    0  0.00000000000E+00  0.00000000000E+00 -0.14932106202E+04  0.15740192976E+04  0.49785418852E+03 0.  0.
        1    1    3    3  502    0 -0.39359167684E+02  0.24459330015E+03 -0.66983151327E+03  0.71417734685E+03  0.50400001928E-02 0. -1.
       -1    1    3    3    0  502  0.39359167684E+02 -0.24459330015E+03 -0.82337910694E+03  0.85984195079E+03  0.50400001928E-02 0.  1.
</event>
<event>
 5   0  0.1439814E-01  0.4931032E+03  0.7818609E-02  0.1015595E+00
        1   -1    0    0  501    0  0.00000000000E+00  0.00000000000E+00  0.27819875850E+03  0.27819875855E+03  0.50400001928E-02 0. -1.
       -1   -1    0    0    0  501  0.00000000000E+00  0.00000000000E+00 -0.21850456069E+03  0.21850456075E+03  0.50400001928E-02 0.  1.
    10030    2    1    2    0    0  0.00000000000E+00  0.00000000000E+00  0.59694197812E+02  0.49670331930E+03  0.49310322464E+03 0.  0.
        4    1    3    3  502    0 -0.22932709882E+01  0.13705139156E+03 -0.17658260436E+03  0.22354277462E+03  0.12699999809E+01 0.  1.
       -4    1    3    3    0  502  0.22932709882E+01 -0.13705139156E+03  0.23627680218E+03  0.27316054468E+03  0.12699999809E+01 0. -1.
</event>
<event>
 5   0  0.2466034E-01  0.5013895E+03  0.7818609E-02  0.1013417E+00
       -2   -1    0    0    0  501  0.00000000000E+00  0.00000000000E+00  0.10251730272E+03  0.10251730276E+03  0.25500000920E-02 0.  1.
        2   -1    0    0  501    0  0.00000000000E+00  0.00000000000E+00 -0.61304624807E+03  0.61304624808E+03  0.25500000920E-02 0. -1.
    10030    2    1    2    0    0  0.00000000000E+00  0.00000000000E+00 -0.51052894535E+03  0.71556355083E+03  0.50138946064E+03 0.  0.
        3    1    3    3  502    0  0.16344783132E+03  0.18068069656E+03 -0.33954108594E+03  0.41791011823E+03  0.10100000352E+00 0. -1.
       -3    1    3    3    0  502 -0.16344783132E+03 -0.18068069656E+03 -0.17098785940E+03  0.29765343260E+03  0.10100000352E+00 0.  1.
</event>
<event>
 5   0  0.2511944E-01  0.5008635E+03  0.7818609E-02  0.1013554E+00
       -2   -1    0    0    0  501  0.00000000000E+00  0.00000000000E+00  0.51262707725E+02  0.51262707788E+02  0.25500000920E-02 0.  1.
        2   -1    0    0  501    0  0.00000000000E+00  0.00000000000E+00 -0.12234245499E+04  0.12234245499E+04  0.25500000920E-02 0. -1.
    10030    2    1    2    0    0  0.00000000000E+00  0.00000000000E+00 -0.11721618422E+04  0.12746872577E+04  0.50086347508E+03 0.  0.
        1    1    3    3  502    0  0.13905200769E+03 -0.15194853724E+03 -0.94861533433E+03  0.97071873958E+03  0.50400001928E-02 0. -1.
       -1    1    3    3    0  502 -0.13905200769E+03  0.15194853724E+03 -0.22354650785E+03  0.30396851812E+03  0.50400001928E-02 0.  1.
</event>
<event>
 5   0  0.2511944E-01  0.4963546E+03  0.7818609E-02  0.1014735E+00
       -2   -1    0    0    0  501  0.00000000000E+00  0.00000000000E+00  0.72754044199E+03  0.72754044200E+03  0.25500000920E-02 0.  1.
        2   -1    0    0  501    0  0.00000000000E+00  0.00000000000E+00 -0.84657791990E+02  0.84657792028E+02  0.25500000920E-02 0. -1.
    10030    2    1    2    0    0  0.00000000000E+00  0.00000000000E+00  0.64288265000E+03  0.81219823403E+03  0.49635458060E+03 0.  0.
        1    1    3    3  502    0  0.76797856659E+02  0.61088435655E+02 -0.51563131875E+02  0.11085334615E+03  0.50400001928E-02 0. -1.
       -1    1    3    3    0  502 -0.76797856659E+02 -0.61088435655E+02  0.69444578188E+03  0.70134488788E+03  0.50400001928E-02 0.  1.
</event>
<event>
 5   0  0.2504064E-01  0.5060594E+03  0.7818609E-02  0.1012209E+00
        2   -1    0    0  501    0  0.00000000000E+00  0.00000000000E+00  0.12419651211E+04  0.12419651211E+04  0.25500000920E-02 0.  1.
       -2   -1    0    0    0  501  0.00000000000E+00  0.00000000000E+00 -0.51550586786E+02  0.51550586849E+02  0.25500000920E-02 0. -1.
    10030    2    1    2    0    0  0.00000000000E+00  0.00000000000E+00  0.11904145343E+04  0.12935157080E+04  0.50605940680E+03 0.  0.
        5    1    3    3  502    0  0.10350196185E+03  0.23082170339E+03  0.60353935654E+03  0.65442582449E+03  0.46999998093E+01 0.  1.
       -5    1    3    3    0  502 -0.10350196185E+03 -0.23082170339E+03  0.58687517778E+03  0.63908988347E+03  0.46999998093E+01 0. -1.
</event>
<event>
 5   0  0.1448458E-01  0.4470888E+03  0.7818609E-02  0.1028594E+00
       -1   -1    0    0    0  501  0.00000000000E+00  0.00000000000E+00  0.72461079907E+02  0.72461080082E+02  0.50400001928E-02 0. -1.
        1   -1    0    0  501    0  0.00000000000E+00  0.00000000000E+00 -0.68964059880E+03  0.68964059882E+03  0.50400001928E-02 0.  1.
    10030    2    1    2    0    0  0.00000000000E+00  0.00000000000E+00 -0.61717951889E+03  0.76210167890E+03  0.44708881717E+03 0.  0.
        5    1    3    3  502    0  0.12777650371E+03 -0.18314316898E+03 -0.29317692359E+03  0.36856892675E+03  0.46999998093E+01 0. -1.
       -5    1    3    3    0  502 -0.12777650371E+03  0.18314316898E+03 -0.32400259530E+03  0.39353275214E+03  0.46999998093E+01 0.  1.
</event>
<event>
 5   0  0.2466034E-01  0.3948840E+03  0.7818609E-02  0.1045566E+00
        2   -1    0    0  501    0  0.00000000000E+00  0.00000000000E+00  0.12960149822E+03  0.12960149824E+03  0.25500000920E-02 0.  1.
       -2   -1    0    0    0  501  0.00000000000E+00  0.00000000000E+00 -0.30079392352E+03  0.30079392353E+03  0.25500000920E-02 0. -1.
    10030    2    1    2    0    0  0.00000000000E+00  0.00000000000E+00 -0.17119242530E+03  0.43039542178E+03  0.39488399892E+03 0.  0.
        3    1    3    3  502    0 -0.14377508779E+03 -0.17995321505E+02 -0.23177766365E+03  0.27334228182E+03  0.10100000352E+00 0. -1.
       -3    1    3    3    0  502  0.14377508779E+03  0.17995321505E+02  0.60585238345E+02  0.15705313996E+03  0.10100000352E+00 0.  1.
</event>
<event>
 5   0  0.1453602E-01  0.4981795E+03  0.7818609E-02  0.1014255E+00
        1   -1    0    0  501    0  0.00000000000E+00  0.00000000000E+00  0.43267425280E+03  0.43267425283E+03  0.50400001928E-02 0.  1.
       -1   -1    0    0    0  501  0.00000000000E+00  0.00000000000E+00 -0.14340051543E+03  0.14340051552E+03  0.50400001928E-02 0. -1.
    10030    2    1    2    0    0  0.00000000000E+00  0.00000000000E+00  0.28927373736E+03  0.57607476835E+03  0.49817952949E+03 0.  0.
        2    1    3    3  502    0  0.28425010239E+02 -0.16910921431E+03  0.35355048283E+03  0.39294255495E+03  0.25500000920E-02 0. -1.
       -2    1    3    3    0  502 -0.28425010239E+02  0.16910921431E+03 -0.64276745464E+02  0.18313221340E+03  0.25500000920E-02 0.  1.
</event>
<event>
 5   0  0.1529146E-01  0.4371739E+03  0.7818609E-02  0.1031617E+00
        1   -1    0    0  501    0  0.00000000000E+00  0.00000000000E+00  0.10205473324E+03  0.10205473336E+03  0.50400001928E-02 0. -1.
       -1   -1    0    0    0  501  0.00000000000E+00  0.00000000000E+00 -0.46818264634E+03  0.46818264636E+03  0.50400001928E-02 0.  1.
    10030    2    1    2    0    0  0.00000000000E+00  0.00000000000E+00 -0.36612791310E+03  0.57023737973E+03  0.43717390188E+03 0.  0.
        1    1    3    3  502    0  0.97362105310E+02  0.60721711059E+02  0.59611456135E+02  0.12930596070E+03  0.50400001928E-02 0. -1.
       -1    1    3    3    0  502 -0.97362105310E+02 -0.60721711059E+02 -0.42573936923E+03  0.44093141903E+03  0.50400001928E-02 0.  1.
</event>
<event>
 5   0  0.1529146E-01  0.4914612E+03  0.7818609E-02  0.1016032E+00
        1   -1    0    0  501    0  0.00000000000E+00  0.00000000000E+00  0.59979907852E+02  0.59979908064E+02  0.50400001928E-02 0.  1.
       -1   -1    0    0    0  501  0.00000000000E+00  0.00000000000E+00 -0.10067292909E+04  0.10067292910E+04  0.50400001928E-02 0. -1.
    10030    2    1    2    0    0  0.00000000000E+00  0.00000000000E+00 -0.94674938309E+03  0.10667091990E+04  0.49146120995E+03 0.  0.
        1    1    3    3  502    0 -0.13869667455E+02 -0.22115531481E+03 -0.70391135950E+03  0.73796561099E+03  0.50400001928E-02 0. -1.
       -1    1    3    3    0  502  0.13869667455E+02  0.22115531481E+03 -0.24283802359E+03  0.32874358803E+03  0.50400001928E-02 0.  1.
</event>
<event>
 5   0  0.1413361E-01  0.4907534E+03  0.7818609E-02  0.1016221E+00
        1   -1    0    0  501    0  0.00000000000E+00  0.00000000000E+00  0.26494245467E+03  0.26494245472E+03  0.50400001928E-02 0.  1.
       -1   -1    0    0    0  501  0.00000000000E+00  0.00000000000E+00 -0.22725582467E+03  0.22725582472E+03  0.50400001928E-02 0. -1.
    10030    2    1    2    0    0  0.00000000000E+00  0.00000000000E+00  0.37686630001E+02  0.49219827944E+03  0.49075336393E+03 0.  0.
        3    1    3    3  502    0  0.15528355614E+03  0.84531223077E+02  0.18949479379E+03  0.25916557942E+03  0.10100000352E+00 0.  1.
       -3    1    3    3    0  502 -0.15528355614E+03 -0.84531223077E+02 -0.15180816379E+03  0.23303270002E+03  0.10100000352E+00 0. -1.
</event>
<event>
 5   0  0.2488968E-01  0.4904333E+03  0.7818609E-02  0.1016307E+00
        2   -1    0    0  501    0  0.00000000000E+00  0.00000000000E+00  0.65872059516E+02  0.65872059565E+02  0.25500000920E-02 0. -1.
       -2   -1    0    0    0  501  0.00000000000E+00  0.00000000000E+00 -0.91284846710E+03  0.91284846710E+03  0.25500000920E-02 0.  1.
    10030    2    1    2    0    0  0.00000000000E+00  0.00000000000E+00 -0.84697640758E+03  0.97872052667E+03  0.49043331281E+03 0.  0.
        2    1    3    3  502    0  0.13615528641E+03  0.18609936853E+03 -0.25700038321E+03  0.34528312145E+03  0.25500000920E-02 0.  1.
       -2    1    3    3    0  502 -0.13615528641E+03 -0.18609936853E+03 -0.58997602438E+03  0.63343740522E+03  0.25500000920E-02 0. -1.
</event>
<event>
 5   0  0.1448458E-01  0.4977272E+03  0.7818609E-02  0.1014374E+00
        1   -1    0    0  501    0  0.00000000000E+00  0.00000000000E+00  0.54087486936E+03  0.54087486938E+03  0.50400001928E-02 0.  1.
       -1   -1    0    0    0  501  0.00000000000E+00  0.00000000000E+00 -0.11450538216E+03  0.11450538227E+03  0.50400001928E-02 0. -1.
    10030    2    1    2    0    0  0.00000000000E+00  0.00000000000E+00  0.42636948720E+03  0.65538025165E+03  0.49772716888E+03 0.  0.
        5    1    3    3  502    0 -0.56171942871E+02 -0.76678940602E+02 -0.89598258871E+02  0.13070916222E+03  0.46999998093E+01 0. -1.
       -5    1    3    3    0  502  0.56171942871E+02  0.76678940602E+02  0.51596774607E+03  0.52467108943E+03  0.46999998093E+01 0.  1.
</event>
<event>
 5   0  0.2504064E-01  0.5035616E+03  0.7818609E-02  0.1012853E+00
       -2   -1    0    0    0  501  0.00000000000E+00  0.00000000000E+00  0.40954762822E+02  0.40954762901E+02  0.25500000920E-02 0. -1.
        2   -1    0    0  501    0  0.00000000000E+00  0.00000000000E+00 -0.15478927795E+04  0.15478927795E+04  0.25500000920E-02 0.  1.
    10030    2    1    2    0    0  0.00000000000E+00  0.00000000000E+00 -0.15069380167E+04  0.15888475424E+04  0.50356164160E+03 0.  0.
        5    1    3    3  502    0  0.16363949448E+03  0.13474699620E+03 -0.11818922284E+04  0.12007605784E+04  0.46999998093E+01 0.  1.
       -5    1    3    3    0  502 -0.16363949448E+03 -0.13474699620E+03 -0.32504578831E+03  0.38808696401E+03  0.46999998093E+01 0. -1.
</event>
<event>
 5   0  0.9868500E-02  0.5251090E+03  0.7818609E-02  0.1007425E+00
        4   -1    0    0  501    0  0.00000000000E+00  0.00000000000E+00  0.12792712836E+04  0.12792719140E+04  0.12699999809E+01 0.  1.
       -4   -1    0    0    0  501  0.00000000000E+00  0.00000000000E+00 -0.53877916720E+02  0.53892882740E+02  0.12699999809E+01 0. -1.
    10030    2    1    2    0    0  0.00000000000E+00  0.00000000000E+00  0.12253933669E+04  0.13331647968E+04  0.52510900932E+03 0.  0.
        3    1    3    3  502    0 -0.16328876982E+03 -0.31932606353E+00  0.90711267991E+02  0.18679365262E+03  0.10100000352E+00 0. -1.
       -3    1    3    3    0  502  0.16328876982E+03  0.31932606353E+00  0.11346820989E+04  0.11463711441E+04  0.10100000352E+00 0.  1.
</event>
<event>
 5   0  0.9868500E-02  0.5010294E+03  0.7818609E-02  0.1013511E+00
        4   -1    0    0  501    0  0.00000000000E+00  0.00000000000E+00  0.81643431647E+03  0.81643530424E+03  0.12699999809E+01 0.  1.
       -4   -1    0    0    0  501  0.00000000000E+00  0.00000000000E+00 -0.76861648712E+02  0.76872140224E+02  0.12699999809E+01 0. -1.
    10030    2    1    2    0    0  0.00000000000E+00  0.00000000000E+00  0.73957266776E+03  0.89330744446E+03  0.50102939978E+03 0.  0.
        4    1    3    3  502    0  0.44436822242E+02  0.14091549010E+01  0.80934403533E+03  0.81056523322E+03  0.12699999809E+01 0.  1.
       -4    1    3    3    0  502 -0.44436822242E+02 -0.14091549010E+01 -0.69771367570E+02  0.82742211241E+02  0.12699999809E+01 0. -1.
</event>
<event>
 5   0  0.1529146E-01  0.4971364E+03  0.7818609E-02  0.1014529E+00
        1   -1    0    0  501    0  0.00000000000E+00  0.00000000000E+00  0.51015550274E+03  0.51015550277E+03  0.50400001928E-02 0.  1.
       -1   -1    0    0    0  501  0.00000000000E+00  0.00000000000E+00 -0.12111239966E+03  0.12111239976E+03  0.50400001928E-02 0. -1.
    10030    2    1    2    0    0  0.00000000000E+00  0.00000000000E+00  0.38904310309E+03  0.63126790253E+03  0.49713642866E+03 0.  0.
        1    1    3    3  502    0 -0.11541735272E+03 -0.56617579800E+01  0.47397438635E+03  0.48785749943E+03  0.50400001928E-02 0.  1.
       -1    1    3    3    0  502  0.11541735272E+03  0.56617579800E+01 -0.84931283264E+02  0.14341040309E+03  0.50400001928E-02 0. -1.
</event>
<event>
 5   0  0.1453602E-01  0.4993089E+03  0.7818609E-02  0.1013959E+00
       -1   -1    0    0    0  501  0.00000000000E+00  0.00000000000E+00  0.70101002977E+02  0.70101003159E+02  0.50400001928E-02 0. -1.
        1   -1    0    0  501    0  0.00000000000E+00  0.00000000000E+00 -0.88910763529E+03  0.88910763531E+03  0.50400001928E-02 0.  1.
    10030    2    1    2    0    0  0.00000000000E+00  0.00000000000E+00 -0.81900663232E+03  0.95920863847E+03  0.49930887067E+03 0.  0.
        2    1    3    3  502    0  0.20495461237E+03 -0.46199486322E+02 -0.15043221155E+03  0.25840014695E+03  0.25500000920E-02 0. -1.
       -2    1    3    3    0  502 -0.20495461237E+03  0.46199486322E+02 -0.66857442077E+03  0.70080849152E+03  0.25500000920E-02 0.  1.
</event>
<event>
 5   0  0.2511944E-01  0.5086785E+03  0.7818609E-02  0.1011538E+00
        2   -1    0    0  501    0  0.00000000000E+00  0.00000000000E+00  0.15397288905E+04  0.15397288905E+04  0.25500000920E-02 0.  1.
       -2   -1    0    0    0  501  0.00000000000E+00  0.00000000000E+00 -0.42012888528E+02  0.42012888606E+02  0.25500000920E-02 0. -1.
    10030    2    1    2    0    0  0.00000000000E+00  0.00000000000E+00  0.14977160020E+04  0.15817417791E+04  0.50867851656E+03 0.  0.
        1    1    3    3  502    0  0.16816960794E+03  0.17903384649E+03  0.95404626320E+03  0.98515907729E+03  0.50400001928E-02 0.  1.
       -1    1    3    3    0  502 -0.16816960794E+03 -0.17903384649E+03  0.54366973876E+03  0.59658270180E+03  0.50400001928E-02 0. -1.
</event>
<event>
 5   0  0.2511944E-01  0.4235887E+03  0.7818609E-02  0.1035905E+00
        2   -1    0    0  501    0  0.00000000000E+00  0.00000000000E+00  0.73785540592E+03  0.73785540592E+03  0.25500000920E-02 0. -1.
       -2   -1    0    0    0  501  0.00000000000E+00  0.00000000000E+00 -0.60793548048E+02  0.60793548102E+02  0.25500000920E-02 0.  1.
    10030    2    1    2    0    0  0.00000000000E+00  0.00000000000E+00  0.67706185787E+03  0.79864895403E+03  0.42358870663E+03 0.  0.
        1    1    3    3  502    0 -0.12823851548E+03  0.14133109159E+03  0.51171666119E+03  0.54614424438E+03  0.50400001928E-02 0. -1.
       -1    1    3    3    0  502  0.12823851548E+03 -0.14133109159E+03  0.16534519668E+03  0.25250470965E+03  0.50400001928E-02 0.  1.
</event>
<event>
 5   0  0.1448458E-01  0.5189361E+03  0.7818609E-02  0.1008951E+00
       -1   -1    0    0    0  501  0.00000000000E+00  0.00000000000E+00  0.13543450295E+03  0.13543450305E+03  0.50400001928E-02 0.  1.
        1   -1    0    0  501    0  0.00000000000E+00  0.00000000000E+00 -0.49709400840E+03  0.49709400843E+03  0.50400001928E-02 0. -1.
    10030    2    1    2    0    0  0.00000000000E+00  0.00000000000E+00 -0.36165950545E+03  0.63252851147E+03  0.51893614245E+03 0.  0.
        5    1    3    3  502    0 -0.12870640744E+03 -0.16313535908E+03  0.84842741270E+01  0.20802057014E+03  0.46999998093E+01 0.  1.
       -5    1    3    3    0  502  0.12870640744E+03  0.16313535908E+03 -0.37014377958E+03  0.42450794133E+03  0.46999998093E+01 0. -1.
</event>
<event>
 5   0  0.1453602E-01  0.5096697E+03  0.7818609E-02  0.1011285E+00
        1   -1    0    0  501    0  0.00000000000E+00  0.00000000000E+00  0.10860682396E+03  0.10860682407E+03  0.50400001928E-02 0.  1.
       -1   -1    0    0    0  501  0.00000000000E+00  0.00000000000E+00 -0.59794408969E+03  0.59794408972E+03  0.50400001928E-02 0. -1.
    10030    2    1    2    0    0  0.00000000000E+00  0.00000000000E+00 -0.48933726574E+03  0.70655091379E+03  0.50966973045E+03 0.  0.
        2    1    3    3  502    0 -0.52959765778E+02  0.10742145401E+03 -0.55649707849E+03  0.56923905695E+03  0.25500000920E-02 0. -1.
       -2    1    3    3    0  502  0.52959765778E+02 -0.10742145401E+03  0.67159812757E+02  0.13731185684E+03  0.25500000920E-02 0.  1.
</event>
<event>
 5   0  0.2504064E-01  0.5075123E+03  0.7818609E-02  0.1011836E+00
       -2   -1    0    0    0  501  0.00000000000E+00  0.00000000000E+00  0.31653055412E+02  0.31653055515E+02  0.25500000920E-02 0.  1.
        2   -1    0    0  501    0  0.00000000000E+00  0.00000000000E+00 -0.20343116700E+04  0.20343116700E+04  0.25500000920E-02 0. -1.
    10030    2    1    2    0    0  0.00000000000E+00  0.00000000000E+00 -0.20026586146E+04  0.20659647255E+04  0.50751228605E+03 0.  0.
        5    1    3    3  502    0 -0.40053297870E+02 -0.22955590959E+03 -0.59283210222E+03  0.63700249115E+03  0.46999998093E+01 0.  1.
       -5    1    3    3    0  502  0.40053297870E+02  0.22955590959E+03 -0.14098265123E+04  0.14289622344E+04  0.46999998093E+01 0. -1.
</event>
<event>
 5   0  0.1448458E-01  0.5000675E+03  0.7818609E-02  0.1013761E+00
        1   -1    0    0  501    0  0.00000000000E+00  0.00000000000E+00  0.15845461149E+03  0.15845461157E+03  0.50400001928E-02 0. -1.
       -1   -1    0    0    0  501  0.00000000000E+00  0.00000000000E+00 -0.39454127748E+03  0.39454127752E+03  0.50400001928E-02 0.  1.
    10030    2    1    2    0    0  0.00000000000E+00  0.00000000000E+00 -0.23608666599E+03  0.55299588909E+03  0.50006753493E+03 0.  0.
        5    1    3    3  502    0  0.12430469984E+02 -0.22469045366E+03 -0.23844554502E+03  0.32790041855E+03  0.46999998093E+01 0.  1.
       -5    1    3    3    0  502 -0.12430469984E+02  0.22469045366E+03  0.23588790251E+01  0.22509547054E+03  0.46999998093E+01 0. -1.
</event>
<event>
 5   0  0.1453602E-01  0.5039581E+03  0.7818609E-02  0.1012751E+00
        1   -1    0    0  501    0  0.00000000000E+00  0.00000000000E+00  0.11062820226E+04  0.11062820226E+04  0.50400001928E-02 0. -1.
       -1   -1    0    0    0  501  0.00000000000E+00  0.00000000000E+00 -0.57393549790E+02  0.57393550011E+02  0.50400001928E-02 0.  1.
    10030    2    1    2    0    0  0.00000000000E+00  0.00000000000E+00  0.10488884728E+04  0.11636755726E+04  0.50395814302E+03 0.  0.
        2    1    3    3  502    0  0.67600675891E+02 -0.57041765751E+02 -0.20368723408E+02  0.90766179388E+02  0.25500000920E-02 0.  1.
       -2    1    3    3    0  502 -0.67600675891E+02  0.57041765751E+02  0.10692571962E+04  0.10729093932E+04  0.25500000920E-02 0. -1.
</event>
<event>
 5   0  0.2504064E-01  0.5076088E+03  0.7818609E-02  0.1011812E+00
       -2   -1    0    0    0  501  0.00000000000E+00  0.00000000000E+00  0.35229980364E+02  0.35229980456E+02  0.25500000920E-02 0.  1.
        2   -1    0    0  501    0  0.00000000000E+00  0.00000000000E+00 -0.18284614841E+04  0.18284614841E+04  0.25500000920E-02 0. -1.
    10030    2    1    2    0    0  0.00000000000E+00  0.00000000000E+00 -0.17932315037E+04  0.18636914646E+04  0.50760875591E+03 0.  0.
        5    1    3    3  502    0 -0.18130913749E+03  0.17131606237E+03 -0.10677403260E+04  0.10965006567E+04  0.46999998093E+01 0.  1.
       -5    1    3    3    0  502  0.18130913749E+03 -0.17131606237E+03 -0.72549117779E+03  0.76719080783E+03  0.46999998093E+01 0. -1.
</event>
<event>
 5   0  0.2511944E-01  0.4570551E+03  0.7818609E-02  0.1025639E+00
        2   -1    0    0  501    0  0.00000000000E+00  0.00000000000E+00  0.28733517838E+03  0.28733517839E+03  0.25500000920E-02 0.  1.
       -2   -1    0    0    0  501  0.00000000000E+00  0.00000000000E+00 -0.18175580593E+03  0.18175580594E+03  0.25500000920E-02 0. -1.
    10030    2    1    2    0    0  0.00000000000E+00  0.00000000000E+00  0.10557937245E+03  0.46909098433E+03  0.45705508169E+03 0.  0.
        1    1    3    3  502    0 -0.34659310925E+02  0.21301415399E+03  0.12992559850E+03  0.25190664700E+03  0.50400001928E-02 0. -1.
       -1    1    3    3    0  502  0.34659310925E+02 -0.21301415399E+03 -0.24346226046E+02  0.21718433733E+03  0.50400001928E-02 0.  1.
</event>
<event>
 5   0  0.1453602E-01  0.5079945E+03  0.7818609E-02  0.1011713E+00
        1   -1    0    0  501    0  0.00000000000E+00  0.00000000000E+00  0.67930825509E+03  0.67930825511E+03  0.50400001928E-02 0.  1.
       -1   -1    0    0    0  501  0.00000000000E+00  0.00000000000E+00 -0.94971013723E+02  0.94971013856E+02  0.50400001928E-02 0. -1.
    10030    2    1    2    0    0  0.00000000000E+00  0.00000000000E+00  0.58433724136E+03  0.77427926896E+03  0.50799446326E+03 0.  0.
        2    1    3    3  502    0 -0.13722157163E+03  0.20937507567E+03  0.22666554217E+03  0.33770541903E+03  0.25500000920E-02 0. -1.
       -2    1    3    3    0  502  0.13722157163E+03 -0.20937507567E+03  0.35767169919E+03  0.43657384993E+03  0.25500000920E-02 0.  1.
</event>
<event>
 5   0  0.9868500E-02  0.4805463E+03  0.7818609E-02  0.1018985E+00
       -3   -1    0    0    0  501  0.00000000000E+00  0.00000000000E+00  0.98704778149E+02  0.98704829823E+02  0.10100000352E+00 0. -1.
        3   -1    0    0  501    0  0.00000000000E+00  0.00000000000E+00 -0.58488735361E+03  0.58488736234E+03  0.10100000352E+00 0.  1.
    10030    2    1    2    0    0  0.00000000000E+00  0.00000000000E+00 -0.48618257547E+03  0.68359219216E+03  0.48054634375E+03 0.  0.
        5    1    3    3  502    0 -0.51800737586E+02 -0.17998342238E+03 -0.45709483164E+03  0.49399911322E+03  0.46999998093E+01 0.  1.
       -5    1    3    3    0  502  0.51800737586E+02  0.17998342238E+03 -0.29087743822E+02  0.18959307894E+03  0.46999998093E+01 0. -1.
</event>
<event>
 5   0  0.1448458E-01  0.4854326E+03  0.7818609E-02  0.1017653E+00
       -1   -1    0    0    0  501  0.00000000000E+00  0.00000000000E+00  0.38154174230E+03  0.38154174233E+03  0.50400001928E-02 0. -1.
        1   -1    0    0  501    0  0.00000000000E+00  0.00000000000E+00 -0.15440303383E+03  0.15440303391E+03  0.50400001928E-02 0.  1.
    10030    2    1    2    0    0  0.00000000000E+00  0.00000000000E+00  0.22713870846E+03  0.53594477624E+03  0.48543260119E+03 0.  0.
        5    1    3    3  502    0 -0.55843748295E+02  0.13120983457E+03 -0.10321554218E+03  0.17609680025E+03  0.46999998093E+01 0.  1.
       -5    1    3    3    0  502  0.55843748295E+02 -0.13120983457E+03  0.33035425064E+03  0.35984797599E+03  0.46999998093E+01 0. -1.
</event>
<event>
 5   0  0.1413361E-01  0.4994261E+03  0.7818609E-02  0.1013929E+00
        1   -1    0    0  501    0  0.00000000000E+00  0.00000000000E+00  0.29280302664E+03  0.29280302669E+03  0.50400001928E-02 0. -1.
       -1   -1    0    0    0  501  0.00000000000E+00  0.00000000000E+00 -0.21296431423E+03  0.21296431429E+03  0.50400001928E-02 0.  1.
    10030    2    1    2    0    0  0.00000000000E+00  0.00000000000E+00  0.79838712418E+02  0.50576734097E+03  0.49942605378E+03 0.  0.
        3    1    3    3  502    0  0.88753057965E+02  0.14059416727E+03  0.22859861565E+03  0.28266793672E+03  0.10100000352E+00 0. -1.
       -3    1    3    3    0  502 -0.88753057965E+02 -0.14059416727E+03 -0.14875990323E+03  0.22309940426E+03  0.10100000352E+00 0.  1.
</event>
<event>
 5   0  0.1413361E-01  0.5034789E+03  0.7818609E-02  0.1012875E+00
        1   -1    0    0  501    0  0.00000000000E+00  0.00000000000E+00  0.97883410101E+03  0.97883410102E+03  0.50400001928E-02 0. -1.
       -1   -1    0    0    0  501  0.00000000000E+00  0.00000000000E+00 -0.64743104526E+02  0.64743104722E+02  0.50400001928E-02 0.  1.
    10030    2    1    2    0    0  0.00000000000E+00  0.00000000000E+00  0.91409099648E+03  0.10435772057E+04  0.50347893153E+03 0.  0.
        3    1    3    3  502    0 -0.18410375596E+03 -0.22729338929E+02  0.10430359650E+03  0.21281462885E+03  0.10100000352E+00 0.  1.
       -3    1    3    3    0  502  0.18410375596E+03  0.22729338929E+02  0.80978739998E+03  0.83076257690E+03  0.10100000352E+00 0. -1.
</event>
<event>
 5   0  0.1448458E-01  0.4977050E+03  0.7818609E-02  0.1014380E+00
        1   -1    0    0  501    0  0.00000000000E+00  0.00000000000E+00  0.41424035684E+03  0.41424035687E+03  0.50400001928E-02 0.  1.
       -1   -1    0    0    0  501  0.00000000000E+00  0.00000000000E+00 -0.14949672980E+03  0.14949672989E+03  0.50400001928E-02 0. -1.
    10030    2    1    2    0    0  0.00000000000E+00  0.00000000000E+00  0.26474362704E+03  0.56373708675E+03  0.49770504812E+03 0.  0.
        5    1    3    3  502    0 -0.46240095470E+02  0.31675595693E+02 -0.14220270596E+03  0.15292216769E+03  0.46999998093E+01 0. -1.
       -5    1    3    3    0  502  0.46240095470E+02 -0.31675595693E+02  0.40694633299E+03  0.41081491906E+03  0.46999998093E+01 0.  1.
</event>
<event>
 5   0  0.1439814E-01  0.5080383E+03  0.7818609E-02  0.1011702E+00
        1   -1    0    0  501    0  0.00000000000E+00  0.00000000000E+00  0.15983406806E+03  0.15983406814E+03  0.50400001928E-02 0.  1.
       -1   -1    0    0    0  501  0.00000000000E+00  0.00000000000E+00 -0.40370447343E+03  0.40370447347E+03  0.50400001928E-02 0. -1.
    10030    2    1    2    0    0  0.00000000000E+00  0.00000000000E+00 -0.24387040537E+03  0.56353854161E+03  0.50803829901E+03 0.  0.
        4    1    3    3  502    0  0.50679645338E+02  0.24354450055E+03 -0.64922152117E+02  0.25709696407E+03  0.12699999809E+01 0.  1.
       -4    1    3    3    0  502 -0.50679645338E+02 -0.24354450055E+03 -0.17894825325E+03  0.30644157754E+03  0.12699999809E+01 0. -1.
</event>
<event>
 5   0  0.1413361E-01  0.5013088E+03  0.7818609E-02  0.1013438E+00
        1   -1    0    0  501    0  0.00000000000E+00  0.00000000000E+00  0.16373341962E+03  0.16373341970E+03  0.50400001928E-02 0.  1.
       -1   -1    0    0    0  501  0.00000000000E+00  0.00000000000E+00 -0.38371899541E+03  0.38371899544E+03  0.50400001928E-02 0. -1.
    10030    2    1    2    0    0  0.00000000000E+00  0.00000000000E+00 -0.21998557579E+03  0.54745241514E+03  0.50130878038E+03 0.  0.
        3    1    3    3  502    0  0.23796189293E+03 -0.18185579574E+02 -0.26317269505E+02  0.24010245036E+03  0.10100000352E+00 0.  1.
       -3    1    3    3    0  502 -0.23796189293E+03  0.18185579574E+02 -0.19366830629E+03  0.30734996479E+03  0.10100000352E+00 0. -1.
</event>
<event>
 5   0  0.2413301E-01  0.4630165E+03  0.7818609E-02  0.1023910E+00
       -2   -1    0    0    0  501  0.00000000000E+00  0.00000000000E+00  0.16301338533E+03  0.16301338535E+03  0.25500000920E-02 0. -1.
        2   -1    0    0  501    0  0.00000000000E+00  0.00000000000E+00 -0.32878331424E+03  0.32878331425E+03  0.25500000920E-02 0.  1.
    10030    2    1    2    0    0  0.00000000000E+00  0.00000000000E+00 -0.16576992891E+03  0.49179669960E+03  0.46301654874E+03 0.  0.
        4    1    3    3  502    0 -0.23082943586E+03 -0.71685741897E+01 -0.65730167315E+02  0.24011598179E+03  0.12699999809E+01 0.  1.
       -4    1    3    3    0  502  0.23082943586E+03  0.71685741897E+01 -0.10003976159E+03  0.25168071781E+03  0.12699999809E+01 0. -1.
</event>
<event>
 5   0  0.1413361E-01  0.3917725E+03  0.7818609E-02  0.1046666E+00
       -1   -1    0    0    0  501  0.00000000000E+00  0.00000000000E+00  0.59335432490E+02  0.59335432704E+02  0.50400001928E-02 0. -1.
        1   -1    0    0  501    0  0.00000000000E+00  0.00000000000E+00 -0.64668665680E+03  0.64668665682E+03  0.50400001928E-02 0.  1.
    10030    2    1    2    0    0  0.00000000000E+00  0.00000000000E+00 -0.58735122431E+03  0.70602208952E+03  0.39177254906E+03 0.  0.
        3    1    3    3  502    0 -0.16308019717E+03  0.38905013884E+02 -0.11111188170E+03  0.20113331715E+03  0.10100000352E+00 0. -1.
       -3    1    3    3    0  502  0.16308019717E+03 -0.38905013884E+02 -0.47623934261E+03  0.50488877237E+03  0.10100000352E+00 0.  1.
</event>
<event>
 5   0  0.2466034E-01  0.4891597E+03  0.7818609E-02  0.1016648E+00
        2   -1    0    0  501    0  0.00000000000E+00  0.00000000000E+00  0.40016986044E+03  0.40016986045E+03  0.25500000920E-02 0.  1.
       -2   -1    0    0    0  501  0.00000000000E+00  0.00000000000E+00 -0.14948480016E+03  0.14948480018E+03  0.25500000920E-02 0. -1.
    10030    2    1    2    0    0  0.00000000000E+00  0.00000000000E+00  0.25068506028E+03  0.54965466063E+03  0.48915973516E+03 0.  0.
        3    1    3    3  502    0  0.11189310443E+03 -0.10255507035E+03 -0.90161336190E+02  0.17654089050E+03  0.10100000352E+00 0. -1.
       -3    1    3    3    0  502 -0.11189310443E+03  0.10255507035E+03  0.34084639647E+03  0.37311377013E+03  0.10100000352E+00 0.  1.
</event>
<event>
 5   0  0.2466034E-01  0.6097161E+03  0.7818609E-02  0.9885451E-01
       -2   -1    0    0    0  501  0.00000000000E+00  0.00000000000E+00  0.60830486667E+02  0.60830486721E+02  0.25500000920E-02 0.  1.
        2   -1    0    0  501    0  0.00000000000E+00  0.00000000000E+00 -0.15278267491E+04  0.15278267491E+04  0.25500000920E-02 0. -1.
    10030    2    1    2    0    0  0.00000000000E+00  0.00000000000E+00 -0.14669962625E+04  0.15886572358E+04  0.60971614621E+03 0.  0.
        3    1    3    3  502    0 -0.68747516832E+02 -0.12362995242E+03 -0.29860254598E+02  0.14457603955E+03  0.10100000352E+00 0.  1.
       -3    1    3    3    0  502  0.68747516832E+02  0.12362995242E+03 -0.14371360079E+04  0.14440811963E+04  0.10100000352E+00 0. -1.
</event>
<event>
 5   0  0.9868500E-02  0.4949420E+03  0.7818609E-02  0.1015108E+00
        4   -1    0    0  501    0  0.00000000000E+00  0.00000000000E+00  0.65401912737E+03  0.65402036043E+03  0.12699999809E+01 0.  1.
       -4   -1    0    0    0  501  0.00000000000E+00  0.00000000000E+00 -0.93633681354E+02  0.93642293777E+02  0.12699999809E+01 0. -1.
    10030    2    1    2    0    0  0.00000000000E+00  0.00000000000E+00  0.56038544601E+03  0.74766265421E+03  0.49494201317E+03 0.  0.
        4    1    3    3  502    0 -0.24663459553E+03 -0.19410589212E+02  0.28911573075E+03  0.38051926805E+03  0.12699999809E+01 0.  1.
       -4    1    3    3    0  502  0.24663459553E+03  0.19410589212E+02  0.27126971526E+03  0.36714338616E+03  0.12699999809E+01 0. -1.
</event>
<event>
 5   0  0.2504064E-01  0.5037188E+03  0.7818609E-02  0.1012813E+00
       -2   -1    0    0    0  501  0.00000000000E+00  0.00000000000E+00  0.33680160181E+02  0.33680160278E+02  0.25500000920E-02 0.  1.
        2   -1    0    0  501    0  0.00000000000E+00  0.00000000000E+00 -0.18833980281E+04  0.18833980281E+04  0.25500000920E-02 0. -1.
    10030    2    1    2    0    0  0.00000000000E+00  0.00000000000E+00 -0.18497178679E+04  0.19170781883E+04  0.50371876028E+03 0.  0.
        5    1    3    3  502    0  0.14575371429E+03 -0.94328835524E+01 -0.17055494405E+04  0.17117985012E+04  0.46999998093E+01 0. -1.
       -5    1    3    3    0  502 -0.14575371429E+03  0.94328835524E+01 -0.14416842735E+03  0.20527968717E+03  0.46999998093E+01 0.  1.
</event>
<event>
 5   0  0.1448458E-01  0.4949875E+03  0.7818609E-02  0.1015096E+00
        1   -1    0    0  501    0  0.00000000000E+00  0.00000000000E+00  0.68701613054E+03  0.68701613056E+03  0.50400001928E-02 0.  1.
       -1   -1    0    0    0  501  0.00000000000E+00  0.00000000000E+00 -0.89158239306E+02  0.89158239449E+02  0.50400001928E-02 0. -1.
    10030    2    1    2    0    0  0.00000000000E+00  0.00000000000E+00  0.59785789124E+03  0.77617437001E+03  0.49498746908E+03 0.  0.
        5    1    3    3  502    0 -0.82219784674E+02 -0.23142262870E+03  0.34634928771E+03  0.42461328896E+03  0.46999998093E+01 0. -1.
       -5    1    3    3    0  502  0.82219784674E+02  0.23142262870E+03  0.25150860352E+03  0.35156108105E+03  0.46999998093E+01 0.  1.
</event>
<event>
 5   0  0.1453602E-01  0.4973426E+03  0.7818609E-02  0.1014475E+00
       -1   -1    0    0    0  501  0.00000000000E+00  0.00000000000E+00  0.68511009725E+03  0.68511009727E+03  0.50400001928E-02 0. -1.
        1   -1    0    0  501    0  0.00000000000E+00  0.00000000000E+00 -0.90259090242E+02  0.90259090383E+02  0.50400001928E-02 0.  1.
    10030    2    1    2    0    0  0.00000000000E+00  0.00000000000E+00  0.59485100701E+03  0.77536918765E+03  0.49734259482E+03 0.  0.
        2    1    3    3  502    0 -0.11636873905E+03 -0.15862412527E+03  0.60299406957E+02  0.20576519393E+03  0.25500000920E-02 0.  1.
       -2    1    3    3    0  502  0.11636873905E+03  0.15862412527E+03  0.53455160005E+03  0.56960399373E+03  0.25500000920E-02 0. -1.
</event>
<event>
 5   0  0.2504064E-01  0.5066856E+03  0.7818609E-02  0.1012048E+00
       -2   -1    0    0    0  501  0.00000000000E+00  0.00000000000E+00  0.55296463451E+02  0.55296463510E+02  0.25500000920E-02 0. -1.
        2   -1    0    0  501    0  0.00000000000E+00  0.00000000000E+00 -0.11606994410E+04  0.11606994410E+04  0.25500000920E-02 0.  1.
    10030    2    1    2    0    0  0.00000000000E+00  0.00000000000E+00 -0.11054029776E+04  0.12159959045E+04  0.50668559978E+03 0.  0.
        5    1    3    3  502    0 -0.57142123145E+02  0.10163311674E+02 -0.11444220439E+04  0.11459024478E+04  0.46999998093E+01 0.  1.
       -5    1    3    3    0  502  0.57142123145E+02 -0.10163311674E+02  0.39019066377E+02  0.70093456761E+02  0.46999998093E+01 0. -1.
</event>
<event>
 5   0  0.2511944E-01  0.5053838E+03  0.7818609E-02  0.1012383E+00
        2   -1    0    0  501    0  0.00000000000E+00  0.00000000000E+00  0.68279133617E+03  0.68279133617E+03  0.25500000920E-02 0.  1.
       -2   -1    0    0    0  501  0.00000000000E+00  0.00000000000E+00 -0.93517864274E+02  0.93517864309E+02  0.25500000920E-02 0. -1.
    10030    2    1    2    0    0  0.00000000000E+00  0.00000000000E+00  0.58927347189E+03  0.77630920048E+03  0.50538376515E+03 0.  0.
        1    1    3    3  502    0  0.21755901268E+03 -0.10566609809E+03  0.18221992368E+03  0.30282230581E+03  0.50400001928E-02 0.  1.
       -1    1    3    3    0  502 -0.21755901268E+03  0.10566609809E+03  0.40705354821E+03  0.47348689467E+03  0.50400001928E-02 0. -1.
</event>
<event>
 5   0  0.1453602E-01  0.4936043E+03  0.7818609E-02  0.1015462E+00
        1   -1    0    0  501    0  0.00000000000E+00  0.00000000000E+00  0.28169974972E+03  0.28169974977E+03  0.50400001928E-02 0. -1.
       -1   -1    0    0    0  501  0.00000000000E+00  0.00000000000E+00 -0.21622771665E+03  0.21622771671E+03  0.50400001928E-02 0.  1.
    10030    2    1    2    0    0  0.00000000000E+00  0.00000000000E+00  0.65472033070E+02  0.49792746648E+03  0.49360426939E+03 0.  0.
        2    1    3    3  502    0  0.12781955963E+03 -0.15416433529E+03 -0.11277301263E+03  0.22983088235E+03  0.25500000920E-02 0.  1.
       -2    1    3    3    0  502 -0.12781955963E+03  0.15416433529E+03  0.17824504570E+03  0.26809658413E+03  0.25500000920E-02 0. -1.
</event>
<event>
 5   0  0.2511944E-01  0.5016481E+03  0.7818609E-02  0.1013350E+00
        2   -1    0    0  501    0  0.00000000000E+00  0.00000000000E+00  0.50102674995E+03  0.50102674996E+03  0.25500000920E-02 0.  1.
       -2   -1    0    0    0  501  0.00000000000E+00  0.00000000000E+00 -0.12556756813E+03  0.12556756815E+03  0.25500000920E-02 0. -1.
    10030    2    1    2    0    0  0.00000000000E+00  0.00000000000E+00  0.37545918182E+03  0.62659431811E+03  0.50164812596E+03 0.  0.
        1    1    3    3  502    0  0.24484849301E+03  0.30702219553E+02  0.13160054606E+03  0.27966428904E+03  0.50400001928E-02 0.  1.
       -1    1    3    3    0  502 -0.24484849301E+03 -0.30702219553E+02  0.24385863576E+03  0.34693002908E+03  0.50400001928E-02 0. -1.
</event>
<event>
 5   0  0.1439814E-01  0.5038628E+03  0.7818609E-02  0.1012776E+00
       -1   -1    0    0    0  501  0.00000000000E+00  0.00000000000E+00  0.10528038894E+03  0.10528038906E+03  0.50400001928E-02 0.  1.
        1   -1    0    0  501    0  0.00000000000E+00  0.00000000000E+00 -0.60286084115E+03  0.60286084117E+03  0.50400001928E-02 0. -1.
    10030    2    1    2    0    0  0.00000000000E+00  0.00000000000E+00 -0.49758045221E+03  0.70814123024E+03  0.50386277451E+03 0.  0.
        4    1    3    3  502    0  0.22825577791E+03 -0.10236644704E+03 -0.20690429121E+03  0.32463916623E+03  0.12699999809E+01 0.  1.
       -4    1    3    3    0  502 -0.22825577791E+03  0.10236644704E+03 -0.29067616100E+03  0.38350206401E+03  0.12699999809E+01 0. -1.
</event>
<event>
 5   0  0.9868500E-02  0.5052860E+03  0.7818609E-02  0.1012408E+00
       -3   -1    0    0    0  501  0.00000000000E+00  0.00000000000E+00  0.84455421949E+03  0.84455422553E+03  0.10100000352E+00 0.  1.
        3   -1    0    0  501    0  0.00000000000E+00  0.00000000000E+00 -0.75576505868E+02  0.75576573356E+02  0.10100000352E+00 0. -1.
    10030    2    1    2    0    0  0.00000000000E+00  0.00000000000E+00  0.76897771362E+03  0.92013079888E+03  0.50528602099E+03 0.  0.
        2    1    3    3  502    0 -0.29870196438E+02  0.13065560359E+02  0.84070743320E+03  0.84133936419E+03  0.25500000920E-02 0.  1.
       -2    1    3    3    0  502  0.29870196438E+02 -0.13065560359E+02 -0.71729719579E+02  0.78791434688E+02  0.25500000920E-02 0. -1.
</event>
<event>
 5   0  0.2466034E-01  0.5002893E+03  0.7818609E-02  0.1013703E+00
        2   -1    0    0  501    0  0.00000000000E+00  0.00000000000E+00  0.24050139348E+03  0.24050139349E+03  0.25500000920E-02 0.  1.
       -2   -1    0    0    0  501  0.00000000000E+00  0.00000000000E+00 -0.26017458198E+03  0.26017458199E+03  0.25500000920E-02 0. -1.
    10030    2    1    2    0    0  0.00000000000E+00  0.00000000000E+00 -0.19673188497E+02  0.50067597548E+03  0.50028931437E+03 0.  0.
        3    1    3    3  502    0 -0.15066030887E+03 -0.98600114928E+02 -0.18361361570E+03  0.25716625246E+03  0.10100000352E+00 0. -1.
       -3    1    3    3    0  502  0.15066030887E+03  0.98600114928E+02  0.16394042720E+03  0.24350972302E+03  0.10100000352E+00 0.  1.
</event>
<event>
 5   0  0.1439814E-01  0.4864707E+03  0.7818609E-02  0.1017372E+00
        1   -1    0    0  501    0  0.00000000000E+00  0.00000000000E+00  0.71638355473E+02  0.71638355651E+02  0.50400001928E-02 0. -1.
       -1   -1    0    0    0  501  0.00000000000E+00  0.00000000000E+00 -0.82586244331E+03  0.82586244332E+03  0.50400001928E-02 0.  1.
    10030    2    1    2    0    0  0.00000000000E+00  0.00000000000E+00 -0.75422408783E+03  0.89750079897E+03  0.48647066663E+03 0.  0.
        4    1    3    3  502    0  0.18855238254E+03 -0.44553521432E+02 -0.10580928652E+03  0.22075831864E+03  0.12699999809E+01 0. -1.
       -4    1    3    3    0  502 -0.18855238254E+03  0.44553521432E+02 -0.64841480131E+03  0.67674248034E+03  0.12699999809E+01 0.  1.
</event>
<event>
 5   0  0.2466034E-01  0.4997039E+03  0.7818609E-02  0.1013856E+00
       -2   -1    0    0    0  501  0.00000000000E+00  0.00000000000E+00  0.20468688403E+03  0.20468688405E+03  0.25500000920E-02 0.  1.
        2   -1    0    0  501    0  0.00000000000E+00  0.00000000000E+00 -0.30498290128E+03  0.30498290129E+03  0.25500000920E-02 0. -1.
    10030    2    1    2    0    0  0.00000000000E+00  0.00000000000E+00 -0.10029601725E+03  0.50966978534E+03  0.49970391134E+03 0.  0.
        3    1    3    3  502    0 -0.13270353368E+03 -0.39455458120E+02 -0.26228407937E+03  0.29658035929E+03  0.10100000352E+00 0. -1.
       -3    1    3    3    0  502  0.13270353368E+03  0.39455458120E+02  0.16198806211E+03  0.21308942605E+03  0.10100000352E+00 0.  1.
</event>
<event>
 5   0  0.2413301E-01  0.4966177E+03  0.7818609E-02  0.1014666E+00
       -2   -1    0    0    0  501  0.00000000000E+00  0.00000000000E+00  0.83754053392E+02  0.83754053431E+02  0.25500000920E-02 0. -1.
        2   -1    0    0  501    0  0.00000000000E+00  0.00000000000E+00 -0.73617087908E+03  0.73617087908E+03  0.25500000920E-02 0.  1.
    10030    2    1    2    0    0  0.00000000000E+00  0.00000000000E+00 -0.65241682569E+03  0.81992493252E+03  0.49661774084E+03 0.  0.
        4    1    3    3  502    0  0.13556594879E+03  0.45130599150E+02 -0.66149433845E+03  0.67675052283E+03  0.12699999809E+01 0.  1.
       -4    1    3    3    0  502 -0.13556594879E+03 -0.45130599150E+02  0.90775127616E+01  0.14317440968E+03  0.12699999809E+01 0. -1.
</event>
<event>
 5   0  0.2488968E-01  0.4866942E+03  0.7818609E-02  0.1017311E+00
        2   -1    0    0  501    0  0.00000000000E+00  0.00000000000E+00  0.12093189323E+04  0.12093189323E+04  0.25500000920E-02 0. -1.
       -2   -1    0    0    0  501  0.00000000000E+00  0.00000000000E+00 -0.48967908583E+02  0.48967908650E+02  0.25500000920E-02 0.  1.
    10030    2    1    2    0    0  0.00000000000E+00  0.00000000000E+00  0.11603510237E+04  0.12582868410E+04  0.48669423243E+03 0.  0.
        2    1    3    3  502    0  0.20031909765E+03  0.79610362557E+02  0.28821966635E+03  0.35991127627E+03  0.25500000920E-02 0.  1.
       -2    1    3    3    0  502 -0.20031909765E+03 -0.79610362557E+02  0.87213135740E+03  0.89837556471E+03  0.25500000920E-02 0. -1.
</event>
<event>
 5   0  0.2488968E-01  0.5007836E+03  0.7818609E-02  0.1013575E+00
        2   -1    0    0  501    0  0.00000000000E+00  0.00000000000E+00  0.47501829450E+03  0.47501829451E+03  0.25500000920E-02 0.  1.
       -2   -1    0    0    0  501  0.00000000000E+00  0.00000000000E+00 -0.13198660934E+03  0.13198660936E+03  0.25500000920E-02 0. -1.
    10030    2    1    2    0    0  0.00000000000E+00  0.00000000000E+00  0.34303168516E+03  0.60700490387E+03  0.50078360226E+03 0.  0.
        2    1    3    3  502    0 -0.11904576174E+02 -0.24975018003E+03  0.18774104582E+03  0.31267166749E+03  0.25500000920E-02 0. -1.
       -2    1    3    3    0  502  0.11904576174E+02  0.24975018003E+03  0.15529063934E+03  0.29433323637E+03  0.25500000920E-02 0.  1.
</event>
<event>
 5   0  0.1453602E-01  0.5310128E+03  0.7818609E-02  0.1005987E+00
        1   -1    0    0  501    0  0.00000000000E+00  0.00000000000E+00  0.25830001222E+03  0.25830001227E+03  0.50400001928E-02 0.  1.
       -1   -1    0    0    0  501  0.00000000000E+00  0.00000000000E+00 -0.27291381350E+03  0.27291381355E+03  0.50400001928E-02 0. -1.
    10030    2    1    2    0    0  0.00000000000E+00  0.00000000000E+00 -0.14613801283E+02  0.53121382581E+03  0.53101277343E+03 0.  0.
        2    1    3    3  502    0  0.23748498465E+03 -0.16239949288E+02 -0.12495579659E+03  0.26884345816E+03  0.25500000920E-02 0. -1.
       -2    1    3    3    0  502 -0.23748498465E+03  0.16239949288E+02  0.11034199531E+03  0.26237036765E+03  0.25500000920E-02 0.  1.
</event>
<event>
 5   0  0.2488968E-01  0.5077622E+03  0.7818609E-02  0.1011772E+00
        2   -1    0    0  501    0  0.00000000000E+00  0.00000000000E+00  0.16174143657E+04  0.16174143657E+04  0.25500000920E-02 0. -1.
       -2   -1    0    0    0  501  0.00000000000E+00  0.00000000000E+00 -0.39851023315E+02  0.39851023397E+02  0.25500000920E-02 0.  1.
    10030    2    1    2    0    0  0.00000000000E+00  0.00000000000E+00  0.15775633424E+04  0.16572653891E+04  0.50776221863E+03 0.  0.
        2    1    3    3  502    0  0.13116028880E+03  0.13081723151E+03  0.13554113606E+04  0.13680117419E+04  0.25500000920E-02 0. -1.
       -2    1    3    3    0  502 -0.13116028880E+03 -0.13081723151E+03  0.22215198176E+03  0.28925364722E+03  0.25500000920E-02 0.  1.
</event>
<event>
 5   0  0.2504064E-01  0.5266133E+03  0.7818609E-02  0.1007057E+00
        2   -1    0    0  501    0  0.00000000000E+00  0.00000000000E+00  0.16656648790E+04  0.16656648790E+04  0.25500000920E-02 0.  1.
       -2   -1    0    0    0  501  0.00000000000E+00  0.00000000000E+00 -0.41623258186E+02  0.41623258264E+02  0.25500000920E-02 0. -1.
    10030    2    1    2    0    0  0.00000000000E+00  0.00000000000E+00  0.16240416208E+04  0.17072881372E+04  0.52661332827E+03 0.  0.
        5    1    3    3  502    0 -0.23790222109E+03  0.10478770671E+03  0.67716004919E+03  0.72535905075E+03  0.46999998093E+01 0.  1.
       -5    1    3    3    0  502  0.23790222109E+03 -0.10478770671E+03  0.94688157160E+03  0.98192908650E+03  0.46999998093E+01 0. -1.
</event>
<event>
 5   0  0.2504064E-01  0.5025582E+03  0.7818609E-02  0.1013113E+00
       -2   -1    0    0    0  501  0.00000000000E+00  0.00000000000E+00  0.12671520896E+03  0.12671520898E+03  0.25500000920E-02 0. -1.
        2   -1    0    0  501    0  0.00000000000E+00  0.00000000000E+00 -0.49829202878E+03  0.49829202879E+03  0.25500000920E-02 0.  1.
    10030    2    1    2    0    0  0.00000000000E+00  0.00000000000E+00 -0.37157681982E+03  0.62500723777E+03  0.50255817000E+03 0.  0.
        5    1    3    3  502    0 -0.20237096765E+03  0.82563344866E+02 -0.33986260125E+03  0.40410319498E+03  0.46999998093E+01 0.  1.
       -5    1    3    3    0  502  0.20237096765E+03 -0.82563344866E+02 -0.31714218567E+02  0.22090404279E+03  0.46999998093E+01 0. -1.
</event>
<event>
 5   0  0.2466034E-01  0.4997327E+03  0.7818609E-02  0.1013849E+00
        2   -1    0    0  501    0  0.00000000000E+00  0.00000000000E+00  0.84691220034E+03  0.84691220035E+03  0.25500000920E-02 0. -1.
       -2   -1    0    0    0  501  0.00000000000E+00  0.00000000000E+00 -0.73718620547E+02  0.73718620591E+02  0.25500000920E-02 0.  1.
    10030    2    1    2    0    0  0.00000000000E+00  0.00000000000E+00  0.77319357979E+03  0.92063082094E+03  0.49973272519E+03 0.  0.
        3    1    3    3  502    0  0.69066433557E+02 -0.24011965810E+03  0.39094328393E+03  0.46396582191E+03  0.10100000352E+00 0.  1.
       -3    1    3    3    0  502 -0.69066433557E+02  0.24011965810E+03  0.38225029587E+03  0.45666499903E+03  0.10100000352E+00 0. -1.
</event>
<event>
 5   0  0.1413361E-01  0.4999183E+03  0.7818609E-02  0.1013800E+00
       -1   -1    0    0    0  501  0.00000000000E+00  0.00000000000E+00  0.17830087463E+03  0.17830087470E+03  0.50400001928E-02 0.  1.
        1   -1    0    0  501    0  0.00000000000E+00  0.00000000000E+00 -0.35041654954E+03  0.35041654958E+03  0.50400001928E-02 0. -1.
    10030    2    1    2    0    0  0.00000000000E+00  0.00000000000E+00 -0.17211567491E+03  0.52871742428E+03  0.49991830251E+03 0.  0.
        3    1    3    3  502    0 -0.18703659430E+03  0.53585330992E+02 -0.25202304079E+03  0.31838608417E+03  0.10100000352E+00 0. -1.
       -3    1    3    3    0  502  0.18703659430E+03 -0.53585330992E+02  0.79907365881E+02  0.21033134010E+03  0.10100000352E+00 0.  1.
</event>
<event>
 5   0  0.9868500E-02  0.4901172E+03  0.7818609E-02  0.1016391E+00
       -3   -1    0    0    0  501  0.00000000000E+00  0.00000000000E+00  0.77425131888E+03  0.77425132547E+03  0.10100000352E+00 0. -1.
        3   -1    0    0  501    0  0.00000000000E+00  0.00000000000E+00 -0.77563545875E+02  0.77563611634E+02  0.10100000352E+00 0.  1.
    10030    2    1    2    0    0  0.00000000000E+00  0.00000000000E+00  0.69668777301E+03  0.85181493711E+03  0.49011716356E+03 0.  0.
        3    1    3    3  502    0 -0.46071882150E+02 -0.18086318723E+03  0.72340551832E+02  0.20016812049E+03  0.10100000352E+00 0.  1.
       -3    1    3    3    0  502  0.46071882150E+02  0.18086318723E+03  0.62434722118E+03  0.65164681662E+03  0.10100000352E+00 0. -1.
</event>
<event>
 5   0  0.1529146E-01  0.4972691E+03  0.7818609E-02  0.1014494E+00
        1   -1    0    0  501    0  0.00000000000E+00  0.00000000000E+00  0.32116013547E+03  0.32116013551E+03  0.50400001928E-02 0. -1.
       -1   -1    0    0    0  501  0.00000000000E+00  0.00000000000E+00 -0.19248698669E+03  0.19248698675E+03  0.50400001928E-02 0.  1.
    10030    2    1    2    0    0  0.00000000000E+00  0.00000000000E+00  0.12867314878E+03  0.51364712227E+03  0.49726912934E+03 0.  0.
        1    1    3    3  502    0 -0.48852908056E+02 -0.16375639536E+02 -0.18691194659E+03  0.19388358363E+03  0.50400001928E-02 0.  1.
       -1    1    3    3    0  502  0.48852908056E+02  0.16375639536E+02  0.31558509538E+03  0.31976353864E+03  0.50400001928E-02 0. -1.
</event>
<event>
 5   0  0.2466034E-01  0.5186697E+03  0.7818609E-02  0.1009018E+00
        2   -1    0    0  501    0  0.00000000000E+00  0.00000000000E+00  0.51683170690E+03  0.51683170691E+03  0.25500000920E-02 0.  1.
       -2   -1    0    0    0  501  0.00000000000E+00  0.00000000000E+00 -0.13012856248E+03  0.13012856250E+03  0.25500000920E-02 0. -1.
    10030    2    1    2    0    0  0.00000000000E+00  0.00000000000E+00  0.38670314442E+03  0.64696026941E+03  0.51866971021E+03 0.  0.
        3    1    3    3  502    0 -0.33393368501E+02  0.48306893108E+02  0.50842885335E+03  0.51180912663E+03  0.10100000352E+00 0.  1.
       -3    1    3    3    0  502  0.33393368501E+02 -0.48306893108E+02 -0.12172570892E+03  0.13515114278E+03  0.10100000352E+00 0. -1.
</event>
<event>
 5   0  0.9868500E-02  0.4819858E+03  0.7818609E-02  0.1018591E+00
       -4   -1    0    0    0  501  0.00000000000E+00  0.00000000000E+00  0.80463323621E+03  0.80463423847E+03  0.12699999809E+01 0. -1.
        4   -1    0    0  501    0  0.00000000000E+00  0.00000000000E+00 -0.72172314131E+02  0.72183487218E+02  0.12699999809E+01 0.  1.
    10030    2    1    2    0    0  0.00000000000E+00  0.00000000000E+00  0.73246092208E+03  0.87681772569E+03  0.48198581069E+03 0.  0.
        3    1    3    3  502    0  0.79893002415E+02 -0.25941987943E+02  0.77714593382E+03  0.78167236822E+03  0.10100000352E+00 0. -1.
       -3    1    3    3    0  502 -0.79893002415E+02  0.25941987943E+02 -0.44685011741E+02  0.95145357472E+02  0.10100000352E+00 0.  1.
</event>
<event>
 5   0  0.2413301E-01  0.5188552E+03  0.7818609E-02  0.1008971E+00
        2   -1    0    0  501    0  0.00000000000E+00  0.00000000000E+00  0.39518437912E+03  0.39518437912E+03  0.25500000920E-02 0. -1.
       -2   -1    0    0    0  501  0.00000000000E+00  0.00000000000E+00 -0.17030703014E+03  0.17030703016E+03  0.25500000920E-02 0.  1.
    10030    2    1    2    0    0  0.00000000000E+00  0.00000000000E+00  0.22487734898E+03  0.56549140928E+03  0.51885519357E+03 0.  0.
        4    1    3    3  502    0 -0.14920472194E+03 -0.43818653284E+02  0.33875396115E+03  0.37274385645E+03  0.12699999809E+01 0. -1.
       -4    1    3    3    0  502  0.14920472194E+03  0.43818653284E+02 -0.11387661217E+03  0.19274755284E+03  0.12699999809E+01 0.  1.
</event>
<event>
 5   0  0.1448458E-01  0.5065522E+03  0.7818609E-02  0.1012083E+00
       -1   -1    0    0    0  501  0.00000000000E+00  0.00000000000E+00  0.15191325370E+03  0.15191325378E+03  0.50400001928E-02 0.  1.
        1   -1    0    0  501    0  0.00000000000E+00  0.00000000000E+00 -0.42227251282E+03  0.42227251285E+03  0.50400001928E-02 0. -1.
    10030    2    1    2    0    0  0.00000000000E+00  0.00000000000E+00 -0.27035925912E+03  0.57418576663E+03  0.50655223384E+03 0.  0.
        5    1    3    3  502    0 -0.82327452497E+02 -0.18713586888E+03  0.34200863992E+02  0.20733893014E+03  0.46999998093E+01 0.  1.
       -5    1    3    3    0  502  0.82327452497E+02  0.18713586888E+03 -0.30456012311E+03  0.36684683649E+03  0.46999998093E+01 0. -1.
</event>
<event>
 5   0  0.1439814E-01  0.5019962E+03  0.7818609E-02  0.1013259E+00
       -1   -1    0    0    0  501  0.00000000000E+00  0.00000000000E+00  0.11284961002E+03  0.11284961014E+03  0.50400001928E-02 0.  1.
        1   -1    0    0  501    0  0.00000000000E+00  0.00000000000E+00 -0.55826555655E+03  0.55826555657E+03  0.50400001928E-02 0. -1.
    10030    2    1    2    0    0  0.00000000000E+00  0.00000000000E+00 -0.44541594653E+03  0.67111516671E+03  0.50199621668E+03 0.  0.
        4    1    3    3  502    0  0.23861176881E+03  0.31205644197E+02 -0.31807885135E+03  0.39885478187E+03  0.12699999809E+01 0. -1.
       -4    1    3    3    0  502 -0.23861176881E+03 -0.31205644197E+02 -0.12733709518E+03  0.27226038484E+03  0.12699999809E+01 0.  1.
</event>
<event>
 5   0  0.2413301E-01  0.5135494E+03  0.7818609E-02  0.1010302E+00
        2   -1    0    0  501    0  0.00000000000E+00  0.00000000000E+00  0.91762739177E+03  0.91762739177E+03  0.25500000920E-02 0.  1.
       -2   -1    0    0    0  501  0.00000000000E+00  0.00000000000E+00 -0.71851872098E+02  0.71851872143E+02  0.25500000920E-02 0. -1.
    10030    2    1    2    0    0  0.00000000000E+00  0.00000000000E+00  0.84577551967E+03  0.98947926392E+03  0.51354939786E+03 0.  0.
        4    1    3    3  502    0 -0.15660552280E+03  0.16691113878E+03  0.64714490039E+03  0.68642752933E+03  0.12699999809E+01 0.  1.
       -4    1    3    3    0  502  0.15660552280E+03 -0.16691113878E+03  0.19863061928E+03  0.30305173458E+03  0.12699999809E+01 0. -1.
</event>
<event>
 5   0  0.2511944E-01  0.5059566E+03  0.7818609E-02  0.1012236E+00
        2   -1    0    0  501    0  0.00000000000E+00  0.00000000000E+00  0.49174189649E+03  0.49174189650E+03  0.25500000920E-02 0.  1.
       -2   -1    0    0    0  501  0.00000000000E+00  0.00000000000E+00 -0.13014554437E+03  0.13014554440E+03  0.25500000920E-02 0. -1.
    10030    2    1    2    0    0  0.00000000000E+00  0.00000000000E+00  0.36159635212E+03  0.62188744090E+03  0.50595658636E+03 0.  0.
        1    1    3    3  502    0 -0.12585579945E+03 -0.27831486520E+02 -0.86756911862E+02  0.15537385777E+03  0.50400001928E-02 0. -1.
       -1    1    3    3    0  502  0.12585579945E+03  0.27831486520E+02  0.44835326398E+03  0.46651358313E+03  0.50400001928E-02 0.  1.
</event>
<event>
 5   0  0.2488968E-01  0.4979807E+03  0.7818609E-02  0.1014307E+00
        2   -1    0    0  501    0  0.00000000000E+00  0.00000000000E+00  0.21506486896E+03  0.21506486897E+03  0.25500000920E-02 0.  1.
       -2   -1    0    0    0  501  0.00000000000E+00  0.00000000000E+00 -0.28826736902E+03  0.28826736903E+03  0.25500000920E-02 0. -1.
    10030    2    1    2    0    0  0.00000000000E+00  0.00000000000E+00 -0.73202500060E+02  0.50333223800E+03  0.49798065806E+03 0.  0.
        2    1    3    3  502    0 -0.31675999849E+02  0.14087925726E+03  0.16842302797E+03  0.22184825996E+03  0.25500000920E-02 0.  1.
       -2    1    3    3    0  502  0.31675999849E+02 -0.14087925726E+03 -0.24162552803E+03  0.28148397804E+03  0.25500000920E-02 0. -1.
</event>
<event>
 5   0  0.1413361E-01  0.5236997E+03  0.7818609E-02  0.1007772E+00
        1   -1    0    0  501    0  0.00000000000E+00  0.00000000000E+00  0.14304662978E+03  0.14304662987E+03  0.50400001928E-02 0.  1.
       -1   -1    0    0    0  501  0.00000000000E+00  0.00000000000E+00 -0.47932157120E+03  0.47932157123E+03  0.50400001928E-02 0. -1.
    10030    2    1    2    0    0  0.00000000000E+00  0.00000000000E+00 -0.33627494142E+03  0.62236820110E+03  0.52369966728E+03 0.  0.
        3    1    3    3  502    0 -0.25862847594E+03  0.83222330092E+01 -0.21578319992E+03  0.33692780784E+03  0.10100000352E+00 0.  1.
       -3    1    3    3    0  502  0.25862847594E+03 -0.83222330092E+01 -0.12049174150E+03  0.28544039326E+03  0.10100000352E+00 0. -1.
</event>
<event>
 5   0  0.1448458E-01  0.4817785E+03  0.7818609E-02  0.1018648E+00
       -1   -1    0    0    0  501  0.00000000000E+00  0.00000000000E+00  0.80406371597E+02  0.80406371755E+02  0.50400001928E-02 0. -1.
        1   -1    0    0  501    0  0.00000000000E+00  0.00000000000E+00 -0.72167958160E+03  0.72167958162E+03  0.50400001928E-02 0.  1.
    10030    2    1    2    0    0  0.00000000000E+00  0.00000000000E+00 -0.64127321000E+03  0.80208595337E+03  0.48177852456E+03 0.  0.
        5    1    3    3  502    0  0.12856319441E+03 -0.12834863941E+03 -0.58389087635E+03  0.61151656860E+03  0.46999998093E+01 0.  1.
       -5    1    3    3    0  502 -0.12856319441E+03  0.12834863941E+03 -0.57382333652E+02  0.19056938477E+03  0.46999998093E+01 0. -1.
</event>
<event>
 5   0  0.1439814E-01  0.5171804E+03  0.7818609E-02  0.1009389E+00
       -1   -1    0    0    0  501  0.00000000000E+00  0.00000000000E+00  0.67623436025E+02  0.67623436212E+02  0.50400001928E-02 0.  1.
        1   -1    0    0  501    0  0.00000000000E+00  0.00000000000E+00 -0.98884195529E+03  0.98884195530E+03  0.50400001928E-02 0. -1.
    10030    2    1    2    0    0  0.00000000000E+00  0.00000000000E+00 -0.92121851927E+03  0.10564653915E+04  0.51718039718E+03 0.  0.
        4    1    3    3  502    0 -0.88882559239E+02  0.65360950409E+01  0.35252915161E+02  0.95849938981E+02  0.12699999809E+01 0.  1.
       -4    1    3    3    0  502  0.88882559239E+02 -0.65360950409E+01 -0.95647143443E+03  0.96061545253E+03  0.12699999809E+01 0. -1.
</event>
<event>
 5   0  0.1453602E-01  0.4861481E+03  0.7818609E-02  0.1017459E+00
        1   -1    0    0  501    0  0.00000000000E+00  0.00000000000E+00  0.37931736279E+03  0.37931736283E+03  0.50400001928E-02 0.  1.
       -1   -1    0    0    0  501  0.00000000000E+00  0.00000000000E+00 -0.15576667048E+03  0.15576667056E+03  0.50400001928E-02 0. -1.
    10030    2    1    2    0    0  0.00000000000E+00  0.00000000000E+00  0.22355069232E+03  0.53508403339E+03  0.48614813663E+03 0.  0.
        2    1    3    3  502    0 -0.20931506371E+02  0.19172636935E+03  0.27461312010E+03  0.33557338154E+03  0.25500000920E-02 0.  1.
       -2    1    3    3    0  502  0.20931506371E+02 -0.19172636935E+03 -0.51062427778E+02  0.19951065185E+03  0.25500000920E-02 0. -1.
</event>
<event>
 5   0  0.2488968E-01  0.5048536E+03  0.7818609E-02  0.1012520E+00
        2   -1    0    0  501    0  0.00000000000E+00  0.00000000000E+00  0.54176098017E+03  0.54176098018E+03  0.25500000920E-02 0.  1.
       -2   -1    0    0    0  501  0.00000000000E+00  0.00000000000E+00 -0.11761513384E+03  0.11761513387E+03  0.25500000920E-02 0. -1.
    10030    2    1    2    0    0  0.00000000000E+00  0.00000000000E+00  0.42414584634E+03  0.65937611405E+03  0.50485360335E+03 0.  0.
        2    1    3    3  502    0 -0.23386029735E+03  0.49524451171E+02  0.31798561369E+03  0.39781674231E+03  0.25500000920E-02 0.  1.
       -2    1    3    3    0  502  0.23386029735E+03 -0.49524451171E+02  0.10616023265E+03  0.26155937174E+03  0.25500000920E-02 0. -1.
</event>
<event>
 5   0  0.2504064E-01  0.4939787E+03  0.7818609E-02  0.1015363E+00
       -2   -1    0    0    0  501  0.00000000000E+00  0.00000000000E+00  0.24481193785E+03  0.24481193786E+03  0.25500000920E-02 0. -1.
        2   -1    0    0  501    0  0.00000000000E+00  0.00000000000E+00 -0.24918612381E+03  0.24918612383E+03  0.25500000920E-02 0.  1.
    10030    2    1    2    0    0  0.00000000000E+00  0.00000000000E+00 -0.43741859654E+01  0.49399806169E+03  0.49397869534E+03 0.  0.
        5    1    3    3  502    0  0.14143408696E+03 -0.92104881522E+02 -0.18245712837E+03  0.24859526111E+03  0.46999998093E+01 0.  1.
       -5    1    3    3    0  502 -0.14143408696E+03  0.92104881522E+02  0.17808294241E+03  0.24540280057E+03  0.46999998093E+01 0. -1.
</event>
<event>
 5   0  0.1529146E-01  0.4942695E+03  0.7818609E-02  0.1015286E+00
        1   -1    0    0  501    0  0.00000000000E+00  0.00000000000E+00  0.18869493537E+04  0.18869493537E+04  0.50400001928E-02 0. -1.
       -1   -1    0    0    0  501  0.00000000000E+00  0.00000000000E+00 -0.32367363301E+02  0.32367363693E+02  0.50400001928E-02 0.  1.
    10030    2    1    2    0    0  0.00000000000E+00  0.00000000000E+00  0.18545819904E+04  0.19193167174E+04  0.49426946352E+03 0.  0.
        1    1    3    3  502    0 -0.13209568967E+03  0.41649772247E+02  0.13251206669E+03  0.19168573917E+03  0.50400001928E-02 0.  1.
       -1    1    3    3    0  502  0.13209568967E+03 -0.41649772247E+02  0.17220699237E+04  0.17276309782E+04  0.50400001928E-02 0. -1.
</event>
<event>
 5   0  0.2511944E-01  0.4991031E+03  0.7818609E-02  0.1014013E+00
       -2   -1    0    0    0  501  0.00000000000E+00  0.00000000000E+00  0.70839262693E+02  0.70839262738E+02  0.25500000920E-02 0. -1.
        2   -1    0    0  501    0  0.00000000000E+00  0.00000000000E+00 -0.87911676093E+03  0.87911676094E+03  0.25500000920E-02 0.  1.
    10030    2    1    2    0    0  0.00000000000E+00  0.00000000000E+00 -0.80827749824E+03  0.94995602367E+03  0.49910312838E+03 0.  0.
        1    1    3    3  502    0 -0.11169767466E+03  0.10803065566E+03 -0.32482995897E+02  0.15875181301E+03  0.50400001928E-02 0. -1.
       -1    1    3    3    0  502  0.11169767466E+03 -0.10803065566E+03 -0.77579450234E+03  0.79120421067E+03  0.50400001928E-02 0.  1.
</event>
<event>
 5   0  0.1439814E-01  0.4983926E+03  0.7818609E-02  0.1014199E+00
        1   -1    0    0  501    0  0.00000000000E+00  0.00000000000E+00  0.36196216099E+03  0.36196216102E+03  0.50400001928E-02 0. -1.
       -1   -1    0    0    0  501  0.00000000000E+00  0.00000000000E+00 -0.17156154702E+03  0.17156154709E+03  0.50400001928E-02 0.  1.
    10030    2    1    2    0    0  0.00000000000E+00  0.00000000000E+00  0.19040061397E+03  0.53352370811E+03  0.49839256948E+03 0.  0.
        4    1    3    3  502    0  0.14485610480E+03 -0.74356921066E+02  0.29713699914E+03  0.33882776150E+03  0.12699999809E+01 0. -1.
       -4    1    3    3    0  502 -0.14485610480E+03  0.74356921066E+02 -0.10673638516E+03  0.19469594661E+03  0.12699999809E+01 0.  1.
</event>
<event>
 5   0  0.2504064E-01  0.5181867E+03  0.7818609E-02  0.1009138E+00
        2   -1    0    0  501    0  0.00000000000E+00  0.00000000000E+00  0.11376138374E+04  0.11376138374E+04  0.25500000920E-02 0.  1.
       -2   -1    0    0    0  501  0.00000000000E+00  0.00000000000E+00 -0.59008923248E+02  0.59008923303E+02  0.25500000920E-02 0. -1.
    10030    2    1    2    0    0  0.00000000000E+00  0.00000000000E+00  0.10786049141E+04  0.11966227607E+04  0.51818671403E+03 0.  0.
        5    1    3    3  502    0 -0.18042150714E+03  0.96178961811E+02  0.90664722068E+03  0.92942648213E+03  0.46999998093E+01 0.  1.
       -5    1    3    3    0  502  0.18042150714E+03 -0.96178961811E+02  0.17195769345E+03  0.26719627855E+03  0.46999998093E+01 0. -1.
</event>
<event>
 5   0  0.2511944E-01  0.4984424E+03  0.7818609E-02  0.1014186E+00
       -2   -1    0    0    0  501  0.00000000000E+00  0.00000000000E+00  0.88712817230E+02  0.88712817266E+02  0.25500000920E-02 0. -1.
        2   -1    0    0  501    0  0.00000000000E+00  0.00000000000E+00 -0.70013779307E+03  0.70013779308E+03  0.25500000920E-02 0.  1.
    10030    2    1    2    0    0  0.00000000000E+00  0.00000000000E+00 -0.61142497585E+03  0.78885061035E+03  0.49844235811E+03 0.  0.
        1    1    3    3  502    0 -0.10734477057E+03  0.22332489558E+03 -0.34801014291E+03  0.42720951341E+03  0.50400001928E-02 0. -1.
       -1    1    3    3    0  502  0.10734477057E+03 -0.22332489558E+03 -0.26341483293E+03  0.36164109693E+03  0.50400001928E-02 0.  1.
</event>
<event>
 5   0  0.2504064E-01  0.4940846E+03  0.7818609E-02  0.1015335E+00
       -2   -1    0    0    0  501  0.00000000000E+00  0.00000000000E+00  0.20971682324E+02  0.20971682479E+02  0.25500000920E-02 0.  1.
        2   -1    0    0  501    0  0.00000000000E+00  0.00000000000E+00 -0.29101093180E+04  0.29101093180E+04  0.25500000920E-02 0. -1.
    10030    2    1    2    0    0  0.00000000000E+00  0.00000000000E+00 -0.28891376357E+04  0.29310810005E+04  0.49408456108E+03 0.  0.
        5    1    3    3  502    0  0.16226178790E+03  0.18296193731E+03 -0.16503998882E+04  0.16684261564E+04  0.46999998093E+01 0.  1.
       -5    1    3    3    0  502 -0.16226178790E+03 -0.18296193731E+03 -0.12387377475E+04  0.12626548441E+04  0.46999998093E+01 0. -1.
</event>
<event>
 5   0  0.2504064E-01  0.4897323E+03  0.7818609E-02  0.1016494E+00
       -2   -1    0    0    0  501  0.00000000000E+00  0.00000000000E+00  0.88640037443E+02  0.88640037479E+02  0.25500000920E-02 0. -1.
        2   -1    0    0  501    0  0.00000000000E+00  0.00000000000E+00 -0.67643720567E+03  0.67643720568E+03  0.25500000920E-02 0.  1.
    10030    2    1    2    0    0  0.00000000000E+00  0.00000000000E+00 -0.58779716823E+03  0.76507724316E+03  0.48973225033E+03 0.  0.
        5    1    3    3  502    0  0.67482863619E+02  0.86387386820E+02  0.48086966302E+02  0.11979634306E+03  0.46999998093E+01 0. -1.
       -5    1    3    3    0  502 -0.67482863619E+02 -0.86387386820E+02 -0.63588413453E+03  0.64528090010E+03  0.46999998093E+01 0.  1.
</event>
<event>
 5   0  0.9868500E-02  0.5025109E+03  0.7818609E-02  0.1013126E+00
        4   -1    0    0  501    0  0.00000000000E+00  0.00000000000E+00  0.24061816920E+03  0.24062152075E+03  0.12699999809E+01 0.  1.
       -4   -1    0    0    0  501  0.00000000000E+00  0.00000000000E+00 -0.26235624484E+03  0.26235931869E+03  0.12699999809E+01 0. -1.
    10030    2    1    2    0    0  0.00000000000E+00  0.00000000000E+00 -0.21738075640E+02  0.50298083944E+03  0.50251087641E+03 0.  0.
        4    1    3    3  502    0 -0.19963540376E+03  0.38599970914E+02  0.13686110199E+03  0.24510574519E+03  0.12699999809E+01 0.  1.
       -4    1    3    3    0  502  0.19963540376E+03 -0.38599970914E+02 -0.15859917764E+03  0.25787509425E+03  0.12699999809E+01 0. -1.
</event>
<event>
 5   0  0.2466034E-01  0.5049211E+03  0.7818609E-02  0.1012502E+00
        2   -1    0    0  501    0  0.00000000000E+00  0.00000000000E+00  0.47246548517E+03  0.47246548517E+03  0.25500000920E-02 0.  1.
       -2   -1    0    0    0  501  0.00000000000E+00  0.00000000000E+00 -0.13490156110E+03  0.13490156112E+03  0.25500000920E-02 0. -1.
    10030    2    1    2    0    0  0.00000000000E+00  0.00000000000E+00  0.33756392407E+03  0.60736704630E+03  0.50492110879E+03 0.  0.
        3    1    3    3  502    0 -0.15174330409E+03 -0.85093501248E+02  0.38884726647E+03  0.42599194961E+03  0.10100000352E+00 0.  1.
       -3    1    3    3    0  502  0.15174330409E+03  0.85093501248E+02 -0.51283342399E+02  0.18137509669E+03  0.10100000352E+00 0. -1.
</event>
<event>
 5   0  0.1453602E-01  0.4924146E+03  0.7818609E-02  0.1015778E+00
        1   -1    0    0  501    0  0.00000000000E+00  0.00000000000E+00  0.31791083606E+03  0.31791083610E+03  0.50400001928E-02 0. -1.
       -1   -1    0    0    0  501  0.00000000000E+00  0.00000000000E+00 -0.19067619702E+03  0.19067619709E+03  0.50400001928E-02 0.  1.
    10030    2    1    2    0    0  0.00000000000E+00  0.00000000000E+00  0.12723463904E+03  0.50858703319E+03  0.49241457833E+03 0.  0.
        2    1    3    3  502    0 -0.55725511802E+02 -0.12830206541E+03  0.27288285772E+03  0.30664606095E+03  0.25500000920E-02 0. -1.
       -2    1    3    3    0  502  0.55725511802E+02  0.12830206541E+03 -0.14564821869E+03  0.20194097223E+03  0.25500000920E-02 0.  1.
</event>
<event>
 5   0  0.2413301E-01  0.4950455E+03  0.7818609E-02  0.1015080E+00
        2   -1    0    0  501    0  0.00000000000E+00  0.00000000000E+00  0.75647300098E+03  0.75647300098E+03  0.25500000920E-02 0.  1.
       -2   -1    0    0    0  501  0.00000000000E+00  0.00000000000E+00 -0.80991010895E+02  0.80991010935E+02  0.25500000920E-02 0. -1.
    10030    2    1    2    0    0  0.00000000000E+00  0.00000000000E+00  0.67548199008E+03  0.83746401192E+03  0.49504550531E+03 0.  0.
        4    1    3    3  502    0 -0.54755845937E+02 -0.12535547447E+03 -0.11230302513E+02  0.13725862537E+03  0.12699999809E+01 0. -1.
       -4    1    3    3    0  502  0.54755845937E+02  0.12535547447E+03  0.68671229260E+03  0.70020538655E+03  0.12699999809E+01 0.  1.
</event>
<event>
 5   0  0.1413361E-01  0.5207425E+03  0.7818609E-02  0.1008502E+00
        1   -1    0    0  501    0  0.00000000000E+00  0.00000000000E+00  0.15777459802E+04  0.15777459803E+04  0.50400001928E-02 0. -1.
       -1   -1    0    0    0  501  0.00000000000E+00  0.00000000000E+00 -0.42968384191E+02  0.42968384487E+02  0.50400001928E-02 0.  1.
    10030    2    1    2    0    0  0.00000000000E+00  0.00000000000E+00  0.15347775961E+04  0.16207143647E+04  0.52074253017E+03 0.  0.
        3    1    3    3  502    0 -0.22466530482E+03  0.89716331262E+02  0.10670396247E+04  0.10941193217E+04  0.10100000352E+00 0. -1.
       -3    1    3    3    0  502  0.22466530482E+03 -0.89716331262E+02  0.46773797136E+03  0.52659504302E+03  0.10100000352E+00 0.  1.
</event>
<event>
 5   0  0.2466034E-01  0.5199780E+03  0.7818609E-02  0.1008692E+00
        2   -1    0    0  501    0  0.00000000000E+00  0.00000000000E+00  0.10417541966E+04  0.10417541966E+04  0.25500000920E-02 0. -1.
       -2   -1    0    0    0  501  0.00000000000E+00  0.00000000000E+00 -0.64885056193E+02  0.64885056243E+02  0.25500000920E-02 0.  1.
    10030    2    1    2    0    0  0.00000000000E+00  0.00000000000E+00  0.97686914042E+03  0.11066392529E+04  0.51997799806E+03 0.  0.
        3    1    3    3  502    0 -0.19313220715E+02 -0.20106118488E+03  0.83681472208E+03  0.86084696076E+03  0.10100000352E+00 0. -1.
       -3    1    3    3    0  502  0.19313220715E+02  0.20106118488E+03  0.14005441834E+03  0.24579229210E+03  0.10100000352E+00 0.  1.
</event>
<event>
 5   0  0.1439814E-01  0.5310386E+03  0.7818609E-02  0.1005981E+00
       -1   -1    0    0    0  501  0.00000000000E+00  0.00000000000E+00  0.82432206355E+02  0.82432206509E+02  0.50400001928E-02 0.  1.
        1   -1    0    0  501    0  0.00000000000E+00  0.00000000000E+00 -0.85525440676E+03  0.85525440677E+03  0.50400001928E-02 0. -1.
    10030    2    1    2    0    0  0.00000000000E+00  0.00000000000E+00 -0.77282220040E+03  0.93768661328E+03  0.53103863446E+03 0.  0.
        4    1    3    3  502    0  0.53149623401E+02  0.46667986905E+02  0.65485793280E+02  0.96399094866E+02  0.12699999809E+01 0.  1.
       -4    1    3    3    0  502 -0.53149623401E+02 -0.46667986905E+02 -0.83830799368E+03  0.84128751841E+03  0.12699999809E+01 0. -1.
</event>
<event>
 5   0  0.2511944E-01  0.5011153E+03  0.7818609E-02  0.1013488E+00
       -2   -1    0    0    0  501  0.00000000000E+00  0.00000000000E+00  0.23176720218E+02  0.23176720358E+02  0.25500000920E-02 0.  1.
        2   -1    0    0  501    0  0.00000000000E+00  0.00000000000E+00 -0.27087154879E+04  0.27087154879E+04  0.25500000920E-02 0. -1.
    10030    2    1    2    0    0  0.00000000000E+00  0.00000000000E+00 -0.26855387677E+04  0.27318922082E+04  0.50111532088E+03 0.  0.
        1    1    3    3  502    0  0.49147628741E+02 -0.89055254122E+02 -0.94444983185E+02  0.13880267495E+03  0.50400001928E-02 0.  1.
       -1    1    3    3    0  502 -0.49147628741E+02  0.89055254122E+02 -0.25910937845E+04  0.25930895333E+04  0.50400001928E-02 0. -1.
</event>
<event>
 5   0  0.1448458E-01  0.5071716E+03  0.7818609E-02  0.1011924E+00
       -1   -1    0    0    0  501  0.00000000000E+00  0.00000000000E+00  0.38523184677E+03  0.38523184681E+03  0.50400001928E-02 0.  1.
        1   -1    0    0  501    0  0.00000000000E+00  0.00000000000E+00 -0.16692742347E+03  0.16692742354E+03  0.50400001928E-02 0. -1.
    10030    2    1    2    0    0  0.00000000000E+00  0.00000000000E+00  0.21830442331E+03  0.55215927035E+03  0.50717160665E+03 0.  0.
        5    1    3    3  502    0  0.18039210638E+03  0.17666542829E+03  0.84048597340E+02  0.26615454591E+03  0.46999998093E+01 0.  1.
       -5    1    3    3    0  502 -0.18039210638E+03 -0.17666542829E+03  0.13425582597E+03  0.28600472444E+03  0.46999998093E+01 0. -1.
</event>
<event>
 5   0  0.1439814E-01  0.4003528E+03  0.7818609E-02  0.1043658E+00
       -1   -1    0    0    0  501  0.00000000000E+00  0.00000000000E+00  0.11992012512E+03  0.11992012522E+03  0.50400001928E-02 0.  1.
        1   -1    0    0  501    0  0.00000000000E+00  0.00000000000E+00 -0.33414402427E+03  0.33414402431E+03  0.50400001928E-02 0. -1.
    10030    2    1    2    0    0  0.00000000000E+00  0.00000000000E+00 -0.21422389915E+03  0.45406414953E+03  0.40035281056E+03 0.  0.
        4    1    3    3  502    0  0.79963861063E+01 -0.15158471265E+03 -0.25510619936E+03  0.29685459935E+03  0.12699999809E+01 0. -1.
       -4    1    3    3    0  502 -0.79963861063E+01  0.15158471265E+03  0.40882300211E+02  0.15720955018E+03  0.12699999809E+01 0.  1.
</event>
<event>
 5   0  0.2466034E-01  0.4109158E+03  0.7818609E-02  0.1040064E+00
       -2   -1    0    0    0  501  0.00000000000E+00  0.00000000000E+00  0.20936880779E+03  0.20936880781E+03  0.25500000920E-02 0.  1.
        2   -1    0    0  501    0  0.00000000000E+00  0.00000000000E+00 -0.20162005261E+03  0.20162005262E+03  0.25500000920E-02 0. -1.
    10030    2    1    2    0    0  0.00000000000E+00  0.00000000000E+00  0.77487551845E+01  0.41098886043E+03  0.41091580669E+03 0.  0.
        3    1    3    3  502    0 -0.19036712004E+03  0.54518912303E+02 -0.50916632612E+02  0.20446140435E+03  0.10100000352E+00 0. -1.
       -3    1    3    3    0  502  0.19036712004E+03 -0.54518912303E+02  0.58665387796E+02  0.20652745608E+03  0.10100000352E+00 0.  1.
</event>
<event>
 5   0  0.1448458E-01  0.4961664E+03  0.7818609E-02  0.1014784E+00
       -1   -1    0    0    0  501  0.00000000000E+00  0.00000000000E+00  0.66787779087E+02  0.66787779277E+02  0.50400001928E-02 0. -1.
        1   -1    0    0  501    0  0.00000000000E+00  0.00000000000E+00 -0.92150518337E+03  0.92150518338E+03  0.50400001928E-02 0.  1.
    10030    2    1    2    0    0  0.00000000000E+00  0.00000000000E+00 -0.85471740428E+03  0.98829296266E+03  0.49616644270E+03 0.  0.
        5    1    3    3  502    0  0.19952870792E+03 -0.43251992017E+02 -0.14679117289E+03  0.25149985792E+03  0.46999998093E+01 0. -1.
       -5    1    3    3    0  502 -0.19952870792E+03  0.43251992017E+02 -0.70792623140E+03  0.73679310474E+03  0.46999998093E+01 0.  1.
</event>
<event>
 5   0  0.1413361E-01  0.5029524E+03  0.7818609E-02  0.1013011E+00
       -1   -1    0    0    0  501  0.00000000000E+00  0.00000000000E+00  0.79359829325E+02  0.79359829485E+02  0.50400001928E-02 0.  1.
        1   -1    0    0  501    0  0.00000000000E+00  0.00000000000E+00 -0.79688016127E+03  0.79688016129E+03  0.50400001928E-02 0. -1.
    10030    2    1    2    0    0  0.00000000000E+00  0.00000000000E+00 -0.71752033195E+03  0.87623999077E+03  0.50295237814E+03 0.  0.
        3    1    3    3  502    0  0.12063578502E+03  0.80716292161E+02 -0.98591543390E+00  0.14515197097E+03  0.10100000352E+00 0.  1.
       -3    1    3    3    0  502 -0.12063578502E+03 -0.80716292161E+02 -0.71653441651E+03  0.73108801980E+03  0.10100000352E+00 0. -1.
</event>
<event>
 5   0  0.1453602E-01  0.5029842E+03  0.7818609E-02  0.1013003E+00
        1   -1    0    0  501    0  0.00000000000E+00  0.00000000000E+00  0.13600727797E+03  0.13600727806E+03  0.50400001928E-02 0.  1.
       -1   -1    0    0    0  501  0.00000000000E+00  0.00000000000E+00 -0.46503601406E+03  0.46503601409E+03  0.50400001928E-02 0. -1.
    10030    2    1    2    0    0  0.00000000000E+00  0.00000000000E+00 -0.32902873609E+03  0.60104329215E+03  0.50298422428E+03 0.  0.
        2    1    3    3  502    0  0.41119326222E+02  0.14647225719E+03  0.74785124917E+02  0.16952208125E+03  0.25500000920E-02 0.  1.
       -2    1    3    3    0  502 -0.41119326222E+02 -0.14647225719E+03 -0.40381386101E+03  0.43152121091E+03  0.25500000920E-02 0. -1.
</event>
<event>
 5   0  0.2488968E-01  0.4873896E+03  0.7818609E-02  0.1017124E+00
        2   -1    0    0  501    0  0.00000000000E+00  0.00000000000E+00  0.10334700264E+04  0.10334700264E+04  0.25500000920E-02 0.  1.
       -2   -1    0    0    0  501  0.00000000000E+00  0.00000000000E+00 -0.57463845461E+02  0.57463845517E+02  0.25500000920E-02 0. -1.
    10030    2    1    2    0    0  0.00000000000E+00  0.00000000000E+00  0.97600618095E+03  0.10909338719E+04  0.48738962615E+03 0.  0.
        2    1    3    3  502    0 -0.49896022005E+02  0.65671161962E+02 -0.25274677727E+02  0.86261949121E+02  0.25500000920E-02 0. -1.
       -2    1    3    3    0  502  0.49896022005E+02 -0.65671161962E+02  0.10012808587E+04  0.10046719228E+04  0.25500000920E-02 0.  1.
</event>
<event>
 5   0  0.1453602E-01  0.4955766E+03  0.7818609E-02  0.1014940E+00
        1   -1    0    0  501    0  0.00000000000E+00  0.00000000000E+00  0.68088535549E+03  0.68088535550E+03  0.50400001928E-02 0. -1.
       -1   -1    0    0    0  501  0.00000000000E+00  0.00000000000E+00 -0.90175291103E+02  0.90175291244E+02  0.50400001928E-02 0.  1.
    10030    2    1    2    0    0  0.00000000000E+00  0.00000000000E+00  0.59071006438E+03  0.77106064675E+03  0.49557657410E+03 0.  0.
        2    1    3    3  502    0  0.27689384123E+02  0.64325806013E+02  0.66516698634E+03  0.66884350265E+03  0.25500000920E-02 0. -1.
       -2    1    3    3    0  502 -0.27689384123E+02 -0.64325806013E+02 -0.74456921962E+02  0.10221714409E+03  0.25500000920E-02 0.  1.
</event>
<event>
 5   0  0.1453602E-01  0.5052752E+03  0.7818609E-02  0.1012411E+00
        1   -1    0    0  501    0  0.00000000000E+00  0.00000000000E+00  0.15718087163E+03  0.15718087171E+03  0.50400001928E-02 0. -1.
       -1   -1    0    0    0  501  0.00000000000E+00  0.00000000000E+00 -0.40606562847E+03  0.40606562850E+03  0.50400001928E-02 0.  1.
    10030    2    1    2    0    0  0.00000000000E+00  0.00000000000E+00 -0.24888475684E+03  0.56324650021E+03  0.50527517039E+03 0.  0.
        2    1    3    3  502    0  0.18790237812E+03  0.13966634353E+03 -0.23026421888E+03  0.32838331523E+03  0.25500000920E-02 0.  1.
       -2    1    3    3    0  502 -0.18790237812E+03 -0.13966634353E+03 -0.18620537962E+02  0.23486318498E+03  0.25500000920E-02 0. -1.
</event>
<event>
 5   0  0.1413361E-01  0.4932654E+03  0.7818609E-02  0.1015552E+00
       -1   -1    0    0    0  501  0.00000000000E+00  0.00000000000E+00  0.19465525982E+03  0.19465525988E+03  0.50400001928E-02 0. -1.
        1   -1    0    0  501    0  0.00000000000E+00  0.00000000000E+00 -0.31248934068E+03  0.31248934072E+03  0.50400001928E-02 0.  1.
    10030    2    1    2    0    0  0.00000000000E+00  0.00000000000E+00 -0.11783408086E+03  0.50714460060E+03  0.49326542075E+03 0.  0.
        3    1    3    3  502    0  0.14667769629E+03 -0.18790646387E+03  0.61446238475E+01  0.23845534668E+03  0.10100000352E+00 0. -1.
       -3    1    3    3    0  502 -0.14667769629E+03  0.18790646387E+03 -0.12397870471E+03  0.26868925393E+03  0.10100000352E+00 0.  1.
</event>
<event>
 5   0  0.2511944E-01  0.6268644E+03  0.7818609E-02  0.9851187E-01
       -2   -1    0    0    0  501  0.00000000000E+00  0.00000000000E+00  0.18156477260E+03  0.18156477262E+03  0.25500000920E-02 0.  1.
        2   -1    0    0  501    0  0.00000000000E+00  0.00000000000E+00 -0.54107267334E+03  0.54107267335E+03  0.25500000920E-02 0. -1.
    10030    2    1    2    0    0  0.00000000000E+00  0.00000000000E+00 -0.35950790074E+03  0.72263744596E+03  0.62686437736E+03 0.  0.
        1    1    3    3  502    0 -0.11058733113E+03 -0.25168160103E+03 -0.35330993349E+03  0.44766180899E+03  0.50400001928E-02 0.  1.
       -1    1    3    3    0  502  0.11058733113E+03  0.25168160103E+03 -0.61979672501E+01  0.27497563697E+03  0.50400001928E-02 0. -1.
</event>
<event>
 5   0  0.9868500E-02  0.4855292E+03  0.7818609E-02  0.1017627E+00
        3   -1    0    0  501    0  0.00000000000E+00  0.00000000000E+00  0.82180370275E+02  0.82180432339E+02  0.10100000352E+00 0. -1.
       -3   -1    0    0    0  501  0.00000000000E+00  0.00000000000E+00 -0.71713755633E+03  0.71713756344E+03  0.10100000352E+00 0.  1.
    10030    2    1    2    0    0  0.00000000000E+00  0.00000000000E+00 -0.63495718606E+03  0.79931799578E+03  0.48552922699E+03 0.  0.
        4    1    3    3  502    0 -0.12428867969E+02 -0.92183387357E+02 -0.68663062515E+03  0.69290365994E+03  0.12699999809E+01 0.  1.
       -4    1    3    3    0  502  0.12428867969E+02  0.92183387357E+02  0.51673439099E+02  0.10641433584E+03  0.12699999809E+01 0. -1.
</event>
<event>
 5   0  0.2413301E-01  0.5235567E+03  0.7818609E-02  0.1007807E+00
       -2   -1    0    0    0  501  0.00000000000E+00  0.00000000000E+00  0.57275684738E+02  0.57275684795E+02  0.25500000920E-02 0. -1.
        2   -1    0    0  501    0  0.00000000000E+00  0.00000000000E+00 -0.11964572603E+04  0.11964572603E+04  0.25500000920E-02 0.  1.
    10030    2    1    2    0    0  0.00000000000E+00  0.00000000000E+00 -0.11391815755E+04  0.12537329451E+04  0.52355671662E+03 0.  0.
        4    1    3    3  502    0  0.23679156758E+03  0.45766309567E+01 -0.83662445054E+03  0.86950174018E+03  0.12699999809E+01 0.  1.
       -4    1    3    3    0  502 -0.23679156758E+03 -0.45766309567E+01 -0.30255712500E+03  0.38423120490E+03  0.12699999809E+01 0. -1.
</event>
<event>
 5   0  0.1529146E-01  0.4964433E+03  0.7818609E-02  0.1014711E+00
        1   -1    0    0  501    0  0.00000000000E+00  0.00000000000E+00  0.13661835740E+04  0.13661835740E+04  0.50400001928E-02 0. -1.
       -1   -1    0    0    0  501  0.00000000000E+00  0.00000000000E+00 -0.45099347169E+02  0.45099347450E+02  0.50400001928E-02 0.  1.
    10030    2    1    2    0    0  0.00000000000E+00  0.00000000000E+00  0.13210842268E+04  0.14112829214E+04  0.49644329990E+03 0.  0.
        1    1    3    3  502    0  0.19553554857E+03  0.99130992555E+02  0.99149050701E+03  0.10154380975E+04  0.50400001928E-02 0. -1.
       -1    1    3    3    0  502 -0.19553554857E+03 -0.99130992555E+02  0.32959371979E+03  0.39584482388E+03  0.50400001928E-02 0.  1.
</event>
<event>
 5   0  0.2511944E-01  0.4980742E+03  0.7818609E-02  0.1014283E+00
       -2   -1    0    0    0  501  0.00000000000E+00  0.00000000000E+00  0.13775044753E+03  0.13775044755E+03  0.25500000920E-02 0.  1.
        2   -1    0    0  501    0  0.00000000000E+00  0.00000000000E+00 -0.45023066061E+03  0.45023066062E+03  0.25500000920E-02 0. -1.
    10030    2    1    2    0    0  0.00000000000E+00  0.00000000000E+00 -0.31248021308E+03  0.58798110816E+03  0.49807419125E+03 0.  0.
        1    1    3    3  502    0 -0.12592726245E+02  0.17155004111E+03 -0.36883495117E+03  0.40697323572E+03  0.50400001928E-02 0. -1.
       -1    1    3    3    0  502  0.12592726245E+02 -0.17155004111E+03  0.56354738091E+02  0.18100787245E+03  0.50400001928E-02 0.  1.
</event>
<event>
 5   0  0.9868500E-02  0.5032680E+03  0.7818609E-02  0.1012929E+00
        3   -1    0    0  501    0  0.00000000000E+00  0.00000000000E+00  0.18484156431E+03  0.18484159190E+03  0.10100000352E+00 0. -1.
       -3   -1    0    0    0  501  0.00000000000E+00  0.00000000000E+00 -0.34256183294E+03  0.34256184783E+03  0.10100000352E+00 0.  1.
    10030    2    1    2    0    0  0.00000000000E+00  0.00000000000E+00 -0.15772026863E+03  0.52740343974E+03  0.50326802512E+03 0.  0.
        1    1    3    3  502    0  0.74572337641E+02 -0.63612466983E+02 -0.32173337767E+03  0.33633308762E+03  0.50400001928E-02 0.  1.
       -1    1    3    3    0  502 -0.74572337641E+02  0.63612466983E+02  0.16401310904E+03  0.19107035212E+03  0.50400001928E-02 0. -1.
</event>
<event>
 5   0  0.2413301E-01  0.4894040E+03  0.7818609E-02  0.1016582E+00
       -2   -1    0    0    0  501  0.00000000000E+00  0.00000000000E+00  0.10113753688E+03  0.10113753691E+03  0.25500000920E-02 0.  1.
        2   -1    0    0  501    0  0.00000000000E+00  0.00000000000E+00 -0.59205571812E+03  0.59205571813E+03  0.25500000920E-02 0. -1.
    10030    2    1    2    0    0  0.00000000000E+00  0.00000000000E+00 -0.49091818124E+03  0.69319325504E+03  0.48940395192E+03 0.  0.
        4    1    3    3  502    0  0.13953896705E+03  0.34802600131E+02 -0.52587506080E+03  0.54518669900E+03  0.12699999809E+01 0. -1.
       -4    1    3    3    0  502 -0.13953896705E+03 -0.34802600131E+02  0.34956879557E+02  0.14800655603E+03  0.12699999809E+01 0.  1.
</event>
<event>
 5   0  0.2504064E-01  0.5011311E+03  0.7818609E-02  0.1013484E+00
       -2   -1    0    0    0  501  0.00000000000E+00  0.00000000000E+00  0.90395434058E+02  0.90395434094E+02  0.25500000920E-02 0.  1.
        2   -1    0    0  501    0  0.00000000000E+00  0.00000000000E+00 -0.69453843090E+03  0.69453843090E+03  0.25500000920E-02 0. -1.
    10030    2    1    2    0    0  0.00000000000E+00  0.00000000000E+00 -0.60414299684E+03  0.78493386500E+03  0.50113113233E+03 0.  0.
        5    1    3    3  502    0 -0.18708017746E+03 -0.16050857998E+03 -0.23204058233E+03  0.33856597421E+03  0.46999998093E+01 0.  1.
       -5    1    3    3    0  502  0.18708017746E+03  0.16050857998E+03 -0.37210241451E+03  0.44636789079E+03  0.46999998093E+01 0. -1.
</event>
<event>
 5   0  0.2511944E-01  0.5044367E+03  0.7818609E-02  0.1012627E+00
        2   -1    0    0  501    0  0.00000000000E+00  0.00000000000E+00  0.15789926255E+04  0.15789926255E+04  0.25500000920E-02 0.  1.
       -2   -1    0    0    0  501  0.00000000000E+00  0.00000000000E+00 -0.40287775769E+02  0.40287775850E+02  0.25500000920E-02 0. -1.
    10030    2    1    2    0    0  0.00000000000E+00  0.00000000000E+00  0.15387048497E+04  0.16192804013E+04  0.50443671914E+03 0.  0.
        1    1    3    3  502    0 -0.89813717295E+01  0.22052423483E+03  0.11612250252E+04  0.11820131820E+04  0.50400001928E-02 0.  1.
       -1    1    3    3    0  502  0.89813717295E+01 -0.22052423483E+03  0.37747982449E+03  0.43726721934E+03  0.50400001928E-02 0. -1.
</event>
<event>
 5   0  0.2504064E-01  0.5073626E+03  0.7818609E-02  0.1011875E+00
       -2   -1    0    0    0  501  0.00000000000E+00  0.00000000000E+00  0.89320985112E+02  0.89320985149E+02  0.25500000920E-02 0. -1.
        2   -1    0    0  501    0  0.00000000000E+00  0.00000000000E+00 -0.72048239558E+03  0.72048239559E+03  0.25500000920E-02 0.  1.
    10030    2    1    2    0    0  0.00000000000E+00  0.00000000000E+00 -0.63116141047E+03  0.80980338073E+03  0.50736258177E+03 0.  0.
        5    1    3    3  502    0 -0.23244899788E+03 -0.94862614834E+02 -0.37314354555E+03  0.44976621470E+03  0.46999998093E+01 0. -1.
       -5    1    3    3    0  502  0.23244899788E+03  0.94862614834E+02 -0.25801786492E+03  0.36003716603E+03  0.46999998093E+01 0.  1.
</event>
<event>
 5   0  0.2511944E-01  0.4916968E+03  0.7818609E-02  0.1015969E+00
        2   -1    0    0  501    0  0.00000000000E+00  0.00000000000E+00  0.75313451978E+03  0.75313451978E+03  0.25500000920E-02 0.  1.
       -2   -1    0    0    0  501  0.00000000000E+00  0.00000000000E+00 -0.80253183873E+02  0.80253183914E+02  0.25500000920E-02 0. -1.
    10030    2    1    2    0    0  0.00000000000E+00  0.00000000000E+00  0.67288133590E+03  0.83338770369E+03  0.49169682983E+03 0.  0.
        1    1    3    3  502    0 -0.11672569250E+03 -0.16634680281E+03  0.57096112615E+03  0.60604682467E+03  0.50400001928E-02 0.  1.
       -1    1    3    3    0  502  0.11672569250E+03  0.16634680281E+03  0.10192020976E+03  0.22734087903E+03  0.50400001928E-02 0. -1.
</event>
<event>
 5   0  0.1439814E-01  0.5022501E+03  0.7818609E-02  0.1013193E+00
       -1   -1    0    0    0  501  0.00000000000E+00  0.00000000000E+00  0.49646362298E+02  0.49646362554E+02  0.50400001928E-02 0.  1.
        1   -1    0    0  501    0  0.00000000000E+00  0.00000000000E+00 -0.12702600542E+04  0.12702600542E+04  0.50400001928E-02 0. -1.
    10030    2    1    2    0    0  0.00000000000E+00  0.00000000000E+00 -0.12206136919E+04  0.13199064167E+04  0.50225010119E+03 0.  0.
        4    1    3    3  502    0  0.17931704701E+03  0.88697736342E+02 -0.10092096080E+04  0.10288476746E+04  0.12699999809E+01 0. -1.
       -4    1    3    3    0  502 -0.17931704701E+03 -0.88697736342E+02 -0.21140408383E+03  0.29105874208E+03  0.12699999809E+01 0.  1.
</event>
<event>
 5   0  0.1413361E-01  0.5004856E+03  0.7818609E-02  0.1013652E+00
        1   -1    0    0  501    0  0.00000000000E+00  0.00000000000E+00  0.37004080007E+03  0.37004080010E+03  0.50400001928E-02 0.  1.
       -1   -1    0    0    0  501  0.00000000000E+00  0.00000000000E+00 -0.16922850550E+03  0.16922850557E+03  0.50400001928E-02 0. -1.
    10030    2    1    2    0    0  0.00000000000E+00  0.00000000000E+00  0.20081229457E+03  0.53926930568E+03  0.50048557061E+03 0.  0.
        3    1    3    3  502    0 -0.11121707202E+03  0.46045281899E+02  0.33679732183E+03  0.35766164358E+03  0.10100000352E+00 0.  1.
       -3    1    3    3    0  502  0.11121707202E+03 -0.46045281899E+02 -0.13598502726E+03  0.18160766210E+03  0.10100000352E+00 0. -1.
</event>
<event>
 5   0  0.2511944E-01  0.5068334E+03  0.7818609E-02  0.1012011E+00
        2   -1    0    0  501    0  0.00000000000E+00  0.00000000000E+00  0.91364164539E+03  0.91364164540E+03  0.25500000920E-02 0.  1.
       -2   -1    0    0    0  501  0.00000000000E+00  0.00000000000E+00 -0.70290168790E+02  0.70290168836E+02  0.25500000920E-02 0. -1.
    10030    2    1    2    0    0  0.00000000000E+00  0.00000000000E+00  0.84335147660E+03  0.98393181423E+03  0.50683340652E+03 0.  0.
        1    1    3    3  502    0  0.10650613273E+03  0.13332391588E+03  0.57961109633E+02  0.18021740512E+03  0.50400001928E-02 0. -1.
       -1    1    3    3    0  502 -0.10650613273E+03 -0.13332391588E+03  0.78539036697E+03  0.80371440911E+03  0.50400001928E-02 0.  1.
</event>
<event>
 5   0  0.1453602E-01  0.5336384E+03  0.7818609E-02  0.1005354E+00
       -1   -1    0    0    0  501  0.00000000000E+00  0.00000000000E+00  0.41852921264E+02  0.41852921567E+02  0.50400001928E-02 0.  1.
        1   -1    0    0  501    0  0.00000000000E+00  0.00000000000E+00 -0.17010159080E+04  0.17010159080E+04  0.50400001928E-02 0. -1.
    10030    2    1    2    0    0  0.00000000000E+00  0.00000000000E+00 -0.16591629867E+04  0.17428688296E+04  0.53363839868E+03 0.  0.
        2    1    3    3  502    0 -0.10780069565E+03  0.57258193768E+02 -0.54683018949E+02  0.13375247027E+03  0.25500000920E-02 0.  1.
       -2    1    3    3    0  502  0.10780069565E+03 -0.57258193768E+02 -0.16044799678E+04  0.16091163593E+04  0.25500000920E-02 0. -1.
</event>
<event>
 5   0  0.2488968E-01  0.5051961E+03  0.7818609E-02  0.1012431E+00
       -2   -1    0    0    0  501  0.00000000000E+00  0.00000000000E+00  0.65012726612E+02  0.65012726662E+02  0.25500000920E-02 0.  1.
        2   -1    0    0  501    0  0.00000000000E+00  0.00000000000E+00 -0.98143500169E+03  0.98143500169E+03  0.25500000920E-02 0. -1.
    10030    2    1    2    0    0  0.00000000000E+00  0.00000000000E+00 -0.91642227507E+03  0.10464477284E+04  0.50519606285E+03 0.  0.
        2    1    3    3  502    0  0.15490697365E+03 -0.46855090674E+02 -0.56481871975E+02  0.17141111946E+03  0.25500000920E-02 0. -1.
       -2    1    3    3    0  502 -0.15490697365E+03  0.46855090674E+02 -0.85994040310E+03  0.87503660889E+03  0.25500000920E-02 0.  1.
</event>
<event>
 5   0  0.1439814E-01  0.4835042E+03  0.7818609E-02  0.1018177E+00
        1   -1    0    0  501    0  0.00000000000E+00  0.00000000000E+00  0.20167852496E+04  0.20167852496E+04  0.50400001928E-02 0. -1.
       -1   -1    0    0    0  501  0.00000000000E+00  0.00000000000E+00 -0.28978827678E+02  0.28978828117E+02  0.50400001928E-02 0.  1.
    10030    2    1    2    0    0  0.00000000000E+00  0.00000000000E+00  0.19878064219E+04  0.20457640778E+04  0.48350417855E+03 0.  0.
        4    1    3    3  502    0 -0.75113238610E+02 -0.17801356992E+03  0.37912820818E+03  0.42552396035E+03  0.12699999809E+01 0.  1.
       -4    1    3    3    0  502  0.75113238610E+02  0.17801356992E+03  0.16086782138E+04  0.16202401174E+04  0.12699999809E+01 0. -1.
</event>
<event>
 5   0  0.2504064E-01  0.5117610E+03  0.7818609E-02  0.1010754E+00
       -2   -1    0    0    0  501  0.00000000000E+00  0.00000000000E+00  0.96451214590E+02  0.96451214624E+02  0.25500000920E-02 0. -1.
        2   -1    0    0  501    0  0.00000000000E+00  0.00000000000E+00 -0.67883876502E+03  0.67883876502E+03  0.25500000920E-02 0.  1.
    10030    2    1    2    0    0  0.00000000000E+00  0.00000000000E+00 -0.58238755043E+03  0.77528997965E+03  0.51176097316E+03 0.  0.
        5    1    3    3  502    0 -0.15281697944E+03  0.20496369381E+03 -0.30553291059E+03  0.39841635815E+03  0.46999998093E+01 0. -1.
       -5    1    3    3    0  502  0.15281697944E+03 -0.20496369381E+03 -0.27685463984E+03  0.37687362150E+03  0.46999998093E+01 0.  1.
</event>
<event>
 5   0  0.1439814E-01  0.4181979E+03  0.7818609E-02  0.1037654E+00
        1   -1    0    0  501    0  0.00000000000E+00  0.00000000000E+00  0.54068195534E+03  0.54068195536E+03  0.50400001928E-02 0. -1.
       -1   -1    0    0    0  501  0.00000000000E+00  0.00000000000E+00 -0.80865246520E+02  0.80865246677E+02  0.50400001928E-02 0.  1.
    10030    2    1    2    0    0  0.00000000000E+00  0.00000000000E+00  0.45981670882E+03  0.62154720204E+03  0.41819794195E+03 0.  0.
        4    1    3    3  502    0  0.15018371218E+01 -0.11334506680E+03  0.49104657280E+03  0.50396201170E+03  0.12699999809E+01 0. -1.
       -4    1    3    3    0  502 -0.15018371218E+01  0.11334506680E+03 -0.31229863978E+02  0.11758519034E+03  0.12699999809E+01 0.  1.
</event>
<event>
 5   0  0.2511944E-01  0.4979229E+03  0.7818609E-02  0.1014322E+00
       -2   -1    0    0    0  501  0.00000000000E+00  0.00000000000E+00  0.21427463345E+03  0.21427463346E+03  0.25500000920E-02 0.  1.
        2   -1    0    0  501    0  0.00000000000E+00  0.00000000000E+00 -0.28926336270E+03  0.28926336271E+03  0.25500000920E-02 0. -1.
    10030    2    1    2    0    0  0.00000000000E+00  0.00000000000E+00 -0.74988729252E+02  0.50353799617E+03  0.49792288969E+03 0.  0.
        1    1    3    3  502    0  0.14667529205E+03  0.49469140148E+02 -0.23468292536E+03  0.28113504336E+03  0.50400001928E-02 0. -1.
       -1    1    3    3    0  502 -0.14667529205E+03 -0.49469140148E+02  0.15969419611E+03  0.22240295281E+03  0.50400001928E-02 0.  1.
</event>
<event>
 5   0  0.1453602E-01  0.5148259E+03  0.7818609E-02  0.1009980E+00
        1   -1    0    0  501    0  0.00000000000E+00  0.00000000000E+00  0.66308802620E+02  0.66308802812E+02  0.50400001928E-02 0. -1.
       -1   -1    0    0    0  501  0.00000000000E+00  0.00000000000E+00 -0.99928544583E+03  0.99928544584E+03  0.50400001928E-02 0.  1.
    10030    2    1    2    0    0  0.00000000000E+00  0.00000000000E+00 -0.93297664321E+03  0.10655942487E+04  0.51482587929E+03 0.  0.
        2    1    3    3  502    0  0.13333802123E+03  0.12532543137E+03 -0.91766479356E+02  0.20471096305E+03  0.25500000920E-02 0. -1.
       -2    1    3    3    0  502 -0.13333802123E+03 -0.12532543137E+03 -0.84121016386E+03  0.86088328560E+03  0.25500000920E-02 0.  1.
</event>
<event>
 5   0  0.9868500E-02  0.4909027E+03  0.7818609E-02  0.1016181E+00
       -4   -1    0    0    0  501  0.00000000000E+00  0.00000000000E+00  0.29294421209E+03  0.29294696499E+03  0.12699999809E+01 0. -1.
        4   -1    0    0  501    0  0.00000000000E+00  0.00000000000E+00 -0.20565249713E+03  0.20565641851E+03  0.12699999809E+01 0.  1.
    10030    2    1    2    0    0  0.00000000000E+00  0.00000000000E+00  0.87291714958E+02  0.49860338350E+03  0.49090273022E+03 0.  0.
        5    1    3    3  502    0 -0.23404529235E+03  0.71630861823E+02  0.25587661752E+02  0.24614019921E+03  0.46999998093E+01 0.  1.
       -5    1    3    3    0  502  0.23404529235E+03 -0.71630861823E+02  0.61704053207E+02  0.25246318428E+03  0.46999998093E+01 0. -1.
</event>
<event>
 5   0  0.1413361E-01  0.5086705E+03  0.7818609E-02  0.1011540E+00
       -1   -1    0    0    0  501  0.00000000000E+00  0.00000000000E+00  0.48720154280E+03  0.48720154282E+03  0.50400001928E-02 0. -1.
        1   -1    0    0  501    0  0.00000000000E+00  0.00000000000E+00 -0.13277139345E+03  0.13277139355E+03  0.50400001928E-02 0.  1.
    10030    2    1    2    0    0  0.00000000000E+00  0.00000000000E+00  0.35443014935E+03  0.61997293637E+03  0.50867053292E+03 0.  0.
        3    1    3    3  502    0 -0.21227334753E+03  0.76060786357E+02  0.33823700046E+02  0.22801155712E+03  0.10100000352E+00 0.  1.
       -3    1    3    3    0  502  0.21227334753E+03 -0.76060786357E+02  0.32060644930E+03  0.39196137925E+03  0.10100000352E+00 0. -1.
</event>
<event>
 5   0  0.1448458E-01  0.5016291E+03  0.7818609E-02  0.1013355E+00
       -1   -1    0    0    0  501  0.00000000000E+00  0.00000000000E+00  0.12680331697E+03  0.12680331707E+03  0.50400001928E-02 0.  1.
        1   -1    0    0  501    0  0.00000000000E+00  0.00000000000E+00 -0.49610632706E+03  0.49610632708E+03  0.50400001928E-02 0. -1.
    10030    2    1    2    0    0  0.00000000000E+00  0.00000000000E+00 -0.36930301009E+03  0.62290964415E+03  0.50162905768E+03 0.  0.
        5    1    3    3  502    0  0.23555052402E+03  0.68822314449E+01 -0.78159578573E+02  0.24831919821E+03  0.46999998093E+01 0.  1.
       -5    1    3    3    0  502 -0.23555052402E+03 -0.68822314449E+01 -0.29114343152E+03  0.37459044594E+03  0.46999998093E+01 0. -1.
</event>
<event>
 5   0  0.1439814E-01  0.5056009E+03  0.7818609E-02  0.1012327E+00
        1   -1    0    0  501    0  0.00000000000E+00  0.00000000000E+00  0.18743163768E+03  0.18743163775E+03  0.50400001928E-02 0. -1.
       -1   -1    0    0    0  501  0.00000000000E+00  0.00000000000E+00 -0.34096730226E+03  0.34096730230E+03  0.50400001928E-02 0.  1.
    10030    2    1    2    0    0  0.00000000000E+00  0.00000000000E+00 -0.15353566458E+03  0.52839894005E+03  0.50560086980E+03 0.  0.
        4    1    3    3  502    0  0.27595629918E+02 -0.24169255162E+03 -0.48944458739E+01  0.24331538546E+03  0.12699999809E+01 0.  1.
       -4    1    3    3    0  502 -0.27595629918E+02  0.24169255162E+03 -0.14864121871E+03  0.28508355459E+03  0.12699999809E+01 0. -1.
</event>
<event>
 5   0  0.2413301E-01  0.5062733E+03  0.7818609E-02  0.1012154E+00
        2   -1    0    0  501    0  0.00000000000E+00  0.00000000000E+00  0.14496887043E+04  0.14496887043E+04  0.25500000920E-02 0. -1.
       -2   -1    0    0    0  501  0.00000000000E+00  0.00000000000E+00 -0.44201329119E+02  0.44201329193E+02  0.25500000920E-02 0.  1.
    10030    2    1    2    0    0  0.00000000000E+00  0.00000000000E+00  0.14054873752E+04  0.14938900335E+04  0.50627331589E+03 0.  0.
        4    1    3    3  502    0  0.23006151840E+03  0.36995286793E+01  0.39137836839E+03  0.45400509788E+03  0.12699999809E+01 0.  1.
       -4    1    3    3    0  502 -0.23006151840E+03 -0.36995286793E+01  0.10141090068E+04  0.10398849356E+04  0.12699999809E+01 0. -1.
</event>
<event>
 5   0  0.2511944E-01  0.5017655E+03  0.7818609E-02  0.1013319E+00
       -2   -1    0    0    0  501  0.00000000000E+00  0.00000000000E+00  0.42553939141E+02  0.42553939218E+02  0.25500000920E-02 0. -1.
        2   -1    0    0  501    0  0.00000000000E+00  0.00000000000E+00 -0.14791146490E+04  0.14791146491E+04  0.25500000920E-02 0.  1.
    10030    2    1    2    0    0  0.00000000000E+00  0.00000000000E+00 -0.14365607099E+04  0.15216685883E+04  0.50176550228E+03 0.  0.
        1    1    3    3  502    0 -0.14298825521E+03 -0.19091959438E+03 -0.48247083923E+03  0.53821375250E+03  0.50400001928E-02 0. -1.
       -1    1    3    3    0  502  0.14298825521E+03  0.19091959438E+03 -0.95408987068E+03  0.98345483577E+03  0.50400001928E-02 0.  1.
</event>
<event>
 5   0  0.2504064E-01  0.4925756E+03  0.7818609E-02  0.1015735E+00
       -2   -1    0    0    0  501  0.00000000000E+00  0.00000000000E+00  0.22135119301E+03  0.22135119302E+03  0.25500000920E-02 0. -1.
        2   -1    0    0  501    0  0.00000000000E+00  0.00000000000E+00 -0.27403369385E+03  0.27403369386E+03  0.25500000920E-02 0.  1.
    10030    2    1    2    0    0  0.00000000000E+00  0.00000000000E+00 -0.52682500840E+02  0.49538488688E+03  0.49257561882E+03 0.  0.
        5    1    3    3  502    0 -0.13673988945E+03 -0.19398717476E+03  0.39659043407E+02  0.24067353627E+03  0.46999998093E+01 0.  1.
       -5    1    3    3    0  502  0.13673988945E+03  0.19398717476E+03 -0.92341544247E+02  0.25471135061E+03  0.46999998093E+01 0. -1.
</event>
<event>
 5   0  0.2488968E-01  0.3624834E+03  0.7818609E-02  0.1057605E+00
        2   -1    0    0  501    0  0.00000000000E+00  0.00000000000E+00  0.82730416756E+03  0.82730416756E+03  0.25500000920E-02 0. -1.
       -2   -1    0    0    0  501  0.00000000000E+00  0.00000000000E+00 -0.39705532121E+02  0.39705532203E+02  0.25500000920E-02 0.  1.
    10030    2    1    2    0    0  0.00000000000E+00  0.00000000000E+00  0.78759863544E+03  0.86700969977E+03  0.36248339127E+03 0.  0.
        2    1    3    3  502    0  0.99461616332E+02  0.68582502529E+01  0.31774790179E+02  0.10463883609E+03  0.25500000920E-02 0.  1.
       -2    1    3    3    0  502 -0.99461616332E+02 -0.68582502529E+01  0.75582384526E+03  0.76237086368E+03  0.25500000920E-02 0. -1.
</event>
<event>
 5   0  0.9868500E-02  0.5040194E+03  0.7818609E-02  0.1012735E+00
        4   -1    0    0  501    0  0.00000000000E+00  0.00000000000E+00  0.20928528783E+03  0.20928914115E+03  0.12699999809E+01 0. -1.
       -4   -1    0    0    0  501  0.00000000000E+00  0.00000000000E+00 -0.30344808061E+03  0.30345073822E+03  0.12699999809E+01 0.  1.
    10030    2    1    2    0    0  0.00000000000E+00  0.00000000000E+00 -0.94162792776E+02  0.51273987936E+03  0.50401939680E+03 0.  0.
        5    1    3    3  502    0 -0.12235054651E+02 -0.21345119657E+03  0.88550882442E+02  0.23146157059E+03  0.46999998093E+01 0. -1.
       -5    1    3    3    0  502  0.12235054651E+02  0.21345119657E+03 -0.18271367522E+03  0.28127830878E+03  0.46999998093E+01 0.  1.
</event>
<event>
 5   0  0.1529146E-01  0.5015175E+03  0.7818609E-02  0.1013384E+00
       -1   -1    0    0    0  501  0.00000000000E+00  0.00000000000E+00  0.77062190102E+02  0.77062190267E+02  0.50400001928E-02 0. -1.
        1   -1    0    0  501    0  0.00000000000E+00  0.00000000000E+00 -0.81596375724E+03  0.81596375725E+03  0.50400001928E-02 0.  1.
    10030    2    1    2    0    0  0.00000000000E+00  0.00000000000E+00 -0.73890156713E+03  0.89302594752E+03  0.50151751418E+03 0.  0.
        1    1    3    3  502    0 -0.20916076929E+03  0.12741193641E+03 -0.46530728309E+03  0.52582591860E+03  0.50400001928E-02 0.  1.
       -1    1    3    3    0  502  0.20916076929E+03 -0.12741193641E+03 -0.27359428404E+03  0.36720002892E+03  0.50400001928E-02 0. -1.
</event>
<event>
 5   0  0.2504064E-01  0.4990277E+03  0.7818609E-02  0.1014033E+00
        2   -1    0    0  501    0  0.00000000000E+00  0.00000000000E+00  0.43619996331E+03  0.43619996332E+03  0.25500000920E-02 0.  1.
       -2   -1    0    0    0  501  0.00000000000E+00  0.00000000000E+00 -0.14272621373E+03  0.14272621376E+03  0.25500000920E-02 0. -1.
    10030    2    1    2    0    0  0.00000000000E+00  0.00000000000E+00  0.29347374958E+03  0.57892617708E+03  0.49902773151E+03 0.  0.
        5    1    3    3  502    0  0.10682208043E+03 -0.10353995374E+03 -0.85585045361E+02  0.17169265819E+03  0.46999998093E+01 0. -1.
       -5    1    3    3    0  502 -0.10682208043E+03  0.10353995374E+03  0.37905879494E+03  0.40723351889E+03  0.46999998093E+01 0.  1.
</event>
<event>
 5   0  0.2511944E-01  0.4631516E+03  0.7818609E-02  0.1023871E+00
       -2   -1    0    0    0  501  0.00000000000E+00  0.00000000000E+00  0.41973901056E+03  0.41973901057E+03  0.25500000920E-02 0. -1.
        2   -1    0    0  501    0  0.00000000000E+00  0.00000000000E+00 -0.12776356710E+03  0.12776356713E+03  0.25500000920E-02 0.  1.
    10030    2    1    2    0    0  0.00000000000E+00  0.00000000000E+00  0.29197544346E+03  0.54750257769E+03  0.46315160908E+03 0.  0.
        1    1    3    3  502    0  0.22975781260E+03  0.10471673275E+02  0.17790604788E+03  0.29077288438E+03  0.50400001928E-02 0. -1.
       -1    1    3    3    0  502 -0.22975781260E+03 -0.10471673275E+02  0.11406939558E+03  0.25672969331E+03  0.50400001928E-02 0.  1.
</event>
<event>
 5   0  0.1448458E-01  0.4712799E+03  0.7818609E-02  0.1021560E+00
       -1   -1    0    0    0  501  0.00000000000E+00  0.00000000000E+00  0.43808656758E+02  0.43808657048E+02  0.50400001928E-02 0. -1.
        1   -1    0    0  501    0  0.00000000000E+00  0.00000000000E+00 -0.12674708225E+04  0.12674708225E+04  0.50400001928E-02 0.  1.
    10030    2    1    2    0    0  0.00000000000E+00  0.00000000000E+00 -0.12236621658E+04  0.13112794796E+04  0.47127993555E+03 0.  0.
        5    1    3    3  502    0 -0.20518645654E+03 -0.10237589110E+03 -0.76222889255E+03  0.79598824090E+03  0.46999998093E+01 0. -1.
       -5    1    3    3    0  502  0.20518645654E+03  0.10237589110E+03 -0.46143327323E+03  0.51529123869E+03  0.46999998093E+01 0.  1.
</event>
<event>
 5   0  0.1529146E-01  0.4923380E+03  0.7818609E-02  0.1015798E+00
        1   -1    0    0  501    0  0.00000000000E+00  0.00000000000E+00  0.11177049242E+04  0.11177049242E+04  0.50400001928E-02 0. -1.
       -1   -1    0    0    0  501  0.00000000000E+00  0.00000000000E+00 -0.54217519429E+02  0.54217519663E+02  0.50400001928E-02 0.  1.
    10030    2    1    2    0    0  0.00000000000E+00  0.00000000000E+00  0.10634874048E+04  0.11719224439E+04  0.49233804886E+03 0.  0.
        1    1    3    3  502    0 -0.60864260501E+00 -0.20315007052E+03  0.86267563072E+03  0.88627285046E+03  0.50400001928E-02 0. -1.
       -1    1    3    3    0  502  0.60864260501E+00  0.20315007052E+03  0.20081177407E+03  0.28564959343E+03  0.50400001928E-02 0.  1.
</event>
<event>
 5   0  0.2504064E-01  0.5012786E+03  0.7818609E-02  0.1013446E+00
       -2   -1    0    0    0  501  0.00000000000E+00  0.00000000000E+00  0.90008812310E+02  0.90008812346E+02  0.25500000920E-02 0. -1.
        2   -1    0    0  501    0  0.00000000000E+00  0.00000000000E+00 -0.69793242674E+03  0.69793242674E+03  0.25500000920E-02 0.  1.
    10030    2    1    2    0    0  0.00000000000E+00  0.00000000000E+00 -0.60792361443E+03  0.78794123909E+03  0.50127864036E+03 0.  0.
        5    1    3    3  502    0 -0.14253105155E+03  0.88763815646E+02 -0.11562105866E+02  0.16837424956E+03  0.46999998093E+01 0. -1.
       -5    1    3    3    0  502  0.14253105155E+03 -0.88763815646E+02 -0.59636150856E+03  0.61956698953E+03  0.46999998093E+01 0.  1.
</event>
<event>
 5   0  0.1413361E-01  0.5068142E+03  0.7818609E-02  0.1012015E+00
       -1   -1    0    0    0  501  0.00000000000E+00  0.00000000000E+00  0.79294946512E+02  0.79294946672E+02  0.50400001928E-02 0. -1.
        1   -1    0    0  501    0  0.00000000000E+00  0.00000000000E+00 -0.80982659921E+03  0.80982659922E+03  0.50400001928E-02 0.  1.
    10030    2    1    2    0    0  0.00000000000E+00  0.00000000000E+00 -0.73053165270E+03  0.88912154590E+03  0.50681419454E+03 0.  0.
        3    1    3    3  502    0 -0.20161329174E+03 -0.14209324836E+03 -0.26332200107E+03  0.36080035627E+03  0.10100000352E+00 0.  1.
       -3    1    3    3    0  502  0.20161329174E+03  0.14209324836E+03 -0.46720965162E+03  0.52832118962E+03  0.10100000352E+00 0. -1.
</event>
<event>
 5   0  0.2504064E-01  0.4978491E+03  0.7818609E-02  0.1014342E+00
        2   -1    0    0  501    0  0.00000000000E+00  0.00000000000E+00  0.55443880141E+03  0.55443880142E+03  0.25500000920E-02 0.  1.
       -2   -1    0    0    0  501  0.00000000000E+00  0.00000000000E+00 -0.11175883191E+03  0.11175883193E+03  0.25500000920E-02 0. -1.
    10030    2    1    2    0    0  0.00000000000E+00  0.00000000000E+00  0.44267996951E+03  0.66619763335E+03  0.49784910493E+03 0.  0.
        5    1    3    3  502    0  0.21554700078E+03  0.12329284339E+03  0.19896010052E+03  0.31822766438E+03  0.46999998093E+01 0.  1.
       -5    1    3    3    0  502 -0.21554700078E+03 -0.12329284339E+03  0.24371986898E+03  0.34796996898E+03  0.46999998093E+01 0. -1.
</event>
<event>
 5   0  0.1453602E-01  0.5055982E+03  0.7818609E-02  0.1012328E+00
       -1   -1    0    0    0  501  0.00000000000E+00  0.00000000000E+00  0.54403643483E+03  0.54403643485E+03  0.50400001928E-02 0.  1.
        1   -1    0    0  501    0  0.00000000000E+00  0.00000000000E+00 -0.11746892818E+03  0.11746892829E+03  0.50400001928E-02 0. -1.
    10030    2    1    2    0    0  0.00000000000E+00  0.00000000000E+00  0.42656750665E+03  0.66150536314E+03  0.50559816825E+03 0.  0.
        2    1    3    3  502    0 -0.24812152865E+03 -0.43312617683E+02  0.18500675399E+03  0.31251843923E+03  0.25500000920E-02 0. -1.
       -2    1    3    3    0  502  0.24812152865E+03  0.43312617683E+02  0.24156075266E+03  0.34898692392E+03  0.25500000920E-02 0.  1.
</event>
<event>
 5   0  0.2511944E-01  0.5076549E+03  0.7818609E-02  0.1011800E+00
       -2   -1    0    0    0  501  0.00000000000E+00  0.00000000000E+00  0.31591785205E+03  0.31591785206E+03  0.25500000920E-02 0.  1.
        2   -1    0    0  501    0  0.00000000000E+00  0.00000000000E+00 -0.20394026698E+03  0.20394026700E+03  0.25500000920E-02 0. -1.
    10030    2    1    2    0    0  0.00000000000E+00  0.00000000000E+00  0.11197758507E+03  0.51985811906E+03  0.50765488710E+03 0.  0.
        1    1    3    3  502    0 -0.22102343921E+02 -0.81783927612E+02 -0.18903526853E+03  0.20715080786E+03  0.50400001928E-02 0. -1.
       -1    1    3    3    0  502  0.22102343921E+02  0.81783927612E+02  0.30101285360E+03  0.31270731120E+03  0.50400001928E-02 0.  1.
</event>
<event>
 5   0  0.1453602E-01  0.5082416E+03  0.7818609E-02  0.1011650E+00
       -1   -1    0    0    0  501  0.00000000000E+00  0.00000000000E+00  0.94974044740E+02  0.94974044874E+02  0.50400001928E-02 0. -1.
        1   -1    0    0  501    0  0.00000000000E+00  0.00000000000E+00 -0.67994770356E+03  0.67994770357E+03  0.50400001928E-02 0.  1.
    10030    2    1    2    0    0  0.00000000000E+00  0.00000000000E+00 -0.58497365882E+03  0.77492174845E+03  0.50824161056E+03 0.  0.
        2    1    3    3  502    0  0.27384412211E+02  0.19480360564E+03 -0.47207103495E+02  0.20230388387E+03  0.25500000920E-02 0. -1.
       -2    1    3    3    0  502 -0.27384412211E+02 -0.19480360564E+03 -0.53776655532E+03  0.57261786458E+03  0.25500000920E-02 0.  1.
</event>
<event>
 5   0  0.9868500E-02  0.5040235E+03  0.7818609E-02  0.1012734E+00
        3   -1    0    0  501    0  0.00000000000E+00  0.00000000000E+00  0.57639789258E+02  0.57639877747E+02  0.10100000352E+00 0. -1.
       -3   -1    0    0    0  501  0.00000000000E+00  0.00000000000E+00 -0.11018407225E+04  0.11018407271E+04  0.10100000352E+00 0.  1.
    10030    2    1    2    0    0  0.00000000000E+00  0.00000000000E+00 -0.10442009332E+04  0.11594806048E+04  0.50402349557E+03 0.  0.
        1    1    3    3  502    0 -0.17428878332E+03  0.18199871199E+03 -0.52930562798E+03  0.58622910111E+03  0.50400001928E-02 0.  1.
       -1    1    3    3    0  502  0.17428878332E+03 -0.18199871199E+03 -0.51489530521E+03  0.57325150372E+03  0.50400001928E-02 0. -1.
</event>
<event>
 5   0  0.2413301E-01  0.4482909E+03  0.7818609E-02  0.1028233E+00
       -2   -1    0    0    0  501  0.00000000000E+00  0.00000000000E+00  0.27475085277E+02  0.27475085396E+02  0.25500000920E-02 0. -1.
        2   -1    0    0  501    0  0.00000000000E+00  0.00000000000E+00 -0.18286085789E+04  0.18286085790E+04  0.25500000920E-02 0.  1.
    10030    2    1    2    0    0  0.00000000000E+00  0.00000000000E+00 -0.18011334937E+04  0.18560836643E+04  0.44829087324E+03 0.  0.
        4    1    3    3  502    0  0.12621179786E+03 -0.10495052869E+02 -0.13488075266E+03  0.18502430757E+03  0.12699999809E+01 0. -1.
       -4    1    3    3    0  502 -0.12621179786E+03  0.10495052869E+02 -0.16662527410E+04  0.16710593568E+04  0.12699999809E+01 0.  1.
</event>
<event>
 5   0  0.1453602E-01  0.4983242E+03  0.7818609E-02  0.1014217E+00
       -1   -1    0    0    0  501  0.00000000000E+00  0.00000000000E+00  0.19737253507E+03  0.19737253513E+03  0.50400001928E-02 0.  1.
        1   -1    0    0  501    0  0.00000000000E+00  0.00000000000E+00 -0.31454101749E+03  0.31454101753E+03  0.50400001928E-02 0. -1.
    10030    2    1    2    0    0  0.00000000000E+00  0.00000000000E+00 -0.11716848242E+03  0.51191355267E+03  0.49832422390E+03 0.  0.
        2    1    3    3  502    0  0.13537613493E+03 -0.44937759959E+02 -0.26844839285E+03  0.30399118377E+03  0.25500000920E-02 0. -1.
       -2    1    3    3    0  502 -0.13537613493E+03  0.44937759959E+02  0.15127991043E+03  0.20792236889E+03  0.25500000920E-02 0.  1.
</event>
<event>
 5   0  0.9868500E-02  0.5010861E+03  0.7818609E-02  0.1013496E+00
       -4   -1    0    0    0  501  0.00000000000E+00  0.00000000000E+00  0.48935733502E+03  0.48935898299E+03  0.12699999809E+01 0. -1.
        4   -1    0    0  501    0  0.00000000000E+00  0.00000000000E+00 -0.12826901019E+03  0.12827529721E+03  0.12699999809E+01 0.  1.
    10030    2    1    2    0    0  0.00000000000E+00  0.00000000000E+00  0.36108832483E+03  0.61763428021E+03  0.50108614605E+03 0.  0.
        1    1    3    3  502    0 -0.13787419998E+03 -0.41654308232E+02 -0.72144375597E+02  0.16108751463E+03  0.50400001928E-02 0.  1.
       -1    1    3    3    0  502  0.13787419998E+03  0.41654308232E+02  0.43323270043E+03  0.45654676558E+03  0.50400001928E-02 0. -1.
</event>
<event>
 5   0  0.1413361E-01  0.5043557E+03  0.7818609E-02  0.1012648E+00
        1   -1    0    0  501    0  0.00000000000E+00  0.00000000000E+00  0.22206398578E+03  0.22206398583E+03  0.50400001928E-02 0.  1.
       -1   -1    0    0    0  501  0.00000000000E+00  0.00000000000E+00 -0.28637537354E+03  0.28637537358E+03  0.50400001928E-02 0. -1.
    10030    2    1    2    0    0  0.00000000000E+00  0.00000000000E+00 -0.64311387758E+02  0.50843935942E+03  0.50435565587E+03 0.  0.
        3    1    3    3  502    0  0.22410341533E+03  0.49636244900E+02 -0.13744053749E+03  0.26753693038E+03  0.10100000352E+00 0. -1.
       -3    1    3    3    0  502 -0.22410341533E+03 -0.49636244900E+02  0.73129149734E+02  0.24090242903E+03  0.10100000352E+00 0.  1.
</event>
<event>
 5   0  0.1453602E-01  0.4993555E+03  0.7818609E-02  0.1013947E+00
        1   -1    0    0  501    0  0.00000000000E+00  0.00000000000E+00  0.63967784267E+03  0.63967784269E+03  0.50400001928E-02 0.  1.
       -1   -1    0    0    0  501  0.00000000000E+00  0.00000000000E+00 -0.97453700319E+02  0.97453700449E+02  0.50400001928E-02 0. -1.
    10030    2    1    2    0    0  0.00000000000E+00  0.00000000000E+00  0.54222414235E+03  0.73713154314E+03  0.49935547593E+03 0.  0.
        2    1    3    3  502    0  0.68502649577E+02 -0.19202010006E+03  0.48387793106E+03  0.52507350343E+03  0.25500000920E-02 0.  1.
       -2    1    3    3    0  502 -0.68502649577E+02  0.19202010006E+03  0.58346211288E+02  0.21205803971E+03  0.25500000920E-02 0. -1.
</event>
<event>
 5   0  0.1529146E-01  0.4949959E+03  0.7818609E-02  0.1015093E+00
       -1   -1    0    0    0  501  0.00000000000E+00  0.00000000000E+00  0.15826551751E+03  0.15826551759E+03  0.50400001928E-02 0. -1.
        1   -1    0    0  501    0  0.00000000000E+00  0.00000000000E+00 -0.38704093989E+03  0.38704093992E+03  0.50400001928E-02 0.  1.
    10030    2    1    2    0    0  0.00000000000E+00  0.00000000000E+00 -0.22877542238E+03  0.54530645750E+03  0.49499589767E+03 0.  0.
        1    1    3    3  502    0 -0.10524220617E+03  0.15329025483E+03  0.65558800843E+02  0.19715927718E+03  0.50400001928E-02 0. -1.
       -1    1    3    3    0  502  0.10524220617E+03 -0.15329025483E+03 -0.29433422322E+03  0.34814718033E+03  0.50400001928E-02 0.  1.
</event>
<event>
 5   0  0.9868500E-02  0.5039646E+03  0.7818609E-02  0.1012749E+00
       -3   -1    0    0    0  501  0.00000000000E+00  0.00000000000E+00  0.11855649282E+03  0.11855653584E+03  0.10100000352E+00 0.  1.
        3   -1    0    0  501    0  0.00000000000E+00  0.00000000000E+00 -0.53556794855E+03  0.53556795807E+03  0.10100000352E+00 0. -1.
    10030    2    1    2    0    0  0.00000000000E+00  0.00000000000E+00 -0.41701145573E+03  0.65412449392E+03  0.50396458143E+03 0.  0.
        5    1    3    3  502    0  0.72713861833E+02 -0.11666294425E+03 -0.48254209346E+03  0.50176340064E+03  0.46999998093E+01 0. -1.
       -5    1    3    3    0  502 -0.72713861833E+02  0.11666294425E+03  0.65530637735E+02  0.15236109327E+03  0.46999998093E+01 0.  1.
</event>
<event>
 5   0  0.1413361E-01  0.4837513E+03  0.7818609E-02  0.1018109E+00
        1   -1    0    0  501    0  0.00000000000E+00  0.00000000000E+00  0.18077088694E+03  0.18077088701E+03  0.50400001928E-02 0.  1.
       -1   -1    0    0    0  501  0.00000000000E+00  0.00000000000E+00 -0.32363528391E+03  0.32363528395E+03  0.50400001928E-02 0. -1.
    10030    2    1    2    0    0  0.00000000000E+00  0.00000000000E+00 -0.14286439698E+03  0.50440617096E+03  0.48375133010E+03 0.  0.
        3    1    3    3  502    0 -0.11784035472E+03 -0.89137120033E+02  0.12824378102E+03  0.19564828888E+03  0.10100000352E+00 0.  1.
       -3    1    3    3    0  502  0.11784035472E+03  0.89137120033E+02 -0.27110817800E+03  0.30875788208E+03  0.10100000352E+00 0. -1.
</event>
<event>
 5   0  0.1448458E-01  0.4917521E+03  0.7818609E-02  0.1015954E+00
        1   -1    0    0  501    0  0.00000000000E+00  0.00000000000E+00  0.93987623823E+03  0.93987623824E+03  0.50400001928E-02 0. -1.
       -1   -1    0    0    0  501  0.00000000000E+00  0.00000000000E+00 -0.64322335776E+02  0.64322335973E+02  0.50400001928E-02 0.  1.
    10030    2    1    2    0    0  0.00000000000E+00  0.00000000000E+00  0.87555390245E+03  0.10041985742E+04  0.49175211271E+03 0.  0.
        5    1    3    3  502    0 -0.15313681240E+03 -0.18410310450E+03  0.55125703691E+03  0.60104180149E+03  0.46999998093E+01 0. -1.
       -5    1    3    3    0  502  0.15313681240E+03  0.18410310450E+03  0.32429686555E+03  0.40315677273E+03  0.46999998093E+01 0.  1.
</event>
<event>
 5   0  0.1448458E-01  0.4899143E+03  0.7818609E-02  0.1016445E+00
       -1   -1    0    0    0  501  0.00000000000E+00  0.00000000000E+00  0.94436937878E+02  0.94436938012E+02  0.50400001928E-02 0. -1.
        1   -1    0    0  501    0  0.00000000000E+00  0.00000000000E+00 -0.63538701810E+03  0.63538701812E+03  0.50400001928E-02 0.  1.
    10030    2    1    2    0    0  0.00000000000E+00  0.00000000000E+00 -0.54095008023E+03  0.72982395614E+03  0.48991429623E+03 0.  0.
        5    1    3    3  502    0 -0.10376087519E+03 -0.21111900262E+03 -0.37199724239E+03  0.44016086926E+03  0.46999998093E+01 0.  1.
       -5    1    3    3    0  502  0.10376087519E+03  0.21111900262E+03 -0.16895283784E+03  0.28966308687E+03  0.46999998093E+01 0. -1.
</event>
<event>
 5   0  0.2413301E-01  0.4930834E+03  0.7818609E-02  0.1015600E+00
       -2   -1    0    0    0  501  0.00000000000E+00  0.00000000000E+00  0.74139005566E+02  0.74139005610E+02  0.25500000920E-02 0. -1.
        2   -1    0    0  501    0  0.00000000000E+00  0.00000000000E+00 -0.81984922447E+03  0.81984922447E+03  0.25500000920E-02 0.  1.
    10030    2    1    2    0    0  0.00000000000E+00  0.00000000000E+00 -0.74571021890E+03  0.89398823008E+03  0.49308338539E+03 0.  0.
        4    1    3    3  502    0 -0.17864813665E+03 -0.47415862433E+02 -0.66865450842E+03  0.69373185401E+03  0.12699999809E+01 0.  1.
       -4    1    3    3    0  502  0.17864813665E+03  0.47415862433E+02 -0.77055710483E+02  0.20025637607E+03  0.12699999809E+01 0. -1.
</event>
<event>
 5   0  0.1439814E-01  0.5930411E+03  0.7818609E-02  0.9919950E-01
       -1   -1    0    0    0  501  0.00000000000E+00  0.00000000000E+00  0.10870821061E+03  0.10870821073E+03  0.50400001928E-02 0. -1.
        1   -1    0    0  501    0  0.00000000000E+00  0.00000000000E+00 -0.80881149772E+03  0.80881149773E+03  0.50400001928E-02 0.  1.
    10030    2    1    2    0    0  0.00000000000E+00  0.00000000000E+00 -0.70010328711E+03  0.91751970846E+03  0.59304114765E+03 0.  0.
        4    1    3    3  502    0 -0.16382852006E+03 -0.44381758367E+02 -0.72621217507E+03  0.74578499622E+03  0.12699999809E+01 0.  1.
       -4    1    3    3    0  502  0.16382852006E+03  0.44381758367E+02  0.26108887967E+02  0.17173471225E+03  0.12699999809E+01 0. -1.
</event>
<event>
 5   0  0.2466034E-01  0.5018739E+03  0.7818609E-02  0.1013291E+00
        2   -1    0    0  501    0  0.00000000000E+00  0.00000000000E+00  0.10460177284E+04  0.10460177284E+04  0.25500000920E-02 0. -1.
       -2   -1    0    0    0  501  0.00000000000E+00  0.00000000000E+00 -0.60199126490E+02  0.60199126544E+02  0.25500000920E-02 0.  1.
    10030    2    1    2    0    0  0.00000000000E+00  0.00000000000E+00  0.98581860191E+03  0.11062168549E+04  0.50187390278E+03 0.  0.
        3    1    3    3  502    0  0.88579949941E+02  0.18468326481E+03  0.81243856560E+03  0.83786081715E+03  0.10100000352E+00 0. -1.
       -3    1    3    3    0  502 -0.88579949941E+02 -0.18468326481E+03  0.17338003631E+03  0.26835603780E+03  0.10100000352E+00 0.  1.
</event>
<event>
 5   0  0.9868500E-02  0.4927670E+03  0.7818609E-02  0.1015684E+00
       -3   -1    0    0    0  501  0.00000000000E+00  0.00000000000E+00  0.59082395882E+02  0.59082482211E+02  0.10100000352E+00 0. -1.
        3   -1    0    0  501    0  0.00000000000E+00  0.00000000000E+00 -0.10274598329E+04  0.10274598379E+04  0.10100000352E+00 0.  1.
    10030    2    1    2    0    0  0.00000000000E+00  0.00000000000E+00 -0.96837743703E+03  0.10865423201E+04  0.49276703704E+03 0.  0.
        1    1    3    3  502    0 -0.10017146375E+03  0.54892137527E+02 -0.28286831155E+01  0.11426053731E+03  0.50400001928E-02 0. -1.
       -1    1    3    3    0  502  0.10017146375E+03 -0.54892137527E+02 -0.96554875391E+03  0.97228178278E+03  0.50400001928E-02 0.  1.
</event>
<event>
 5   0  0.2511944E-01  0.5016333E+03  0.7818609E-02  0.1013353E+00
        2   -1    0    0  501    0  0.00000000000E+00  0.00000000000E+00  0.15703669564E+04  0.15703669564E+04  0.25500000920E-02 0. -1.
       -2   -1    0    0    0  501  0.00000000000E+00  0.00000000000E+00 -0.40060054254E+02  0.40060054335E+02  0.25500000920E-02 0.  1.
    10030    2    1    2    0    0  0.00000000000E+00  0.00000000000E+00  0.15303069021E+04  0.16104270107E+04  0.50163327457E+03 0.  0.
        1    1    3    3  502    0 -0.72770354188E+02 -0.81295384108E+01 -0.49826040937E+01  0.73392371622E+02  0.50400001928E-02 0.  1.
       -1    1    3    3    0  502  0.72770354188E+02  0.81295384108E+01  0.15352895062E+04  0.15370346391E+04  0.50400001928E-02 0. -1.
</event>
<event>
 5   0  0.1453602E-01  0.4976620E+03  0.7818609E-02  0.1014391E+00
        1   -1    0    0  501    0  0.00000000000E+00  0.00000000000E+00  0.14384757364E+03  0.14384757372E+03  0.50400001928E-02 0. -1.
       -1   -1    0    0    0  501  0.00000000000E+00  0.00000000000E+00 -0.43043389518E+03  0.43043389521E+03  0.50400001928E-02 0.  1.
    10030    2    1    2    0    0  0.00000000000E+00  0.00000000000E+00 -0.28658632155E+03  0.57428146894E+03  0.49766201971E+03 0.  0.
        2    1    3    3  502    0 -0.11696885884E+03 -0.21956646514E+03 -0.14914600819E+03  0.29006150782E+03  0.25500000920E-02 0.  1.
       -2    1    3    3    0  502  0.11696885884E+03  0.21956646514E+03 -0.13744031336E+03  0.28421996111E+03  0.25500000920E-02 0. -1.
</event>
<event>
 5   0  0.2511944E-01  0.4896965E+03  0.7818609E-02  0.1016504E+00
        2   -1    0    0  501    0  0.00000000000E+00  0.00000000000E+00  0.21551295857E+03  0.21551295858E+03  0.25500000920E-02 0.  1.
       -2   -1    0    0    0  501  0.00000000000E+00  0.00000000000E+00 -0.27817658473E+03  0.27817658474E+03  0.25500000920E-02 0. -1.
    10030    2    1    2    0    0  0.00000000000E+00  0.00000000000E+00 -0.62663626160E+02  0.49368954332E+03  0.48969647246E+03 0.  0.
        1    1    3    3  502    0 -0.48164072065E+02 -0.17035817107E+03  0.13918927618E+03  0.22520066367E+03  0.50400001928E-02 0.  1.
       -1    1    3    3    0  502  0.48164072065E+02  0.17035817107E+03 -0.20185290234E+03  0.26848887965E+03  0.50400001928E-02 0. -1.
</event>
<event>
 5   0  0.2466034E-01  0.5004164E+03  0.7818609E-02  0.1013670E+00
        2   -1    0    0  501    0  0.00000000000E+00  0.00000000000E+00  0.21972276325E+04  0.21972276325E+04  0.25500000920E-02 0. -1.
       -2   -1    0    0    0  501  0.00000000000E+00  0.00000000000E+00 -0.28492333305E+02  0.28492333419E+02  0.25500000920E-02 0.  1.
    10030    2    1    2    0    0  0.00000000000E+00  0.00000000000E+00  0.21687352992E+04  0.22257199659E+04  0.50041639534E+03 0.  0.
        3    1    3    3  502    0  0.17811524076E+03  0.56949352966E+02  0.18237609588E+04  0.18333227519E+04  0.10100000352E+00 0. -1.
       -3    1    3    3    0  502 -0.17811524076E+03 -0.56949352966E+02  0.34497434040E+03  0.39239721397E+03  0.10100000352E+00 0.  1.
</event>
<event>
 5   0  0.1453602E-01  0.5020884E+03  0.7818609E-02  0.1013235E+00
        1   -1    0    0  501    0  0.00000000000E+00  0.00000000000E+00  0.10160496786E+04  0.10160496786E+04  0.50400001928E-02 0. -1.
       -1   -1    0    0    0  501  0.00000000000E+00  0.00000000000E+00 -0.62027654836E+02  0.62027655041E+02  0.50400001928E-02 0.  1.
    10030    2    1    2    0    0  0.00000000000E+00  0.00000000000E+00  0.95402202374E+03  0.10780773336E+04  0.50208835428E+03 0.  0.
        2    1    3    3  502    0 -0.91848801268E+02  0.14504407214E+03  0.83722907592E+02  0.19100657167E+03  0.25500000920E-02 0.  1.
       -2    1    3    3    0  502  0.91848801268E+02 -0.14504407214E+03  0.87029911615E+03  0.88707076197E+03  0.25500000920E-02 0. -1.
</event>
<event>
 5   0  0.2466034E-01  0.5015786E+03  0.7818609E-02  0.1013368E+00
        2   -1    0    0  501    0  0.00000000000E+00  0.00000000000E+00  0.79587949076E+03  0.79587949077E+03  0.25500000920E-02 0.  1.
       -2   -1    0    0    0  501  0.00000000000E+00  0.00000000000E+00 -0.79026123563E+02  0.79026123604E+02  0.25500000920E-02 0. -1.
    10030    2    1    2    0    0  0.00000000000E+00  0.00000000000E+00  0.71685336720E+03  0.87490561437E+03  0.50157859204E+03 0.  0.
        3    1    3    3  502    0  0.17818251589E+03  0.13917915081E+03  0.54770912862E+03  0.59254125997E+03  0.10100000352E+00 0.  1.
       -3    1    3    3    0  502 -0.17818251589E+03 -0.13917915081E+03  0.16914423858E+03  0.28236435440E+03  0.10100000352E+00 0. -1.
</event>
<event>
 5   0  0.1439814E-01  0.5258680E+03  0.7818609E-02  0.1007239E+00
       -1   -1    0    0    0  501  0.00000000000E+00  0.00000000000E+00  0.16785333048E+03  0.16785333056E+03  0.50400001928E-02 0.  1.
        1   -1    0    0  501    0  0.00000000000E+00  0.00000000000E+00 -0.41187327265E+03  0.41187327268E+03  0.50400001928E-02 0. -1.
    10030    2    1    2    0    0  0.00000000000E+00  0.00000000000E+00 -0.24401994216E+03  0.57972660323E+03  0.52586804650E+03 0.  0.
        4    1    3    3  502    0  0.22014140788E+03 -0.13780853247E+03 -0.16718568031E+03  0.30887877182E+03  0.12699999809E+01 0.  1.
       -4    1    3    3    0  502 -0.22014140788E+03  0.13780853247E+03 -0.76834261857E+02  0.27084783141E+03  0.12699999809E+01 0. -1.
</event>
<event>
 5   0  0.9868500E-02  0.4938492E+03  0.7818609E-02  0.1015397E+00
       -4   -1    0    0    0  501  0.00000000000E+00  0.00000000000E+00  0.48475307767E+03  0.48475474130E+03  0.12699999809E+01 0.  1.
        4   -1    0    0  501    0  0.00000000000E+00  0.00000000000E+00 -0.12577390081E+03  0.12578031255E+03  0.12699999809E+01 0. -1.
    10030    2    1    2    0    0  0.00000000000E+00  0.00000000000E+00  0.35897917686E+03  0.61053505384E+03  0.49384916984E+03 0.  0.
        3    1    3    3  502    0  0.12235049612E+03 -0.29967051632E+02  0.44204692220E+03  0.45964460153E+03  0.10100000352E+00 0.  1.
       -3    1    3    3    0  502 -0.12235049612E+03  0.29967051632E+02 -0.83067745341E+02  0.15089045232E+03  0.10100000352E+00 0. -1.
</event>
<event>
 5   0  0.1439814E-01  0.5008504E+03  0.7818609E-02  0.1013557E+00
        1   -1    0    0  501    0  0.00000000000E+00  0.00000000000E+00  0.20852825372E+03  0.20852825378E+03  0.50400001928E-02 0.  1.
       -1   -1    0    0    0  501  0.00000000000E+00  0.00000000000E+00 -0.30073997021E+03  0.30073997025E+03  0.50400001928E-02 0. -1.
    10030    2    1    2    0    0  0.00000000000E+00  0.00000000000E+00 -0.92211716491E+02  0.50926822404E+03  0.50085040018E+03 0.  0.
        4    1    3    3  502    0 -0.35513132862E+02  0.13843309023E+03  0.16298652695E+03  0.21677436182E+03  0.12699999809E+01 0.  1.
       -4    1    3    3    0  502  0.35513132862E+02 -0.13843309023E+03 -0.25519824344E+03  0.29249386221E+03  0.12699999809E+01 0. -1.
</event>
<event>
 5   0  0.2511944E-01  0.4926417E+03  0.7818609E-02  0.1015718E+00
        2   -1    0    0  501    0  0.00000000000E+00  0.00000000000E+00  0.24810322840E+03  0.24810322842E+03  0.25500000920E-02 0. -1.
       -2   -1    0    0    0  501  0.00000000000E+00  0.00000000000E+00 -0.24455123195E+03  0.24455123197E+03  0.25500000920E-02 0.  1.
    10030    2    1    2    0    0  0.00000000000E+00  0.00000000000E+00  0.35519964497E+01  0.49265446038E+03  0.49264165542E+03 0.  0.
        1    1    3    3  502    0 -0.23182841349E+02  0.24264275695E+03  0.37287461975E+02  0.24658326480E+03  0.50400001928E-02 0. -1.
       -1    1    3    3    0  502  0.23182841349E+02 -0.24264275695E+03 -0.33735465525E+02  0.24607119558E+03  0.50400001928E-02 0.  1.
</event>
<event>
 5   0  0.1529146E-01  0.6166032E+03  0.7818609E-02  0.9871546E-01
       -1   -1    0    0    0  501  0.00000000000E+00  0.00000000000E+00  0.12970803878E+03  0.12970803888E+03  0.50400001928E-02 0.  1.
        1   -1    0    0  501    0  0.00000000000E+00  0.00000000000E+00 -0.73279863533E+03  0.73279863535E+03  0.50400001928E-02 0. -1.
    10030    2    1    2    0    0  0.00000000000E+00  0.00000000000E+00 -0.60309059655E+03  0.86250667423E+03  0.61660319123E+03 0.  0.
        1    1    3    3  502    0  0.70573965464E+02 -0.21282051305E+03 -0.55516834638E+01  0.22428570304E+03  0.50400001928E-02 0.  1.
       -1    1    3    3    0  502 -0.70573965464E+02  0.21282051305E+03 -0.59753891309E+03  0.63822097118E+03  0.50400001928E-02 0. -1.
</event>
<event>
 5   0  0.1453602E-01  0.5366749E+03  0.7818609E-02  0.1004626E+00
        1   -1    0    0  501    0  0.00000000000E+00  0.00000000000E+00  0.34498880426E+03  0.34498880430E+03  0.50400001928E-02 0.  1.
       -1   -1    0    0    0  501  0.00000000000E+00  0.00000000000E+00 -0.20871686997E+03  0.20871687003E+03  0.50400001928E-02 0. -1.
    10030    2    1    2    0    0  0.00000000000E+00  0.00000000000E+00  0.13627193429E+03  0.55370567432E+03  0.53667488641E+03 0.  0.
        2    1    3    3  502    0  0.17540783703E+03 -0.11038823389E+03  0.24398989409E+03  0.32013206634E+03  0.25500000920E-02 0.  1.
       -2    1    3    3    0  502 -0.17540783703E+03  0.11038823389E+03 -0.10771795980E+03  0.23357360798E+03  0.25500000920E-02 0. -1.
</event>
<event>
 5   0  0.2488968E-01  0.5082749E+03  0.7818609E-02  0.1011641E+00
        2   -1    0    0  501    0  0.00000000000E+00  0.00000000000E+00  0.42417319033E+03  0.42417319033E+03  0.25500000920E-02 0. -1.
       -2   -1    0    0    0  501  0.00000000000E+00  0.00000000000E+00 -0.15226289672E+03  0.15226289674E+03  0.25500000920E-02 0.  1.
    10030    2    1    2    0    0  0.00000000000E+00  0.00000000000E+00  0.27191029360E+03  0.57643608708E+03  0.50827488106E+03 0.  0.
        2    1    3    3  502    0  0.50973223604E+02  0.17025074969E+03 -0.70071928782E+02  0.19103314504E+03  0.25500000920E-02 0.  1.
       -2    1    3    3    0  502 -0.50973223604E+02 -0.17025074969E+03  0.34198222239E+03  0.38540294204E+03  0.25500000920E-02 0. -1.
</event>
<event>
 5   0  0.2488968E-01  0.5005674E+03  0.7818609E-02  0.1013631E+00
       -2   -1    0    0    0  501  0.00000000000E+00  0.00000000000E+00  0.98960899610E+02  0.98960899643E+02  0.25500000920E-02 0. -1.
        2   -1    0    0  501    0  0.00000000000E+00  0.00000000000E+00 -0.63299674887E+03  0.63299674887E+03  0.25500000920E-02 0.  1.
    10030    2    1    2    0    0  0.00000000000E+00  0.00000000000E+00 -0.53403584926E+03  0.73195764851E+03  0.50056738900E+03 0.  0.
        2    1    3    3  502    0  0.64798924387E+02  0.17294157435E+03 -0.51402338140E+03  0.54619385329E+03  0.25500000920E-02 0.  1.
       -2    1    3    3    0  502 -0.64798924387E+02 -0.17294157435E+03 -0.20012467860E+02  0.18576379523E+03  0.25500000920E-02 0. -1.
</event>
<event>
 5   0  0.9868500E-02  0.5904868E+03  0.7818609E-02  0.9925342E-01
       -4   -1    0    0    0  501  0.00000000000E+00  0.00000000000E+00  0.35554855949E+03  0.35555082767E+03  0.12699999809E+01 0.  1.
        4   -1    0    0  501    0  0.00000000000E+00  0.00000000000E+00 -0.24516200357E+03  0.24516529300E+03  0.12699999809E+01 0. -1.
    10030    2    1    2    0    0  0.00000000000E+00  0.00000000000E+00  0.11038655592E+03  0.60071612067E+03  0.59048680417E+03 0.  0.
        2    1    3    3  502    0 -0.14428277315E+03  0.17352450696E+03  0.24886024055E+03  0.33594596660E+03  0.25500000920E-02 0.  1.
       -2    1    3    3    0  502  0.14428277315E+03 -0.17352450696E+03 -0.13847368463E+03  0.26477015406E+03  0.25500000920E-02 0. -1.
</event>
<event>
 5   0  0.2511944E-01  0.4989195E+03  0.7818609E-02  0.1014061E+00
       -2   -1    0    0    0  501  0.00000000000E+00  0.00000000000E+00  0.85744012378E+02  0.85744012416E+02  0.25500000920E-02 0.  1.
        2   -1    0    0  501    0  0.00000000000E+00  0.00000000000E+00 -0.72576689496E+03  0.72576689497E+03  0.25500000920E-02 0. -1.
    10030    2    1    2    0    0  0.00000000000E+00  0.00000000000E+00 -0.64002288258E+03  0.81151090738E+03  0.49891949508E+03 0.  0.
        1    1    3    3  502    0  0.12846241591E+03  0.61084602126E+02  0.13314501459E+02  0.14286776016E+03  0.50400001928E-02 0.  1.
       -1    1    3    3    0  502 -0.12846241591E+03 -0.61084602126E+02 -0.65333738404E+03  0.66864314723E+03  0.50400001928E-02 0. -1.
</event>
<event>
 5   0  0.1529146E-01  0.5039260E+03  0.7818609E-02  0.1012759E+00
       -1   -1    0    0    0  501  0.00000000000E+00  0.00000000000E+00  0.18386312929E+03  0.18386312936E+03  0.50400001928E-02 0.  1.
        1   -1    0    0  501    0  0.00000000000E+00  0.00000000000E+00 -0.34528596944E+03  0.34528596948E+03  0.50400001928E-02 0. -1.
    10030    2    1    2    0    0  0.00000000000E+00  0.00000000000E+00 -0.16142284015E+03  0.52914909883E+03  0.50392602183E+03 0.  0.
        1    1    3    3  502    0 -0.18067420730E+02 -0.19754393552E+03 -0.24384291370E+03  0.31433963279E+03  0.50400001928E-02 0. -1.
       -1    1    3    3    0  502  0.18067420730E+02  0.19754393552E+03  0.82420073551E+02  0.21480946605E+03  0.50400001928E-02 0.  1.
</event>
<event>
 5   0  0.2413301E-01  0.4961306E+03  0.7818609E-02  0.1014794E+00
       -2   -1    0    0    0  501  0.00000000000E+00  0.00000000000E+00  0.14516926462E+03  0.14516926464E+03  0.25500000920E-02 0.  1.
        2   -1    0    0  501    0  0.00000000000E+00  0.00000000000E+00 -0.42389404934E+03  0.42389404935E+03  0.25500000920E-02 0. -1.
    10030    2    1    2    0    0  0.00000000000E+00  0.00000000000E+00 -0.27872478473E+03  0.56906331399E+03  0.49613057728E+03 0.  0.
        4    1    3    3  502    0  0.24215078087E+03 -0.52271658297E+02 -0.15411588397E+03  0.29175785427E+03  0.12699999809E+01 0. -1.
       -4    1    3    3    0  502 -0.24215078087E+03  0.52271658297E+02 -0.12460890076E+03  0.27730545972E+03  0.12699999809E+01 0.  1.
</event>
<event>
 5   0  0.2504064E-01  0.4981510E+03  0.7818609E-02  0.1014263E+00
       -2   -1    0    0    0  501  0.00000000000E+00  0.00000000000E+00  0.10022577409E+03  0.10022577412E+03  0.25500000920E-02 0.  1.
        2   -1    0    0  501    0  0.00000000000E+00  0.00000000000E+00 -0.61898851884E+03  0.61898851884E+03  0.25500000920E-02 0. -1.
    10030    2    1    2    0    0  0.00000000000E+00  0.00000000000E+00 -0.51876274475E+03  0.71921429296E+03  0.49815099505E+03 0.  0.
        5    1    3    3  502    0 -0.11084273467E+03  0.12125507312E+03  0.10829334306E+02  0.16470661513E+03  0.46999998093E+01 0.  1.
       -5    1    3    3    0  502  0.11084273467E+03 -0.12125507312E+03 -0.52959207905E+03  0.55450767784E+03  0.46999998093E+01 0. -1.
</event>
<event>
 5   0  0.2466034E-01  0.3441267E+03  0.7818609E-02  0.1065052E+00
       -2   -1    0    0    0  501  0.00000000000E+00  0.00000000000E+00  0.32108466028E+02  0.32108466129E+02  0.25500000920E-02 0. -1.
        2   -1    0    0  501    0  0.00000000000E+00  0.00000000000E+00 -0.92205575525E+03  0.92205575525E+03  0.25500000920E-02 0.  1.
    10030    2    1    2    0    0  0.00000000000E+00  0.00000000000E+00 -0.88994728922E+03  0.95416422138E+03  0.34412669727E+03 0.  0.
        3    1    3    3  502    0 -0.10251527243E+03  0.13133344474E+03 -0.32578150078E+03  0.36591180801E+03  0.10100000352E+00 0. -1.
       -3    1    3    3    0  502  0.10251527243E+03 -0.13133344474E+03 -0.56416578844E+03  0.58825241338E+03  0.10100000352E+00 0.  1.
</event>
<event>
 5   0  0.1529146E-01  0.5007818E+03  0.7818609E-02  0.1013575E+00
       -1   -1    0    0    0  501  0.00000000000E+00  0.00000000000E+00  0.45884446009E+02  0.45884446286E+02  0.50400001928E-02 0. -1.
        1   -1    0    0  501    0  0.00000000000E+00  0.00000000000E+00 -0.13663804028E+04  0.13663804028E+04  0.50400001928E-02 0.  1.
    10030    2    1    2    0    0  0.00000000000E+00  0.00000000000E+00 -0.13204959568E+04  0.14122648491E+04  0.50078182085E+03 0.  0.
        1    1    3    3  502    0  0.10229696684E+03 -0.15136552814E+03 -0.17736127314E+03  0.25462367087E+03  0.50400001928E-02 0. -1.
       -1    1    3    3    0  502 -0.10229696684E+03  0.15136552814E+03 -0.11431346836E+04  0.11576411782E+04  0.50400001928E-02 0.  1.
</event>
<event>
 5   0  0.9868500E-02  0.5015816E+03  0.7818609E-02  0.1013367E+00
       -4   -1    0    0    0  501  0.00000000000E+00  0.00000000000E+00  0.14117007081E+03  0.14117578331E+03  0.12699999809E+01 0.  1.
        4   -1    0    0  501    0  0.00000000000E+00  0.00000000000E+00 -0.44551808358E+03  0.44551989372E+03  0.12699999809E+01 0. -1.
    10030    2    1    2    0    0  0.00000000000E+00  0.00000000000E+00 -0.30434801277E+03  0.58669567703E+03  0.50158160309E+03 0.  0.
        1    1    3    3  502    0 -0.19534180844E+03 -0.60637064879E+02  0.17575378470E+02  0.20529045208E+03  0.50400001928E-02 0.  1.
       -1    1    3    3    0  502  0.19534180844E+03  0.60637064879E+02 -0.32192339124E+03  0.38140522495E+03  0.50400001928E-02 0. -1.
</event>
<event>
 5   0  0.1453602E-01  0.4803802E+03  0.7818609E-02  0.1019031E+00
        1   -1    0    0  501    0  0.00000000000E+00  0.00000000000E+00  0.33606639598E+03  0.33606639602E+03  0.50400001928E-02 0. -1.
       -1   -1    0    0    0  501  0.00000000000E+00  0.00000000000E+00 -0.17166636268E+03  0.17166636276E+03  0.50400001928E-02 0.  1.
    10030    2    1    2    0    0  0.00000000000E+00  0.00000000000E+00  0.16440003330E+03  0.50773275877E+03  0.48038024875E+03 0.  0.
        2    1    3    3  502    0  0.60852829788E+02 -0.12192869096E+03 -0.12685398036E+03  0.18617627376E+03  0.25500000920E-02 0.  1.
       -2    1    3    3    0  502 -0.60852829788E+02  0.12192869096E+03  0.29125401366E+03  0.32155648501E+03  0.25500000920E-02 0. -1.
</event>
<event>
 5   0  0.2488968E-01  0.5040622E+03  0.7818609E-02  0.1012724E+00
        2   -1    0    0  501    0  0.00000000000E+00  0.00000000000E+00  0.25362097047E+03  0.25362097048E+03  0.25500000920E-02 0. -1.
       -2   -1    0    0    0  501  0.00000000000E+00  0.00000000000E+00 -0.25045119797E+03  0.25045119798E+03  0.25500000920E-02 0.  1.
    10030    2    1    2    0    0  0.00000000000E+00  0.00000000000E+00  0.31697724988E+01  0.50407216846E+03  0.50406220208E+03 0.  0.
        2    1    3    3  502    0  0.24566316032E+03  0.17989591221E+01  0.57853674160E+02  0.25238992098E+03  0.25500000920E-02 0. -1.
       -2    1    3    3    0  502 -0.24566316032E+03 -0.17989591221E+01 -0.54683901661E+02  0.25168224748E+03  0.25500000920E-02 0.  1.
</event>
<event>
 5   0  0.2413301E-01  0.4988998E+03  0.7818609E-02  0.1014066E+00
        2   -1    0    0  501    0  0.00000000000E+00  0.00000000000E+00  0.42053032426E+03  0.42053032426E+03  0.25500000920E-02 0. -1.
       -2   -1    0    0    0  501  0.00000000000E+00  0.00000000000E+00 -0.14796855507E+03  0.14796855509E+03  0.25500000920E-02 0.  1.
    10030    2    1    2    0    0  0.00000000000E+00  0.00000000000E+00  0.27256176918E+03  0.56849887936E+03  0.49889984748E+03 0.  0.
        4    1    3    3  502    0  0.24558544729E+03  0.40594298281E+02  0.11778216642E+03  0.27538039255E+03  0.12699999809E+01 0.  1.
       -4    1    3    3    0  502 -0.24558544729E+03 -0.40594298281E+02  0.15477960276E+03  0.29311848681E+03  0.12699999809E+01 0. -1.
</event>
<event>
 5   0  0.2504064E-01  0.4997332E+03  0.7818609E-02  0.1013849E+00
        2   -1    0    0  501    0  0.00000000000E+00  0.00000000000E+00  0.33961067406E+03  0.33961067407E+03  0.25500000920E-02 0. -1.
       -2   -1    0    0    0  501  0.00000000000E+00  0.00000000000E+00 -0.18383789657E+03  0.18383789659E+03  0.25500000920E-02 0.  1.
    10030    2    1    2    0    0  0.00000000000E+00  0.00000000000E+00  0.15577277749E+03  0.52344857067E+03  0.49973317673E+03 0.  0.
        5    1    3    3  502    0 -0.23316900576E+03  0.87543267154E+02  0.98294670330E+02  0.26779757483E+03  0.46999998093E+01 0. -1.
       -5    1    3    3    0  502  0.23316900576E+03 -0.87543267154E+02  0.57478107159E+02  0.25565099584E+03  0.46999998093E+01 0.  1.
</event>
<event>
 5   0  0.1439814E-01  0.5027794E+03  0.7818609E-02  0.1013056E+00
       -1   -1    0    0    0  501  0.00000000000E+00  0.00000000000E+00  0.51680738113E+03  0.51680738116E+03  0.50400001928E-02 0.  1.
        1   -1    0    0  501    0  0.00000000000E+00  0.00000000000E+00 -0.12228306345E+03  0.12228306356E+03  0.50400001928E-02 0. -1.
    10030    2    1    2    0    0  0.00000000000E+00  0.00000000000E+00  0.39452431768E+03  0.63909044471E+03  0.50277943403E+03 0.  0.
        4    1    3    3  502    0  0.19869764825E+03  0.13827065169E+03  0.28343258010E+03  0.37274008223E+03  0.12699999809E+01 0. -1.
       -4    1    3    3    0  502 -0.19869764825E+03 -0.13827065169E+03  0.11109173758E+03  0.26635036249E+03  0.12699999809E+01 0.  1.
</event>
<event>
 5   0  0.1439814E-01  0.5003434E+03  0.7818609E-02  0.1013689E+00
        1   -1    0    0  501    0  0.00000000000E+00  0.00000000000E+00  0.84413711112E+03  0.84413711114E+03  0.50400001928E-02 0. -1.
       -1   -1    0    0    0  501  0.00000000000E+00  0.00000000000E+00 -0.74141851228E+02  0.74141851399E+02  0.50400001928E-02 0.  1.
    10030    2    1    2    0    0  0.00000000000E+00  0.00000000000E+00  0.76999525990E+03  0.91827896254E+03  0.50034343483E+03 0.  0.
        4    1    3    3  502    0 -0.14950716862E+03  0.19427462408E+03  0.47656503034E+03  0.53592057627E+03  0.12699999809E+01 0.  1.
       -4    1    3    3    0  502  0.14950716862E+03 -0.19427462408E+03  0.29343022955E+03  0.38235838626E+03  0.12699999809E+01 0. -1.
</event>
<event>
 5   0  0.2488968E-01  0.5018266E+03  0.7818609E-02  0.1013303E+00
       -2   -1    0    0    0  501  0.00000000000E+00  0.00000000000E+00  0.11061024638E+03  0.11061024641E+03  0.25500000920E-02 0.  1.
        2   -1    0    0  501    0  0.00000000000E+00  0.00000000000E+00 -0.56918318251E+03  0.56918318251E+03  0.25500000920E-02 0. -1.
    10030    2    1    2    0    0  0.00000000000E+00  0.00000000000E+00 -0.45857293613E+03  0.67979342892E+03  0.50182663167E+03 0.  0.
        2    1    3    3  502    0  0.22052425536E+03  0.56647668359E+02 -0.37211945423E+03  0.43624854585E+03  0.25500000920E-02 0. -1.
       -2    1    3    3    0  502 -0.22052425536E+03 -0.56647668359E+02 -0.86453481902E+02  0.24354488308E+03  0.25500000920E-02 0.  1.
</event>
<event>
 5   0  0.2511944E-01  0.5019293E+03  0.7818609E-02  0.1013277E+00
       -2   -1    0    0    0  501  0.00000000000E+00  0.00000000000E+00  0.24493824719E+03  0.24493824720E+03  0.25500000920E-02 0. -1.
        2   -1    0    0  501    0  0.00000000000E+00  0.00000000000E+00 -0.25713934877E+03  0.25713934878E+03  0.25500000920E-02 0.  1.
    10030    2    1    2    0    0  0.00000000000E+00  0.00000000000E+00 -0.12201101580E+02  0.50207759598E+03  0.50192932322E+03 0.  0.
        1    1    3    3  502    0 -0.24529544603E+03  0.16022414762E+02  0.44478085769E+02  0.24980967507E+03  0.50400001928E-02 0. -1.
       -1    1    3    3    0  502  0.24529544603E+03 -0.16022414762E+02 -0.56679187349E+02  0.25226792092E+03  0.50400001928E-02 0.  1.
</event>
<event>
 5   0  0.2511944E-01  0.4897910E+03  0.7818609E-02  0.1016478E+00
       -2   -1    0    0    0  501  0.00000000000E+00  0.00000000000E+00  0.62478796188E+02  0.62478796240E+02  0.25500000920E-02 0. -1.
        2   -1    0    0  501    0  0.00000000000E+00  0.00000000000E+00 -0.95990652029E+03  0.95990652029E+03  0.25500000920E-02 0.  1.
    10030    2    1    2    0    0  0.00000000000E+00  0.00000000000E+00 -0.89742772410E+03  0.10223853165E+04  0.48979099162E+03 0.  0.
        1    1    3    3  502    0  0.18363338460E+03  0.16194316495E+03 -0.45955930549E+03  0.52071255401E+03  0.50400001928E-02 0.  1.
       -1    1    3    3    0  502 -0.18363338460E+03 -0.16194316495E+03 -0.43786841861E+03  0.50167276252E+03  0.50400001928E-02 0. -1.
</event>
<event>
 5   0  0.9868500E-02  0.5007839E+03  0.7818609E-02  0.1013575E+00
       -4   -1    0    0    0  501  0.00000000000E+00  0.00000000000E+00  0.11316843918E+03  0.11317556506E+03  0.12699999809E+01 0. -1.
        4   -1    0    0  501    0  0.00000000000E+00  0.00000000000E+00 -0.55398196316E+03  0.55398341889E+03  0.12699999809E+01 0.  1.
    10030    2    1    2    0    0  0.00000000000E+00  0.00000000000E+00 -0.44081352398E+03  0.66715898395E+03  0.50078393240E+03 0.  0.
        5    1    3    3  502    0  0.12115133475E+02  0.10102530116E+03 -0.52513845854E+03  0.53492558227E+03  0.46999998093E+01 0.  1.
       -5    1    3    3    0  502 -0.12115133475E+02 -0.10102530116E+03  0.84324934559E+02  0.13223340168E+03  0.46999998093E+01 0. -1.
</event>
<event>
 5   0  0.2504064E-01  0.5086240E+03  0.7818609E-02  0.1011552E+00
       -2   -1    0    0    0  501  0.00000000000E+00  0.00000000000E+00  0.40491599932E+03  0.40491599933E+03  0.25500000920E-02 0.  1.
        2   -1    0    0  501    0  0.00000000000E+00  0.00000000000E+00 -0.15972345632E+03  0.15972345634E+03  0.25500000920E-02 0. -1.
    10030    2    1    2    0    0  0.00000000000E+00  0.00000000000E+00  0.24519254300E+03  0.56463945567E+03  0.50862395908E+03 0.  0.
        5    1    3    3  502    0 -0.20209953793E+03 -0.89511935266E+02  0.26211945100E+03  0.34290713958E+03  0.46999998093E+01 0.  1.
       -5    1    3    3    0  502  0.20209953793E+03  0.89511935266E+02 -0.16926907993E+02  0.22173231609E+03  0.46999998093E+01 0. -1.
</event>
<event>
 5   0  0.1439814E-01  0.4804370E+03  0.7818609E-02  0.1019015E+00
        1   -1    0    0  501    0  0.00000000000E+00  0.00000000000E+00  0.14011861166E+04  0.14011861166E+04  0.50400001928E-02 0. -1.
       -1   -1    0    0    0  501  0.00000000000E+00  0.00000000000E+00 -0.41182916173E+02  0.41182916482E+02  0.50400001928E-02 0.  1.
    10030    2    1    2    0    0  0.00000000000E+00  0.00000000000E+00  0.13600032004E+04  0.14423690331E+04  0.48043701195E+03 0.  0.
        4    1    3    3  502    0 -0.13206868515E+03 -0.80575045083E+02  0.12830790862E+03  0.20099504422E+03  0.12699999809E+01 0.  1.
       -4    1    3    3    0  502  0.13206868515E+03  0.80575045083E+02  0.12316952918E+04  0.12413739889E+04  0.12699999809E+01 0. -1.
</event>
<event>
 5   0  0.1529146E-01  0.5100978E+03  0.7818609E-02  0.1011176E+00
       -1   -1    0    0    0  501  0.00000000000E+00  0.00000000000E+00  0.14607607718E+03  0.14607607726E+03  0.50400001928E-02 0. -1.
        1   -1    0    0  501    0  0.00000000000E+00  0.00000000000E+00 -0.44531552960E+03  0.44531552963E+03  0.50400001928E-02 0.  1.
    10030    2    1    2    0    0  0.00000000000E+00  0.00000000000E+00 -0.29923945243E+03  0.59139160690E+03  0.51009781691E+03 0.  0.
        1    1    3    3  502    0  0.95630205016E+02  0.19577620693E+03  0.40851772971E+01  0.21792234399E+03  0.50400001928E-02 0. -1.
       -1    1    3    3    0  502 -0.95630205016E+02 -0.19577620693E+03 -0.30332462972E+03  0.37346926290E+03  0.50400001928E-02 0.  1.
</event>
<event>
 5   0  0.1529146E-01  0.5072519E+03  0.7818609E-02  0.1011903E+00
        1   -1    0    0  501    0  0.00000000000E+00  0.00000000000E+00  0.11014182601E+04  0.11014182601E+04  0.50400001928E-02 0. -1.
       -1   -1    0    0    0  501  0.00000000000E+00  0.00000000000E+00 -0.58402986299E+02  0.58402986516E+02  0.50400001928E-02 0.  1.
    10030    2    1    2    0    0  0.00000000000E+00  0.00000000000E+00  0.10430152738E+04  0.11598212467E+04  0.50725187309E+03 0.  0.
        1    1    3    3  502    0 -0.18949258416E+03  0.53415359900E+02  0.88709766269E+03  0.90868195937E+03  0.50400001928E-02 0. -1.
       -1    1    3    3    0  502  0.18949258416E+03 -0.53415359900E+02  0.15591761115E+03  0.25113928728E+03  0.50400001928E-02 0.  1.
</event>
<event>
 5   0  0.9868500E-02  0.5017776E+03  0.7818609E-02  0.1013316E+00
       -4   -1    0    0    0  501  0.00000000000E+00  0.00000000000E+00  0.40780952983E+03  0.40781150735E+03  0.12699999809E+01 0.  1.
        4   -1    0    0  501    0  0.00000000000E+00  0.00000000000E+00 -0.15434451544E+03  0.15434974035E+03  0.12699999809E+01 0. -1.
    10030    2    1    2    0    0  0.00000000000E+00  0.00000000000E+00  0.25346501439E+03  0.56216124770E+03  0.50177759505E+03 0.  0.
        5    1    3    3  502    0  0.11902657147E+03 -0.36119064951E+02 -0.11731432790E+03  0.17104576317E+03  0.46999998093E+01 0. -1.
       -5    1    3    3    0  502 -0.11902657147E+03  0.36119064951E+02  0.37077934229E+03  0.39111548453E+03  0.46999998093E+01 0.  1.
</event>
<event>
 5   0  0.9868500E-02  0.4907867E+03  0.7818609E-02  0.1016212E+00
       -3   -1    0    0    0  501  0.00000000000E+00  0.00000000000E+00  0.82076318818E+03  0.82076319440E+03  0.10100000352E+00 0.  1.
        3   -1    0    0  501    0  0.00000000000E+00  0.00000000000E+00 -0.73368142412E+02  0.73368211932E+02  0.10100000352E+00 0. -1.
    10030    2    1    2    0    0  0.00000000000E+00  0.00000000000E+00  0.74739504577E+03  0.89413140633E+03  0.49078673305E+03 0.  0.
        2    1    3    3  502    0  0.18664652647E+03 -0.11335534085E+03  0.57764148280E+03  0.61754031593E+03  0.25500000920E-02 0.  1.
       -2    1    3    3    0  502 -0.18664652647E+03  0.11335534085E+03  0.16975356297E+03  0.27659109040E+03  0.25500000920E-02 0. -1.
</event>
<event>
 5   0  0.1529146E-01  0.5021968E+03  0.7818609E-02  0.1013207E+00
        1   -1    0    0  501    0  0.00000000000E+00  0.00000000000E+00  0.33546109443E+03  0.33546109447E+03  0.50400001928E-02 0.  1.
       -1   -1    0    0    0  501  0.00000000000E+00  0.00000000000E+00 -0.18795148300E+03  0.18795148307E+03  0.50400001928E-02 0. -1.
    10030    2    1    2    0    0  0.00000000000E+00  0.00000000000E+00  0.14750961143E+03  0.52341257753E+03  0.50219681486E+03 0.  0.
        1    1    3    3  502    0  0.80951137526E+02  0.12620791365E+03  0.28368105290E+03  0.32086829686E+03  0.50400001928E-02 0.  1.
       -1    1    3    3    0  502 -0.80951137526E+02 -0.12620791365E+03 -0.13617144147E+03  0.20254428067E+03  0.50400001928E-02 0. -1.
</event>
<event>
 5   0  0.2466034E-01  0.5174269E+03  0.7818609E-02  0.1009328E+00
        2   -1    0    0  501    0  0.00000000000E+00  0.00000000000E+00  0.30534643615E+03  0.30534643616E+03  0.25500000920E-02 0. -1.
       -2   -1    0    0    0  501  0.00000000000E+00  0.00000000000E+00 -0.21920233311E+03  0.21920233312E+03  0.25500000920E-02 0.  1.
    10030    2    1    2    0    0  0.00000000000E+00  0.00000000000E+00  0.86144103041E+02  0.52454876928E+03  0.51742690775E+03 0.  0.
        3    1    3    3  502    0  0.15442373847E+03  0.63087765369E+02 -0.15740188392E+03  0.22935152148E+03  0.10100000352E+00 0.  1.
       -3    1    3    3    0  502 -0.15442373847E+03 -0.63087765369E+02  0.24354598697E+03  0.29519724780E+03  0.10100000352E+00 0. -1.
</event>
<event>
 5   0  0.1529146E-01  0.4873927E+03  0.7818609E-02  0.1017123E+00
        1   -1    0    0  501    0  0.00000000000E+00  0.00000000000E+00  0.11785497721E+04  0.11785497722E+04  0.50400001928E-02 0. -1.
       -1   -1    0    0    0  501  0.00000000000E+00  0.00000000000E+00 -0.50390659727E+02  0.50390659979E+02  0.50400001928E-02 0.  1.
    10030    2    1    2    0    0  0.00000000000E+00  0.00000000000E+00  0.11281591124E+04  0.12289404321E+04  0.48739265773E+03 0.  0.
        1    1    3    3  502    0 -0.20619494079E+03  0.54302703300E+02  0.86159846534E+03  0.88759058844E+03  0.50400001928E-02 0.  1.
       -1    1    3    3    0  502  0.20619494079E+03 -0.54302703300E+02  0.26656064708E+03  0.34134984370E+03  0.50400001928E-02 0. -1.
</event>
<event>
 5   0  0.2413301E-01  0.5023846E+03  0.7818609E-02  0.1013158E+00
        2   -1    0    0  501    0  0.00000000000E+00  0.00000000000E+00  0.81027233436E+03  0.81027233437E+03  0.25500000920E-02 0. -1.
       -2   -1    0    0    0  501  0.00000000000E+00  0.00000000000E+00 -0.77872041447E+02  0.77872041489E+02  0.25500000920E-02 0.  1.
    10030    2    1    2    0    0  0.00000000000E+00  0.00000000000E+00  0.73240029292E+03  0.88814437585E+03  0.50238455719E+03 0.  0.
        4    1    3    3  502    0  0.12800096915E+03  0.19822246177E+03  0.21392247338E+03  0.31849777075E+03  0.12699999809E+01 0.  1.
       -4    1    3    3    0  502 -0.12800096915E+03 -0.19822246177E+03  0.51847781954E+03  0.56964660511E+03  0.12699999809E+01 0. -1.
</event>
<event>
 5   0  0.2466034E-01  0.5075413E+03  0.7818609E-02  0.1011829E+00
       -2   -1    0    0    0  501  0.00000000000E+00  0.00000000000E+00  0.51381209392E+02  0.51381209455E+02  0.25500000920E-02 0.  1.
        2   -1    0    0  501    0  0.00000000000E+00  0.00000000000E+00 -0.12533677373E+04  0.12533677373E+04  0.25500000920E-02 0. -1.
    10030    2    1    2    0    0  0.00000000000E+00  0.00000000000E+00 -0.12019865279E+04  0.13047489468E+04  0.50754132916E+03 0.  0.
        3    1    3    3  502    0 -0.14916701999E+03  0.12516367901E+03 -0.10193410165E+04  0.10377730313E+04  0.10100000352E+00 0. -1.
       -3    1    3    3    0  502  0.14916701999E+03 -0.12516367901E+03 -0.18264551145E+03  0.26697591549E+03  0.10100000352E+00 0.  1.
</event>
<event>
 5   0  0.2488968E-01  0.5017507E+03  0.7818609E-02  0.1013323E+00
        2   -1    0    0  501    0  0.00000000000E+00  0.00000000000E+00  0.86542112135E+03  0.86542112136E+03  0.25500000920E-02 0.  1.
       -2   -1    0    0    0  501  0.00000000000E+00  0.00000000000E+00 -0.72725788057E+02  0.72725788101E+02  0.25500000920E-02 0. -1.
    10030    2    1    2    0    0  0.00000000000E+00  0.00000000000E+00  0.79269533330E+03  0.93814690946E+03  0.50175066746E+03 0.  0.
        2    1    3    3  502    0  0.22403637205E+03  0.64708858300E+02  0.56932607146E+03  0.61523305178E+03  0.25500000920E-02 0.  1.
       -2    1    3    3    0  502 -0.22403637205E+03 -0.64708858300E+02  0.22336926183E+03  0.32291385768E+03  0.25500000920E-02 0. -1.
</event>
<event>
 5   0  0.1448458E-01  0.4923663E+03  0.7818609E-02  0.1015791E+00
       -1   -1    0    0    0  501  0.00000000000E+00  0.00000000000E+00  0.16746000268E+03  0.16746000275E+03  0.50400001928E-02 0. -1.
        1   -1    0    0  501    0  0.00000000000E+00  0.00000000000E+00 -0.36191416284E+03  0.36191416288E+03  0.50400001928E-02 0.  1.
    10030    2    1    2    0    0  0.00000000000E+00  0.00000000000E+00 -0.19445416016E+03  0.52937416563E+03  0.49236631366E+03 0.  0.
        5    1    3    3  502    0 -0.14504797825E+03  0.10513809669E+03  0.84253091946E+02  0.19802426334E+03  0.46999998093E+01 0. -1.
       -5    1    3    3    0  502  0.14504797825E+03 -0.10513809669E+03 -0.27870725211E+03  0.33134990229E+03  0.46999998093E+01 0.  1.
</event>
<event>
 5   0  0.1529146E-01  0.5178574E+03  0.7818609E-02  0.1009220E+00
       -1   -1    0    0    0  501  0.00000000000E+00  0.00000000000E+00  0.13373093778E+03  0.13373093787E+03  0.50400001928E-02 0.  1.
        1   -1    0    0  501    0  0.00000000000E+00  0.00000000000E+00 -0.50133545546E+03  0.50133545549E+03  0.50400001928E-02 0. -1.
    10030    2    1    2    0    0  0.00000000000E+00  0.00000000000E+00 -0.36760451768E+03  0.63506639336E+03  0.51785735734E+03 0.  0.
        1    1    3    3  502    0 -0.11802107739E+03  0.15883130410E+03 -0.38859537332E+03  0.43607650941E+03  0.50400001928E-02 0. -1.
       -1    1    3    3    0  502  0.11802107739E+03 -0.15883130410E+03  0.20990855634E+02  0.19898988395E+03  0.50400001928E-02 0.  1.
</event>
<event>
 5   0  0.2511944E-01  0.4930388E+03  0.7818609E-02  0.1015612E+00
       -2   -1    0    0    0  501  0.00000000000E+00  0.00000000000E+00  0.44237780692E+03  0.44237780693E+03  0.25500000920E-02 0. -1.
        2   -1    0    0  501    0  0.00000000000E+00  0.00000000000E+00 -0.13737539172E+03  0.13737539175E+03  0.25500000920E-02 0.  1.
    10030    2    1    2    0    0  0.00000000000E+00  0.00000000000E+00  0.30500241520E+03  0.57975319867E+03  0.49303884035E+03 0.  0.
        1    1    3    3  502    0  0.24114202889E+03 -0.45204634689E+02  0.18079290933E+03  0.30476058338E+03  0.50400001928E-02 0. -1.
       -1    1    3    3    0  502 -0.24114202889E+03  0.45204634689E+02  0.12420950586E+03  0.27499261529E+03  0.50400001928E-02 0.  1.
</event>
<event>
 5   0  0.2413301E-01  0.5020112E+03  0.7818609E-02  0.1013255E+00
        2   -1    0    0  501    0  0.00000000000E+00  0.00000000000E+00  0.52446357911E+03  0.52446357911E+03  0.25500000920E-02 0.  1.
       -2   -1    0    0    0  501  0.00000000000E+00  0.00000000000E+00 -0.12012999074E+03  0.12012999077E+03  0.25500000920E-02 0. -1.
    10030    2    1    2    0    0  0.00000000000E+00  0.00000000000E+00  0.40433358836E+03  0.64459356988E+03  0.50201117483E+03 0.  0.
        4    1    3    3  502    0 -0.12673668649E+03  0.23280682391E+02 -0.74414166423E+02  0.14880611190E+03  0.12699999809E+01 0. -1.
       -4    1    3    3    0  502  0.12673668649E+03 -0.23280682391E+02  0.47874775479E+03  0.49578745798E+03  0.12699999809E+01 0.  1.
</event>
<event>
 5   0  0.9868500E-02  0.5046946E+03  0.7818609E-02  0.1012561E+00
       -4   -1    0    0    0  501  0.00000000000E+00  0.00000000000E+00  0.19674863420E+03  0.19675273305E+03  0.12699999809E+01 0. -1.
        4   -1    0    0  501    0  0.00000000000E+00  0.00000000000E+00 -0.32364871494E+03  0.32365120668E+03  0.12699999809E+01 0.  1.
    10030    2    1    2    0    0  0.00000000000E+00  0.00000000000E+00 -0.12690008074E+03  0.52040393972E+03  0.50469459081E+03 0.  0.
        2    1    3    3  502    0 -0.11164295519E+03  0.18167906132E+03 -0.20258612853E+03  0.29413019268E+03  0.25500000920E-02 0.  1.
       -2    1    3    3    0  502  0.11164295519E+03 -0.18167906132E+03  0.75686047786E+02  0.22627374705E+03  0.25500000920E-02 0. -1.
</event>
<event>
 5   0  0.2466034E-01  0.4944541E+03  0.7818609E-02  0.1015237E+00
        2   -1    0    0  501    0  0.00000000000E+00  0.00000000000E+00  0.77060726036E+03  0.77060726036E+03  0.25500000920E-02 0. -1.
       -2   -1    0    0    0  501  0.00000000000E+00  0.00000000000E+00 -0.79315648480E+02  0.79315648521E+02  0.25500000920E-02 0.  1.
    10030    2    1    2    0    0  0.00000000000E+00  0.00000000000E+00  0.69129161188E+03  0.84992290888E+03  0.49445410140E+03 0.  0.
        3    1    3    3  502    0  0.10675274567E+02 -0.12245359913E+03  0.71436080218E+03  0.72485875267E+03  0.10100000352E+00 0. -1.
       -3    1    3    3    0  502 -0.10675274567E+02  0.12245359913E+03 -0.23069190306E+02  0.12506415621E+03  0.10100000352E+00 0.  1.
</event>
<event>
 5   0  0.9868500E-02  0.4966420E+03  0.7818609E-02  0.1014659E+00
       -3   -1    0    0    0  501  0.00000000000E+00  0.00000000000E+00  0.10640630361E+04  0.10640630409E+04  0.10100000352E+00 0. -1.
        3   -1    0    0  501    0  0.00000000000E+00  0.00000000000E+00 -0.57950768373E+02  0.57950856387E+02  0.10100000352E+00 0.  1.
    10030    2    1    2    0    0  0.00000000000E+00  0.00000000000E+00  0.10061122677E+04  0.11220138973E+04  0.49664201435E+03 0.  0.
        4    1    3    3  502    0 -0.14792829354E+03  0.94448820762E+02  0.89991960738E+03  0.91687527637E+03  0.12699999809E+01 0. -1.
       -4    1    3    3    0  502  0.14792829354E+03 -0.94448820762E+02  0.10619266033E+03  0.20513862089E+03  0.12699999809E+01 0.  1.
</event>
<event>
 5   0  0.2413301E-01  0.4803561E+03  0.7818609E-02  0.1019037E+00
       -2   -1    0    0    0  501  0.00000000000E+00  0.00000000000E+00  0.64226947144E+02  0.64226947194E+02  0.25500000920E-02 0. -1.
        2   -1    0    0  501    0  0.00000000000E+00  0.00000000000E+00 -0.89815091593E+03  0.89815091593E+03  0.25500000920E-02 0.  1.
    10030    2    1    2    0    0  0.00000000000E+00  0.00000000000E+00 -0.83392396878E+03  0.96237786312E+03  0.48035608222E+03 0.  0.
        4    1    3    3  502    0 -0.95450687688E+02 -0.21563773816E+03 -0.50818932008E+03  0.56023965036E+03  0.12699999809E+01 0. -1.
       -4    1    3    3    0  502  0.95450687688E+02  0.21563773816E+03 -0.32573464871E+03  0.40213821276E+03  0.12699999809E+01 0.  1.
</event>
<event>
 5   0  0.9868500E-02  0.5000702E+03  0.7818609E-02  0.1013761E+00
        3   -1    0    0  501    0  0.00000000000E+00  0.00000000000E+00  0.25312777364E+03  0.25312779379E+03  0.10100000352E+00 0.  1.
       -3   -1    0    0    0  501  0.00000000000E+00  0.00000000000E+00 -0.24698021210E+03  0.24698023275E+03  0.10100000352E+00 0. -1.
    10030    2    1    2    0    0  0.00000000000E+00  0.00000000000E+00  0.61475615475E+01  0.50010802654E+03  0.50007024077E+03 0.  0.
        4    1    3    3  502    0 -0.28135769853E+02 -0.76625644569E+02 -0.23327612610E+03  0.24714868978E+03  0.12699999809E+01 0. -1.
       -4    1    3    3    0  502  0.28135769853E+02  0.76625644569E+02  0.23942368765E+03  0.25295933677E+03  0.12699999809E+01 0.  1.
</event>
<event>
 5   0  0.1413361E-01  0.5095046E+03  0.7818609E-02  0.1011327E+00
        1   -1    0    0  501    0  0.00000000000E+00  0.00000000000E+00  0.53463766762E+03  0.53463766764E+03  0.50400001928E-02 0. -1.
       -1   -1    0    0    0  501  0.00000000000E+00  0.00000000000E+00 -0.12138827183E+03  0.12138827194E+03  0.50400001928E-02 0.  1.
    10030    2    1    2    0    0  0.00000000000E+00  0.00000000000E+00  0.41324939579E+03  0.65602593958E+03  0.50950463225E+03 0.  0.
        3    1    3    3  502    0 -0.39438357086E+02 -0.57353848314E+02  0.52215671014E+03  0.52677555758E+03  0.10100000352E+00 0. -1.
       -3    1    3    3    0  502  0.39438357086E+02  0.57353848314E+02 -0.10890731435E+03  0.12925038200E+03  0.10100000352E+00 0.  1.
</event>
<event>
 5   0  0.1453602E-01  0.5054077E+03  0.7818609E-02  0.1012377E+00
        1   -1    0    0  501    0  0.00000000000E+00  0.00000000000E+00  0.38272028617E+03  0.38272028620E+03  0.50400001928E-02 0.  1.
       -1   -1    0    0    0  501  0.00000000000E+00  0.00000000000E+00 -0.16685617710E+03  0.16685617718E+03  0.50400001928E-02 0. -1.
    10030    2    1    2    0    0  0.00000000000E+00  0.00000000000E+00  0.21586410907E+03  0.54957646338E+03  0.50540773196E+03 0.  0.
        2    1    3    3  502    0  0.17093241169E+03  0.18430865701E+03  0.79750474607E+02  0.26371899556E+03  0.25500000920E-02 0.  1.
       -2    1    3    3    0  502 -0.17093241169E+03 -0.18430865701E+03  0.13611363446E+03  0.28585746782E+03  0.25500000920E-02 0. -1.
</event>
<event>
 5   0  0.9868500E-02  0.5031869E+03  0.7818609E-02  0.1012950E+00
        3   -1    0    0  501    0  0.00000000000E+00  0.00000000000E+00  0.10846435109E+03  0.10846439812E+03  0.10100000352E+00 0. -1.
       -3   -1    0    0    0  501  0.00000000000E+00  0.00000000000E+00 -0.58359502663E+03  0.58359503537E+03  0.10100000352E+00 0.  1.
    10030    2    1    2    0    0  0.00000000000E+00  0.00000000000E+00 -0.47513067554E+03  0.69205943349E+03  0.50318694403E+03 0.  0.
        2    1    3    3  502    0  0.23656567133E+03 -0.85471388859E+02 -0.22995726485E+03  0.34080642428E+03  0.25500000920E-02 0.  1.
       -2    1    3    3    0  502 -0.23656567133E+03  0.85471388859E+02 -0.24517341069E+03  0.35125300921E+03  0.25500000920E-02 0. -1.
</event>
<event>
 5   0  0.2413301E-01  0.5054761E+03  0.7818609E-02  0.1012359E+00
       -2   -1    0    0    0  501  0.00000000000E+00  0.00000000000E+00  0.37644673477E+02  0.37644673564E+02  0.25500000920E-02 0. -1.
        2   -1    0    0  501    0  0.00000000000E+00  0.00000000000E+00 -0.16968279490E+04  0.16968279490E+04  0.25500000920E-02 0.  1.
    10030    2    1    2    0    0  0.00000000000E+00  0.00000000000E+00 -0.16591832756E+04  0.17344726226E+04  0.50547614846E+03 0.  0.
        4    1    3    3  502    0 -0.27651311784E+02 -0.16357726879E+03 -0.14838295920E+04  0.14930753460E+04  0.12699999809E+01 0.  1.
       -4    1    3    3    0  502  0.27651311784E+02  0.16357726879E+03 -0.17535368360E+03  0.24139727662E+03  0.12699999809E+01 0. -1.
</event>
<event>
 5   0  0.2466034E-01  0.5049117E+03  0.7818609E-02  0.1012505E+00
       -2   -1    0    0    0  501  0.00000000000E+00  0.00000000000E+00  0.13208992006E+03  0.13208992009E+03  0.25500000920E-02 0. -1.
        2   -1    0    0  501    0  0.00000000000E+00  0.00000000000E+00 -0.48250424674E+03  0.48250424674E+03  0.25500000920E-02 0.  1.
    10030    2    1    2    0    0  0.00000000000E+00  0.00000000000E+00 -0.35041432667E+03  0.61459416683E+03  0.50491166511E+03 0.  0.
        3    1    3    3  502    0 -0.10761116204E+03 -0.13438391071E+03  0.49551643594E+02  0.17914958342E+03  0.10100000352E+00 0. -1.
       -3    1    3    3    0  502  0.10761116204E+03  0.13438391071E+03 -0.39996597027E+03  0.43544458342E+03  0.10100000352E+00 0.  1.
</event>
<event>
 5   0  0.1448458E-01  0.5004120E+03  0.7818609E-02  0.1013671E+00
        1   -1    0    0  501    0  0.00000000000E+00  0.00000000000E+00  0.37196988405E+03  0.37196988409E+03  0.50400001928E-02 0.  1.
       -1   -1    0    0    0  501  0.00000000000E+00  0.00000000000E+00 -0.16830136186E+03  0.16830136193E+03  0.50400001928E-02 0. -1.
    10030    2    1    2    0    0  0.00000000000E+00  0.00000000000E+00  0.20366852220E+03  0.54027124602E+03  0.50041198261E+03 0.  0.
        5    1    3    3  502    0  0.24099063566E+03 -0.38865144903E+02  0.16090974732E+03  0.29240557919E+03  0.46999998093E+01 0.  1.
       -5    1    3    3    0  502 -0.24099063566E+03  0.38865144903E+02  0.42758774880E+02  0.24786566683E+03  0.46999998093E+01 0. -1.
</event>
<event>
 5   0  0.2488968E-01  0.5105155E+03  0.7818609E-02  0.1011070E+00
        2   -1    0    0  501    0  0.00000000000E+00  0.00000000000E+00  0.72867121020E+03  0.72867121020E+03  0.25500000920E-02 0.  1.
       -2   -1    0    0    0  501  0.00000000000E+00  0.00000000000E+00 -0.89418279848E+02  0.89418279884E+02  0.25500000920E-02 0. -1.
    10030    2    1    2    0    0  0.00000000000E+00  0.00000000000E+00  0.63925293035E+03  0.81808949009E+03  0.51051552849E+03 0.  0.
        2    1    3    3  502    0 -0.14951017083E+03 -0.61635117564E+02  0.63610799125E+03  0.65634255952E+03  0.25500000920E-02 0.  1.
       -2    1    3    3    0  502  0.14951017083E+03  0.61635117564E+02  0.31449391017E+01  0.16174693057E+03  0.25500000920E-02 0. -1.
</event>
<event>
 5   0  0.9868500E-02  0.4977587E+03  0.7818609E-02  0.1014366E+00
        3   -1    0    0  501    0  0.00000000000E+00  0.00000000000E+00  0.54786324275E+03  0.54786325206E+03  0.10100000352E+00 0.  1.
       -3   -1    0    0    0  501  0.00000000000E+00  0.00000000000E+00 -0.11305906043E+03  0.11305910554E+03  0.10100000352E+00 0. -1.
    10030    2    1    2    0    0  0.00000000000E+00  0.00000000000E+00  0.43480418232E+03  0.66092235760E+03  0.49775866222E+03 0.  0.
        4    1    3    3  502    0  0.17977418701E+03  0.15821035029E+03  0.30736005763E+03  0.38964226052E+03  0.12699999809E+01 0. -1.
       -4    1    3    3    0  502 -0.17977418701E+03 -0.15821035029E+03  0.12744412469E+03  0.27128009708E+03  0.12699999809E+01 0.  1.
</event>
<event>
 5   0  0.2413301E-01  0.4978896E+03  0.7818609E-02  0.1014331E+00
        2   -1    0    0  501    0  0.00000000000E+00  0.00000000000E+00  0.15001622250E+04  0.15001622250E+04  0.25500000920E-02 0. -1.
       -2   -1    0    0    0  501  0.00000000000E+00  0.00000000000E+00 -0.41311210237E+02  0.41311210316E+02  0.25500000920E-02 0.  1.
    10030    2    1    2    0    0  0.00000000000E+00  0.00000000000E+00  0.14588510147E+04  0.15414734353E+04  0.49788961478E+03 0.  0.
        4    1    3    3  502    0  0.11009672779E+03  0.19179989169E+03  0.37556559901E+03  0.43584357283E+03  0.12699999809E+01 0.  1.
       -4    1    3    3    0  502 -0.11009672779E+03 -0.19179989169E+03  0.10832854157E+04  0.11056298624E+04  0.12699999809E+01 0. -1.
</event>
<event>
 5   0  0.1529146E-01  0.5073942E+03  0.7818609E-02  0.1011867E+00
        1   -1    0    0  501    0  0.00000000000E+00  0.00000000000E+00  0.19676558376E+03  0.19676558382E+03  0.50400001928E-02 0. -1.
       -1   -1    0    0    0  501  0.00000000000E+00  0.00000000000E+00 -0.32710099438E+03  0.32710099442E+03  0.50400001928E-02 0.  1.
    10030    2    1    2    0    0  0.00000000000E+00  0.00000000000E+00 -0.13033541062E+03  0.52386657824E+03  0.50739419836E+03 0.  0.
        1    1    3    3  502    0 -0.13875928082E+03  0.11286260647E+03  0.12059019656E+03  0.21571764296E+03  0.50400001928E-02 0. -1.
       -1    1    3    3    0  502  0.13875928082E+03 -0.11286260647E+03 -0.25092560718E+03  0.30814893528E+03  0.50400001928E-02 0.  1.
</event>
<event>
 5   0  0.2488968E-01  0.4997427E+03  0.7818609E-02  0.1013846E+00
        2   -1    0    0  501    0  0.00000000000E+00  0.00000000000E+00  0.75676654004E+03  0.75676654005E+03  0.25500000920E-02 0. -1.
       -2   -1    0    0    0  501  0.00000000000E+00  0.00000000000E+00 -0.82503246815E+02  0.82503246854E+02  0.25500000920E-02 0.  1.
    10030    2    1    2    0    0  0.00000000000E+00  0.00000000000E+00  0.67426329323E+03  0.83926978690E+03  0.49974272042E+03 0.  0.
        2    1    3    3  502    0 -0.17234093340E+03  0.10308133319E+03  0.58684118128E+03  0.62024973247E+03  0.25500000920E-02 0. -1.
       -2    1    3    3    0  502  0.17234093340E+03 -0.10308133319E+03  0.87422111942E+02  0.21902005442E+03  0.25500000920E-02 0.  1.
</event>
<event>
 5   0  0.1448458E-01  0.5153856E+03  0.7818609E-02  0.1009839E+00
        1   -1    0    0  501    0  0.00000000000E+00  0.00000000000E+00  0.80392441879E+03  0.80392441880E+03  0.50400001928E-02 0.  1.
       -1   -1    0    0    0  501  0.00000000000E+00  0.00000000000E+00 -0.82601775126E+02  0.82601775280E+02  0.50400001928E-02 0. -1.
    10030    2    1    2    0    0  0.00000000000E+00  0.00000000000E+00  0.72132264366E+03  0.88652619408E+03  0.51538561926E+03 0.  0.
        5    1    3    3  502    0 -0.20269674435E+03  0.14713854945E+03  0.25677148294E+03  0.35873305863E+03  0.46999998093E+01 0. -1.
       -5    1    3    3    0  502  0.20269674435E+03 -0.14713854945E+03  0.46455116072E+03  0.52779313545E+03  0.46999998093E+01 0.  1.
</event>
<event>
 5   0  0.1448458E-01  0.4829464E+03  0.7818609E-02  0.1018329E+00
        1   -1    0    0  501    0  0.00000000000E+00  0.00000000000E+00  0.63800139817E+03  0.63800139819E+03  0.50400001928E-02 0. -1.
       -1   -1    0    0    0  501  0.00000000000E+00  0.00000000000E+00 -0.91393703567E+02  0.91393703706E+02  0.50400001928E-02 0.  1.
    10030    2    1    2    0    0  0.00000000000E+00  0.00000000000E+00  0.54660769460E+03  0.72939510189E+03  0.48294641822E+03 0.  0.
        5    1    3    3  502    0 -0.42358451900E+02 -0.16704118185E+03  0.52867549938E+03  0.55607271873E+03  0.46999998093E+01 0. -1.
       -5    1    3    3    0  502  0.42358451900E+02  0.16704118185E+03  0.17932195224E+02  0.17332238316E+03  0.46999998093E+01 0.  1.
</event>
<event>
 5   0  0.1529146E-01  0.4915659E+03  0.7818609E-02  0.1016004E+00
       -1   -1    0    0    0  501  0.00000000000E+00  0.00000000000E+00  0.15082687187E+03  0.15082687196E+03  0.50400001928E-02 0.  1.
        1   -1    0    0  501    0  0.00000000000E+00  0.00000000000E+00 -0.40052057417E+03  0.40052057420E+03  0.50400001928E-02 0. -1.
    10030    2    1    2    0    0  0.00000000000E+00  0.00000000000E+00 -0.24969370229E+03  0.55134744616E+03  0.49156592785E+03 0.  0.
        1    1    3    3  502    0  0.14791608081E+02  0.72801556938E+02  0.13793285330E+03  0.15666630272E+03  0.50400001928E-02 0.  1.
       -1    1    3    3    0  502 -0.14791608081E+02 -0.72801556938E+02 -0.38762655559E+03  0.39468114344E+03  0.50400001928E-02 0. -1.
</event>
<event>
 5   0  0.2504064E-01  0.4948369E+03  0.7818609E-02  0.1015135E+00
        2   -1    0    0  501    0  0.00000000000E+00  0.00000000000E+00  0.29408097480E+04  0.29408097480E+04  0.25500000920E-02 0.  1.
       -2   -1    0    0    0  501  0.00000000000E+00  0.00000000000E+00 -0.20815995082E+02  0.20815995239E+02  0.25500000920E-02 0. -1.
    10030    2    1    2    0    0  0.00000000000E+00  0.00000000000E+00  0.29199937529E+04  0.29616257432E+04  0.49483686801E+03 0.  0.
        5    1    3    3  502    0 -0.14697058207E+02  0.24626430712E+03  0.15689970323E+04  0.15882807969E+04  0.46999998093E+01 0. -1.
       -5    1    3    3    0  502  0.14697058207E+02 -0.24626430712E+03  0.13509967206E+04  0.13733449463E+04  0.46999998093E+01 0.  1.
</event>
<event>
 5   0  0.1448458E-01  0.4897793E+03  0.7818609E-02  0.1016482E+00
        1   -1    0    0  501    0  0.00000000000E+00  0.00000000000E+00  0.32100116463E+03  0.32100116467E+03  0.50400001928E-02 0.  1.
       -1   -1    0    0    0  501  0.00000000000E+00  0.00000000000E+00 -0.18682470706E+03  0.18682470713E+03  0.50400001928E-02 0. -1.
    10030    2    1    2    0    0  0.00000000000E+00  0.00000000000E+00  0.13417645757E+03  0.50782587179E+03  0.48977933225E+03 0.  0.
        5    1    3    3  502    0  0.16085253086E+03 -0.18442836249E+03  0.58957013431E+02  0.25176452690E+03  0.46999998093E+01 0.  1.
       -5    1    3    3    0  502 -0.16085253086E+03  0.18442836249E+03  0.75219444139E+02  0.25606134489E+03  0.46999998093E+01 0. -1.
</event>
<event>
 5   0  0.2466034E-01  0.4996284E+03  0.7818609E-02  0.1013876E+00
       -2   -1    0    0    0  501  0.00000000000E+00  0.00000000000E+00  0.25273997064E+03  0.25273997065E+03  0.25500000920E-02 0.  1.
        2   -1    0    0  501    0  0.00000000000E+00  0.00000000000E+00 -0.24692227505E+03  0.24692227506E+03  0.25500000920E-02 0. -1.
    10030    2    1    2    0    0  0.00000000000E+00  0.00000000000E+00  0.58176955858E+01  0.49966224571E+03  0.49962837610E+03 0.  0.
        3    1    3    3  502    0  0.10809560503E+03  0.22399218613E+03 -0.20543948299E+02  0.24955805594E+03  0.10100000352E+00 0. -1.
       -3    1    3    3    0  502 -0.10809560503E+03 -0.22399218613E+03  0.26361643885E+02  0.25010418977E+03  0.10100000352E+00 0.  1.
</event>
<event>
 5   0  0.1529146E-01  0.4916079E+03  0.7818609E-02  0.1015993E+00
       -1   -1    0    0    0  501  0.00000000000E+00  0.00000000000E+00  0.50314126560E+03  0.50314126563E+03  0.50400001928E-02 0. -1.
        1   -1    0    0  501    0  0.00000000000E+00  0.00000000000E+00 -0.12008473319E+03  0.12008473330E+03  0.50400001928E-02 0.  1.
    10030    2    1    2    0    0  0.00000000000E+00  0.00000000000E+00  0.38305653241E+03  0.62322599892E+03  0.49160791157E+03 0.  0.
        1    1    3    3  502    0  0.34044577181E+02  0.16038701666E+03  0.42368748378E+03  0.45430618782E+03  0.50400001928E-02 0. -1.
       -1    1    3    3    0  502 -0.34044577181E+02 -0.16038701666E+03 -0.40630951373E+02  0.16891981111E+03  0.50400001928E-02 0.  1.
</event>
<event>
 5   0  0.1413361E-01  0.5099802E+03  0.7818609E-02  0.1011206E+00
       -1   -1    0    0    0  501  0.00000000000E+00  0.00000000000E+00  0.21001000383E+03  0.21001000389E+03  0.50400001928E-02 0.  1.
        1   -1    0    0  501    0  0.00000000000E+00  0.00000000000E+00 -0.30960411732E+03  0.30960411736E+03  0.50400001928E-02 0. -1.
    10030    2    1    2    0    0  0.00000000000E+00  0.00000000000E+00 -0.99594113488E+02  0.51961412126E+03  0.50998024233E+03 0.  0.
        3    1    3    3  502    0  0.20761598375E+03  0.47515183040E+02  0.93058039836E+02  0.23242611365E+03  0.10100000352E+00 0.  1.
       -3    1    3    3    0  502 -0.20761598375E+03 -0.47515183040E+02 -0.19265215332E+03  0.28718800760E+03  0.10100000352E+00 0. -1.
</event>
<event>
 5   0  0.2466034E-01  0.5065570E+03  0.7818609E-02  0.1012081E+00
       -2   -1    0    0    0  501  0.00000000000E+00  0.00000000000E+00  0.31426026636E+02  0.31426026739E+02  0.25500000920E-02 0.  1.
        2   -1    0    0  501    0  0.00000000000E+00  0.00000000000E+00 -0.20413018598E+04  0.20413018598E+04  0.25500000920E-02 0. -1.
    10030    2    1    2    0    0  0.00000000000E+00  0.00000000000E+00 -0.20098758332E+04  0.20727278866E+04  0.50655703223E+03 0.  0.
        3    1    3    3  502    0 -0.85560132562E+02  0.20269555816E+03 -0.49151992740E+03  0.53851450753E+03  0.10100000352E+00 0.  1.
       -3    1    3    3    0  502  0.85560132562E+02 -0.20269555816E+03 -0.15183559058E+04  0.15342133790E+04  0.10100000352E+00 0. -1.
</event>
<event>
 5   0  0.2504064E-01  0.5125168E+03  0.7818609E-02  0.1010563E+00
       -2   -1    0    0    0  501  0.00000000000E+00  0.00000000000E+00  0.12399030705E+03  0.12399030708E+03  0.25500000920E-02 0.  1.
        2   -1    0    0  501    0  0.00000000000E+00  0.00000000000E+00 -0.52962510322E+03  0.52962510322E+03  0.25500000920E-02 0. -1.
    10030    2    1    2    0    0  0.00000000000E+00  0.00000000000E+00 -0.40563479617E+03  0.65361541030E+03  0.51251684530E+03 0.  0.
        5    1    3    3  502    0 -0.33457385546E+02  0.12859931117E+03 -0.48219107597E+03  0.50018746808E+03  0.46999998093E+01 0. -1.
       -5    1    3    3    0  502  0.33457385546E+02 -0.12859931117E+03  0.76556279799E+02  0.15342794223E+03  0.46999998093E+01 0.  1.
</event>
<event>
 5   0  0.2504064E-01  0.5003497E+03  0.7818609E-02  0.1013688E+00
        2   -1    0    0  501    0  0.00000000000E+00  0.00000000000E+00  0.14182412075E+04  0.14182412075E+04  0.25500000920E-02 0. -1.
       -2   -1    0    0    0  501  0.00000000000E+00  0.00000000000E+00 -0.44130331729E+02  0.44130331803E+02  0.25500000920E-02 0.  1.
    10030    2    1    2    0    0  0.00000000000E+00  0.00000000000E+00  0.13741108758E+04  0.14623715393E+04  0.50034969777E+03 0.  0.
        5    1    3    3  502    0  0.19754031403E+03 -0.39228361328E+02  0.11206043592E+04  0.11385680743E+04  0.46999998093E+01 0. -1.
       -5    1    3    3    0  502 -0.19754031403E+03  0.39228361328E+02  0.25350651659E+03  0.32380346501E+03  0.46999998093E+01 0.  1.
</event>
<event>
 5   0  0.1439814E-01  0.5050204E+03  0.7818609E-02  0.1012477E+00
        1   -1    0    0  501    0  0.00000000000E+00  0.00000000000E+00  0.21634520886E+03  0.21634520892E+03  0.50400001928E-02 0. -1.
       -1   -1    0    0    0  501  0.00000000000E+00  0.00000000000E+00 -0.29472060380E+03  0.29472060384E+03  0.50400001928E-02 0.  1.
    10030    2    1    2    0    0  0.00000000000E+00  0.00000000000E+00 -0.78375394935E+02  0.51106581276E+03  0.50502035844E+03 0.  0.
        4    1    3    3  502    0 -0.11441946094E+03 -0.22441114251E+03 -0.56936284400E+02  0.25825477209E+03  0.12699999809E+01 0. -1.
       -4    1    3    3    0  502  0.11441946094E+03  0.22441114251E+03 -0.21439110535E+02  0.25281104067E+03  0.12699999809E+01 0.  1.
</event>
<event>
 5   0  0.1448458E-01  0.4953663E+03  0.7818609E-02  0.1014995E+00
        1   -1    0    0  501    0  0.00000000000E+00  0.00000000000E+00  0.11471189844E+04  0.11471189844E+04  0.50400001928E-02 0.  1.
       -1   -1    0    0    0  501  0.00000000000E+00  0.00000000000E+00 -0.53479148812E+02  0.53479149049E+02  0.50400001928E-02 0. -1.
    10030    2    1    2    0    0  0.00000000000E+00  0.00000000000E+00  0.10936398356E+04  0.12005981335E+04  0.49536631707E+03 0.  0.
        5    1    3    3  502    0  0.20612801521E+03 -0.96525215010E+02  0.78328467708E+03  0.81569776948E+03  0.46999998093E+01 0.  1.
       -5    1    3    3    0  502 -0.20612801521E+03  0.96525215010E+02  0.31035515853E+03  0.38490036400E+03  0.46999998093E+01 0. -1.
</event>
<event>
 5   0  0.1453602E-01  0.4989462E+03  0.7818609E-02  0.1014054E+00
        1   -1    0    0  501    0  0.00000000000E+00  0.00000000000E+00  0.96098256268E+02  0.96098256400E+02  0.50400001928E-02 0. -1.
       -1   -1    0    0    0  501  0.00000000000E+00  0.00000000000E+00 -0.64763750859E+03  0.64763750861E+03  0.50400001928E-02 0.  1.
    10030    2    1    2    0    0  0.00000000000E+00  0.00000000000E+00 -0.55153925232E+03  0.74373576501E+03  0.49894623087E+03 0.  0.
        2    1    3    3  502    0 -0.37617308882E+02 -0.19938696587E+03 -0.59416955428E+02  0.21142516095E+03  0.25500000920E-02 0.  1.
       -2    1    3    3    0  502  0.37617308882E+02  0.19938696587E+03 -0.49212229690E+03  0.53231060406E+03  0.25500000920E-02 0. -1.
</event>
<event>
 5   0  0.1529146E-01  0.3582716E+03  0.7818609E-02  0.1059270E+00
        1   -1    0    0  501    0  0.00000000000E+00  0.00000000000E+00  0.64415240333E+03  0.64415240335E+03  0.50400001928E-02 0.  1.
       -1   -1    0    0    0  501  0.00000000000E+00  0.00000000000E+00 -0.49816845336E+02  0.49816845591E+02  0.50400001928E-02 0. -1.
    10030    2    1    2    0    0  0.00000000000E+00  0.00000000000E+00  0.59433555799E+03  0.69396924894E+03  0.35827163295E+03 0.  0.
        1    1    3    3  502    0  0.63880374828E+02  0.15906632213E+03  0.39794430531E+03  0.43329258853E+03  0.50400001928E-02 0.  1.
       -1    1    3    3    0  502 -0.63880374828E+02 -0.15906632213E+03  0.19639125268E+03  0.26067666040E+03  0.50400001928E-02 0. -1.
</event>
<event>
 5   0  0.9868500E-02  0.4764606E+03  0.7818609E-02  0.1020112E+00
       -3   -1    0    0    0  501  0.00000000000E+00  0.00000000000E+00  0.26276526308E+03  0.26276528249E+03  0.10100000352E+00 0. -1.
        3   -1    0    0  501    0  0.00000000000E+00  0.00000000000E+00 -0.21598617846E+03  0.21598620208E+03  0.10100000352E+00 0.  1.
    10030    2    1    2    0    0  0.00000000000E+00  0.00000000000E+00  0.46779084618E+02  0.47875148457E+03  0.47646059776E+03 0.  0.
        2    1    3    3  502    0  0.18367425547E+03  0.99600403381E+02  0.13838281098E+03  0.25061180111E+03  0.25500000920E-02 0. -1.
       -2    1    3    3    0  502 -0.18367425547E+03 -0.99600403381E+02 -0.91603726362E+02  0.22813968345E+03  0.25500000920E-02 0.  1.
</event>
<event>
 5   0  0.1439814E-01  0.4927346E+03  0.7818609E-02  0.1015693E+00
       -1   -1    0    0    0  501  0.00000000000E+00  0.00000000000E+00  0.32520235252E+03  0.32520235256E+03  0.50400001928E-02 0. -1.
        1   -1    0    0  501    0  0.00000000000E+00  0.00000000000E+00 -0.18664333138E+03  0.18664333145E+03  0.50400001928E-02 0.  1.
    10030    2    1    2    0    0  0.00000000000E+00  0.00000000000E+00  0.13855902113E+03  0.51184568401E+03  0.49273461609E+03 0.  0.
        4    1    3    3  502    0 -0.75327096075E+02  0.22870020104E+03  0.15130128517E+02  0.24126435096E+03  0.12699999809E+01 0.  1.
       -4    1    3    3    0  502  0.75327096075E+02 -0.22870020104E+03  0.12342889262E+03  0.27058133304E+03  0.12699999809E+01 0. -1.
</event>
<event>
 5   0  0.2504064E-01  0.4742748E+03  0.7818609E-02  0.1020721E+00
       -2   -1    0    0    0  501  0.00000000000E+00  0.00000000000E+00  0.30426197858E+02  0.30426197965E+02  0.25500000920E-02 0. -1.
        2   -1    0    0  501    0  0.00000000000E+00  0.00000000000E+00 -0.18482146141E+04  0.18482146141E+04  0.25500000920E-02 0.  1.
    10030    2    1    2    0    0  0.00000000000E+00  0.00000000000E+00 -0.18177884163E+04  0.18786408121E+04  0.47427478801E+03 0.  0.
        5    1    3    3  502    0 -0.13570488252E+03 -0.18482258665E+03 -0.67001606930E+03  0.70817993956E+03  0.46999998093E+01 0. -1.
       -5    1    3    3    0  502  0.13570488252E+03  0.18482258665E+03 -0.11477723470E+04  0.11704608725E+04  0.46999998093E+01 0.  1.
</event>
<event>
 5   0  0.9868500E-02  0.4908534E+03  0.7818609E-02  0.1016194E+00
       -3   -1    0    0    0  501  0.00000000000E+00  0.00000000000E+00  0.11596394873E+03  0.11596399271E+03  0.10100000352E+00 0. -1.
        3   -1    0    0  501    0  0.00000000000E+00  0.00000000000E+00 -0.51942215851E+03  0.51942216833E+03  0.10100000352E+00 0.  1.
    10030    2    1    2    0    0  0.00000000000E+00  0.00000000000E+00 -0.40345820979E+03  0.63538616104E+03  0.49085338605E+03 0.  0.
        3    1    3    3  502    0  0.17391100184E+03 -0.79238251011E+02 -0.40105166145E+03  0.44425913872E+03  0.10100000352E+00 0.  1.
       -3    1    3    3    0  502 -0.17391100184E+03  0.79238251011E+02 -0.24065483409E+01  0.19112702232E+03  0.10100000352E+00 0. -1.
</event>
<event>
 5   0  0.2504064E-01  0.5247042E+03  0.7818609E-02  0.1007525E+00
       -2   -1    0    0    0  501  0.00000000000E+00  0.00000000000E+00  0.13970992809E+03  0.13970992811E+03  0.25500000920E-02 0. -1.
        2   -1    0    0  501    0  0.00000000000E+00  0.00000000000E+00 -0.49265383382E+03  0.49265383383E+03  0.25500000920E-02 0.  1.
    10030    2    1    2    0    0  0.00000000000E+00  0.00000000000E+00 -0.35294390574E+03  0.63236376194E+03  0.52470422794E+03 0.  0.
        5    1    3    3  502    0 -0.25244468070E+03 -0.67202535860E+02 -0.20504375242E+03  0.33212878232E+03  0.46999998093E+01 0. -1.
       -5    1    3    3    0  502  0.25244468070E+03  0.67202535860E+02 -0.14790015331E+03  0.30023497962E+03  0.46999998093E+01 0.  1.
</event>
<event>
 5   0  0.2504064E-01  0.4997859E+03  0.7818609E-02  0.1013835E+00
        2   -1    0    0  501    0  0.00000000000E+00  0.00000000000E+00  0.63836324835E+03  0.63836324836E+03  0.25500000920E-02 0.  1.
       -2   -1    0    0    0  501  0.00000000000E+00  0.00000000000E+00 -0.97822828328E+02  0.97822828361E+02  0.25500000920E-02 0. -1.
    10030    2    1    2    0    0  0.00000000000E+00  0.00000000000E+00  0.54054042002E+03  0.73618607672E+03  0.49978594806E+03 0.  0.
        5    1    3    3  502    0 -0.14151267517E+02  0.22074514204E+03  0.99149810039E+02  0.24244886252E+03  0.46999998093E+01 0. -1.
       -5    1    3    3    0  502  0.14151267517E+02 -0.22074514204E+03  0.44139060999E+03  0.49373721420E+03  0.46999998093E+01 0.  1.
</event>
<event>
 5   0  0.1529146E-01  0.4943034E+03  0.7818609E-02  0.1015277E+00
       -1   -1    0    0    0  501  0.00000000000E+00  0.00000000000E+00  0.20102606568E+03  0.20102606574E+03  0.50400001928E-02 0. -1.
        1   -1    0    0  501    0  0.00000000000E+00  0.00000000000E+00 -0.30386096101E+03  0.30386096105E+03  0.50400001928E-02 0.  1.
    10030    2    1    2    0    0  0.00000000000E+00  0.00000000000E+00 -0.10283489533E+03  0.50488702680E+03  0.49430344337E+03 0.  0.
        1    1    3    3  502    0  0.19091505971E+03  0.63777794595E+02  0.95068027301E+02  0.22260749527E+03  0.50400001928E-02 0. -1.
       -1    1    3    3    0  502 -0.19091505971E+03 -0.63777794595E+02 -0.19790292263E+03  0.28227953153E+03  0.50400001928E-02 0.  1.
</event>
<event>
 5   0  0.2511944E-01  0.4950981E+03  0.7818609E-02  0.1015066E+00
        2   -1    0    0  501    0  0.00000000000E+00  0.00000000000E+00  0.54133828359E+03  0.54133828360E+03  0.25500000920E-02 0.  1.
       -2   -1    0    0    0  501  0.00000000000E+00  0.00000000000E+00 -0.11320192874E+03  0.11320192877E+03  0.25500000920E-02 0. -1.
    10030    2    1    2    0    0  0.00000000000E+00  0.00000000000E+00  0.42813635485E+03  0.65454021237E+03  0.49509812287E+03 0.  0.
        1    1    3    3  502    0  0.94132361482E+02 -0.58514738366E+02 -0.78565204893E+02  0.13585789462E+03  0.50400001928E-02 0. -1.
       -1    1    3    3    0  502 -0.94132361482E+02  0.58514738366E+02  0.50670155974E+03  0.51868231776E+03  0.50400001928E-02 0.  1.
</event>
<event>
 5   0  0.2511944E-01  0.5045973E+03  0.7818609E-02  0.1012586E+00
        2   -1    0    0  501    0  0.00000000000E+00  0.00000000000E+00  0.25729967017E+03  0.25729967018E+03  0.25500000920E-02 0.  1.
       -2   -1    0    0    0  501  0.00000000000E+00  0.00000000000E+00 -0.24739481100E+03  0.24739481101E+03  0.25500000920E-02 0. -1.
    10030    2    1    2    0    0  0.00000000000E+00  0.00000000000E+00  0.99048591696E+01  0.50469448119E+03  0.50459727814E+03 0.  0.
        1    1    3    3  502    0  0.22047234942E+03  0.12042183082E+03  0.28304926205E+02  0.25280554398E+03  0.50400001928E-02 0.  1.
       -1    1    3    3    0  502 -0.22047234942E+03 -0.12042183082E+03 -0.18400067036E+02  0.25188893721E+03  0.50400001928E-02 0. -1.
</event>
<event>
 5   0  0.1529146E-01  0.4957907E+03  0.7818609E-02  0.1014883E+00
       -1   -1    0    0    0  501  0.00000000000E+00  0.00000000000E+00  0.12288240157E+04  0.12288240157E+04  0.50400001928E-02 0. -1.
        1   -1    0    0  501    0  0.00000000000E+00  0.00000000000E+00 -0.50008878897E+02  0.50008879151E+02  0.50400001928E-02 0.  1.
    10030    2    1    2    0    0  0.00000000000E+00  0.00000000000E+00  0.11788151368E+04  0.12788328949E+04  0.49579072826E+03 0.  0.
        1    1    3    3  502    0 -0.67384385018E+02  0.18162953248E+02 -0.24146541252E+02  0.73848518569E+02  0.50400001928E-02 0.  1.
       -1    1    3    3    0  502  0.67384385018E+02 -0.18162953248E+02  0.12029616781E+04  0.12049843763E+04  0.50400001928E-02 0. -1.
</event>
<event>
 5   0  0.2413301E-01  0.5010744E+03  0.7818609E-02  0.1013499E+00
       -2   -1    0    0    0  501  0.00000000000E+00  0.00000000000E+00  0.35179120073E+03  0.35179120074E+03  0.25500000920E-02 0.  1.
        2   -1    0    0  501    0  0.00000000000E+00  0.00000000000E+00 -0.17842656514E+03  0.17842656516E+03  0.25500000920E-02 0. -1.
    10030    2    1    2    0    0  0.00000000000E+00  0.00000000000E+00  0.17336463559E+03  0.53021776590E+03  0.50107442801E+03 0.  0.
        4    1    3    3  502    0 -0.18803600304E+02  0.93001591888E+02 -0.15867526429E+03  0.18488462314E+03  0.12699999809E+01 0. -1.
       -4    1    3    3    0  502  0.18803600304E+02 -0.93001591888E+02  0.33203989988E+03  0.34533314276E+03  0.12699999809E+01 0.  1.
</event>
<event>
 5   0  0.1453602E-01  0.5594341E+03  0.7818609E-02  0.9993336E-01
        1   -1    0    0  501    0  0.00000000000E+00  0.00000000000E+00  0.12999746701E+03  0.12999746710E+03  0.50400001928E-02 0. -1.
       -1   -1    0    0    0  501  0.00000000000E+00  0.00000000000E+00 -0.60187036984E+03  0.60187036986E+03  0.50400001928E-02 0.  1.
    10030    2    1    2    0    0  0.00000000000E+00  0.00000000000E+00 -0.47187290283E+03  0.73186783696E+03  0.55943408401E+03 0.  0.
        2    1    3    3  502    0 -0.24994134990E+03 -0.10121159956E+03 -0.33319653798E+03  0.42864250746E+03  0.25500000920E-02 0.  1.
       -2    1    3    3    0  502  0.24994134990E+03  0.10121159956E+03 -0.13867636485E+03  0.30322532950E+03  0.25500000920E-02 0. -1.
</event>
<event>
 5   0  0.2488968E-01  0.4376138E+03  0.7818609E-02  0.1031481E+00
        2   -1    0    0  501    0  0.00000000000E+00  0.00000000000E+00  0.31497021246E+03  0.31497021247E+03  0.25500000920E-02 0.  1.
       -2   -1    0    0    0  501  0.00000000000E+00  0.00000000000E+00 -0.15200311283E+03  0.15200311285E+03  0.25500000920E-02 0. -1.
    10030    2    1    2    0    0  0.00000000000E+00  0.00000000000E+00  0.16296709963E+03  0.46697332532E+03  0.43761376920E+03 0.  0.
        2    1    3    3  502    0  0.10393983781E+03  0.14434389408E+03  0.21746032285E+03  0.28094063726E+03  0.25500000920E-02 0.  1.
       -2    1    3    3    0  502 -0.10393983781E+03 -0.14434389408E+03 -0.54493223222E+02  0.18603268806E+03  0.25500000920E-02 0. -1.
</event>
<event>
 5   0  0.1529146E-01  0.4823410E+03  0.7818609E-02  0.1018494E+00
       -1   -1    0    0    0  501  0.00000000000E+00  0.00000000000E+00  0.65055468219E+02  0.65055468414E+02  0.50400001928E-02 0. -1.
        1   -1    0    0  501    0  0.00000000000E+00  0.00000000000E+00 -0.89405549504E+03  0.89405549505E+03  0.50400001928E-02 0.  1.
    10030    2    1    2    0    0  0.00000000000E+00  0.00000000000E+00 -0.82900002682E+03  0.95911096347E+03  0.48234095386E+03 0.  0.
        1    1    3    3  502    0 -0.36977321909E+02 -0.22212779242E+03 -0.58618884647E+03  0.62795337586E+03  0.50400001928E-02 0.  1.
       -1    1    3    3    0  502  0.36977321909E+02  0.22212779242E+03 -0.24281118035E+03  0.33115758761E+03  0.50400001928E-02 0. -1.
</event>
<event>
 5   0  0.2488968E-01  0.5008412E+03  0.7818609E-02  0.1013560E+00
       -2   -1    0    0    0  501  0.00000000000E+00  0.00000000000E+00  0.75986619121E+02  0.75986619164E+02  0.25500000920E-02 0. -1.
        2   -1    0    0  501    0  0.00000000000E+00  0.00000000000E+00 -0.82528308136E+03  0.82528308136E+03  0.25500000920E-02 0.  1.
    10030    2    1    2    0    0  0.00000000000E+00  0.00000000000E+00 -0.74929646224E+03  0.90126970053E+03  0.50084117719E+03 0.  0.
        2    1    3    3  502    0 -0.16728971807E+03  0.16662298755E+02 -0.40660604364E+02  0.17296464010E+03  0.25500000920E-02 0. -1.
       -2    1    3    3    0  502  0.16728971807E+03 -0.16662298755E+02 -0.70863585788E+03  0.72830506043E+03  0.25500000920E-02 0.  1.
</event>
<event>
 5   0  0.2504064E-01  0.5055610E+03  0.7818609E-02  0.1012338E+00
       -2   -1    0    0    0  501  0.00000000000E+00  0.00000000000E+00  0.10906495154E+03  0.10906495157E+03  0.25500000920E-02 0. -1.
        2   -1    0    0  501    0  0.00000000000E+00  0.00000000000E+00 -0.58587081249E+03  0.58587081250E+03  0.25500000920E-02 0.  1.
    10030    2    1    2    0    0  0.00000000000E+00  0.00000000000E+00 -0.47680586095E+03  0.69493576406E+03  0.50556096283E+03 0.  0.
        5    1    3    3  502    0  0.18115139350E+03 -0.55978168042E+02 -0.86932073619E+01  0.18986059232E+03  0.46999998093E+01 0. -1.
       -5    1    3    3    0  502 -0.18115139350E+03  0.55978168042E+02 -0.46811265359E+03  0.50507517174E+03  0.46999998093E+01 0.  1.
</event>
<event>
 5   0  0.2504064E-01  0.4962576E+03  0.7818609E-02  0.1014760E+00
       -2   -1    0    0    0  501  0.00000000000E+00  0.00000000000E+00  0.20045073101E+03  0.20045073103E+03  0.25500000920E-02 0.  1.
        2   -1    0    0  501    0  0.00000000000E+00  0.00000000000E+00 -0.30714734145E+03  0.30714734146E+03  0.25500000920E-02 0. -1.
    10030    2    1    2    0    0  0.00000000000E+00  0.00000000000E+00 -0.10669661043E+03  0.50759807249E+03  0.49625763119E+03 0.  0.
        5    1    3    3  502    0 -0.58325822201E+02  0.10939239192E+03 -0.27314778903E+03  0.30000066933E+03  0.46999998093E+01 0. -1.
       -5    1    3    3    0  502  0.58325822201E+02 -0.10939239192E+03  0.16645117860E+03  0.20759740316E+03  0.46999998093E+01 0.  1.
</event>
<event>
 5   0  0.9868500E-02  0.4766479E+03  0.7818609E-02  0.1020061E+00
        4   -1    0    0  501    0  0.00000000000E+00  0.00000000000E+00  0.12743481997E+03  0.12744114814E+03  0.12699999809E+01 0.  1.
       -4   -1    0    0    0  501  0.00000000000E+00  0.00000000000E+00 -0.44568638594E+03  0.44568819539E+03  0.12699999809E+01 0. -1.
    10030    2    1    2    0    0  0.00000000000E+00  0.00000000000E+00 -0.31825156598E+03  0.57312934354E+03  0.47664786287E+03 0.  0.
        2    1    3    3  502    0  0.14573498994E+03 -0.18202322858E+03 -0.99887345647E+02  0.25367030741E+03  0.25500000920E-02 0. -1.
       -2    1    3    3    0  502 -0.14573498994E+03  0.18202322858E+03 -0.21836422033E+03  0.31945903612E+03  0.25500000920E-02 0.  1.
</event>
<event>
 5   0  0.1529146E-01  0.5157061E+03  0.7818609E-02  0.1009759E+00
        1   -1    0    0  501    0  0.00000000000E+00  0.00000000000E+00  0.88419861300E+03  0.88419861302E+03  0.50400001928E-02 0.  1.
       -1   -1    0    0    0  501  0.00000000000E+00  0.00000000000E+00 -0.75195997409E+02  0.75195997578E+02  0.50400001928E-02 0. -1.
    10030    2    1    2    0    0  0.00000000000E+00  0.00000000000E+00  0.80900261560E+03  0.95939461060E+03  0.51570610507E+03 0.  0.
        1    1    3    3  502    0 -0.20099482803E+03  0.26160024269E+02  0.70102130936E+03  0.72973566719E+03  0.50400001928E-02 0.  1.
       -1    1    3    3    0  502  0.20099482803E+03 -0.26160024269E+02  0.10798130624E+03  0.22965894341E+03  0.50400001928E-02 0. -1.
</event>
<event>
 5   0  0.9868500E-02  0.4698004E+03  0.7818609E-02  0.1021977E+00
       -3   -1    0    0    0  501  0.00000000000E+00  0.00000000000E+00  0.13850045560E+03  0.13850049242E+03  0.10100000352E+00 0.  1.
        3   -1    0    0  501    0  0.00000000000E+00  0.00000000000E+00 -0.39839641522E+03  0.39839642802E+03  0.10100000352E+00 0. -1.
    10030    2    1    2    0    0  0.00000000000E+00  0.00000000000E+00 -0.25989595962E+03  0.53689692044E+03  0.46980037607E+03 0.  0.
        1    1    3    3  502    0 -0.80977103368E+02  0.12260335664E+01 -0.38193717593E+03  0.39042899586E+03  0.50400001928E-02 0. -1.
       -1    1    3    3    0  502  0.80977103368E+02 -0.12260335664E+01  0.12204121631E+03  0.14646792458E+03  0.50400001928E-02 0.  1.
</event>
<event>
 5   0  0.1529146E-01  0.5059629E+03  0.7818609E-02  0.1012234E+00
       -1   -1    0    0    0  501  0.00000000000E+00  0.00000000000E+00  0.27031166585E+03  0.27031166589E+03  0.50400001928E-02 0.  1.
        1   -1    0    0  501    0  0.00000000000E+00  0.00000000000E+00 -0.23676230840E+03  0.23676230845E+03  0.50400001928E-02 0. -1.
    10030    2    1    2    0    0  0.00000000000E+00  0.00000000000E+00  0.33549357449E+02  0.50707397434E+03  0.50596289990E+03 0.  0.
        1    1    3    3  502    0  0.13742668669E+03  0.81405150127E+02 -0.17983645404E+03  0.24052867378E+03  0.50400001928E-02 0. -1.
       -1    1    3    3    0  502 -0.13742668669E+03 -0.81405150127E+02  0.21338581149E+03  0.26654530056E+03  0.50400001928E-02 0.  1.
</event>
<event>
 5   0  0.1413361E-01  0.4950027E+03  0.7818609E-02  0.1015092E+00
        1   -1    0    0  501    0  0.00000000000E+00  0.00000000000E+00  0.51837545487E+03  0.51837545490E+03  0.50400001928E-02 0. -1.
       -1   -1    0    0    0  501  0.00000000000E+00  0.00000000000E+00 -0.11817093813E+03  0.11817093823E+03  0.50400001928E-02 0.  1.
    10030    2    1    2    0    0  0.00000000000E+00  0.00000000000E+00  0.40020451675E+03  0.63654639313E+03  0.49500268220E+03 0.  0.
        3    1    3    3  502    0 -0.23298692551E+03  0.26235051360E+02  0.30205524795E+03  0.38237229031E+03  0.10100000352E+00 0. -1.
       -3    1    3    3    0  502  0.23298692551E+03 -0.26235051360E+02  0.98149268802E+02  0.25417410283E+03  0.10100000352E+00 0.  1.
</event>
<event>
 5   0  0.2511944E-01  0.4861053E+03  0.7818609E-02  0.1017471E+00
       -2   -1    0    0    0  501  0.00000000000E+00  0.00000000000E+00  0.84627286065E+02  0.84627286104E+02  0.25500000920E-02 0.  1.
        2   -1    0    0  501    0  0.00000000000E+00  0.00000000000E+00 -0.69805592818E+03  0.69805592819E+03  0.25500000920E-02 0. -1.
    10030    2    1    2    0    0  0.00000000000E+00  0.00000000000E+00 -0.61342864212E+03  0.78268321429E+03  0.48610525091E+03 0.  0.
        1    1    3    3  502    0  0.16189519779E+03 -0.14100242892E+02 -0.15708459150E+02  0.16326551268E+03  0.50400001928E-02 0.  1.
       -1    1    3    3    0  502 -0.16189519779E+03  0.14100242892E+02 -0.59772018297E+03  0.61941770161E+03  0.50400001928E-02 0. -1.
</event>
<event>
 5   0  0.1413361E-01  0.4206970E+03  0.7818609E-02  0.1036840E+00
        1   -1    0    0  501    0  0.00000000000E+00  0.00000000000E+00  0.40847542603E+03  0.40847542606E+03  0.50400001928E-02 0. -1.
       -1   -1    0    0    0  501  0.00000000000E+00  0.00000000000E+00 -0.10832105955E+03  0.10832105967E+03  0.50400001928E-02 0.  1.
    10030    2    1    2    0    0  0.00000000000E+00  0.00000000000E+00  0.30015436647E+03  0.51679648573E+03  0.42069699779E+03 0.  0.
        3    1    3    3  502    0 -0.16211349655E+03  0.13403615400E+03  0.15015907685E+03  0.25844580651E+03  0.10100000352E+00 0. -1.
       -3    1    3    3    0  502  0.16211349655E+03 -0.13403615400E+03  0.14999528963E+03  0.25835067922E+03  0.10100000352E+00 0.  1.
</event>
<event>
 5   0  0.2511944E-01  0.4674973E+03  0.7818609E-02  0.1022629E+00
        2   -1    0    0  501    0  0.00000000000E+00  0.00000000000E+00  0.67100024871E+03  0.67100024872E+03  0.25500000920E-02 0. -1.
       -2   -1    0    0    0  501  0.00000000000E+00  0.00000000000E+00 -0.81428343233E+02  0.81428343273E+02  0.25500000920E-02 0.  1.
    10030    2    1    2    0    0  0.00000000000E+00  0.00000000000E+00  0.58957190548E+03  0.75242859199E+03  0.46749733081E+03 0.  0.
        1    1    3    3  502    0 -0.64126169590E+02  0.28845067632E+02  0.65357498549E+03  0.65734653360E+03  0.50400001928E-02 0. -1.
       -1    1    3    3    0  502  0.64126169590E+02 -0.28845067632E+02 -0.64003080006E+02  0.95082058395E+02  0.50400001928E-02 0.  1.
</event>
<event>
 5   0  0.2466034E-01  0.4960524E+03  0.7818609E-02  0.1014814E+00
       -2   -1    0    0    0  501  0.00000000000E+00  0.00000000000E+00  0.89811659112E+02  0.89811659148E+02  0.25500000920E-02 0.  1.
        2   -1    0    0  501    0  0.00000000000E+00  0.00000000000E+00 -0.68495565901E+03  0.68495565902E+03  0.25500000920E-02 0. -1.
    10030    2    1    2    0    0  0.00000000000E+00  0.00000000000E+00 -0.59514399990E+03  0.77476731817E+03  0.49605243340E+03 0.  0.
        3    1    3    3  502    0  0.17181217649E+03 -0.12699373231E+02 -0.57625146908E+03  0.60145362572E+03  0.10100000352E+00 0. -1.
       -3    1    3    3    0  502 -0.17181217649E+03  0.12699373231E+02 -0.18892530824E+02  0.17331369245E+03  0.10100000352E+00 0.  1.
</event>
<event>
 5   0  0.2488968E-01  0.4999841E+03  0.7818609E-02  0.1013783E+00
        2   -1    0    0  501    0  0.00000000000E+00  0.00000000000E+00  0.20504683115E+03  0.20504683117E+03  0.25500000920E-02 0.  1.
       -2   -1    0    0    0  501  0.00000000000E+00  0.00000000000E+00 -0.30478897714E+03  0.30478897715E+03  0.25500000920E-02 0. -1.
    10030    2    1    2    0    0  0.00000000000E+00  0.00000000000E+00 -0.99742145983E+02  0.50983580832E+03  0.49998405550E+03 0.  0.
        2    1    3    3  502    0  0.20504832240E+03 -0.13799288801E+03 -0.88149552950E+02  0.26240654594E+03  0.25500000920E-02 0.  1.
       -2    1    3    3    0  502 -0.20504832240E+03  0.13799288801E+03 -0.11592593033E+02  0.24742926238E+03  0.25500000920E-02 0. -1.
</event>
<event>
 5   0  0.1453602E-01  0.5149472E+03  0.7818609E-02  0.1009949E+00
        1   -1    0    0  501    0  0.00000000000E+00  0.00000000000E+00  0.27638824820E+03  0.27638824825E+03  0.50400001928E-02 0. -1.
       -1   -1    0    0    0  501  0.00000000000E+00  0.00000000000E+00 -0.23985339749E+03  0.23985339754E+03  0.50400001928E-02 0.  1.
    10030    2    1    2    0    0  0.00000000000E+00  0.00000000000E+00  0.36534850714E+02  0.51624164579E+03  0.51494722208E+03 0.  0.
        2    1    3    3  502    0 -0.17260910332E+03  0.16043004754E+03 -0.85728369491E+02  0.25076095398E+03  0.25500000920E-02 0.  1.
       -2    1    3    3    0  502  0.17260910332E+03 -0.16043004754E+03  0.12226322021E+03  0.26548069181E+03  0.25500000920E-02 0. -1.
</event>
<event>
 5   0  0.2504064E-01  0.5144338E+03  0.7818609E-02  0.1010079E+00
       -2   -1    0    0    0  501  0.00000000000E+00  0.00000000000E+00  0.74980001594E+03  0.74980001595E+03  0.25500000920E-02 0.  1.
        2   -1    0    0  501    0  0.00000000000E+00  0.00000000000E+00 -0.88237585518E+02  0.88237585555E+02  0.25500000920E-02 0. -1.
    10030    2    1    2    0    0  0.00000000000E+00  0.00000000000E+00  0.66156243042E+03  0.83803760150E+03  0.51443383654E+03 0.  0.
        5    1    3    3  502    0  0.19932869452E+03 -0.75432056709E+02  0.56525402044E+03  0.60411598329E+03  0.46999998093E+01 0.  1.
       -5    1    3    3    0  502 -0.19932869452E+03  0.75432056709E+02  0.96308409979E+02  0.23392161821E+03  0.46999998093E+01 0. -1.
</event>
<event>
 5   0  0.1448458E-01  0.5010254E+03  0.7818609E-02  0.1013512E+00
        1   -1    0    0  501    0  0.00000000000E+00  0.00000000000E+00  0.73527623486E+03  0.73527623488E+03  0.50400001928E-02 0.  1.
       -1   -1    0    0    0  501  0.00000000000E+00  0.00000000000E+00 -0.85351079689E+02  0.85351079838E+02  0.50400001928E-02 0. -1.
    10030    2    1    2    0    0  0.00000000000E+00  0.00000000000E+00  0.64992515517E+03  0.82062731472E+03  0.50102543083E+03 0.  0.
        5    1    3    3  502    0  0.15910672378E+03 -0.18485374157E+03  0.41831795713E+03  0.48424978944E+03  0.46999998093E+01 0.  1.
       -5    1    3    3    0  502 -0.15910672378E+03  0.18485374157E+03  0.23160719805E+03  0.33637752528E+03  0.46999998093E+01 0. -1.
</event>
<event>
 5   0  0.2504064E-01  0.5026047E+03  0.7818609E-02  0.1013101E+00
       -2   -1    0    0    0  501  0.00000000000E+00  0.00000000000E+00  0.47698747097E+02  0.47698747165E+02  0.25500000920E-02 0.  1.
        2   -1    0    0  501    0  0.00000000000E+00  0.00000000000E+00 -0.13239943714E+04  0.13239943714E+04  0.25500000920E-02 0. -1.
    10030    2    1    2    0    0  0.00000000000E+00  0.00000000000E+00 -0.12762956243E+04  0.13716931185E+04  0.50260470641E+03 0.  0.
        5    1    3    3  502    0 -0.13966187454E+03  0.73909207281E+02 -0.11712989847E+04  0.11819185300E+04  0.46999998093E+01 0. -1.
       -5    1    3    3    0  502  0.13966187454E+03 -0.73909207281E+02 -0.10499663960E+03  0.18977458851E+03  0.46999998093E+01 0.  1.
</event>
<event>
 5   0  0.2511944E-01  0.3321119E+03  0.7818609E-02  0.1070206E+00
       -2   -1    0    0    0  501  0.00000000000E+00  0.00000000000E+00  0.17226008032E+03  0.17226008034E+03  0.25500000920E-02 0.  1.
        2   -1    0    0  501    0  0.00000000000E+00  0.00000000000E+00 -0.16007527408E+03  0.16007527410E+03  0.25500000920E-02 0. -1.
    10030    2    1    2    0    0  0.00000000000E+00  0.00000000000E+00  0.12184806241E+02  0.33233535444E+03  0.33211190630E+03 0.  0.
        1    1    3    3  502    0 -0.89338765388E+02 -0.11789767012E+03  0.81597154820E+02  0.16893599771E+03  0.50400001928E-02 0.  1.
       -1    1    3    3    0  502  0.89338765388E+02  0.11789767012E+03 -0.69412348580E+02  0.16339935673E+03  0.50400001928E-02 0. -1.
</event>
<event>
 5   0  0.2413301E-01  0.4819582E+03  0.7818609E-02  0.1018598E+00
       -2   -1    0    0    0  501  0.00000000000E+00  0.00000000000E+00  0.64738259120E+02  0.64738259170E+02  0.25500000920E-02 0. -1.
        2   -1    0    0  501    0  0.00000000000E+00  0.00000000000E+00 -0.89701084413E+03  0.89701084414E+03  0.25500000920E-02 0.  1.
    10030    2    1    2    0    0  0.00000000000E+00  0.00000000000E+00 -0.83227258501E+03  0.96174910331E+03  0.48195817448E+03 0.  0.
        4    1    3    3  502    0  0.14640257750E+03  0.10397800358E+03 -0.73681166335E+03  0.75837865217E+03  0.12699999809E+01 0.  1.
       -4    1    3    3    0  502 -0.14640257750E+03 -0.10397800358E+03 -0.95460921669E+02  0.20337045114E+03  0.12699999809E+01 0. -1.
</event>
<event>
 5   0  0.9868500E-02  0.4976466E+03  0.7818609E-02  0.1014395E+00
       -3   -1    0    0    0  501  0.00000000000E+00  0.00000000000E+00  0.57756512613E+02  0.57756600923E+02  0.10100000352E+00 0.  1.
        3   -1    0    0  501    0  0.00000000000E+00  0.00000000000E+00 -0.10719651874E+04  0.10719651921E+04  0.10100000352E+00 0. -1.
    10030    2    1    2    0    0  0.00000000000E+00  0.00000000000E+00 -0.10142086747E+04  0.11297217930E+04  0.49764655504E+03 0.  0.
        3    1    3    3  502    0 -0.12886103371E+03  0.21216335320E+03 -0.46814276329E+03  0.52988311114E+03  0.10100000352E+00 0. -1.
       -3    1    3    3    0  502  0.12886103371E+03 -0.21216335320E+03 -0.54606591146E+03  0.59983868190E+03  0.10100000352E+00 0.  1.
</event>
<event>
 5   0  0.1453602E-01  0.5011638E+03  0.7818609E-02  0.1013476E+00
       -1   -1    0    0    0  501  0.00000000000E+00  0.00000000000E+00  0.22286964145E+03  0.22286964151E+03  0.50400001928E-02 0. -1.
        1   -1    0    0  501    0  0.00000000000E+00  0.00000000000E+00 -0.28173996908E+03  0.28173996912E+03  0.50400001928E-02 0.  1.
    10030    2    1    2    0    0  0.00000000000E+00  0.00000000000E+00 -0.58870327626E+02  0.50460961063E+03  0.50116378926E+03 0.  0.
        2    1    3    3  502    0 -0.14589796717E+03 -0.19978065625E+03 -0.69618944561E+02  0.25699284987E+03  0.25500000920E-02 0. -1.
       -2    1    3    3    0  502  0.14589796717E+03  0.19978065625E+03  0.10748616935E+02  0.24761676076E+03  0.25500000920E-02 0.  1.
</event>
<event>
 5   0  0.1453602E-01  0.5021213E+03  0.7818609E-02  0.1013227E+00
        1   -1    0    0  501    0  0.00000000000E+00  0.00000000000E+00  0.94185251171E+03  0.94185251172E+03  0.50400001928E-02 0.  1.
       -1   -1    0    0    0  501  0.00000000000E+00  0.00000000000E+00 -0.66922838038E+02  0.66922838227E+02  0.50400001928E-02 0. -1.
    10030    2    1    2    0    0  0.00000000000E+00  0.00000000000E+00  0.87492967367E+03  0.10087753499E+04  0.50212127300E+03 0.  0.
        2    1    3    3  502    0  0.19237971718E+03  0.16130884339E+03  0.43551219525E+03  0.50269411252E+03  0.25500000920E-02 0.  1.
       -2    1    3    3    0  502 -0.19237971718E+03 -0.16130884339E+03  0.43941747842E+03  0.50608123743E+03  0.25500000920E-02 0. -1.
</event>
<event>
 5   0  0.2504064E-01  0.4997437E+03  0.7818609E-02  0.1013846E+00
        2   -1    0    0  501    0  0.00000000000E+00  0.00000000000E+00  0.92222225100E+03  0.92222225100E+03  0.25500000920E-02 0.  1.
       -2   -1    0    0    0  501  0.00000000000E+00  0.00000000000E+00 -0.67701618764E+02  0.67701618812E+02  0.25500000920E-02 0. -1.
    10030    2    1    2    0    0  0.00000000000E+00  0.00000000000E+00  0.85452063224E+03  0.98992386981E+03  0.49974369142E+03 0.  0.
        5    1    3    3  502    0  0.24007536596E+03 -0.40781331461E+02  0.53780864841E+03  0.59038930431E+03  0.46999998093E+01 0.  1.
       -5    1    3    3    0  502 -0.24007536596E+03  0.40781331461E+02  0.31671198382E+03  0.39953456550E+03  0.46999998093E+01 0. -1.
</event>
<event>
 5   0  0.2466034E-01  0.5026933E+03  0.7818609E-02  0.1013078E+00
       -2   -1    0    0    0  501  0.00000000000E+00  0.00000000000E+00  0.59607302312E+02  0.59607302367E+02  0.25500000920E-02 0. -1.
        2   -1    0    0  501    0  0.00000000000E+00  0.00000000000E+00 -0.10598556448E+04  0.10598556448E+04  0.25500000920E-02 0.  1.
    10030    2    1    2    0    0  0.00000000000E+00  0.00000000000E+00 -0.10002483425E+04  0.11194629472E+04  0.50269328962E+03 0.  0.
        3    1    3    3  502    0  0.23672282696E+03 -0.34215954800E+02 -0.32810627254E+03  0.40603222120E+03  0.10100000352E+00 0. -1.
       -3    1    3    3    0  502 -0.23672282696E+03  0.34215954800E+02 -0.67214206993E+03  0.71343072596E+03  0.10100000352E+00 0.  1.
</event>
<event>
 5   0  0.1453602E-01  0.3924994E+03  0.7818609E-02  0.1046408E+00
        1   -1    0    0  501    0  0.00000000000E+00  0.00000000000E+00  0.81962524657E+03  0.81962524659E+03  0.50400001928E-02 0.  1.
       -1   -1    0    0    0  501  0.00000000000E+00  0.00000000000E+00 -0.46989689140E+02  0.46989689410E+02  0.50400001928E-02 0. -1.
    10030    2    1    2    0    0  0.00000000000E+00  0.00000000000E+00  0.77263555743E+03  0.86661493600E+03  0.39249935374E+03 0.  0.
        2    1    3    3  502    0  0.97982769408E+02  0.80596910702E+02  0.55734917666E+02  0.13857440662E+03  0.25500000920E-02 0. -1.
       -2    1    3    3    0  502 -0.97982769408E+02 -0.80596910702E+02  0.71690063977E+03  0.72804052938E+03  0.25500000920E-02 0.  1.
</event>
<event>
 5   0  0.2413301E-01  0.4934205E+03  0.7818609E-02  0.1015511E+00
        2   -1    0    0  501    0  0.00000000000E+00  0.00000000000E+00  0.40870597269E+03  0.40870597270E+03  0.25500000920E-02 0.  1.
       -2   -1    0    0    0  501  0.00000000000E+00  0.00000000000E+00 -0.14892355175E+03  0.14892355177E+03  0.25500000920E-02 0. -1.
    10030    2    1    2    0    0  0.00000000000E+00  0.00000000000E+00  0.25978242095E+03  0.55762952447E+03  0.49342049038E+03 0.  0.
        4    1    3    3  502    0 -0.22036702126E+03 -0.76619210289E+02  0.22052883384E+03  0.32104003940E+03  0.12699999809E+01 0.  1.
       -4    1    3    3    0  502  0.22036702126E+03  0.76619210289E+02  0.39253587110E+02  0.23658948507E+03  0.12699999809E+01 0. -1.
</event>
<event>
 5   0  0.1453602E-01  0.5027028E+03  0.7818609E-02  0.1013076E+00
       -1   -1    0    0    0  501  0.00000000000E+00  0.00000000000E+00  0.56723518334E+02  0.56723518558E+02  0.50400001928E-02 0.  1.
        1   -1    0    0  501    0  0.00000000000E+00  0.00000000000E+00 -0.11137799203E+04  0.11137799203E+04  0.50400001928E-02 0. -1.
    10030    2    1    2    0    0  0.00000000000E+00  0.00000000000E+00 -0.10570564020E+04  0.11705034389E+04  0.50270275857E+03 0.  0.
        2    1    3    3  502    0 -0.72259686753E+01 -0.20157432438E+02 -0.11116522006E+04  0.11118584226E+04  0.25500000920E-02 0. -1.
       -2    1    3    3    0  502  0.72259686753E+01  0.20157432438E+02  0.54595798623E+02  0.58645016324E+02  0.25500000920E-02 0.  1.
</event>
<event>
 5   0  0.9868500E-02  0.4999710E+03  0.7818609E-02  0.1013786E+00
        3   -1    0    0  501    0  0.00000000000E+00  0.00000000000E+00  0.25323280941E+03  0.25323282955E+03  0.10100000352E+00 0.  1.
       -3   -1    0    0    0  501  0.00000000000E+00  0.00000000000E+00 -0.24677975950E+03  0.24677978017E+03  0.10100000352E+00 0. -1.
    10030    2    1    2    0    0  0.00000000000E+00  0.00000000000E+00  0.64530499119E+01  0.50001260972E+03  0.49997096718E+03 0.  0.
        4    1    3    3  502    0 -0.44436077561E+02 -0.17181617445E+02 -0.24219431405E+03  0.24683895889E+03  0.12699999809E+01 0. -1.
       -4    1    3    3    0  502  0.44436077561E+02  0.17181617445E+02  0.24864736396E+03  0.25317365083E+03  0.12699999809E+01 0.  1.
</event>
<event>
 5   0  0.1413361E-01  0.4956245E+03  0.7818609E-02  0.1014927E+00
       -1   -1    0    0    0  501  0.00000000000E+00  0.00000000000E+00  0.46724394839E+03  0.46724394842E+03  0.50400001928E-02 0.  1.
        1   -1    0    0  501    0  0.00000000000E+00  0.00000000000E+00 -0.13143224550E+03  0.13143224560E+03  0.50400001928E-02 0. -1.
    10030    2    1    2    0    0  0.00000000000E+00  0.00000000000E+00  0.33581170289E+03  0.59867619402E+03  0.49562454085E+03 0.  0.
        3    1    3    3  502    0  0.19422406354E+03  0.57212885630E+02  0.34049350762E+03  0.39614661436E+03  0.10100000352E+00 0.  1.
       -3    1    3    3    0  502 -0.19422406354E+03 -0.57212885630E+02 -0.46818047318E+01  0.20252957966E+03  0.10100000352E+00 0. -1.
</event>
<event>
 5   0  0.2466034E-01  0.4937708E+03  0.7818609E-02  0.1015418E+00
        2   -1    0    0  501    0  0.00000000000E+00  0.00000000000E+00  0.80260700353E+03  0.80260700354E+03  0.25500000920E-02 0.  1.
       -2   -1    0    0    0  501  0.00000000000E+00  0.00000000000E+00 -0.75943024868E+02  0.75943024911E+02  0.25500000920E-02 0. -1.
    10030    2    1    2    0    0  0.00000000000E+00  0.00000000000E+00  0.72666397866E+03  0.87855002845E+03  0.49377081181E+03 0.  0.
        3    1    3    3  502    0 -0.18966045556E+03 -0.40329685723E+02  0.63524460605E+03  0.66417865945E+03  0.10100000352E+00 0. -1.
       -3    1    3    3    0  502  0.18966045556E+03  0.40329685723E+02  0.91419372613E+02  0.21437136899E+03  0.10100000352E+00 0.  1.
</event>
<event>
 5   0  0.1453602E-01  0.5062426E+03  0.7818609E-02  0.1012162E+00
       -1   -1    0    0    0  501  0.00000000000E+00  0.00000000000E+00  0.41888943222E+03  0.41888943225E+03  0.50400001928E-02 0.  1.
        1   -1    0    0  501    0  0.00000000000E+00  0.00000000000E+00 -0.15295297646E+03  0.15295297654E+03  0.50400001928E-02 0. -1.
    10030    2    1    2    0    0  0.00000000000E+00  0.00000000000E+00  0.26593645575E+03  0.57184240879E+03  0.50624257228E+03 0.  0.
        2    1    3    3  502    0 -0.57453840167E+02 -0.19885146135E+03 -0.31608153918E+02  0.20938462893E+03  0.25500000920E-02 0. -1.
       -2    1    3    3    0  502  0.57453840167E+02  0.19885146135E+03  0.29754460967E+03  0.36245777986E+03  0.25500000920E-02 0.  1.
</event>
<event>
 5   0  0.2511944E-01  0.5092292E+03  0.7818609E-02  0.1011398E+00
       -2   -1    0    0    0  501  0.00000000000E+00  0.00000000000E+00  0.10251396434E+04  0.10251396434E+04  0.25500000920E-02 0. -1.
        2   -1    0    0  501    0  0.00000000000E+00  0.00000000000E+00 -0.63238793494E+02  0.63238793545E+02  0.25500000920E-02 0.  1.
    10030    2    1    2    0    0  0.00000000000E+00  0.00000000000E+00  0.96190084993E+03  0.10883784370E+04  0.50922919886E+03 0.  0.
        1    1    3    3  502    0  0.18363210106E+03  0.49133416563E+02  0.84299355359E+03  0.86416027020E+03  0.50400001928E-02 0. -1.
       -1    1    3    3    0  502 -0.18363210106E+03 -0.49133416563E+02  0.11890729634E+03  0.22421816677E+03  0.50400001928E-02 0.  1.
</event>
<event>
 5   0  0.9868500E-02  0.4547193E+03  0.7818609E-02  0.1026324E+00
        3   -1    0    0  501    0  0.00000000000E+00  0.00000000000E+00  0.91434813428E+02  0.91434869210E+02  0.10100000352E+00 0.  1.
       -3   -1    0    0    0  501  0.00000000000E+00  0.00000000000E+00 -0.56534687672E+03  0.56534688574E+03  0.10100000352E+00 0. -1.
    10030    2    1    2    0    0  0.00000000000E+00  0.00000000000E+00 -0.47391206329E+03  0.65678175495E+03  0.45471928693E+03 0.  0.
        1    1    3    3  502    0 -0.41742653896E+02  0.10488159071E+03 -0.52201215696E+03  0.53407798051E+03  0.50400001928E-02 0. -1.
       -1    1    3    3    0  502  0.41742653896E+02 -0.10488159071E+03  0.48100093674E+02  0.12270377444E+03  0.50400001928E-02 0.  1.
</event>
<event>
 5   0  0.2466034E-01  0.3717036E+03  0.7818609E-02  0.1054043E+00
        2   -1    0    0  501    0  0.00000000000E+00  0.00000000000E+00  0.84330405902E+03  0.84330405902E+03  0.25500000920E-02 0. -1.
       -2   -1    0    0    0  501  0.00000000000E+00  0.00000000000E+00 -0.40959004663E+02  0.40959004742E+02  0.25500000920E-02 0.  1.
    10030    2    1    2    0    0  0.00000000000E+00  0.00000000000E+00  0.80234505435E+03  0.88426306376E+03  0.37170361807E+03 0.  0.
        3    1    3    3  502    0 -0.11511340106E+03 -0.15647940252E+02  0.56061802785E+02  0.12899181784E+03  0.10100000352E+00 0.  1.
       -3    1    3    3    0  502  0.11511340106E+03  0.15647940252E+02  0.74628325157E+03  0.75527124592E+03  0.10100000352E+00 0. -1.
</event>
<event>
 5   0  0.1529146E-01  0.5119747E+03  0.7818609E-02  0.1010700E+00
       -1   -1    0    0    0  501  0.00000000000E+00  0.00000000000E+00  0.22888122935E+03  0.22888122941E+03  0.50400001928E-02 0. -1.
        1   -1    0    0  501    0  0.00000000000E+00  0.00000000000E+00 -0.28630363971E+03  0.28630363976E+03  0.50400001928E-02 0.  1.
    10030    2    1    2    0    0  0.00000000000E+00  0.00000000000E+00 -0.57422410363E+02  0.51518486916E+03  0.51197472223E+03 0.  0.
        1    1    3    3  502    0 -0.14701432946E+03  0.16022647026E+02 -0.23897011611E+03  0.28102785396E+03  0.50400001928E-02 0.  1.
       -1    1    3    3    0  502  0.14701432946E+03 -0.16022647026E+02  0.18154770574E+03  0.23415701520E+03  0.50400001928E-02 0. -1.
</event>
<event>
 5   0  0.1529146E-01  0.5066297E+03  0.7818609E-02  0.1012063E+00
       -1   -1    0    0    0  501  0.00000000000E+00  0.00000000000E+00  0.22497880933E+03  0.22497880939E+03  0.50400001928E-02 0.  1.
        1   -1    0    0  501    0  0.00000000000E+00  0.00000000000E+00 -0.28521980614E+03  0.28521980619E+03  0.50400001928E-02 0. -1.
    10030    2    1    2    0    0  0.00000000000E+00  0.00000000000E+00 -0.60240996811E+02  0.51019861558E+03  0.50662969676E+03 0.  0.
        1    1    3    3  502    0 -0.20382235043E+03 -0.14085526216E+03  0.23021084314E+02  0.24882468881E+03  0.50400001928E-02 0. -1.
       -1    1    3    3    0  502  0.20382235043E+03  0.14085526216E+03 -0.83262081124E+02  0.26137392677E+03  0.50400001928E-02 0.  1.
</event>
<event>
 5   0  0.2511944E-01  0.4831974E+03  0.7818609E-02  0.1018260E+00
        2   -1    0    0  501    0  0.00000000000E+00  0.00000000000E+00  0.12035351808E+04  0.12035351808E+04  0.25500000920E-02 0. -1.
       -2   -1    0    0    0  501  0.00000000000E+00  0.00000000000E+00 -0.48498728025E+02  0.48498728092E+02  0.25500000920E-02 0.  1.
    10030    2    1    2    0    0  0.00000000000E+00  0.00000000000E+00  0.11550364528E+04  0.12520339089E+04  0.48319737353E+03 0.  0.
        1    1    3    3  502    0  0.22675503772E+03 -0.72098820497E+02  0.68603236069E+03  0.72612429169E+03  0.50400001928E-02 0.  1.
       -1    1    3    3    0  502 -0.22675503772E+03  0.72098820497E+02  0.46900409210E+03  0.52590961722E+03  0.50400001928E-02 0. -1.
</event>
<event>
 5   0  0.9868500E-02  0.5032995E+03  0.7818609E-02  0.1012921E+00
        4   -1    0    0  501    0  0.00000000000E+00  0.00000000000E+00  0.15779598497E+03  0.15780109560E+03  0.12699999809E+01 0. -1.
       -4   -1    0    0    0  501  0.00000000000E+00  0.00000000000E+00 -0.40131318433E+03  0.40131519385E+03  0.12699999809E+01 0.  1.
    10030    2    1    2    0    0  0.00000000000E+00  0.00000000000E+00 -0.24351719936E+03  0.55911628945E+03  0.50329951197E+03 0.  0.
        5    1    3    3  502    0  0.73417273996E+02 -0.46784032739E+02 -0.38400357377E+03  0.39377617565E+03  0.46999998093E+01 0.  1.
       -5    1    3    3    0  502 -0.73417273996E+02  0.46784032739E+02  0.14048637441E+03  0.16534011380E+03  0.46999998093E+01 0. -1.
</event>
<event>
 5   0  0.1529146E-01  0.5153874E+03  0.7818609E-02  0.1009839E+00
        1   -1    0    0  501    0  0.00000000000E+00  0.00000000000E+00  0.11910056703E+03  0.11910056714E+03  0.50400001928E-02 0.  1.
       -1   -1    0    0    0  501  0.00000000000E+00  0.00000000000E+00 -0.55756268303E+03  0.55756268305E+03  0.50400001928E-02 0. -1.
    10030    2    1    2    0    0  0.00000000000E+00  0.00000000000E+00 -0.43846211599E+03  0.67666325019E+03  0.51538735626E+03 0.  0.
        1    1    3    3  502    0  0.21700445277E+03 -0.13713096652E+03 -0.18957537878E+03  0.31911543173E+03  0.50400001928E-02 0.  1.
       -1    1    3    3    0  502 -0.21700445277E+03  0.13713096652E+03 -0.24888673722E+03  0.35754781846E+03  0.50400001928E-02 0. -1.
</event>
<event>
 5   0  0.2466034E-01  0.5091846E+03  0.7818609E-02  0.1011409E+00
       -2   -1    0    0    0  501  0.00000000000E+00  0.00000000000E+00  0.25896010958E+03  0.25896010959E+03  0.25500000920E-02 0.  1.
        2   -1    0    0  501    0  0.00000000000E+00  0.00000000000E+00 -0.25029816654E+03  0.25029816656E+03  0.25500000920E-02 0. -1.
    10030    2    1    2    0    0  0.00000000000E+00  0.00000000000E+00  0.86619430311E+01  0.50925827615E+03  0.50918460559E+03 0.  0.
        3    1    3    3  502    0 -0.41595058364E+02 -0.24715955908E+03  0.49050234357E+02  0.25538976529E+03  0.10100000352E+00 0.  1.
       -3    1    3    3    0  502  0.41595058364E+02  0.24715955908E+03 -0.40388291326E+02  0.25386851085E+03  0.10100000352E+00 0. -1.
</event>
<event>
 5   0  0.1439814E-01  0.5001346E+03  0.7818609E-02  0.1013744E+00
        1   -1    0    0  501    0  0.00000000000E+00  0.00000000000E+00  0.18851626711E+04  0.18851626711E+04  0.50400001928E-02 0.  1.
       -1   -1    0    0    0  501  0.00000000000E+00  0.00000000000E+00 -0.33171487674E+02  0.33171488057E+02  0.50400001928E-02 0. -1.
    10030    2    1    2    0    0  0.00000000000E+00  0.00000000000E+00  0.18519911834E+04  0.19183341591E+04  0.50013458461E+03 0.  0.
        4    1    3    3  502    0 -0.95968566006E+02  0.10452706050E+03  0.13622553564E+03  0.19671014589E+03  0.12699999809E+01 0. -1.
       -4    1    3    3    0  502  0.95968566006E+02 -0.10452706050E+03  0.17157656477E+04  0.17216240132E+04  0.12699999809E+01 0.  1.
</event>
<event>
 5   0  0.1439814E-01  0.5070567E+03  0.7818609E-02  0.1011953E+00
       -1   -1    0    0    0  501  0.00000000000E+00  0.00000000000E+00  0.12454351506E+03  0.12454351516E+03  0.50400001928E-02 0. -1.
        1   -1    0    0  501    0  0.00000000000E+00  0.00000000000E+00 -0.51609777569E+03  0.51609777571E+03  0.50400001928E-02 0.  1.
    10030    2    1    2    0    0  0.00000000000E+00  0.00000000000E+00 -0.39155426062E+03  0.64064129088E+03  0.50705672716E+03 0.  0.
        4    1    3    3  502    0  0.18269731956E+03  0.81196274761E+02 -0.39274533113E+03  0.44070585841E+03  0.12699999809E+01 0.  1.
       -4    1    3    3    0  502 -0.18269731956E+03 -0.81196274761E+02  0.11910705071E+01  0.19993543247E+03  0.12699999809E+01 0. -1.
</event>
<event>
 5   0  0.1439814E-01  0.4905592E+03  0.7818609E-02  0.1016273E+00
       -1   -1    0    0    0  501  0.00000000000E+00  0.00000000000E+00  0.73929614625E+02  0.73929614797E+02  0.50400001928E-02 0. -1.
        1   -1    0    0  501    0  0.00000000000E+00  0.00000000000E+00 -0.81377519610E+03  0.81377519611E+03  0.50400001928E-02 0.  1.
    10030    2    1    2    0    0  0.00000000000E+00  0.00000000000E+00 -0.73984558147E+03  0.88770481091E+03  0.49055921853E+03 0.  0.
        4    1    3    3  502    0  0.19344988985E+03  0.13190779073E+03 -0.50213279809E+03  0.55404104988E+03  0.12699999809E+01 0. -1.
       -4    1    3    3    0  502 -0.19344988985E+03 -0.13190779073E+03 -0.23771278338E+03  0.33366376103E+03  0.12699999809E+01 0.  1.
</event>
<event>
 5   0  0.2488968E-01  0.4995807E+03  0.7818609E-02  0.1013888E+00
       -2   -1    0    0    0  501  0.00000000000E+00  0.00000000000E+00  0.12217131738E+03  0.12217131741E+03  0.25500000920E-02 0. -1.
        2   -1    0    0  501    0  0.00000000000E+00  0.00000000000E+00 -0.51071900833E+03  0.51071900834E+03  0.25500000920E-02 0.  1.
    10030    2    1    2    0    0  0.00000000000E+00  0.00000000000E+00 -0.38854769095E+03  0.63289032575E+03  0.49958068045E+03 0.  0.
        2    1    3    3  502    0  0.93880271593E+02 -0.17916365313E+03 -0.85955550050E+01  0.20245247237E+03  0.25500000920E-02 0.  1.
       -2    1    3    3    0  502 -0.93880271593E+02  0.17916365313E+03 -0.37995213595E+03  0.43043785337E+03  0.25500000920E-02 0. -1.
</event>
<event>
 5   0  0.2413301E-01  0.5015170E+03  0.7818609E-02  0.1013384E+00
        2   -1    0    0  501    0  0.00000000000E+00  0.00000000000E+00  0.35087572225E+03  0.35087572226E+03  0.25500000920E-02 0. -1.
       -2   -1    0    0    0  501  0.00000000000E+00  0.00000000000E+00 -0.17920822101E+03  0.17920822103E+03  0.25500000920E-02 0.  1.
    10030    2    1    2    0    0  0.00000000000E+00  0.00000000000E+00  0.17166750124E+03  0.53008394328E+03  0.50151695479E+03 0.  0.
        4    1    3    3  502    0 -0.65965157994E+02 -0.24183222660E+03  0.78824799423E+02  0.26277212523E+03  0.12699999809E+01 0.  1.
       -4    1    3    3    0  502  0.65965157994E+02  0.24183222660E+03  0.92842701816E+02  0.26731181806E+03  0.12699999809E+01 0. -1.
</event>
<event>
 5   0  0.2466034E-01  0.4975222E+03  0.7818609E-02  0.1014428E+00
        2   -1    0    0  501    0  0.00000000000E+00  0.00000000000E+00  0.14630002057E+04  0.14630002057E+04  0.25500000920E-02 0. -1.
       -2   -1    0    0    0  501  0.00000000000E+00  0.00000000000E+00 -0.42298064888E+02  0.42298064965E+02  0.25500000920E-02 0.  1.
    10030    2    1    2    0    0  0.00000000000E+00  0.00000000000E+00  0.14207021408E+04  0.15052982706E+04  0.49752217113E+03 0.  0.
        3    1    3    3  502    0 -0.17851813976E+03 -0.17224115593E+03  0.76665676743E+03  0.80579051327E+03  0.10100000352E+00 0.  1.
       -3    1    3    3    0  502  0.17851813976E+03  0.17224115593E+03  0.65404537336E+03  0.69950775738E+03  0.10100000352E+00 0. -1.
</event>
<event>
 5   0  0.1413361E-01  0.4802141E+03  0.7818609E-02  0.1019076E+00
        1   -1    0    0  501    0  0.00000000000E+00  0.00000000000E+00  0.14940588094E+03  0.14940588103E+03  0.50400001928E-02 0.  1.
       -1   -1    0    0    0  501  0.00000000000E+00  0.00000000000E+00 -0.38587095659E+03  0.38587095663E+03  0.50400001928E-02 0. -1.
    10030    2    1    2    0    0  0.00000000000E+00  0.00000000000E+00 -0.23646507565E+03  0.53527683765E+03  0.48021407822E+03 0.  0.
        3    1    3    3  502    0  0.15023159243E+03  0.18317766544E+03 -0.74663736157E+02  0.24839136897E+03  0.10100000352E+00 0.  1.
       -3    1    3    3    0  502 -0.15023159243E+03 -0.18317766544E+03 -0.16180133950E+03  0.28688546869E+03  0.10100000352E+00 0. -1.
</event>
<event>
 5   0  0.2504064E-01  0.5073852E+03  0.7818609E-02  0.1011869E+00
       -2   -1    0    0    0  501  0.00000000000E+00  0.00000000000E+00  0.12510982829E+03  0.12510982832E+03  0.25500000920E-02 0. -1.
        2   -1    0    0  501    0  0.00000000000E+00  0.00000000000E+00 -0.51442746567E+03  0.51442746567E+03  0.25500000920E-02 0.  1.
    10030    2    1    2    0    0  0.00000000000E+00  0.00000000000E+00 -0.38931763738E+03  0.63953729399E+03  0.50738518665E+03 0.  0.
        5    1    3    3  502    0 -0.55974215489E+02  0.62429428537E+00  0.11717211756E+03  0.12994190115E+03  0.46999998093E+01 0. -1.
       -5    1    3    3    0  502  0.55974215489E+02 -0.62429428537E+00 -0.50648975494E+03  0.50959539284E+03  0.46999998093E+01 0.  1.
</event>
<event>
 5   0  0.9868500E-02  0.4984085E+03  0.7818609E-02  0.1014195E+00
       -3   -1    0    0    0  501  0.00000000000E+00  0.00000000000E+00  0.10195070736E+03  0.10195075739E+03  0.10100000352E+00 0. -1.
        3   -1    0    0  501    0  0.00000000000E+00  0.00000000000E+00 -0.60914464855E+03  0.60914465693E+03  0.10100000352E+00 0.  1.
    10030    2    1    2    0    0  0.00000000000E+00  0.00000000000E+00 -0.50719394119E+03  0.71109541431E+03  0.49840846128E+03 0.  0.
        2    1    3    3  502    0 -0.20312235827E+03  0.13854515702E+03 -0.19565520542E+03  0.31422032457E+03  0.25500000920E-02 0. -1.
       -2    1    3    3    0  502  0.20312235827E+03 -0.13854515702E+03 -0.31153873578E+03  0.39687508974E+03  0.25500000920E-02 0.  1.
</event>
<event>
 5   0  0.9868500E-02  0.5000485E+03  0.7818609E-02  0.1013766E+00
       -3   -1    0    0    0  501  0.00000000000E+00  0.00000000000E+00  0.69293303810E+02  0.69293377418E+02  0.10100000352E+00 0.  1.
        3   -1    0    0  501    0  0.00000000000E+00  0.00000000000E+00 -0.90213756427E+03  0.90213756992E+03  0.10100000352E+00 0. -1.
    10030    2    1    2    0    0  0.00000000000E+00  0.00000000000E+00 -0.83284426046E+03  0.97143094734E+03  0.50004852092E+03 0.  0.
        5    1    3    3  502    0 -0.71720281826E+02 -0.14757379279E+01 -0.88162675414E+03  0.88455288154E+03  0.46999998093E+01 0. -1.
       -5    1    3    3    0  502  0.71720281826E+02  0.14757379279E+01  0.48782493687E+02  0.86878065794E+02  0.46999998093E+01 0.  1.
</event>
<event>
 5   0  0.2488968E-01  0.4901930E+03  0.7818609E-02  0.1016371E+00
       -2   -1    0    0    0  501  0.00000000000E+00  0.00000000000E+00  0.83487118318E+02  0.83487118357E+02  0.25500000920E-02 0.  1.
        2   -1    0    0  501    0  0.00000000000E+00  0.00000000000E+00 -0.71953980813E+03  0.71953980813E+03  0.25500000920E-02 0. -1.
    10030    2    1    2    0    0  0.00000000000E+00  0.00000000000E+00 -0.63605268981E+03  0.80302692649E+03  0.49019304407E+03 0.  0.
        2    1    3    3  502    0 -0.59033545999E+02 -0.23188037803E+03 -0.40500202951E+03  0.47040420192E+03  0.25500000920E-02 0. -1.
       -2    1    3    3    0  502  0.59033545999E+02  0.23188037803E+03 -0.23105066030E+03  0.33262272457E+03  0.25500000920E-02 0.  1.
</event>
<event>
 5   0  0.1413361E-01  0.4951667E+03  0.7818609E-02  0.1015048E+00
       -1   -1    0    0    0  501  0.00000000000E+00  0.00000000000E+00  0.15016798621E+03  0.15016798630E+03  0.50400001928E-02 0.  1.
        1   -1    0    0  501    0  0.00000000000E+00  0.00000000000E+00 -0.40819288122E+03  0.40819288125E+03  0.50400001928E-02 0. -1.
    10030    2    1    2    0    0  0.00000000000E+00  0.00000000000E+00 -0.25802489500E+03  0.55836086754E+03  0.49516665070E+03 0.  0.
        3    1    3    3  502    0 -0.50332832419E+02  0.17059995574E+03 -0.32321161210E+03  0.36892207214E+03  0.10100000352E+00 0. -1.
       -3    1    3    3    0  502  0.50332832419E+02 -0.17059995574E+03  0.65186717096E+02  0.18943879540E+03  0.10100000352E+00 0.  1.
</event>
<event>
 5   0  0.2504064E-01  0.4970617E+03  0.7818609E-02  0.1014549E+00
        2   -1    0    0  501    0  0.00000000000E+00  0.00000000000E+00  0.10127189767E+04  0.10127189767E+04  0.25500000920E-02 0.  1.
       -2   -1    0    0    0  501  0.00000000000E+00  0.00000000000E+00 -0.60991817770E+02  0.60991817823E+02  0.25500000920E-02 0. -1.
    10030    2    1    2    0    0  0.00000000000E+00  0.00000000000E+00  0.95172715890E+03  0.10737107945E+04  0.49706165134E+03 0.  0.
        5    1    3    3  502    0  0.28367357833E+01 -0.16642724076E+02  0.10113826520E+04  0.10115344711E+04  0.46999998093E+01 0.  1.
       -5    1    3    3    0  502 -0.28367357833E+01  0.16642724076E+02 -0.59655493137E+02  0.62176323421E+02  0.46999998093E+01 0. -1.
</event>
<event>
 5   0  0.1448458E-01  0.5130665E+03  0.7818609E-02  0.1010424E+00
       -1   -1    0    0    0  501  0.00000000000E+00  0.00000000000E+00  0.19878447528E+03  0.19878447534E+03  0.50400001928E-02 0.  1.
        1   -1    0    0  501    0  0.00000000000E+00  0.00000000000E+00 -0.33105858498E+03  0.33105858502E+03  0.50400001928E-02 0. -1.
    10030    2    1    2    0    0  0.00000000000E+00  0.00000000000E+00 -0.13227410970E+03  0.52984306036E+03  0.51306649522E+03 0.  0.
        5    1    3    3  502    0 -0.21765917195E+03  0.13346375963E+03 -0.91414489273E+02  0.27123198394E+03  0.46999998093E+01 0.  1.
       -5    1    3    3    0  502  0.21765917195E+03 -0.13346375963E+03 -0.40859620431E+02  0.25861107642E+03  0.46999998093E+01 0. -1.
</event>
<event>
 5   0  0.2504064E-01  0.4983612E+03  0.7818609E-02  0.1014208E+00
        2   -1    0    0  501    0  0.00000000000E+00  0.00000000000E+00  0.62213764257E+03  0.62213764257E+03  0.25500000920E-02 0.  1.
       -2   -1    0    0    0  501  0.00000000000E+00  0.00000000000E+00 -0.99802643581E+02  0.99802643614E+02  0.25500000920E-02 0. -1.
    10030    2    1    2    0    0  0.00000000000E+00  0.00000000000E+00  0.52233499898E+03  0.72194028618E+03  0.49836124012E+03 0.  0.
        5    1    3    3  502    0  0.20658005392E+03 -0.60878506732E+02  0.79727836770E+02  0.22969573182E+03  0.46999998093E+01 0.  1.
       -5    1    3    3    0  502 -0.20658005392E+03  0.60878506732E+02  0.44260716222E+03  0.49224455437E+03  0.46999998093E+01 0. -1.
</event>
<event>
 5   0  0.2511944E-01  0.5081860E+03  0.7818609E-02  0.1011664E+00
       -2   -1    0    0    0  501  0.00000000000E+00  0.00000000000E+00  0.14278539885E+03  0.14278539888E+03  0.25500000920E-02 0.  1.
        2   -1    0    0  501    0  0.00000000000E+00  0.00000000000E+00 -0.45216976727E+03  0.45216976728E+03  0.25500000920E-02 0. -1.
    10030    2    1    2    0    0  0.00000000000E+00  0.00000000000E+00 -0.30938436842E+03  0.59495516615E+03  0.50818595249E+03 0.  0.
        1    1    3    3  502    0  0.12747309168E+03 -0.67760294530E+02 -0.39949338880E+03  0.42477737032E+03  0.50400001928E-02 0. -1.
       -1    1    3    3    0  502 -0.12747309168E+03  0.67760294530E+02  0.90109020377E+02  0.17017779584E+03  0.50400001928E-02 0.  1.
</event>
<event>
 5   0  0.2413301E-01  0.5009547E+03  0.7818609E-02  0.1013530E+00
        2   -1    0    0  501    0  0.00000000000E+00  0.00000000000E+00  0.24354771457E+03  0.24354771459E+03  0.25500000920E-02 0. -1.
       -2   -1    0    0    0  501  0.00000000000E+00  0.00000000000E+00 -0.25760415674E+03  0.25760415675E+03  0.25500000920E-02 0.  1.
    10030    2    1    2    0    0  0.00000000000E+00  0.00000000000E+00 -0.14056442167E+02  0.50115187134E+03  0.50095470313E+03 0.  0.
        4    1    3    3  502    0 -0.14471890067E+03 -0.68330877410E+02 -0.19978156310E+03  0.25598233313E+03  0.12699999809E+01 0.  1.
       -4    1    3    3    0  502  0.14471890067E+03  0.68330877410E+02  0.18572512094E+03  0.24516953821E+03  0.12699999809E+01 0. -1.
</event>
<event>
 5   0  0.1413361E-01  0.5003311E+03  0.7818609E-02  0.1013693E+00
        1   -1    0    0  501    0  0.00000000000E+00  0.00000000000E+00  0.32769120760E+03  0.32769120764E+03  0.50400001928E-02 0. -1.
       -1   -1    0    0    0  501  0.00000000000E+00  0.00000000000E+00 -0.19098101161E+03  0.19098101168E+03  0.50400001928E-02 0.  1.
    10030    2    1    2    0    0  0.00000000000E+00  0.00000000000E+00  0.13671019599E+03  0.51867221931E+03  0.50033108378E+03 0.  0.
        3    1    3    3  502    0 -0.40006889202E+02  0.21871469024E+03 -0.50504516964E+02  0.22800741949E+03  0.10100000352E+00 0.  1.
       -3    1    3    3    0  502  0.40006889202E+02 -0.21871469024E+03  0.18721471295E+03  0.29066479982E+03  0.10100000352E+00 0. -1.
</event>
<event>
 5   0  0.1439814E-01  0.5138014E+03  0.7818609E-02  0.1010238E+00
       -1   -1    0    0    0  501  0.00000000000E+00  0.00000000000E+00  0.13811590855E+03  0.13811590864E+03  0.50400001928E-02 0.  1.
        1   -1    0    0  501    0  0.00000000000E+00  0.00000000000E+00 -0.47784489643E+03  0.47784489646E+03  0.50400001928E-02 0. -1.
    10030    2    1    2    0    0  0.00000000000E+00  0.00000000000E+00 -0.33972898788E+03  0.61596080509E+03  0.51380144823E+03 0.  0.
        4    1    3    3  502    0  0.17765473587E+03 -0.18533374795E+03 -0.18101850418E+03  0.31413232094E+03  0.12699999809E+01 0. -1.
       -4    1    3    3    0  502 -0.17765473587E+03  0.18533374795E+03 -0.15871048370E+03  0.30182848415E+03  0.12699999809E+01 0.  1.
</event>
<event>
 5   0  0.2511944E-01  0.5004681E+03  0.7818609E-02  0.1013657E+00
       -2   -1    0    0    0  501  0.00000000000E+00  0.00000000000E+00  0.24713290332E+03  0.24713290333E+03  0.25500000920E-02 0. -1.
        2   -1    0    0  501    0  0.00000000000E+00  0.00000000000E+00 -0.25337408241E+03  0.25337408242E+03  0.25500000920E-02 0.  1.
    10030    2    1    2    0    0  0.00000000000E+00  0.00000000000E+00 -0.62411790889E+01  0.50050698575E+03  0.50046807138E+03 0.  0.
        1    1    3    3  502    0 -0.45816847223E+02 -0.38791037178E+02  0.23982451154E+03  0.24722403689E+03  0.50400001928E-02 0. -1.
       -1    1    3    3    0  502  0.45816847223E+02  0.38791037178E+02 -0.24606569063E+03  0.25328294886E+03  0.50400001928E-02 0.  1.
</event>
<event>
 5   0  0.1439814E-01  0.4954498E+03  0.7818609E-02  0.1014973E+00
       -1   -1    0    0    0  501  0.00000000000E+00  0.00000000000E+00  0.13387730586E+03  0.13387730595E+03  0.50400001928E-02 0.  1.
        1   -1    0    0  501    0  0.00000000000E+00  0.00000000000E+00 -0.45838700175E+03  0.45838700177E+03  0.50400001928E-02 0. -1.
    10030    2    1    2    0    0  0.00000000000E+00  0.00000000000E+00 -0.32450969589E+03  0.59226430773E+03  0.49544976282E+03 0.  0.
        4    1    3    3  502    0 -0.20583598449E+03  0.49767945701E+02 -0.31590401090E+03  0.38031862685E+03  0.12699999809E+01 0. -1.
       -4    1    3    3    0  502  0.20583598449E+03 -0.49767945701E+02 -0.86056849931E+01  0.21194568088E+03  0.12699999809E+01 0.  1.
</event>
<event>
 5   0  0.2413301E-01  0.4942698E+03  0.7818609E-02  0.1015285E+00
       -2   -1    0    0    0  501  0.00000000000E+00  0.00000000000E+00  0.45511291764E+03  0.45511291765E+03  0.25500000920E-02 0.  1.
        2   -1    0    0  501    0  0.00000000000E+00  0.00000000000E+00 -0.13419891467E+03  0.13419891470E+03  0.25500000920E-02 0. -1.
    10030    2    1    2    0    0  0.00000000000E+00  0.00000000000E+00  0.32091400297E+03  0.58931183234E+03  0.49426980329E+03 0.  0.
        4    1    3    3  502    0 -0.12311148951E+03  0.10609353946E+03 -0.61519213922E+02  0.17377716923E+03  0.12699999809E+01 0. -1.
       -4    1    3    3    0  502  0.12311148951E+03 -0.10609353946E+03  0.38243321689E+03  0.41553466311E+03  0.12699999809E+01 0.  1.
</event>
<event>
 5   0  0.2504064E-01  0.5042285E+03  0.7818609E-02  0.1012681E+00
        2   -1    0    0  501    0  0.00000000000E+00  0.00000000000E+00  0.11278204385E+04  0.11278204385E+04  0.25500000920E-02 0.  1.
       -2   -1    0    0    0  501  0.00000000000E+00  0.00000000000E+00 -0.56357896619E+02  0.56357896676E+02  0.25500000920E-02 0. -1.
    10030    2    1    2    0    0  0.00000000000E+00  0.00000000000E+00  0.10714625419E+04  0.11841783352E+04  0.50422847090E+03 0.  0.
        5    1    3    3  502    0 -0.18610477887E+03 -0.51708695025E+02  0.15537125954E+03  0.24793365272E+03  0.46999998093E+01 0. -1.
       -5    1    3    3    0  502  0.18610477887E+03  0.51708695025E+02  0.91609128239E+03  0.93624468251E+03  0.46999998093E+01 0.  1.
</event>
<event>
 5   0  0.2504064E-01  0.4979594E+03  0.7818609E-02  0.1014313E+00
        2   -1    0    0  501    0  0.00000000000E+00  0.00000000000E+00  0.45951300156E+03  0.45951300157E+03  0.25500000920E-02 0.  1.
       -2   -1    0    0    0  501  0.00000000000E+00  0.00000000000E+00 -0.13490562390E+03  0.13490562393E+03  0.25500000920E-02 0. -1.
    10030    2    1    2    0    0  0.00000000000E+00  0.00000000000E+00  0.32460737766E+03  0.59441862549E+03  0.49795938861E+03 0.  0.
        5    1    3    3  502    0 -0.16250317294E+03  0.26313065644E+02  0.38520832393E+03  0.41893579635E+03  0.46999998093E+01 0.  1.
       -5    1    3    3    0  502  0.16250317294E+03 -0.26313065644E+02 -0.60600946272E+02  0.17548282915E+03  0.46999998093E+01 0. -1.
</event>
<event>
 5   0  0.1453602E-01  0.4941215E+03  0.7818609E-02  0.1015325E+00
        1   -1    0    0  501    0  0.00000000000E+00  0.00000000000E+00  0.47008341841E+03  0.47008341844E+03  0.50400001928E-02 0. -1.
       -1   -1    0    0    0  501  0.00000000000E+00  0.00000000000E+00 -0.12984719021E+03  0.12984719031E+03  0.50400001928E-02 0.  1.
    10030    2    1    2    0    0  0.00000000000E+00  0.00000000000E+00  0.34023622820E+03  0.59993060875E+03  0.49412148743E+03 0.  0.
        2    1    3    3  502    0  0.95969412848E+02 -0.10613834690E+03 -0.74413589661E+02  0.16128502478E+03  0.25500000920E-02 0.  1.
       -2    1    3    3    0  502 -0.95969412848E+02  0.10613834690E+03  0.41464981786E+03  0.43864558397E+03  0.25500000920E-02 0. -1.
</event>
<event>
 5   0  0.1453602E-01  0.4897047E+03  0.7818609E-02  0.1016502E+00
        1   -1    0    0  501    0  0.00000000000E+00  0.00000000000E+00  0.71413933459E+03  0.71413933461E+03  0.50400001928E-02 0.  1.
       -1   -1    0    0    0  501  0.00000000000E+00  0.00000000000E+00 -0.83950961906E+02  0.83950962057E+02  0.50400001928E-02 0. -1.
    10030    2    1    2    0    0  0.00000000000E+00  0.00000000000E+00  0.63018837268E+03  0.79809029666E+03  0.48970474427E+03 0.  0.
        2    1    3    3  502    0 -0.19382760964E+02 -0.22960487275E+03  0.45006358168E+03  0.50561973515E+03  0.25500000920E-02 0.  1.
       -2    1    3    3    0  502  0.19382760964E+02  0.22960487275E+03  0.18012479100E+03  0.29247056151E+03  0.25500000920E-02 0. -1.
</event>
<event>
 5   0  0.9868500E-02  0.5022824E+03  0.7818609E-02  0.1013185E+00
       -3   -1    0    0    0  501  0.00000000000E+00  0.00000000000E+00  0.27404680274E+03  0.27404682135E+03  0.10100000352E+00 0. -1.
        3   -1    0    0  501    0  0.00000000000E+00  0.00000000000E+00 -0.23015007833E+03  0.23015010049E+03  0.10100000352E+00 0.  1.
    10030    2    1    2    0    0  0.00000000000E+00  0.00000000000E+00  0.43896724407E+02  0.50419692184E+03  0.50228240421E+03 0.  0.
        2    1    3    3  502    0 -0.16951994223E+03 -0.14921080254E+03  0.13223537454E+03  0.26170034141E+03  0.25500000920E-02 0. -1.
       -2    1    3    3    0  502  0.16951994223E+03  0.14921080254E+03 -0.88338650132E+02  0.24249658043E+03  0.25500000920E-02 0.  1.
</event>
<event>
 5   0  0.1529146E-01  0.4628498E+03  0.7818609E-02  0.1023958E+00
        1   -1    0    0  501    0  0.00000000000E+00  0.00000000000E+00  0.55876967053E+02  0.55876967280E+02  0.50400001928E-02 0. -1.
       -1   -1    0    0    0  501  0.00000000000E+00  0.00000000000E+00 -0.95848925783E+03  0.95848925784E+03  0.50400001928E-02 0.  1.
    10030    2    1    2    0    0  0.00000000000E+00  0.00000000000E+00 -0.90261229077E+03  0.10143662251E+04  0.46284975015E+03 0.  0.
        1    1    3    3  502    0 -0.12610576761E+03  0.14356241901E+03 -0.73742643970E+03  0.76178119350E+03  0.50400001928E-02 0. -1.
       -1    1    3    3    0  502  0.12610576761E+03 -0.14356241901E+03 -0.16518585107E+03  0.25258503162E+03  0.50400001928E-02 0.  1.
</event>
<event>
 5   0  0.2504064E-01  0.4982118E+03  0.7818609E-02  0.1014247E+00
        2   -1    0    0  501    0  0.00000000000E+00  0.00000000000E+00  0.18186115803E+04  0.18186115803E+04  0.25500000920E-02 0. -1.
       -2   -1    0    0    0  501  0.00000000000E+00  0.00000000000E+00 -0.34121492633E+02  0.34121492729E+02  0.25500000920E-02 0.  1.
    10030    2    1    2    0    0  0.00000000000E+00  0.00000000000E+00  0.17844900877E+04  0.18527330731E+04  0.49821176915E+03 0.  0.
        5    1    3    3  502    0 -0.21148144234E+03  0.81723780924E+02  0.50886072324E+03  0.55710367301E+03  0.46999998093E+01 0.  1.
       -5    1    3    3    0  502  0.21148144234E+03 -0.81723780924E+02  0.12756293645E+04  0.12956294000E+04  0.46999998093E+01 0. -1.
</event>
<event>
 5   0  0.2511944E-01  0.5641703E+03  0.7818609E-02  0.9982662E-01
       -2   -1    0    0    0  501  0.00000000000E+00  0.00000000000E+00  0.83816070465E+02  0.83816070504E+02  0.25500000920E-02 0. -1.
        2   -1    0    0  501    0  0.00000000000E+00  0.00000000000E+00 -0.94936500448E+03  0.94936500448E+03  0.25500000920E-02 0.  1.
    10030    2    1    2    0    0  0.00000000000E+00  0.00000000000E+00 -0.86554893401E+03  0.10331810750E+04  0.56417034355E+03 0.  0.
        1    1    3    3  502    0 -0.37086113304E+02  0.27956034321E+03 -0.42081057884E+03  0.50656777295E+03  0.50400001928E-02 0. -1.
       -1    1    3    3    0  502  0.37086113304E+02 -0.27956034321E+03 -0.44473835517E+03  0.52661330204E+03  0.50400001928E-02 0.  1.
</event>
<event>
 5   0  0.2511944E-01  0.5022286E+03  0.7818609E-02  0.1013199E+00
        2   -1    0    0  501    0  0.00000000000E+00  0.00000000000E+00  0.11054976160E+04  0.11054976160E+04  0.25500000920E-02 0. -1.
       -2   -1    0    0    0  501  0.00000000000E+00  0.00000000000E+00 -0.57040731737E+02  0.57040731794E+02  0.25500000920E-02 0.  1.
    10030    2    1    2    0    0  0.00000000000E+00  0.00000000000E+00  0.10484568842E+04  0.11625383478E+04  0.50222860525E+03 0.  0.
        1    1    3    3  502    0  0.23855755909E+03 -0.71210110675E+02  0.60022182136E+03  0.64980521984E+03  0.50400001928E-02 0. -1.
       -1    1    3    3    0  502 -0.23855755909E+03  0.71210110675E+02  0.44823506286E+03  0.51273312792E+03  0.50400001928E-02 0.  1.
</event>
<event>
 5   0  0.2511944E-01  0.5047493E+03  0.7818609E-02  0.1012547E+00
       -2   -1    0    0    0  501  0.00000000000E+00  0.00000000000E+00  0.73208897509E+02  0.73208897553E+02  0.25500000920E-02 0.  1.
        2   -1    0    0  501    0  0.00000000000E+00  0.00000000000E+00 -0.87001666518E+03  0.87001666519E+03  0.25500000920E-02 0. -1.
    10030    2    1    2    0    0  0.00000000000E+00  0.00000000000E+00 -0.79680776767E+03  0.94322556274E+03  0.50474928785E+03 0.  0.
        1    1    3    3  502    0 -0.20267272726E+03  0.12808190546E+03 -0.54568494386E+03  0.59603126333E+03  0.50400001928E-02 0. -1.
       -1    1    3    3    0  502  0.20267272726E+03 -0.12808190546E+03 -0.25112282381E+03  0.34719429941E+03  0.50400001928E-02 0.  1.
</event>
<event>
 5   0  0.1453602E-01  0.4863994E+03  0.7818609E-02  0.1017391E+00
       -1   -1    0    0    0  501  0.00000000000E+00  0.00000000000E+00  0.15771270598E+03  0.15771270606E+03  0.50400001928E-02 0. -1.
        1   -1    0    0  501    0  0.00000000000E+00  0.00000000000E+00 -0.37502435717E+03  0.37502435721E+03  0.50400001928E-02 0.  1.
    10030    2    1    2    0    0  0.00000000000E+00  0.00000000000E+00 -0.21731165119E+03  0.53273706327E+03  0.48639944987E+03 0.  0.
        2    1    3    3  502    0  0.18871236716E+03  0.12048226840E+03 -0.46471766475E+01  0.22394180220E+03  0.25500000920E-02 0. -1.
       -2    1    3    3    0  502 -0.18871236716E+03 -0.12048226840E+03 -0.21266447455E+03  0.30879526106E+03  0.25500000920E-02 0.  1.
</event>
<event>
 5   0  0.1448458E-01  0.5004840E+03  0.7818609E-02  0.1013653E+00
        1   -1    0    0  501    0  0.00000000000E+00  0.00000000000E+00  0.34418629367E+03  0.34418629371E+03  0.50400001928E-02 0. -1.
       -1   -1    0    0    0  501  0.00000000000E+00  0.00000000000E+00 -0.18193945090E+03  0.18193945097E+03  0.50400001928E-02 0.  1.
    10030    2    1    2    0    0  0.00000000000E+00  0.00000000000E+00  0.16224684277E+03  0.52612574469E+03  0.50048402695E+03 0.  0.
        5    1    3    3  502    0 -0.18233211876E+03 -0.29786289277E+02  0.25848856766E+03  0.31775879873E+03  0.46999998093E+01 0. -1.
       -5    1    3    3    0  502  0.18233211876E+03  0.29786289277E+02 -0.96241724890E+02  0.20836694596E+03  0.46999998093E+01 0.  1.
</event>
<event>
 5   0  0.2504064E-01  0.4902257E+03  0.7818609E-02  0.1016362E+00
       -2   -1    0    0    0  501  0.00000000000E+00  0.00000000000E+00  0.36790443654E+02  0.36790443743E+02  0.25500000920E-02 0.  1.
        2   -1    0    0  501    0  0.00000000000E+00  0.00000000000E+00 -0.16330409925E+04  0.16330409925E+04  0.25500000920E-02 0. -1.
    10030    2    1    2    0    0  0.00000000000E+00  0.00000000000E+00 -0.15962505489E+04  0.16698314363E+04  0.49022567332E+03 0.  0.
        5    1    3    3  502    0  0.18498370747E+03  0.15135919743E+03 -0.98249230730E+03  0.10111586436E+04  0.46999998093E+01 0.  1.
       -5    1    3    3    0  502 -0.18498370747E+03 -0.15135919743E+03 -0.61375824156E+03  0.65867279263E+03  0.46999998093E+01 0. -1.
</event>
<event>
 5   0  0.1439814E-01  0.5045986E+03  0.7818609E-02  0.1012586E+00
        1   -1    0    0  501    0  0.00000000000E+00  0.00000000000E+00  0.42094491936E+02  0.42094492238E+02  0.50400001928E-02 0. -1.
       -1   -1    0    0    0  501  0.00000000000E+00  0.00000000000E+00 -0.15121918374E+04  0.15121918374E+04  0.50400001928E-02 0.  1.
    10030    2    1    2    0    0  0.00000000000E+00  0.00000000000E+00 -0.14700973455E+04  0.15542863297E+04  0.50459864188E+03 0.  0.
        4    1    3    3  502    0  0.18405979284E+03  0.17253975649E+03 -0.72791770187E+03  0.77039844789E+03  0.12699999809E+01 0.  1.
       -4    1    3    3    0  502 -0.18405979284E+03 -0.17253975649E+03 -0.74217964362E+03  0.78388788178E+03  0.12699999809E+01 0. -1.
</event>
<event>
 5   0  0.2488968E-01  0.4354775E+03  0.7818609E-02  0.1032143E+00
        2   -1    0    0  501    0  0.00000000000E+00  0.00000000000E+00  0.44132213687E+02  0.44132213761E+02  0.25500000920E-02 0. -1.
       -2   -1    0    0    0  501  0.00000000000E+00  0.00000000000E+00 -0.10742758662E+04  0.10742758662E+04  0.25500000920E-02 0.  1.
    10030    2    1    2    0    0  0.00000000000E+00  0.00000000000E+00 -0.10301436525E+04  0.11184080799E+04  0.43547754077E+03 0.  0.
        2    1    3    3  502    0  0.44077343113E+02 -0.18641379318E+03 -0.78094613280E+03  0.80409562666E+03  0.25500000920E-02 0. -1.
       -2    1    3    3    0  502 -0.44077343113E+02  0.18641379318E+03 -0.24919751968E+03  0.31431245328E+03  0.25500000920E-02 0.  1.
</event>
<event>
 5   0  0.1529146E-01  0.5103184E+03  0.7818609E-02  0.1011120E+00
        1   -1    0    0  501    0  0.00000000000E+00  0.00000000000E+00  0.34713026178E+03  0.34713026181E+03  0.50400001928E-02 0. -1.
       -1   -1    0    0    0  501  0.00000000000E+00  0.00000000000E+00 -0.18755557674E+03  0.18755557681E+03  0.50400001928E-02 0.  1.
    10030    2    1    2    0    0  0.00000000000E+00  0.00000000000E+00  0.15957468504E+03  0.53468583862E+03  0.51031839661E+03 0.  0.
        1    1    3    3  502    0 -0.15836486507E+03 -0.50386707856E+02  0.28265059946E+03  0.32788658438E+03  0.50400001928E-02 0. -1.
       -1    1    3    3    0  502  0.15836486507E+03  0.50386707856E+02 -0.12307591442E+03  0.20679925424E+03  0.50400001928E-02 0.  1.
</event>
<event>
 5   0  0.2466034E-01  0.4546033E+03  0.7818609E-02  0.1026358E+00
        2   -1    0    0  501    0  0.00000000000E+00  0.00000000000E+00  0.66982589553E+03  0.66982589554E+03  0.25500000920E-02 0. -1.
       -2   -1    0    0    0  501  0.00000000000E+00  0.00000000000E+00 -0.77133547834E+02  0.77133547876E+02  0.25500000920E-02 0.  1.
    10030    2    1    2    0    0  0.00000000000E+00  0.00000000000E+00  0.59269234770E+03  0.74695944341E+03  0.45460333378E+03 0.  0.
        3    1    3    3  502    0 -0.87572092829E+02  0.15261286740E+03  0.59908034877E+02  0.18587237982E+03  0.10100000352E+00 0.  1.
       -3    1    3    3    0  502  0.87572092829E+02 -0.15261286740E+03  0.53278431282E+03  0.56108706359E+03  0.10100000352E+00 0. -1.
</event>
<event>
 5   0  0.9868500E-02  0.5030095E+03  0.7818609E-02  0.1012996E+00
        4   -1    0    0  501    0  0.00000000000E+00  0.00000000000E+00  0.17775931488E+03  0.17776385158E+03  0.12699999809E+01 0. -1.
       -4   -1    0    0    0  501  0.00000000000E+00  0.00000000000E+00 -0.35583416120E+03  0.35583642756E+03  0.12699999809E+01 0.  1.
    10030    2    1    2    0    0  0.00000000000E+00  0.00000000000E+00 -0.17807484632E+03  0.53360027914E+03  0.50300954962E+03 0.  0.
        2    1    3    3  502    0 -0.11535213035E+03 -0.15713383224E+03 -0.25762864918E+03  0.32306295996E+03  0.25500000920E-02 0. -1.
       -2    1    3    3    0  502  0.11535213035E+03  0.15713383224E+03  0.79553802865E+02  0.21053731918E+03  0.25500000920E-02 0.  1.
</event>
<event>
 5   0  0.1529146E-01  0.5022798E+03  0.7818609E-02  0.1013186E+00
       -1   -1    0    0    0  501  0.00000000000E+00  0.00000000000E+00  0.11423663076E+03  0.11423663087E+03  0.50400001928E-02 0.  1.
        1   -1    0    0  501    0  0.00000000000E+00  0.00000000000E+00 -0.55211065546E+03  0.55211065548E+03  0.50400001928E-02 0. -1.
    10030    2    1    2    0    0  0.00000000000E+00  0.00000000000E+00 -0.43787402470E+03  0.66634728635E+03  0.50227984681E+03 0.  0.
        1    1    3    3  502    0  0.83177460058E+02  0.16657255825E+03  0.46582660211E+01  0.18624340657E+03  0.50400001928E-02 0.  1.
       -1    1    3    3    0  502 -0.83177460058E+02 -0.16657255825E+03 -0.44253229072E+03  0.48010387978E+03  0.50400001928E-02 0. -1.
</event>
<event>
 5   0  0.1439814E-01  0.4908588E+03  0.7818609E-02  0.1016193E+00
        1   -1    0    0  501    0  0.00000000000E+00  0.00000000000E+00  0.64514940526E+03  0.64514940528E+03  0.50400001928E-02 0.  1.
       -1   -1    0    0    0  501  0.00000000000E+00  0.00000000000E+00 -0.93366871738E+02  0.93366871874E+02  0.50400001928E-02 0. -1.
    10030    2    1    2    0    0  0.00000000000E+00  0.00000000000E+00  0.55178253352E+03  0.73851627715E+03  0.49085876515E+03 0.  0.
        4    1    3    3  502    0 -0.40501471194E+01 -0.40573118764E+02  0.64001272766E+03  0.64131153593E+03  0.12699999809E+01 0.  1.
       -4    1    3    3    0  502  0.40501471194E+01  0.40573118764E+02 -0.88230194137E+02  0.97204741219E+02  0.12699999809E+01 0. -1.
</event>
<event>
 5   0  0.1448458E-01  0.5021740E+03  0.7818609E-02  0.1013213E+00
        1   -1    0    0  501    0  0.00000000000E+00  0.00000000000E+00  0.21368441400E+03  0.21368441406E+03  0.50400001928E-02 0. -1.
       -1   -1    0    0    0  501  0.00000000000E+00  0.00000000000E+00 -0.29503636848E+03  0.29503636852E+03  0.50400001928E-02 0.  1.
    10030    2    1    2    0    0  0.00000000000E+00  0.00000000000E+00 -0.81351954481E+02  0.50872078259E+03  0.50217396800E+03 0.  0.
        5    1    3    3  502    0 -0.82060776957E+02  0.17941293372E+03  0.11658838075E+03  0.22921150151E+03  0.46999998093E+01 0. -1.
       -5    1    3    3    0  502  0.82060776957E+02 -0.17941293372E+03 -0.19794033523E+03  0.27950928108E+03  0.46999998093E+01 0.  1.
</event>
<event>
 5   0  0.1448458E-01  0.4970052E+03  0.7818609E-02  0.1014564E+00
        1   -1    0    0  501    0  0.00000000000E+00  0.00000000000E+00  0.41828387975E+03  0.41828387978E+03  0.50400001928E-02 0. -1.
       -1   -1    0    0    0  501  0.00000000000E+00  0.00000000000E+00 -0.14763547307E+03  0.14763547316E+03  0.50400001928E-02 0.  1.
    10030    2    1    2    0    0  0.00000000000E+00  0.00000000000E+00  0.27064840668E+03  0.56591935294E+03  0.49700518508E+03 0.  0.
        5    1    3    3  502    0  0.78218923208E+02 -0.23076468695E+03  0.79997710550E+02  0.25650002804E+03  0.46999998093E+01 0.  1.
       -5    1    3    3    0  502 -0.78218923208E+02  0.23076468695E+03  0.19065069613E+03  0.30941932490E+03  0.46999998093E+01 0. -1.
</event>
<event>
 5   0  0.2504064E-01  0.5178676E+03  0.7818609E-02  0.1009218E+00
        2   -1    0    0  501    0  0.00000000000E+00  0.00000000000E+00  0.56154165044E+03  0.56154165045E+03  0.25500000920E-02 0.  1.
       -2   -1    0    0    0  501  0.00000000000E+00  0.00000000000E+00 -0.11939759572E+03  0.11939759575E+03  0.25500000920E-02 0. -1.
    10030    2    1    2    0    0  0.00000000000E+00  0.00000000000E+00  0.44214405472E+03  0.68093924620E+03  0.51786763936E+03 0.  0.
        5    1    3    3  502    0  0.18375397858E+03 -0.50402366382E+02  0.45152965008E+03  0.49010921036E+03  0.46999998093E+01 0.  1.
       -5    1    3    3    0  502 -0.18375397858E+03  0.50402366382E+02 -0.93855953623E+01  0.19083003584E+03  0.46999998093E+01 0. -1.
</event>
<event>
 5   0  0.2504064E-01  0.4970924E+03  0.7818609E-02  0.1014541E+00
       -2   -1    0    0    0  501  0.00000000000E+00  0.00000000000E+00  0.49691673989E+02  0.49691674054E+02  0.25500000920E-02 0.  1.
        2   -1    0    0  501    0  0.00000000000E+00  0.00000000000E+00 -0.12431701458E+04  0.12431701458E+04  0.25500000920E-02 0. -1.
    10030    2    1    2    0    0  0.00000000000E+00  0.00000000000E+00 -0.11934784718E+04  0.12928618199E+04  0.49709236825E+03 0.  0.
        5    1    3    3  502    0  0.61181892537E+02 -0.13555623997E+03 -0.78952232984E+02  0.16844661843E+03  0.46999998093E+01 0.  1.
       -5    1    3    3    0  502 -0.61181892537E+02  0.13555623997E+03 -0.11145262388E+04  0.11244152014E+04  0.46999998093E+01 0. -1.
</event>
<event>
 5   0  0.2504064E-01  0.4861177E+03  0.7818609E-02  0.1017467E+00
       -2   -1    0    0    0  501  0.00000000000E+00  0.00000000000E+00  0.81169966275E+02  0.81169966315E+02  0.25500000920E-02 0. -1.
        2   -1    0    0  501    0  0.00000000000E+00  0.00000000000E+00 -0.72782583199E+03  0.72782583200E+03  0.25500000920E-02 0.  1.
    10030    2    1    2    0    0  0.00000000000E+00  0.00000000000E+00 -0.64665586572E+03  0.80899579831E+03  0.48611767405E+03 0.  0.
        5    1    3    3  502    0  0.16047937058E+03  0.47784973169E+02 -0.30228428254E+02  0.17021421772E+03  0.46999998093E+01 0.  1.
       -5    1    3    3    0  502 -0.16047937058E+03 -0.47784973169E+02 -0.61642743747E+03  0.63878158059E+03  0.46999998093E+01 0. -1.
</event>
<event>
 5   0  0.2504064E-01  0.5118604E+03  0.7818609E-02  0.1010729E+00
       -2   -1    0    0    0  501  0.00000000000E+00  0.00000000000E+00  0.63159774435E+02  0.63159774487E+02  0.25500000920E-02 0.  1.
        2   -1    0    0  501    0  0.00000000000E+00  0.00000000000E+00 -0.10370568008E+04  0.10370568009E+04  0.25500000920E-02 0. -1.
    10030    2    1    2    0    0  0.00000000000E+00  0.00000000000E+00 -0.97389702641E+03  0.11002165753E+04  0.51186042491E+03 0.  0.
        5    1    3    3  502    0  0.32393078819E+02 -0.43791444748E+01 -0.10324579309E+04  0.10329859425E+04  0.46999998093E+01 0. -1.
       -5    1    3    3    0  502 -0.32393078819E+02  0.43791444748E+01  0.58560904442E+02  0.67230632817E+02  0.46999998093E+01 0.  1.
</event>
<event>
 5   0  0.1453602E-01  0.4916667E+03  0.7818609E-02  0.1015977E+00
        1   -1    0    0  501    0  0.00000000000E+00  0.00000000000E+00  0.69625718180E+03  0.69625718182E+03  0.50400001928E-02 0. -1.
       -1   -1    0    0    0  501  0.00000000000E+00  0.00000000000E+00 -0.86798434167E+02  0.86798434314E+02  0.50400001928E-02 0.  1.
    10030    2    1    2    0    0  0.00000000000E+00  0.00000000000E+00  0.60945874763E+03  0.78305561613E+03  0.49166668881E+03 0.  0.
        2    1    3    3  502    0 -0.12518590988E+03 -0.19937956180E+03  0.19199556297E+03  0.30378613843E+03  0.25500000920E-02 0.  1.
       -2    1    3    3    0  502  0.12518590988E+03  0.19937956180E+03  0.41746318467E+03  0.47926947770E+03  0.25500000920E-02 0. -1.
</event>
<event>
 5   0  0.2466034E-01  0.5008769E+03  0.7818609E-02  0.1013550E+00
       -2   -1    0    0    0  501  0.00000000000E+00  0.00000000000E+00  0.38398642986E+02  0.38398643070E+02  0.25500000920E-02 0.  1.
        2   -1    0    0  501    0  0.00000000000E+00  0.00000000000E+00 -0.16333755597E+04  0.16333755597E+04  0.25500000920E-02 0. -1.
    10030    2    1    2    0    0  0.00000000000E+00  0.00000000000E+00 -0.15949769167E+04  0.16717742028E+04  0.50087685134E+03 0.  0.
        3    1    3    3  502    0 -0.61086859603E+02  0.76904012915E+02 -0.15664166460E+04  0.15694925774E+04  0.10100000352E+00 0. -1.
       -3    1    3    3    0  502  0.61086859603E+02 -0.76904012915E+02 -0.28560270750E+02  0.10228162535E+03  0.10100000352E+00 0.  1.
</event>
<event>
 5   0  0.2413301E-01  0.5023219E+03  0.7818609E-02  0.1013175E+00
        2   -1    0    0  501    0  0.00000000000E+00  0.00000000000E+00  0.26982498228E+03  0.26982498229E+03  0.25500000920E-02 0.  1.
       -2   -1    0    0    0  501  0.00000000000E+00  0.00000000000E+00 -0.23378792298E+03  0.23378792300E+03  0.25500000920E-02 0. -1.
    10030    2    1    2    0    0  0.00000000000E+00  0.00000000000E+00  0.36037059291E+02  0.50361290529E+03  0.50232189752E+03 0.  0.
        4    1    3    3  502    0  0.18842481749E+03  0.16605912051E+03  0.18836671587E+02  0.25186499648E+03  0.12699999809E+01 0.  1.
       -4    1    3    3    0  502 -0.18842481749E+03 -0.16605912051E+03  0.17200387704E+02  0.25174790881E+03  0.12699999809E+01 0. -1.
</event>
<event>
 5   0  0.2466034E-01  0.5004578E+03  0.7818609E-02  0.1013659E+00
       -2   -1    0    0    0  501  0.00000000000E+00  0.00000000000E+00  0.49797517290E+02  0.49797517356E+02  0.25500000920E-02 0.  1.
        2   -1    0    0  501    0  0.00000000000E+00  0.00000000000E+00 -0.12573822063E+04  0.12573822063E+04  0.25500000920E-02 0. -1.
    10030    2    1    2    0    0  0.00000000000E+00  0.00000000000E+00 -0.12075846890E+04  0.13071797237E+04  0.50045783920E+03 0.  0.
        3    1    3    3  502    0 -0.24396847903E+03  0.50725388039E+02 -0.66340121647E+03  0.70865708771E+03  0.10100000352E+00 0. -1.
       -3    1    3    3    0  502  0.24396847903E+03 -0.50725388039E+02 -0.54418347255E+03  0.59852263596E+03  0.10100000352E+00 0.  1.
</event>
<event>
 5   0  0.9868500E-02  0.4963339E+03  0.7818609E-02  0.1014740E+00
        4   -1    0    0  501    0  0.00000000000E+00  0.00000000000E+00  0.16146160102E+03  0.16146659563E+03  0.12699999809E+01 0. -1.
       -4   -1    0    0    0  501  0.00000000000E+00  0.00000000000E+00 -0.38142139813E+03  0.38142351245E+03  0.12699999809E+01 0.  1.
    10030    2    1    2    0    0  0.00000000000E+00  0.00000000000E+00 -0.21995979711E+03  0.54289010808E+03  0.49633391695E+03 0.  0.
        5    1    3    3  502    0 -0.51449065125E+02  0.65654559270E+02  0.14562137646E+03  0.16788449224E+03  0.46999998093E+01 0. -1.
       -5    1    3    3    0  502  0.51449065125E+02 -0.65654559270E+02 -0.36558117356E+03  0.37500561585E+03  0.46999998093E+01 0.  1.
</event>
<event>
 5   0  0.2488968E-01  0.5020724E+03  0.7818609E-02  0.1013239E+00
        2   -1    0    0  501    0  0.00000000000E+00  0.00000000000E+00  0.66071117295E+03  0.66071117296E+03  0.25500000920E-02 0. -1.
       -2   -1    0    0    0  501  0.00000000000E+00  0.00000000000E+00 -0.95380825927E+02  0.95380825961E+02  0.25500000920E-02 0.  1.
    10030    2    1    2    0    0  0.00000000000E+00  0.00000000000E+00  0.56533034703E+03  0.75609199892E+03  0.50207241466E+03 0.  0.
        2    1    3    3  502    0  0.44992749138E+02  0.12370671948E+03  0.60456880969E+03  0.61873350126E+03  0.25500000920E-02 0. -1.
       -2    1    3    3    0  502 -0.44992749138E+02 -0.12370671948E+03 -0.39238462668E+02  0.13735849766E+03  0.25500000920E-02 0.  1.
</event>
<event>
 5   0  0.1453602E-01  0.5027290E+03  0.7818609E-02  0.1013069E+00
       -1   -1    0    0    0  501  0.00000000000E+00  0.00000000000E+00  0.47538519936E+03  0.47538519939E+03  0.50400001928E-02 0.  1.
        1   -1    0    0  501    0  0.00000000000E+00  0.00000000000E+00 -0.13291140052E+03  0.13291140062E+03  0.50400001928E-02 0. -1.
    10030    2    1    2    0    0  0.00000000000E+00  0.00000000000E+00  0.34247379884E+03  0.60829660001E+03  0.50272900323E+03 0.  0.
        2    1    3    3  502    0  0.20191809434E+03 -0.27769463103E+02  0.34924127326E+03  0.40436558565E+03  0.25500000920E-02 0.  1.
       -2    1    3    3    0  502 -0.20191809434E+03  0.27769463103E+02 -0.67674744222E+01  0.20393101436E+03  0.25500000920E-02 0. -1.
</event>
<event>
 5   0  0.1453602E-01  0.5009434E+03  0.7818609E-02  0.1013533E+00
       -1   -1    0    0    0  501  0.00000000000E+00  0.00000000000E+00  0.23363814505E+03  0.23363814510E+03  0.50400001928E-02 0. -1.
        1   -1    0    0  501    0  0.00000000000E+00  0.00000000000E+00 -0.26851810858E+03  0.26851810863E+03  0.50400001928E-02 0.  1.
    10030    2    1    2    0    0  0.00000000000E+00  0.00000000000E+00 -0.34879963533E+02  0.50215625373E+03  0.50094340130E+03 0.  0.
        2    1    3    3  502    0  0.20923110558E+03  0.96729140560E+01 -0.15512190275E+03  0.26064156523E+03  0.25500000920E-02 0.  1.
       -2    1    3    3    0  502 -0.20923110558E+03 -0.96729140560E+01  0.12024193922E+03  0.24151468850E+03  0.25500000920E-02 0. -1.
</event>
<event>
 5   0  0.9868500E-02  0.4989032E+03  0.7818609E-02  0.1014066E+00
       -3   -1    0    0    0  501  0.00000000000E+00  0.00000000000E+00  0.69512731862E+02  0.69512805237E+02  0.10100000352E+00 0. -1.
        3   -1    0    0  501    0  0.00000000000E+00  0.00000000000E+00 -0.89517512538E+03  0.89517513108E+03  0.10100000352E+00 0.  1.
    10030    2    1    2    0    0  0.00000000000E+00  0.00000000000E+00 -0.82566239352E+03  0.96468793632E+03  0.49890322348E+03 0.  0.
        3    1    3    3  502    0  0.13203550147E+03 -0.19359533714E+03 -0.57819299831E+03  0.62387473238E+03  0.10100000352E+00 0.  1.
       -3    1    3    3    0  502 -0.13203550147E+03  0.19359533714E+03 -0.24746939521E+03  0.34081320394E+03  0.10100000352E+00 0. -1.
</event>
<event>
 5   0  0.2413301E-01  0.5026254E+03  0.7818609E-02  0.1013096E+00
       -2   -1    0    0    0  501  0.00000000000E+00  0.00000000000E+00  0.10339266190E+03  0.10339266193E+03  0.25500000920E-02 0.  1.
        2   -1    0    0  501    0  0.00000000000E+00  0.00000000000E+00 -0.61085648946E+03  0.61085648947E+03  0.25500000920E-02 0. -1.
    10030    2    1    2    0    0  0.00000000000E+00  0.00000000000E+00 -0.50746382756E+03  0.71424915140E+03  0.50262542116E+03 0.  0.
        4    1    3    3  502    0 -0.10831670935E+03 -0.12891065397E+03 -0.51884571520E+03  0.54548414763E+03  0.12699999809E+01 0. -1.
       -4    1    3    3    0  502  0.10831670935E+03  0.12891065397E+03  0.11381887639E+02  0.16876500377E+03  0.12699999809E+01 0.  1.
</event>
<event>
 5   0  0.9868500E-02  0.4978966E+03  0.7818609E-02  0.1014329E+00
        3   -1    0    0  501    0  0.00000000000E+00  0.00000000000E+00  0.37328205254E+03  0.37328206621E+03  0.10100000352E+00 0.  1.
       -3   -1    0    0    0  501  0.00000000000E+00  0.00000000000E+00 -0.16602792211E+03  0.16602795283E+03  0.10100000352E+00 0. -1.
    10030    2    1    2    0    0  0.00000000000E+00  0.00000000000E+00  0.20725413043E+03  0.53931001903E+03  0.49789659775E+03 0.  0.
        1    1    3    3  502    0 -0.13232828837E+03  0.14261107895E+03  0.27187394917E+03  0.33431144163E+03  0.50400001928E-02 0. -1.
       -1    1    3    3    0  502  0.13232828837E+03 -0.14261107895E+03 -0.64619818734E+02  0.20499857741E+03  0.50400001928E-02 0.  1.
</event>
<event>
 5   0  0.1413361E-01  0.4945378E+03  0.7818609E-02  0.1015215E+00
        1   -1    0    0  501    0  0.00000000000E+00  0.00000000000E+00  0.49737629089E+03  0.49737629091E+03  0.50400001928E-02 0.  1.
       -1   -1    0    0    0  501  0.00000000000E+00  0.00000000000E+00 -0.12292886040E+03  0.12292886050E+03  0.50400001928E-02 0. -1.
    10030    2    1    2    0    0  0.00000000000E+00  0.00000000000E+00  0.37444743049E+03  0.62030515142E+03  0.49453776668E+03 0.  0.
        3    1    3    3  502    0 -0.93252455850E+02 -0.14470842065E+03 -0.35413637939E+02  0.17575745640E+03  0.10100000352E+00 0. -1.
       -3    1    3    3    0  502  0.93252455850E+02  0.14470842065E+03  0.40986106843E+03  0.44454769501E+03  0.10100000352E+00 0.  1.
</event>
<event>
 5   0  0.9868500E-02  0.4994923E+03  0.7818609E-02  0.1013912E+00
       -4   -1    0    0    0  501  0.00000000000E+00  0.00000000000E+00  0.31170122337E+03  0.31170381062E+03  0.12699999809E+01 0.  1.
        4   -1    0    0  501    0  0.00000000000E+00  0.00000000000E+00 -0.20010007683E+03  0.20010410702E+03  0.12699999809E+01 0. -1.
    10030    2    1    2    0    0  0.00000000000E+00  0.00000000000E+00  0.11160114654E+03  0.51180791764E+03  0.49949227086E+03 0.  0.
        1    1    3    3  502    0  0.14963209140E+03 -0.41433687912E+02  0.25624236361E+03  0.29961085128E+03  0.50400001928E-02 0.  1.
       -1    1    3    3    0  502 -0.14963209140E+03  0.41433687912E+02 -0.14464121707E+03  0.21219706636E+03  0.50400001928E-02 0. -1.
</event>
<event>
 5   0  0.2466034E-01  0.5082296E+03  0.7818609E-02  0.1011653E+00
       -2   -1    0    0    0  501  0.00000000000E+00  0.00000000000E+00  0.46611220436E+02  0.46611220506E+02  0.25500000920E-02 0.  1.
        2   -1    0    0  501    0  0.00000000000E+00  0.00000000000E+00 -0.13853816923E+04  0.13853816923E+04  0.25500000920E-02 0. -1.
    10030    2    1    2    0    0  0.00000000000E+00  0.00000000000E+00 -0.13387704719E+04  0.14319929128E+04  0.50822959969E+03 0.  0.
        3    1    3    3  502    0 -0.35584801152E+02 -0.58480330023E+02 -0.13589120508E+04  0.13606352190E+04  0.10100000352E+00 0. -1.
       -3    1    3    3    0  502  0.35584801152E+02  0.58480330023E+02  0.20141578910E+02  0.71357693871E+02  0.10100000352E+00 0.  1.
</event>
<event>
 5   0  0.2466034E-01  0.4995236E+03  0.7818609E-02  0.1013903E+00
       -2   -1    0    0    0  501  0.00000000000E+00  0.00000000000E+00  0.58560000705E+02  0.58560000761E+02  0.25500000920E-02 0.  1.
        2   -1    0    0  501    0  0.00000000000E+00  0.00000000000E+00 -0.10652483788E+04  0.10652483788E+04  0.25500000920E-02 0. -1.
    10030    2    1    2    0    0  0.00000000000E+00  0.00000000000E+00 -0.10066883781E+04  0.11238083796E+04  0.49952355639E+03 0.  0.
        3    1    3    3  502    0  0.30637079559E+02  0.22684408762E+03 -0.72814091966E+03  0.76327326680E+03  0.10100000352E+00 0. -1.
       -3    1    3    3    0  502 -0.30637079559E+02 -0.22684408762E+03 -0.27854745846E+03  0.36053511278E+03  0.10100000352E+00 0.  1.
</event>
<event>
 5   0  0.2413301E-01  0.4991355E+03  0.7818609E-02  0.1014005E+00
       -2   -1    0    0    0  501  0.00000000000E+00  0.00000000000E+00  0.93333996326E+02  0.93333996361E+02  0.25500000920E-02 0.  1.
        2   -1    0    0  501    0  0.00000000000E+00  0.00000000000E+00 -0.66732450211E+03  0.66732450211E+03  0.25500000920E-02 0. -1.
    10030    2    1    2    0    0  0.00000000000E+00  0.00000000000E+00 -0.57399050578E+03  0.76065849847E+03  0.49913550322E+03 0.  0.
        4    1    3    3  502    0 -0.10779578326E+02 -0.11476727866E+03 -0.62431821819E+03  0.63487209580E+03  0.12699999809E+01 0. -1.
       -4    1    3    3    0  502  0.10779578326E+02  0.11476727866E+03  0.50327712412E+02  0.12578640267E+03  0.12699999809E+01 0.  1.
</event>
<event>
 5   0  0.1529146E-01  0.5070503E+03  0.7818609E-02  0.1011955E+00
       -1   -1    0    0    0  501  0.00000000000E+00  0.00000000000E+00  0.14444386026E+03  0.14444386035E+03  0.50400001928E-02 0. -1.
        1   -1    0    0  501    0  0.00000000000E+00  0.00000000000E+00 -0.44498254830E+03  0.44498254833E+03  0.50400001928E-02 0.  1.
    10030    2    1    2    0    0  0.00000000000E+00  0.00000000000E+00 -0.30053868805E+03  0.58942640868E+03  0.50705028176E+03 0.  0.
        1    1    3    3  502    0 -0.37008482411E+02 -0.14541328862E+03  0.87283699735E+02  0.17358887217E+03  0.50400001928E-02 0. -1.
       -1    1    3    3    0  502  0.37008482411E+02  0.14541328862E+03 -0.38782238778E+03  0.41583753651E+03  0.50400001928E-02 0.  1.
</event>
<event>
 5   0  0.2413301E-01  0.4959931E+03  0.7818609E-02  0.1014830E+00
       -2   -1    0    0    0  501  0.00000000000E+00  0.00000000000E+00  0.14817142168E+03  0.14817142171E+03  0.25500000920E-02 0. -1.
        2   -1    0    0  501    0  0.00000000000E+00  0.00000000000E+00 -0.41507528424E+03  0.41507528425E+03  0.25500000920E-02 0.  1.
    10030    2    1    2    0    0  0.00000000000E+00  0.00000000000E+00 -0.26690386256E+03  0.56324670596E+03  0.49599312488E+03 0.  0.
        4    1    3    3  502    0  0.37762932101E+02  0.13453786564E+02  0.14446394238E+03  0.14992827272E+03  0.12699999809E+01 0. -1.
       -4    1    3    3    0  502 -0.37762932101E+02 -0.13453786564E+02 -0.41136780494E+03  0.41331843324E+03  0.12699999809E+01 0.  1.
</event>
<event>
 5   0  0.1529146E-01  0.4740750E+03  0.7818609E-02  0.1020776E+00
       -1   -1    0    0    0  501  0.00000000000E+00  0.00000000000E+00  0.93283837501E+03  0.93283837503E+03  0.50400001928E-02 0. -1.
        1   -1    0    0  501    0  0.00000000000E+00  0.00000000000E+00 -0.60232054024E+02  0.60232054235E+02  0.50400001928E-02 0.  1.
    10030    2    1    2    0    0  0.00000000000E+00  0.00000000000E+00  0.87260632099E+03  0.99307042926E+03  0.47407497935E+03 0.  0.
        1    1    3    3  502    0  0.45048508025E+02 -0.11512634598E+03  0.85995816110E+03  0.86879887343E+03  0.50400001928E-02 0. -1.
       -1    1    3    3    0  502 -0.45048508025E+02  0.11512634598E+03  0.12648159891E+02  0.12427155583E+03  0.50400001928E-02 0.  1.
</event>
<event>
 5   0  0.2466034E-01  0.5118178E+03  0.7818609E-02  0.1010740E+00
       -2   -1    0    0    0  501  0.00000000000E+00  0.00000000000E+00  0.10852578127E+03  0.10852578130E+03  0.25500000920E-02 0. -1.
        2   -1    0    0  501    0  0.00000000000E+00  0.00000000000E+00 -0.60344528182E+03  0.60344528182E+03  0.25500000920E-02 0.  1.
    10030    2    1    2    0    0  0.00000000000E+00  0.00000000000E+00 -0.49491950054E+03  0.71197106312E+03  0.51181782179E+03 0.  0.
        3    1    3    3  502    0  0.24189542156E+03 -0.75203200930E+01 -0.13174692965E+03  0.27554893188E+03  0.10100000352E+00 0. -1.
       -3    1    3    3    0  502 -0.24189542156E+03  0.75203200930E+01 -0.36317257089E+03  0.43642213124E+03  0.10100000352E+00 0.  1.
</event>
<event>
 5   0  0.2504064E-01  0.5314673E+03  0.7818609E-02  0.1005877E+00
        2   -1    0    0  501    0  0.00000000000E+00  0.00000000000E+00  0.17307185679E+03  0.17307185681E+03  0.25500000920E-02 0.  1.
       -2   -1    0    0    0  501  0.00000000000E+00  0.00000000000E+00 -0.40800613465E+03  0.40800613465E+03  0.25500000920E-02 0. -1.
    10030    2    1    2    0    0  0.00000000000E+00  0.00000000000E+00 -0.23493427786E+03  0.58107799146E+03  0.53146732473E+03 0.  0.
        5    1    3    3  502    0 -0.20845433677E+03 -0.92533100542E+02 -0.26648632593E+03  0.35078859320E+03  0.46999998093E+01 0.  1.
       -5    1    3    3    0  502  0.20845433677E+03  0.92533100542E+02  0.31552048077E+02  0.23028939826E+03  0.46999998093E+01 0. -1.
</event>
<event>
 5   0  0.1439814E-01  0.5013225E+03  0.7818609E-02  0.1013434E+00
       -1   -1    0    0    0  501  0.00000000000E+00  0.00000000000E+00  0.35104911322E+02  0.35104911684E+02  0.50400001928E-02 0.  1.
        1   -1    0    0  501    0  0.00000000000E+00  0.00000000000E+00 -0.17898083519E+04  0.17898083519E+04  0.50400001928E-02 0. -1.
    10030    2    1    2    0    0  0.00000000000E+00  0.00000000000E+00 -0.17547034406E+04  0.18249132636E+04  0.50132250623E+03 0.  0.
        4    1    3    3  502    0  0.46460224419E+02 -0.23647076425E+03 -0.62640299328E+03  0.67116264623E+03  0.12699999809E+01 0. -1.
       -4    1    3    3    0  502 -0.46460224419E+02  0.23647076425E+03 -0.11283004473E+04  0.11537506174E+04  0.12699999809E+01 0.  1.
</event>
<event>
 5   0  0.1529146E-01  0.5023133E+03  0.7818609E-02  0.1013177E+00
        1   -1    0    0  501    0  0.00000000000E+00  0.00000000000E+00  0.23822301419E+03  0.23822301424E+03  0.50400001928E-02 0. -1.
       -1   -1    0    0    0  501  0.00000000000E+00  0.00000000000E+00 -0.26479250539E+03  0.26479250543E+03  0.50400001928E-02 0.  1.
    10030    2    1    2    0    0  0.00000000000E+00  0.00000000000E+00 -0.26569491197E+02  0.50301551967E+03  0.50231332370E+03 0.  0.
        1    1    3    3  502    0 -0.68716528953E+02  0.15580335170E+02 -0.25469219114E+03  0.26425900259E+03  0.50400001928E-02 0.  1.
       -1    1    3    3    0  502  0.68716528953E+02 -0.15580335170E+02  0.22812269994E+03  0.23875651709E+03  0.50400001928E-02 0. -1.
</event>
<event>
 5   0  0.2511944E-01  0.5124708E+03  0.7818609E-02  0.1010574E+00
        2   -1    0    0  501    0  0.00000000000E+00  0.00000000000E+00  0.31453037897E+03  0.31453037898E+03  0.25500000920E-02 0. -1.
       -2   -1    0    0    0  501  0.00000000000E+00  0.00000000000E+00 -0.20874475710E+03  0.20874475711E+03  0.25500000920E-02 0.  1.
    10030    2    1    2    0    0  0.00000000000E+00  0.00000000000E+00  0.10578562187E+03  0.52327513609E+03  0.51247075063E+03 0.  0.
        1    1    3    3  502    0 -0.18517927680E+03 -0.15148386938E+03  0.14657593342E+03  0.28057660544E+03  0.50400001928E-02 0. -1.
       -1    1    3    3    0  502  0.18517927680E+03  0.15148386938E+03 -0.40790311543E+02  0.24269853065E+03  0.50400001928E-02 0.  1.
</event>
<event>
 5   0  0.1453602E-01  0.5011637E+03  0.7818609E-02  0.1013476E+00
       -1   -1    0    0    0  501  0.00000000000E+00  0.00000000000E+00  0.57123824487E+02  0.57123824710E+02  0.50400001928E-02 0.  1.
        1   -1    0    0  501    0  0.00000000000E+00  0.00000000000E+00 -0.10992134073E+04  0.10992134073E+04  0.50400001928E-02 0. -1.
    10030    2    1    2    0    0  0.00000000000E+00  0.00000000000E+00 -0.10420895828E+04  0.11563372320E+04  0.50116374125E+03 0.  0.
        2    1    3    3  502    0  0.18544335552E+03  0.16839683223E+03 -0.53644380798E+03  0.59204618936E+03  0.25500000920E-02 0. -1.
       -2    1    3    3    0  502 -0.18544335552E+03 -0.16839683223E+03 -0.50564577480E+03  0.56429104262E+03  0.25500000920E-02 0.  1.
</event>
<event>
 5   0  0.2504064E-01  0.5160893E+03  0.7818609E-02  0.1009663E+00
        2   -1    0    0  501    0  0.00000000000E+00  0.00000000000E+00  0.11634850663E+04  0.11634850663E+04  0.25500000920E-02 0.  1.
       -2   -1    0    0    0  501  0.00000000000E+00  0.00000000000E+00 -0.57230688441E+02  0.57230688498E+02  0.25500000920E-02 0. -1.
    10030    2    1    2    0    0  0.00000000000E+00  0.00000000000E+00  0.11062543779E+04  0.12207157548E+04  0.51608933868E+03 0.  0.
        5    1    3    3  502    0  0.13446847120E+03  0.84057720533E+02  0.10345000000E+04  0.10465943866E+04  0.46999998093E+01 0.  1.
       -5    1    3    3    0  502 -0.13446847120E+03 -0.84057720533E+02  0.71754377933E+02  0.17412136824E+03  0.46999998093E+01 0. -1.
</event>
<event>
 5   0  0.1453602E-01  0.4660030E+03  0.7818609E-02  0.1023054E+00
        1   -1    0    0  501    0  0.00000000000E+00  0.00000000000E+00  0.36893966622E+03  0.36893966625E+03  0.50400001928E-02 0.  1.
       -1   -1    0    0    0  501  0.00000000000E+00  0.00000000000E+00 -0.14715058995E+03  0.14715059003E+03  0.50400001928E-02 0. -1.
    10030    2    1    2    0    0  0.00000000000E+00  0.00000000000E+00  0.22178907627E+03  0.51609025628E+03  0.46600295952E+03 0.  0.
        2    1    3    3  502    0  0.21140452396E+03 -0.70971644889E+02  0.18568729114E+03  0.29018721065E+03  0.25500000920E-02 0.  1.
       -2    1    3    3    0  502 -0.21140452396E+03  0.70971644889E+02  0.36101785133E+02  0.22590304563E+03  0.25500000920E-02 0. -1.
</event>
<event>
 5   0  0.1448458E-01  0.4852119E+03  0.7818609E-02  0.1017713E+00
       -1   -1    0    0    0  501  0.00000000000E+00  0.00000000000E+00  0.10998236758E+03  0.10998236770E+03  0.50400001928E-02 0. -1.
        1   -1    0    0  501    0  0.00000000000E+00  0.00000000000E+00 -0.53515536739E+03  0.53515536741E+03  0.50400001928E-02 0.  1.
    10030    2    1    2    0    0  0.00000000000E+00  0.00000000000E+00 -0.42517299981E+03  0.64513773511E+03  0.48521193050E+03 0.  0.
        5    1    3    3  502    0 -0.22306158838E+03 -0.65969718807E+02 -0.30400157802E+03  0.38281526282E+03  0.46999998093E+01 0.  1.
       -5    1    3    3    0  502  0.22306158838E+03  0.65969718807E+02 -0.12117142179E+03  0.26232247229E+03  0.46999998093E+01 0. -1.
</event>
<event>
 5   0  0.1529146E-01  0.5252585E+03  0.7818609E-02  0.1007389E+00
        1   -1    0    0  501    0  0.00000000000E+00  0.00000000000E+00  0.93785430133E+02  0.93785430269E+02  0.50400001928E-02 0.  1.
       -1   -1    0    0    0  501  0.00000000000E+00  0.00000000000E+00 -0.73544611326E+03  0.73544611328E+03  0.50400001928E-02 0. -1.
    10030    2    1    2    0    0  0.00000000000E+00  0.00000000000E+00 -0.64166068313E+03  0.82923154355E+03  0.52525852734E+03 0.  0.
        1    1    3    3  502    0  0.16030365482E+03  0.13867346857E+03 -0.56564024205E+03  0.60405006091E+03  0.50400001928E-02 0. -1.
       -1    1    3    3    0  502 -0.16030365482E+03 -0.13867346857E+03 -0.76020441076E+02  0.22518148263E+03  0.50400001928E-02 0.  1.
</event>
<event>
 5   0  0.2504064E-01  0.4885285E+03  0.7818609E-02  0.1016817E+00
        2   -1    0    0  501    0  0.00000000000E+00  0.00000000000E+00  0.86308734175E+02  0.86308734212E+02  0.25500000920E-02 0.  1.
       -2   -1    0    0    0  501  0.00000000000E+00  0.00000000000E+00 -0.69129767800E+03  0.69129767800E+03  0.25500000920E-02 0. -1.
    10030    2    1    2    0    0  0.00000000000E+00  0.00000000000E+00 -0.60498894382E+03  0.77760641221E+03  0.48852851521E+03 0.  0.
        5    1    3    3  502    0  0.39825202151E+02 -0.27435739670E+02  0.78538915675E+02  0.92353764467E+02  0.46999998093E+01 0.  1.
       -5    1    3    3    0  502 -0.39825202151E+02  0.27435739670E+02 -0.68352785950E+03  0.68525264775E+03  0.46999998093E+01 0. -1.
</event>
<event>
 5   0  0.1453602E-01  0.5373046E+03  0.7818609E-02  0.1004476E+00
        1   -1    0    0  501    0  0.00000000000E+00  0.00000000000E+00  0.28210730192E+03  0.28210730197E+03  0.50400001928E-02 0.  1.
       -1   -1    0    0    0  501  0.00000000000E+00  0.00000000000E+00 -0.25583899348E+03  0.25583899353E+03  0.50400001928E-02 0. -1.
    10030    2    1    2    0    0  0.00000000000E+00  0.00000000000E+00  0.26268308440E+02  0.53794629550E+03  0.53730456243E+03 0.  0.
        2    1    3    3  502    0 -0.30558116856E+01  0.24162736735E+03 -0.10439824083E+03  0.26323395551E+03  0.25500000920E-02 0. -1.
       -2    1    3    3    0  502  0.30558116856E+01 -0.24162736735E+03  0.13066654927E+03  0.27471233999E+03  0.25500000920E-02 0.  1.
</event>
<event>
 5   0  0.1413361E-01  0.4839103E+03  0.7818609E-02  0.1018066E+00
       -1   -1    0    0    0  501  0.00000000000E+00  0.00000000000E+00  0.13883119239E+03  0.13883119248E+03  0.50400001928E-02 0.  1.
        1   -1    0    0  501    0  0.00000000000E+00  0.00000000000E+00 -0.42167964033E+03  0.42167964036E+03  0.50400001928E-02 0. -1.
    10030    2    1    2    0    0  0.00000000000E+00  0.00000000000E+00 -0.28284844794E+03  0.56051083284E+03  0.48391026982E+03 0.  0.
        3    1    3    3  502    0  0.18113572704E+03  0.14207477614E+03 -0.55157423057E+02  0.23672292906E+03  0.10100000352E+00 0.  1.
       -3    1    3    3    0  502 -0.18113572704E+03 -0.14207477614E+03 -0.22769102488E+03  0.32378790378E+03  0.10100000352E+00 0. -1.
</event>
<event>
 5   0  0.2466034E-01  0.4968045E+03  0.7818609E-02  0.1014616E+00
        2   -1    0    0  501    0  0.00000000000E+00  0.00000000000E+00  0.14249369489E+04  0.14249369489E+04  0.25500000920E-02 0. -1.
       -2   -1    0    0    0  501  0.00000000000E+00  0.00000000000E+00 -0.43302739890E+02  0.43302739965E+02  0.25500000920E-02 0.  1.
    10030    2    1    2    0    0  0.00000000000E+00  0.00000000000E+00  0.13816342090E+04  0.14682396888E+04  0.49680448514E+03 0.  0.
        3    1    3    3  502    0 -0.14527178704E+02  0.14765370468E+03  0.12796031635E+04  0.12881758117E+04  0.10100000352E+00 0. -1.
       -3    1    3    3    0  502  0.14527178704E+02 -0.14765370468E+03  0.10203104544E+03  0.18006387717E+03  0.10100000352E+00 0.  1.
</event>
<event>
 5   0  0.2504064E-01  0.4888152E+03  0.7818609E-02  0.1016740E+00
       -2   -1    0    0    0  501  0.00000000000E+00  0.00000000000E+00  0.56313224073E+02  0.56313224131E+02  0.25500000920E-02 0. -1.
        2   -1    0    0  501    0  0.00000000000E+00  0.00000000000E+00 -0.10607645402E+04  0.10607645402E+04  0.25500000920E-02 0.  1.
    10030    2    1    2    0    0  0.00000000000E+00  0.00000000000E+00 -0.10044513161E+04  0.11170777643E+04  0.48881518501E+03 0.  0.
        5    1    3    3  502    0 -0.12607347124E+03  0.49179585427E+00 -0.98059802026E+03  0.98868060027E+03  0.46999998093E+01 0.  1.
       -5    1    3    3    0  502  0.12607347124E+03 -0.49179585427E+00 -0.23853295846E+02  0.12839716404E+03  0.46999998093E+01 0. -1.
</event>
<event>
 5   0  0.2511944E-01  0.5271209E+03  0.7818609E-02  0.1006933E+00
       -2   -1    0    0    0  501  0.00000000000E+00  0.00000000000E+00  0.16926078605E+03  0.16926078607E+03  0.25500000920E-02 0.  1.
        2   -1    0    0  501    0  0.00000000000E+00  0.00000000000E+00 -0.41039695527E+03  0.41039695528E+03  0.25500000920E-02 0. -1.
    10030    2    1    2    0    0  0.00000000000E+00  0.00000000000E+00 -0.24113616922E+03  0.57965774135E+03  0.52712090169E+03 0.  0.
        1    1    3    3  502    0 -0.19903162395E+02  0.16696925688E+03 -0.34374707361E+03  0.38267077136E+03  0.50400001928E-02 0. -1.
       -1    1    3    3    0  502  0.19903162395E+02 -0.16696925688E+03  0.10261090439E+03  0.19698696998E+03  0.50400001928E-02 0.  1.
</event>
<event>
 5   0  0.1439814E-01  0.4903140E+03  0.7818609E-02  0.1016338E+00
       -1   -1    0    0    0  501  0.00000000000E+00  0.00000000000E+00  0.13428461356E+03  0.13428461366E+03  0.50400001928E-02 0.  1.
        1   -1    0    0  501    0  0.00000000000E+00  0.00000000000E+00 -0.44757134032E+03  0.44757134034E+03  0.50400001928E-02 0. -1.
    10030    2    1    2    0    0  0.00000000000E+00  0.00000000000E+00 -0.31328672675E+03  0.58185595400E+03  0.49031395865E+03 0.  0.
        4    1    3    3  502    0 -0.25243396433E+02  0.81239899482E+02  0.11620281365E+03  0.14402033583E+03  0.12699999809E+01 0.  1.
       -4    1    3    3    0  502  0.25243396433E+02 -0.81239899482E+02 -0.42948954040E+03  0.43783561818E+03  0.12699999809E+01 0. -1.
</event>
<event>
 5   0  0.1413361E-01  0.4961889E+03  0.7818609E-02  0.1014778E+00
       -1   -1    0    0    0  501  0.00000000000E+00  0.00000000000E+00  0.87564599669E+02  0.87564599814E+02  0.50400001928E-02 0.  1.
        1   -1    0    0  501    0  0.00000000000E+00  0.00000000000E+00 -0.70291931503E+03  0.70291931504E+03  0.50400001928E-02 0. -1.
    10030    2    1    2    0    0  0.00000000000E+00  0.00000000000E+00 -0.61535471536E+03  0.79048391486E+03  0.49618886922E+03 0.  0.
        3    1    3    3  502    0  0.19067188620E+03 -0.13421655233E+03 -0.17267601278E+03  0.29014973151E+03  0.10100000352E+00 0.  1.
       -3    1    3    3    0  502 -0.19067188620E+03  0.13421655233E+03 -0.44267870258E+03  0.50033418334E+03  0.10100000352E+00 0. -1.
</event>
<event>
 5   0  0.1529146E-01  0.5009496E+03  0.7818609E-02  0.1013531E+00
        1   -1    0    0  501    0  0.00000000000E+00  0.00000000000E+00  0.56270960220E+03  0.56270960222E+03  0.50400001928E-02 0.  1.
       -1   -1    0    0    0  501  0.00000000000E+00  0.00000000000E+00 -0.11149201686E+03  0.11149201697E+03  0.50400001928E-02 0. -1.
    10030    2    1    2    0    0  0.00000000000E+00  0.00000000000E+00  0.45121758535E+03  0.67420161919E+03  0.50094961224E+03 0.  0.
        1    1    3    3  502    0  0.15705065791E+03  0.17555366452E+03  0.11098534904E+03  0.26038768405E+03  0.50400001928E-02 0.  1.
       -1    1    3    3    0  502 -0.15705065791E+03 -0.17555366452E+03  0.34023223631E+03  0.41381393515E+03  0.50400001928E-02 0. -1.
</event>
<event>
 5   0  0.2488968E-01  0.4960480E+03  0.7818609E-02  0.1014816E+00
        2   -1    0    0  501    0  0.00000000000E+00  0.00000000000E+00  0.74108925868E+03  0.74108925869E+03  0.25500000920E-02 0. -1.
       -2   -1    0    0    0  501  0.00000000000E+00  0.00000000000E+00 -0.83007428441E+02  0.83007428480E+02  0.25500000920E-02 0.  1.
    10030    2    1    2    0    0  0.00000000000E+00  0.00000000000E+00  0.65808183024E+03  0.82409668717E+03  0.49604803649E+03 0.  0.
        2    1    3    3  502    0 -0.99553971712E+02  0.11958265472E+03  0.81647740980E+01  0.15581292673E+03  0.25500000920E-02 0.  1.
       -2    1    3    3    0  502  0.99553971712E+02 -0.11958265472E+03  0.64991705614E+03  0.66828376044E+03  0.25500000920E-02 0. -1.
</event>
<event>
 5   0  0.1529146E-01  0.5047312E+03  0.7818609E-02  0.1012551E+00
       -1   -1    0    0    0  501  0.00000000000E+00  0.00000000000E+00  0.11353874029E+04  0.11353874029E+04  0.50400001928E-02 0.  1.
        1   -1    0    0  501    0  0.00000000000E+00  0.00000000000E+00 -0.56093973556E+02  0.56093973783E+02  0.50400001928E-02 0. -1.
    10030    2    1    2    0    0  0.00000000000E+00  0.00000000000E+00  0.10792934293E+04  0.11914813767E+04  0.50473118031E+03 0.  0.
        1    1    3    3  502    0 -0.14988383904E+03 -0.39613848921E+01  0.10188451960E+04  0.10298186206E+04  0.50400001928E-02 0.  1.
       -1    1    3    3    0  502  0.14988383904E+03  0.39613848921E+01  0.60448233284E+02  0.16166275609E+03  0.50400001928E-02 0. -1.
</event>
<event>
 5   0  0.9868500E-02  0.4908195E+03  0.7818609E-02  0.1016203E+00
       -4   -1    0    0    0  501  0.00000000000E+00  0.00000000000E+00  0.47930702372E+03  0.47930870625E+03  0.12699999809E+01 0.  1.
        4   -1    0    0  501    0  0.00000000000E+00  0.00000000000E+00 -0.12564702410E+03  0.12565344232E+03  0.12699999809E+01 0. -1.
    10030    2    1    2    0    0  0.00000000000E+00  0.00000000000E+00  0.35365999961E+03  0.60496214857E+03  0.49081952475E+03 0.  0.
        1    1    3    3  502    0 -0.78482678175E+02  0.22039590111E+02  0.46213571455E+03  0.46927038367E+03  0.50400001928E-02 0.  1.
       -1    1    3    3    0  502  0.78482678175E+02 -0.22039590111E+02 -0.10847571493E+03  0.13569176490E+03  0.50400001928E-02 0. -1.
</event>
<event>
 5   0  0.1439814E-01  0.5023437E+03  0.7818609E-02  0.1013169E+00
       -1   -1    0    0    0  501  0.00000000000E+00  0.00000000000E+00  0.27049992217E+03  0.27049992221E+03  0.50400001928E-02 0. -1.
        1   -1    0    0  501    0  0.00000000000E+00  0.00000000000E+00 -0.23322487476E+03  0.23322487481E+03  0.50400001928E-02 0.  1.
    10030    2    1    2    0    0  0.00000000000E+00  0.00000000000E+00  0.37275047408E+02  0.50372479702E+03  0.50234374882E+03 0.  0.
        4    1    3    3  502    0 -0.90887005075E+02  0.14173151298E+03  0.20552971620E+03  0.26569220276E+03  0.12699999809E+01 0. -1.
       -4    1    3    3    0  502  0.90887005075E+02 -0.14173151298E+03 -0.16825466879E+03  0.23803259427E+03  0.12699999809E+01 0.  1.
</event>
<event>
 5   0  0.2466034E-01  0.4966853E+03  0.7818609E-02  0.1014648E+00
        2   -1    0    0  501    0  0.00000000000E+00  0.00000000000E+00  0.88251209670E+03  0.88251209670E+03  0.25500000920E-02 0.  1.
       -2   -1    0    0    0  501  0.00000000000E+00  0.00000000000E+00 -0.69884675935E+02  0.69884675982E+02  0.25500000920E-02 0. -1.
    10030    2    1    2    0    0  0.00000000000E+00  0.00000000000E+00  0.81262742076E+03  0.95239677268E+03  0.49668530041E+03 0.  0.
        3    1    3    3  502    0 -0.51701759328E+01 -0.99010458460E+02  0.84291694451E+03  0.84872774619E+03  0.10100000352E+00 0.  1.
       -3    1    3    3    0  502  0.51701759328E+01  0.99010458460E+02 -0.30289523752E+02  0.10366902649E+03  0.10100000352E+00 0. -1.
</event>
<event>
 5   0  0.2466034E-01  0.4953923E+03  0.7818609E-02  0.1014989E+00
       -2   -1    0    0    0  501  0.00000000000E+00  0.00000000000E+00  0.29470331784E+03  0.29470331786E+03  0.25500000920E-02 0.  1.
        2   -1    0    0  501    0  0.00000000000E+00  0.00000000000E+00 -0.20818693637E+03  0.20818693638E+03  0.25500000920E-02 0. -1.
    10030    2    1    2    0    0  0.00000000000E+00  0.00000000000E+00  0.86516381476E+02  0.50289025424E+03  0.49539229258E+03 0.  0.
        3    1    3    3  502    0  0.16304726440E+03  0.12143606571E+03  0.18689982220E+03  0.27615698836E+03  0.10100000352E+00 0.  1.
       -3    1    3    3    0  502 -0.16304726440E+03 -0.12143606571E+03 -0.10038344072E+03  0.22673326588E+03  0.10100000352E+00 0. -1.
</event>
<event>
 5   0  0.9868500E-02  0.5049655E+03  0.7818609E-02  0.1012491E+00
       -4   -1    0    0    0  501  0.00000000000E+00  0.00000000000E+00  0.25178052105E+03  0.25178372402E+03  0.12699999809E+01 0.  1.
        4   -1    0    0  501    0  0.00000000000E+00  0.00000000000E+00 -0.25318051030E+03  0.25318369556E+03  0.12699999809E+01 0. -1.
    10030    2    1    2    0    0  0.00000000000E+00  0.00000000000E+00 -0.13999892501E+01  0.50496741958E+03  0.50496547889E+03 0.  0.
        5    1    3    3  502    0  0.10856491839E+03  0.84483603888E+02  0.21096475741E+03  0.25189688306E+03  0.46999998093E+01 0.  1.
       -5    1    3    3    0  502 -0.10856491839E+03 -0.84483603888E+02 -0.21236474666E+03  0.25307053652E+03  0.46999998093E+01 0. -1.
</event>
<event>
 5   0  0.1448458E-01  0.5039878E+03  0.7818609E-02  0.1012743E+00
       -1   -1    0    0    0  501  0.00000000000E+00  0.00000000000E+00  0.56916539232E+02  0.56916539455E+02  0.50400001928E-02 0. -1.
        1   -1    0    0  501    0  0.00000000000E+00  0.00000000000E+00 -0.11156847228E+04  0.11156847228E+04  0.50400001928E-02 0.  1.
    10030    2    1    2    0    0  0.00000000000E+00  0.00000000000E+00 -0.10587681836E+04  0.11726012623E+04  0.50398775158E+03 0.  0.
        5    1    3    3  502    0  0.30629047885E+02  0.11266740117E+03 -0.10488400865E+04  0.10553291899E+04  0.46999998093E+01 0.  1.
       -5    1    3    3    0  502 -0.30629047885E+02 -0.11266740117E+03 -0.99280970496E+01  0.11727207242E+03  0.46999998093E+01 0. -1.
</event>
<event>
 5   0  0.1448458E-01  0.4980852E+03  0.7818609E-02  0.1014280E+00
       -1   -1    0    0    0  501  0.00000000000E+00  0.00000000000E+00  0.16207911021E+03  0.16207911029E+03  0.50400001928E-02 0.  1.
        1   -1    0    0  501    0  0.00000000000E+00  0.00000000000E+00 -0.38266628189E+03  0.38266628192E+03  0.50400001928E-02 0. -1.
    10030    2    1    2    0    0  0.00000000000E+00  0.00000000000E+00 -0.22058717168E+03  0.54474539221E+03  0.49808517548E+03 0.  0.
        5    1    3    3  502    0  0.17276952954E+03 -0.17086618764E+03 -0.16975148394E+03  0.29644935607E+03  0.46999998093E+01 0.  1.
       -5    1    3    3    0  502 -0.17276952954E+03  0.17086618764E+03 -0.50835687735E+02  0.24829603614E+03  0.46999998093E+01 0. -1.
</event>
<event>
 5   0  0.2504064E-01  0.5202581E+03  0.7818609E-02  0.1008622E+00
        2   -1    0    0  501    0  0.00000000000E+00  0.00000000000E+00  0.72050319954E+03  0.72050319955E+03  0.25500000920E-02 0. -1.
       -2   -1    0    0    0  501  0.00000000000E+00  0.00000000000E+00 -0.93916461077E+02  0.93916461112E+02  0.25500000920E-02 0.  1.
    10030    2    1    2    0    0  0.00000000000E+00  0.00000000000E+00  0.62658673846E+03  0.81441966066E+03  0.52025805409E+03 0.  0.
        5    1    3    3  502    0  0.15491350110E+03 -0.20501469230E+03  0.37621844596E+03  0.45562224042E+03  0.46999998093E+01 0.  1.
       -5    1    3    3    0  502 -0.15491350110E+03  0.20501469230E+03  0.25036829251E+03  0.35879742024E+03  0.46999998093E+01 0. -1.
</event>
<event>
 5   0  0.2511944E-01  0.3584293E+03  0.7818609E-02  0.1059208E+00
        2   -1    0    0  501    0  0.00000000000E+00  0.00000000000E+00  0.27129847237E+03  0.27129847238E+03  0.25500000920E-02 0. -1.
       -2   -1    0    0    0  501  0.00000000000E+00  0.00000000000E+00 -0.11838582470E+03  0.11838582472E+03  0.25500000920E-02 0.  1.
    10030    2    1    2    0    0  0.00000000000E+00  0.00000000000E+00  0.15291264767E+03  0.38968429711E+03  0.35842931464E+03 0.  0.
        1    1    3    3  502    0  0.92549304655E+02 -0.12095579419E+03 -0.26237833707E+02  0.15454482160E+03  0.50400001928E-02 0.  1.
       -1    1    3    3    0  502 -0.92549304655E+02  0.12095579419E+03  0.17915048138E+03  0.23513947551E+03  0.50400001928E-02 0. -1.
</event>
<event>
 5   0  0.1448458E-01  0.4993483E+03  0.7818609E-02  0.1013949E+00
       -1   -1    0    0    0  501  0.00000000000E+00  0.00000000000E+00  0.24821377034E+03  0.24821377039E+03  0.50400001928E-02 0. -1.
        1   -1    0    0  501    0  0.00000000000E+00  0.00000000000E+00 -0.25114309058E+03  0.25114309063E+03  0.50400001928E-02 0.  1.
    10030    2    1    2    0    0  0.00000000000E+00  0.00000000000E+00 -0.29293202369E+01  0.49935686102E+03  0.49934826898E+03 0.  0.
        5    1    3    3  502    0  0.94343068506E+02 -0.23109861471E+03 -0.42752490193E+01  0.24969491795E+03  0.46999998093E+01 0.  1.
       -5    1    3    3    0  502 -0.94343068506E+02  0.23109861471E+03  0.13459287824E+01  0.24966194307E+03  0.46999998093E+01 0. -1.
</event>
<event>
 5   0  0.1453602E-01  0.4956889E+03  0.7818609E-02  0.1014910E+00
        1   -1    0    0  501    0  0.00000000000E+00  0.00000000000E+00  0.26273807810E+03  0.26273807815E+03  0.50400001928E-02 0.  1.
       -1   -1    0    0    0  501  0.00000000000E+00  0.00000000000E+00 -0.23379512414E+03  0.23379512420E+03  0.50400001928E-02 0. -1.
    10030    2    1    2    0    0  0.00000000000E+00  0.00000000000E+00  0.28942953962E+02  0.49653320235E+03  0.49568894122E+03 0.  0.
        2    1    3    3  502    0  0.24020426312E+02  0.23727384172E+03 -0.53104707012E+02  0.24432758084E+03  0.25500000920E-02 0. -1.
       -2    1    3    3    0  502 -0.24020426312E+02 -0.23727384172E+03  0.82047660974E+02  0.25220562151E+03  0.25500000920E-02 0.  1.
</event>
<event>
 5   0  0.2413301E-01  0.5047126E+03  0.7818609E-02  0.1012556E+00
        2   -1    0    0  501    0  0.00000000000E+00  0.00000000000E+00  0.19794026482E+04  0.19794026482E+04  0.25500000920E-02 0.  1.
       -2   -1    0    0    0  501  0.00000000000E+00  0.00000000000E+00 -0.32173195184E+02  0.32173195285E+02  0.25500000920E-02 0. -1.
    10030    2    1    2    0    0  0.00000000000E+00  0.00000000000E+00  0.19472294530E+04  0.20115758435E+04  0.50471262259E+03 0.  0.
        4    1    3    3  502    0  0.24010202458E+03  0.35192222372E+02  0.12495894787E+04  0.12729347795E+04  0.12699999809E+01 0. -1.
       -4    1    3    3    0  502 -0.24010202458E+03 -0.35192222372E+02  0.69763997436E+03  0.73864106401E+03  0.12699999809E+01 0.  1.
</event>
<event>
 5   0  0.2466034E-01  0.4981251E+03  0.7818609E-02  0.1014269E+00
        2   -1    0    0  501    0  0.00000000000E+00  0.00000000000E+00  0.89404815496E+03  0.89404815496E+03  0.25500000920E-02 0. -1.
       -2   -1    0    0    0  501  0.00000000000E+00  0.00000000000E+00 -0.69383447868E+02  0.69383447915E+02  0.25500000920E-02 0.  1.
    10030    2    1    2    0    0  0.00000000000E+00  0.00000000000E+00  0.82466470709E+03  0.96343160287E+03  0.49812505890E+03 0.  0.
        3    1    3    3  502    0 -0.14067811587E+03 -0.20497557909E+03  0.38320395998E+03  0.45678288655E+03  0.10100000352E+00 0. -1.
       -3    1    3    3    0  502  0.14067811587E+03  0.20497557909E+03  0.44146074711E+03  0.50664871632E+03  0.10100000352E+00 0.  1.
</event>
<event>
 5   0  0.2504064E-01  0.5037463E+03  0.7818609E-02  0.1012806E+00
       -2   -1    0    0    0  501  0.00000000000E+00  0.00000000000E+00  0.48840801849E+02  0.48840801915E+02  0.25500000920E-02 0. -1.
        2   -1    0    0  501    0  0.00000000000E+00  0.00000000000E+00 -0.12989158497E+04  0.12989158497E+04  0.25500000920E-02 0.  1.
    10030    2    1    2    0    0  0.00000000000E+00  0.00000000000E+00 -0.12500750479E+04  0.13477566516E+04  0.50374633172E+03 0.  0.
        5    1    3    3  502    0  0.58736497582E+02  0.54267097996E+02 -0.12639259609E+04  0.12664619294E+04  0.46999998093E+01 0.  1.
       -5    1    3    3    0  502 -0.58736497582E+02 -0.54267097996E+02  0.13850913002E+02  0.81294722229E+02  0.46999998093E+01 0. -1.
</event>
<event>
 5   0  0.2504064E-01  0.5004260E+03  0.7818609E-02  0.1013668E+00
       -2   -1    0    0    0  501  0.00000000000E+00  0.00000000000E+00  0.57993161006E+02  0.57993161062E+02  0.25500000920E-02 0. -1.
        2   -1    0    0  501    0  0.00000000000E+00  0.00000000000E+00 -0.10795503805E+04  0.10795503805E+04  0.25500000920E-02 0.  1.
    10030    2    1    2    0    0  0.00000000000E+00  0.00000000000E+00 -0.10215572195E+04  0.11375435416E+04  0.50042597480E+03 0.  0.
        5    1    3    3  502    0 -0.22990398400E+03  0.88100736850E+02 -0.40996579901E+03  0.47823804538E+03  0.46999998093E+01 0. -1.
       -5    1    3    3    0  502  0.22990398400E+03 -0.88100736850E+02 -0.61159142049E+03  0.65930549619E+03  0.46999998093E+01 0.  1.
</event>
<event>
 5   0  0.2504064E-01  0.4948128E+03  0.7818609E-02  0.1015142E+00
        2   -1    0    0  501    0  0.00000000000E+00  0.00000000000E+00  0.45001368489E+03  0.45001368489E+03  0.25500000920E-02 0.  1.
       -2   -1    0    0    0  501  0.00000000000E+00  0.00000000000E+00 -0.13601794092E+03  0.13601794094E+03  0.25500000920E-02 0. -1.
    10030    2    1    2    0    0  0.00000000000E+00  0.00000000000E+00  0.31399574397E+03  0.58603162583E+03  0.49481283254E+03 0.  0.
        5    1    3    3  502    0  0.64253376599E+02 -0.20208722993E+03  0.30783451633E+03  0.37383408666E+03  0.46999998093E+01 0.  1.
       -5    1    3    3    0  502 -0.64253376599E+02  0.20208722993E+03  0.61612276365E+01  0.21219753917E+03  0.46999998093E+01 0. -1.
</event>
<event>
 5   0  0.1448458E-01  0.4934793E+03  0.7818609E-02  0.1015495E+00
        1   -1    0    0  501    0  0.00000000000E+00  0.00000000000E+00  0.24979762360E+03  0.24979762365E+03  0.50400001928E-02 0. -1.
       -1   -1    0    0    0  501  0.00000000000E+00  0.00000000000E+00 -0.24371915139E+03  0.24371915144E+03  0.50400001928E-02 0.  1.
    10030    2    1    2    0    0  0.00000000000E+00  0.00000000000E+00  0.60784722105E+01  0.49351677508E+03  0.49347934046E+03 0.  0.
        5    1    3    3  502    0  0.14385645985E+02 -0.18727246253E+03 -0.15691180007E+03  0.24478832699E+03  0.46999998093E+01 0.  1.
       -5    1    3    3    0  502 -0.14385645985E+02  0.18727246253E+03  0.16299027228E+03  0.24872844809E+03  0.46999998093E+01 0. -1.
</event>
<event>
 5   0  0.2511944E-01  0.4921612E+03  0.7818609E-02  0.1015845E+00
       -2   -1    0    0    0  501  0.00000000000E+00  0.00000000000E+00  0.62856284697E+02  0.62856284749E+02  0.25500000920E-02 0.  1.
        2   -1    0    0  501    0  0.00000000000E+00  0.00000000000E+00 -0.96339869006E+03  0.96339869007E+03  0.25500000920E-02 0. -1.
    10030    2    1    2    0    0  0.00000000000E+00  0.00000000000E+00 -0.90054240537E+03  0.10262549748E+04  0.49216120273E+03 0.  0.
        1    1    3    3  502    0 -0.10582149444E+03  0.36561902339E+02  0.66719227202E+01  0.11215826303E+03  0.50400001928E-02 0.  1.
       -1    1    3    3    0  502  0.10582149444E+03 -0.36561902339E+02 -0.90721432809E+03  0.91409671179E+03  0.50400001928E-02 0. -1.
</event>
<event>
 5   0  0.1453602E-01  0.4916073E+03  0.7818609E-02  0.1015993E+00
       -1   -1    0    0    0  501  0.00000000000E+00  0.00000000000E+00  0.90595489359E+02  0.90595489499E+02  0.50400001928E-02 0.  1.
        1   -1    0    0  501    0  0.00000000000E+00  0.00000000000E+00 -0.66691428340E+03  0.66691428342E+03  0.50400001928E-02 0. -1.
    10030    2    1    2    0    0  0.00000000000E+00  0.00000000000E+00 -0.57631879404E+03  0.75750977292E+03  0.49160726571E+03 0.  0.
        2    1    3    3  502    0 -0.17261891786E+03  0.15605019063E+03 -0.41017632946E+03  0.47158623183E+03  0.25500000920E-02 0. -1.
       -2    1    3    3    0  502  0.17261891786E+03 -0.15605019063E+03 -0.16614246458E+03  0.28592354108E+03  0.25500000920E-02 0.  1.
</event>
<event>
 5   0  0.1453602E-01  0.4966827E+03  0.7818609E-02  0.1014648E+00
       -1   -1    0    0    0  501  0.00000000000E+00  0.00000000000E+00  0.26666497212E+03  0.26666497216E+03  0.50400001928E-02 0. -1.
        1   -1    0    0  501    0  0.00000000000E+00  0.00000000000E+00 -0.23127683682E+03  0.23127683688E+03  0.50400001928E-02 0.  1.
    10030    2    1    2    0    0  0.00000000000E+00  0.00000000000E+00  0.35388135296E+02  0.49794180904E+03  0.49668272073E+03 0.  0.
        2    1    3    3  502    0  0.20680972311E+03 -0.80224270683E+02 -0.94245759790E+02  0.24101547341E+03  0.25500000920E-02 0. -1.
       -2    1    3    3    0  502 -0.20680972311E+03  0.80224270683E+02  0.12963389509E+03  0.25692633563E+03  0.25500000920E-02 0.  1.
</event>
<event>
 5   0  0.1413361E-01  0.4990848E+03  0.7818609E-02  0.1014018E+00
        1   -1    0    0  501    0  0.00000000000E+00  0.00000000000E+00  0.14201439930E+03  0.14201439939E+03  0.50400001928E-02 0.  1.
       -1   -1    0    0    0  501  0.00000000000E+00  0.00000000000E+00 -0.43848650803E+03  0.43848650806E+03  0.50400001928E-02 0. -1.
    10030    2    1    2    0    0  0.00000000000E+00  0.00000000000E+00 -0.29647210872E+03  0.58050090745E+03  0.49908475462E+03 0.  0.
        3    1    3    3  502    0 -0.56176288826E+01  0.21369539404E+03 -0.29797807538E+03  0.36672635956E+03  0.10100000352E+00 0. -1.
       -3    1    3    3    0  502  0.56176288826E+01 -0.21369539404E+03  0.15059666617E+01  0.21377454789E+03  0.10100000352E+00 0.  1.
</event>
<event>
 5   0  0.2511944E-01  0.4993110E+03  0.7818609E-02  0.1013959E+00
       -2   -1    0    0    0  501  0.00000000000E+00  0.00000000000E+00  0.96158946510E+02  0.96158946544E+02  0.25500000920E-02 0.  1.
        2   -1    0    0  501    0  0.00000000000E+00  0.00000000000E+00 -0.64817534201E+03  0.64817534201E+03  0.25500000920E-02 0. -1.
    10030    2    1    2    0    0  0.00000000000E+00  0.00000000000E+00 -0.55201639550E+03  0.74433428855E+03  0.49931095744E+03 0.  0.
        1    1    3    3  502    0 -0.68355470273E+02 -0.19777535048E+03 -0.73027243723E+02  0.22163153640E+03  0.50400001928E-02 0.  1.
       -1    1    3    3    0  502  0.68355470273E+02  0.19777535048E+03 -0.47898915177E+03  0.52270275216E+03  0.50400001928E-02 0. -1.
</event>
<event>
 5   0  0.1439814E-01  0.4899976E+03  0.7818609E-02  0.1016423E+00
        1   -1    0    0  501    0  0.00000000000E+00  0.00000000000E+00  0.39673648627E+03  0.39673648631E+03  0.50400001928E-02 0. -1.
       -1   -1    0    0    0  501  0.00000000000E+00  0.00000000000E+00 -0.15129539830E+03  0.15129539839E+03  0.50400001928E-02 0.  1.
    10030    2    1    2    0    0  0.00000000000E+00  0.00000000000E+00  0.24544108797E+03  0.54803188469E+03  0.48999757038E+03 0.  0.
        4    1    3    3  502    0 -0.46811576484E+02 -0.81299464769E+02 -0.13040711018E+03  0.16065040912E+03  0.12699999809E+01 0.  1.
       -4    1    3    3    0  502  0.46811576484E+02  0.81299464769E+02  0.37584819815E+03  0.38738147557E+03  0.12699999809E+01 0. -1.
</event>
<event>
 5   0  0.1439814E-01  0.4988233E+03  0.7818609E-02  0.1014087E+00
        1   -1    0    0  501    0  0.00000000000E+00  0.00000000000E+00  0.13499357276E+04  0.13499357276E+04  0.50400001928E-02 0.  1.
       -1   -1    0    0    0  501  0.00000000000E+00  0.00000000000E+00 -0.46080830222E+02  0.46080830497E+02  0.50400001928E-02 0. -1.
    10030    2    1    2    0    0  0.00000000000E+00  0.00000000000E+00  0.13038548974E+04  0.13960165581E+04  0.49882325236E+03 0.  0.
        4    1    3    3  502    0 -0.20559496368E+03  0.12904575223E+03  0.49158703001E+03  0.54825314977E+03  0.12699999809E+01 0. -1.
       -4    1    3    3    0  502  0.20559496368E+03 -0.12904575223E+03  0.81226786740E+03  0.84776340837E+03  0.12699999809E+01 0.  1.
</event>
<event>
 5   0  0.1413361E-01  0.5019145E+03  0.7818609E-02  0.1013280E+00
       -1   -1    0    0    0  501  0.00000000000E+00  0.00000000000E+00  0.56103316241E+03  0.56103316243E+03  0.50400001928E-02 0.  1.
        1   -1    0    0  501    0  0.00000000000E+00  0.00000000000E+00 -0.11225635980E+03  0.11225635992E+03  0.50400001928E-02 0. -1.
    10030    2    1    2    0    0  0.00000000000E+00  0.00000000000E+00  0.44877680261E+03  0.67328952235E+03  0.50191449705E+03 0.  0.
        3    1    3    3  502    0 -0.17245194126E+03  0.16504710478E+03  0.32829014214E+03  0.40589979856E+03  0.10100000352E+00 0. -1.
       -3    1    3    3    0  502  0.17245194126E+03 -0.16504710478E+03  0.12048666047E+03  0.26738972379E+03  0.10100000352E+00 0.  1.
</event>
<event>
 5   0  0.2488968E-01  0.4986612E+03  0.7818609E-02  0.1014129E+00
       -2   -1    0    0    0  501  0.00000000000E+00  0.00000000000E+00  0.54343750372E+02  0.54343750432E+02  0.25500000920E-02 0. -1.
        2   -1    0    0  501    0  0.00000000000E+00  0.00000000000E+00 -0.11439356036E+04  0.11439356036E+04  0.25500000920E-02 0.  1.
    10030    2    1    2    0    0  0.00000000000E+00  0.00000000000E+00 -0.10895918533E+04  0.11982793541E+04  0.49866121134E+03 0.  0.
        2    1    3    3  502    0  0.20316781172E+03 -0.10147423561E+03 -0.29749105370E+03  0.37426609150E+03  0.25500000920E-02 0.  1.
       -2    1    3    3    0  502 -0.20316781172E+03  0.10147423561E+03 -0.79210079957E+03  0.82401326258E+03  0.25500000920E-02 0. -1.
</event>
<event>
 5   0  0.2413301E-01  0.4975700E+03  0.7818609E-02  0.1014415E+00
        2   -1    0    0  501    0  0.00000000000E+00  0.00000000000E+00  0.16689364752E+04  0.16689364752E+04  0.25500000920E-02 0.  1.
       -2   -1    0    0    0  501  0.00000000000E+00  0.00000000000E+00 -0.37085880435E+02  0.37085880523E+02  0.25500000920E-02 0. -1.
    10030    2    1    2    0    0  0.00000000000E+00  0.00000000000E+00  0.16318505948E+04  0.17060223557E+04  0.49757000975E+03 0.  0.
        4    1    3    3  502    0  0.24259687497E+03 -0.55066618651E+02  0.82485937781E+03  0.86155683637E+03  0.12699999809E+01 0.  1.
       -4    1    3    3    0  502 -0.24259687497E+03  0.55066618651E+02  0.80699121696E+03  0.84446551935E+03  0.12699999809E+01 0. -1.
</event>
<event>
 5   0  0.2504064E-01  0.5022238E+03  0.7818609E-02  0.1013200E+00
        2   -1    0    0  501    0  0.00000000000E+00  0.00000000000E+00  0.13142521486E+04  0.13142521486E+04  0.25500000920E-02 0.  1.
       -2   -1    0    0    0  501  0.00000000000E+00  0.00000000000E+00 -0.47979526505E+02  0.47979526572E+02  0.25500000920E-02 0. -1.
    10030    2    1    2    0    0  0.00000000000E+00  0.00000000000E+00  0.12662726221E+04  0.13622316752E+04  0.50222383793E+03 0.  0.
        5    1    3    3  502    0 -0.18638207598E+03 -0.16154072957E+03  0.76040018369E+03  0.79941492037E+03  0.46999998093E+01 0.  1.
       -5    1    3    3    0  502  0.18638207598E+03  0.16154072957E+03  0.50587243843E+03  0.56281675483E+03  0.46999998093E+01 0. -1.
</event>
<event>
 5   0  0.2466034E-01  0.4953741E+03  0.7818609E-02  0.1014993E+00
        2   -1    0    0  501    0  0.00000000000E+00  0.00000000000E+00  0.16616013316E+03  0.16616013318E+03  0.25500000920E-02 0. -1.
       -2   -1    0    0    0  501  0.00000000000E+00  0.00000000000E+00 -0.36921530617E+03  0.36921530618E+03  0.25500000920E-02 0.  1.
    10030    2    1    2    0    0  0.00000000000E+00  0.00000000000E+00 -0.20305517300E+03  0.53537543936E+03  0.49537405845E+03 0.  0.
        3    1    3    3  502    0 -0.57050362791E+02 -0.19454339705E+03  0.52254333489E+02  0.20936189434E+03  0.10100000352E+00 0. -1.
       -3    1    3    3    0  502  0.57050362791E+02  0.19454339705E+03 -0.25530950649E+03  0.32601354502E+03  0.10100000352E+00 0.  1.
</event>
<event>
 5   0  0.2504064E-01  0.4965804E+03  0.7818609E-02  0.1014675E+00
       -2   -1    0    0    0  501  0.00000000000E+00  0.00000000000E+00  0.13485366319E+03  0.13485366321E+03  0.25500000920E-02 0. -1.
        2   -1    0    0  501    0  0.00000000000E+00  0.00000000000E+00 -0.45714753108E+03  0.45714753109E+03  0.25500000920E-02 0.  1.
    10030    2    1    2    0    0  0.00000000000E+00  0.00000000000E+00 -0.32229386789E+03  0.59200119430E+03  0.49658038299E+03 0.  0.
        5    1    3    3  502    0 -0.48390796491E+02 -0.22642298256E+03 -0.26788911359E+03  0.35411255752E+03  0.46999998093E+01 0.  1.
       -5    1    3    3    0  502  0.48390796491E+02  0.22642298256E+03 -0.54404754306E+02  0.23788863678E+03  0.46999998093E+01 0. -1.
</event>
<event>
 5   0  0.2488968E-01  0.4948204E+03  0.7818609E-02  0.1015140E+00
       -2   -1    0    0    0  501  0.00000000000E+00  0.00000000000E+00  0.42712705200E+02  0.42712705276E+02  0.25500000920E-02 0. -1.
        2   -1    0    0  501    0  0.00000000000E+00  0.00000000000E+00 -0.14331052524E+04  0.14331052524E+04  0.25500000920E-02 0.  1.
    10030    2    1    2    0    0  0.00000000000E+00  0.00000000000E+00 -0.13903925472E+04  0.14758179577E+04  0.49482038045E+03 0.  0.
        2    1    3    3  502    0 -0.15366347048E+03  0.38785715618E+02 -0.12855424340E+03  0.20406613486E+03  0.25500000920E-02 0. -1.
       -2    1    3    3    0  502  0.15366347048E+03 -0.38785715618E+02 -0.12618383038E+04  0.12717518229E+04  0.25500000920E-02 0.  1.
</event>
<event>
 5   0  0.1529146E-01  0.4872546E+03  0.7818609E-02  0.1017160E+00
       -1   -1    0    0    0  501  0.00000000000E+00  0.00000000000E+00  0.50455205745E+03  0.50455205747E+03  0.50400001928E-02 0. -1.
        1   -1    0    0  501    0  0.00000000000E+00  0.00000000000E+00 -0.11763755016E+03  0.11763755027E+03  0.50400001928E-02 0.  1.
    10030    2    1    2    0    0  0.00000000000E+00  0.00000000000E+00  0.38691450728E+03  0.62218960774E+03  0.48725462752E+03 0.  0.
        1    1    3    3  502    0  0.14821007513E+03 -0.13660381434E+03  0.18711761090E+02  0.20242766236E+03  0.50400001928E-02 0.  1.
       -1    1    3    3    0  502 -0.14821007513E+03  0.13660381434E+03  0.36820274619E+03  0.41976194538E+03  0.50400001928E-02 0. -1.
</event>
<event>
 5   0  0.1439814E-01  0.3629782E+03  0.7818609E-02  0.1057411E+00
       -1   -1    0    0    0  501  0.00000000000E+00  0.00000000000E+00  0.18257027693E+03  0.18257027700E+03  0.50400001928E-02 0.  1.
        1   -1    0    0  501    0  0.00000000000E+00  0.00000000000E+00 -0.18041436182E+03  0.18041436189E+03  0.50400001928E-02 0. -1.
    10030    2    1    2    0    0  0.00000000000E+00  0.00000000000E+00  0.21559151074E+01  0.36298463889E+03  0.36297823640E+03 0.  0.
        4    1    3    3  502    0  0.10021968448E+03  0.12531118207E+03 -0.83716283157E+02  0.18098869157E+03  0.12699999809E+01 0. -1.
       -4    1    3    3    0  502 -0.10021968448E+03 -0.12531118207E+03  0.85872198264E+02  0.18199594733E+03  0.12699999809E+01 0.  1.
</event>
<event>
 5   0  0.2413301E-01  0.5061590E+03  0.7818609E-02  0.1012184E+00
       -2   -1    0    0    0  501  0.00000000000E+00  0.00000000000E+00  0.14055352987E+03  0.14055352989E+03  0.25500000920E-02 0. -1.
        2   -1    0    0  501    0  0.00000000000E+00  0.00000000000E+00 -0.45569280291E+03  0.45569280291E+03  0.25500000920E-02 0.  1.
    10030    2    1    2    0    0  0.00000000000E+00  0.00000000000E+00 -0.31513927304E+03  0.59624633281E+03  0.50615899476E+03 0.  0.
        4    1    3    3  502    0 -0.16966738143E+03  0.25829607473E+02  0.61526931929E+02  0.18232214675E+03  0.12699999809E+01 0. -1.
       -4    1    3    3    0  502  0.16966738143E+03 -0.25829607473E+02 -0.37666620496E+03  0.41392418606E+03  0.12699999809E+01 0.  1.
</event>
<event>
 5   0  0.2413301E-01  0.5299869E+03  0.7818609E-02  0.1006235E+00
       -2   -1    0    0    0  501  0.00000000000E+00  0.00000000000E+00  0.11773883930E+03  0.11773883933E+03  0.25500000920E-02 0. -1.
        2   -1    0    0  501    0  0.00000000000E+00  0.00000000000E+00 -0.59641778561E+03  0.59641778561E+03  0.25500000920E-02 0.  1.
    10030    2    1    2    0    0  0.00000000000E+00  0.00000000000E+00 -0.47867894630E+03  0.71415662494E+03  0.52998693504E+03 0.  0.
        4    1    3    3  502    0 -0.24806124224E+03  0.43419242313E+02 -0.35045961890E+03  0.43155899699E+03  0.12699999809E+01 0.  1.
       -4    1    3    3    0  502  0.24806124224E+03 -0.43419242313E+02 -0.12821932741E+03  0.28259762796E+03  0.12699999809E+01 0. -1.
</event>
<event>
 5   0  0.1453602E-01  0.5108772E+03  0.7818609E-02  0.1010978E+00
       -1   -1    0    0    0  501  0.00000000000E+00  0.00000000000E+00  0.13241357036E+03  0.13241357045E+03  0.50400001928E-02 0.  1.
        1   -1    0    0  501    0  0.00000000000E+00  0.00000000000E+00 -0.49276588751E+03  0.49276588754E+03  0.50400001928E-02 0. -1.
    10030    2    1    2    0    0  0.00000000000E+00  0.00000000000E+00 -0.36035231716E+03  0.62517945799E+03  0.51087724770E+03 0.  0.
        2    1    3    3  502    0  0.21996900085E+03 -0.45221019726E+01 -0.33898913988E+03  0.40412924629E+03  0.25500000920E-02 0. -1.
       -2    1    3    3    0  502 -0.21996900085E+03  0.45221019726E+01 -0.21363177277E+02  0.22105021170E+03  0.25500000920E-02 0.  1.
</event>
<event>
 5   0  0.9868500E-02  0.5160641E+03  0.7818609E-02  0.1009669E+00
       -4   -1    0    0    0  501  0.00000000000E+00  0.00000000000E+00  0.22365678564E+03  0.22366039136E+03  0.12699999809E+01 0.  1.
        4   -1    0    0  501    0  0.00000000000E+00  0.00000000000E+00 -0.29768329363E+03  0.29768600271E+03  0.12699999809E+01 0. -1.
    10030    2    1    2    0    0  0.00000000000E+00  0.00000000000E+00 -0.74026507991E+02  0.52134639407E+03  0.51606408393E+03 0.  0.
        3    1    3    3  502    0 -0.22453837143E+03  0.12516796520E+03 -0.59512833406E+02  0.26386793534E+03  0.10100000352E+00 0. -1.
       -3    1    3    3    0  502  0.22453837143E+03 -0.12516796520E+03 -0.14513674585E+02  0.25747845873E+03  0.10100000352E+00 0.  1.
</event>
<event>
 5   0  0.2488968E-01  0.5029803E+03  0.7818609E-02  0.1013004E+00
        2   -1    0    0  501    0  0.00000000000E+00  0.00000000000E+00  0.17792185057E+04  0.17792185057E+04  0.25500000920E-02 0. -1.
       -2   -1    0    0    0  501  0.00000000000E+00  0.00000000000E+00 -0.35547799823E+02  0.35547799915E+02  0.25500000920E-02 0.  1.
    10030    2    1    2    0    0  0.00000000000E+00  0.00000000000E+00  0.17436707059E+04  0.18147663056E+04  0.50298033110E+03 0.  0.
        2    1    3    3  502    0  0.16389269509E+03  0.67813020003E+02  0.22855468197E+03  0.28930375705E+03  0.25500000920E-02 0.  1.
       -2    1    3    3    0  502 -0.16389269509E+03 -0.67813020003E+02  0.15151160239E+04  0.15254625486E+04  0.25500000920E-02 0. -1.
</event>
<event>
 5   0  0.2466034E-01  0.5047746E+03  0.7818609E-02  0.1012540E+00
        2   -1    0    0  501    0  0.00000000000E+00  0.00000000000E+00  0.10626281033E+04  0.10626281033E+04  0.25500000920E-02 0. -1.
       -2   -1    0    0    0  501  0.00000000000E+00  0.00000000000E+00 -0.59945101051E+02  0.59945101105E+02  0.25500000920E-02 0.  1.
    10030    2    1    2    0    0  0.00000000000E+00  0.00000000000E+00  0.10026830022E+04  0.11225732044E+04  0.50477459945E+03 0.  0.
        3    1    3    3  502    0 -0.10489105678E+03  0.12474945998E+03  0.72785490528E+02  0.17850013835E+03  0.10100000352E+00 0.  1.
       -3    1    3    3    0  502  0.10489105678E+03 -0.12474945998E+03  0.92989751169E+03  0.94407306603E+03  0.10100000352E+00 0. -1.
</event>
<event>
 5   0  0.9868500E-02  0.4847364E+03  0.7818609E-02  0.1017842E+00
        3   -1    0    0  501    0  0.00000000000E+00  0.00000000000E+00  0.81274044281E+02  0.81274107038E+02  0.10100000352E+00 0.  1.
       -3   -1    0    0    0  501  0.00000000000E+00  0.00000000000E+00 -0.72276852688E+03  0.72276853393E+03  0.10100000352E+00 0. -1.
    10030    2    1    2    0    0  0.00000000000E+00  0.00000000000E+00 -0.64149448260E+03  0.80404264097E+03  0.48473642044E+03 0.  0.
        1    1    3    3  502    0  0.16472474820E+03  0.17546597268E+03 -0.36823997170E+03  0.43991274933E+03  0.50400001928E-02 0. -1.
       -1    1    3    3    0  502 -0.16472474820E+03 -0.17546597268E+03 -0.27325451089E+03  0.36412989164E+03  0.50400001928E-02 0.  1.
</event>
<event>
 5   0  0.9868500E-02  0.5175658E+03  0.7818609E-02  0.1009293E+00
        3   -1    0    0  501    0  0.00000000000E+00  0.00000000000E+00  0.70768952252E+03  0.70768952972E+03  0.10100000352E+00 0.  1.
       -3   -1    0    0    0  501  0.00000000000E+00  0.00000000000E+00 -0.94629864430E+02  0.94629918329E+02  0.10100000352E+00 0. -1.
    10030    2    1    2    0    0  0.00000000000E+00  0.00000000000E+00  0.61305965809E+03  0.80231944805E+03  0.51756579519E+03 0.  0.
        2    1    3    3  502    0 -0.13190612362E+03  0.91656867384E+02  0.62106096840E+03  0.64149585600E+03  0.25500000920E-02 0.  1.
       -2    1    3    3    0  502  0.13190612362E+03 -0.91656867384E+02 -0.80013103144E+01  0.16082359205E+03  0.25500000920E-02 0. -1.
</event>
<event>
 5   0  0.2488968E-01  0.4998689E+03  0.7818609E-02  0.1013813E+00
       -2   -1    0    0    0  501  0.00000000000E+00  0.00000000000E+00  0.10982882553E+03  0.10982882556E+03  0.25500000920E-02 0.  1.
        2   -1    0    0  501    0  0.00000000000E+00  0.00000000000E+00 -0.56876888172E+03  0.56876888173E+03  0.25500000920E-02 0. -1.
    10030    2    1    2    0    0  0.00000000000E+00  0.00000000000E+00 -0.45894005619E+03  0.67859770729E+03  0.49986885596E+03 0.  0.
        2    1    3    3  502    0 -0.18550661554E+03 -0.13321684914E+03 -0.91641542549E+02  0.24608454976E+03  0.25500000920E-02 0.  1.
       -2    1    3    3    0  502  0.18550661554E+03  0.13321684914E+03 -0.36729851364E+03  0.43251315752E+03  0.25500000920E-02 0. -1.
</event>
<event>
 5   0  0.2511944E-01  0.5011641E+03  0.7818609E-02  0.1013476E+00
        2   -1    0    0  501    0  0.00000000000E+00  0.00000000000E+00  0.40124451341E+03  0.40124451342E+03  0.25500000920E-02 0.  1.
       -2   -1    0    0    0  501  0.00000000000E+00  0.00000000000E+00 -0.15649151581E+03  0.15649151583E+03  0.25500000920E-02 0. -1.
    10030    2    1    2    0    0  0.00000000000E+00  0.00000000000E+00  0.24475299760E+03  0.55773602925E+03  0.50116409338E+03 0.  0.
        1    1    3    3  502    0 -0.24047341715E+03  0.10632580578E+01  0.43977465928E+02  0.24446392865E+03  0.50400001928E-02 0. -1.
       -1    1    3    3    0  502  0.24047341715E+03 -0.10632580578E+01  0.20077553167E+03  0.31327210061E+03  0.50400001928E-02 0.  1.
</event>
<event>
 5   0  0.1413361E-01  0.3145262E+03  0.7818609E-02  0.1078196E+00
        1   -1    0    0  501    0  0.00000000000E+00  0.00000000000E+00  0.31523697528E+03  0.31523697532E+03  0.50400001928E-02 0. -1.
       -1   -1    0    0    0  501  0.00000000000E+00  0.00000000000E+00 -0.78454260525E+02  0.78454260687E+02  0.50400001928E-02 0.  1.
    10030    2    1    2    0    0  0.00000000000E+00  0.00000000000E+00  0.23678271476E+03  0.39369123601E+03  0.31452620766E+03 0.  0.
        3    1    3    3  502    0  0.14731923035E+03  0.51348980959E+02  0.14317368103E+03  0.21175076533E+03  0.10100000352E+00 0. -1.
       -3    1    3    3    0  502 -0.14731923035E+03 -0.51348980959E+02  0.93609033730E+02  0.18194047068E+03  0.10100000352E+00 0.  1.
</event>
<event>
 5   0  0.2504064E-01  0.4999781E+03  0.7818609E-02  0.1013785E+00
       -2   -1    0    0    0  501  0.00000000000E+00  0.00000000000E+00  0.18212441818E+03  0.18212441820E+03  0.25500000920E-02 0.  1.
        2   -1    0    0  501    0  0.00000000000E+00  0.00000000000E+00 -0.34314197260E+03  0.34314197261E+03  0.25500000920E-02 0. -1.
    10030    2    1    2    0    0  0.00000000000E+00  0.00000000000E+00 -0.16101755442E+03  0.52526639081E+03  0.49997812801E+03 0.  0.
        5    1    3    3  502    0  0.19072185958E+03 -0.11103092493E+03  0.42770933070E+02  0.22484247092E+03  0.46999998093E+01 0.  1.
       -5    1    3    3    0  502 -0.19072185958E+03  0.11103092493E+03 -0.20378848749E+03  0.30042391990E+03  0.46999998093E+01 0. -1.
</event>
<event>
 5   0  0.2413301E-01  0.4999504E+03  0.7818609E-02  0.1013792E+00
       -2   -1    0    0    0  501  0.00000000000E+00  0.00000000000E+00  0.18546737344E+03  0.18546737346E+03  0.25500000920E-02 0. -1.
        2   -1    0    0  501    0  0.00000000000E+00  0.00000000000E+00 -0.33691969423E+03  0.33691969424E+03  0.25500000920E-02 0.  1.
    10030    2    1    2    0    0  0.00000000000E+00  0.00000000000E+00 -0.15145232080E+03  0.52238706770E+03  0.49995044057E+03 0.  0.
        4    1    3    3  502    0  0.30487906935E+02 -0.13321285281E+03  0.14297755377E+03  0.19778617344E+03  0.12699999809E+01 0. -1.
       -4    1    3    3    0  502 -0.30487906935E+02  0.13321285281E+03 -0.29442987456E+03  0.32460089426E+03  0.12699999809E+01 0.  1.
</event>
<event>
 5   0  0.2488968E-01  0.3646133E+03  0.7818609E-02  0.1056772E+00
        2   -1    0    0  501    0  0.00000000000E+00  0.00000000000E+00  0.23226014684E+03  0.23226014686E+03  0.25500000920E-02 0. -1.
       -2   -1    0    0    0  501  0.00000000000E+00  0.00000000000E+00 -0.14309695232E+03  0.14309695235E+03  0.25500000920E-02 0.  1.
    10030    2    1    2    0    0  0.00000000000E+00  0.00000000000E+00  0.89163194521E+02  0.37535709920E+03  0.36461332486E+03 0.  0.
        2    1    3    3  502    0 -0.11017415969E+03 -0.39128006788E+02 -0.99419983636E+02  0.15347208063E+03  0.25500000920E-02 0.  1.
       -2    1    3    3    0  502  0.11017415969E+03  0.39128006788E+02  0.18858317816E+03  0.22188501858E+03  0.25500000920E-02 0. -1.
</event>
<event>
 5   0  0.1413361E-01  0.4764303E+03  0.7818609E-02  0.1020121E+00
       -1   -1    0    0    0  501  0.00000000000E+00  0.00000000000E+00  0.38243055329E+02  0.38243055662E+02  0.50400001928E-02 0.  1.
        1   -1    0    0  501    0  0.00000000000E+00  0.00000000000E+00 -0.14838371502E+04  0.14838371502E+04  0.50400001928E-02 0. -1.
    10030    2    1    2    0    0  0.00000000000E+00  0.00000000000E+00 -0.14455940949E+04  0.15220802059E+04  0.47643033696E+03 0.  0.
        3    1    3    3  502    0  0.18350173146E+03 -0.47175868363E+02 -0.11840831983E+04  0.11991461457E+04  0.10100000352E+00 0. -1.
       -3    1    3    3    0  502 -0.18350173146E+03  0.47175868363E+02 -0.26151089657E+03  0.32293406019E+03  0.10100000352E+00 0.  1.
</event>
<event>
 5   0  0.1448458E-01  0.4876567E+03  0.7818609E-02  0.1017052E+00
       -1   -1    0    0    0  501  0.00000000000E+00  0.00000000000E+00  0.23566108702E+03  0.23566108708E+03  0.50400001928E-02 0. -1.
        1   -1    0    0  501    0  0.00000000000E+00  0.00000000000E+00 -0.25227866304E+03  0.25227866309E+03  0.50400001928E-02 0.  1.
    10030    2    1    2    0    0  0.00000000000E+00  0.00000000000E+00 -0.16617576022E+02  0.48793975017E+03  0.48765669888E+03 0.  0.
        5    1    3    3  502    0  0.15526176644E+03 -0.85837021361E+02 -0.17560620610E+03  0.24966745878E+03  0.46999998093E+01 0.  1.
       -5    1    3    3    0  502 -0.15526176644E+03  0.85837021361E+02  0.15898863008E+03  0.23827229139E+03  0.46999998093E+01 0. -1.
</event>
<event>
 5   0  0.2511944E-01  0.4891061E+03  0.7818609E-02  0.1016662E+00
       -2   -1    0    0    0  501  0.00000000000E+00  0.00000000000E+00  0.66948987643E+02  0.66948987692E+02  0.25500000920E-02 0. -1.
        2   -1    0    0  501    0  0.00000000000E+00  0.00000000000E+00 -0.89330988396E+03  0.89330988396E+03  0.25500000920E-02 0.  1.
    10030    2    1    2    0    0  0.00000000000E+00  0.00000000000E+00 -0.82636089631E+03  0.96025887165E+03  0.48910609241E+03 0.  0.
        1    1    3    3  502    0  0.35016089993E+02 -0.19343079729E+03 -0.12755939837E+03  0.23433523004E+03  0.50400001928E-02 0.  1.
       -1    1    3    3    0  502 -0.35016089993E+02  0.19343079729E+03 -0.69880149794E+03  0.72592364161E+03  0.50400001928E-02 0. -1.
</event>
<event>
 5   0  0.2504064E-01  0.4926513E+03  0.7818609E-02  0.1015715E+00
       -2   -1    0    0    0  501  0.00000000000E+00  0.00000000000E+00  0.27880617442E+02  0.27880617559E+02  0.25500000920E-02 0.  1.
        2   -1    0    0  501    0  0.00000000000E+00  0.00000000000E+00 -0.21762902153E+04  0.21762902153E+04  0.25500000920E-02 0. -1.
    10030    2    1    2    0    0  0.00000000000E+00  0.00000000000E+00 -0.21484095978E+04  0.22041708328E+04  0.49265125623E+03 0.  0.
        5    1    3    3  502    0 -0.13447678352E+03  0.10062132657E+03 -0.26830072708E+03  0.31656915013E+03  0.46999998093E+01 0.  1.
       -5    1    3    3    0  502  0.13447678352E+03 -0.10062132657E+03 -0.18801088707E+04  0.18876016827E+04  0.46999998093E+01 0. -1.
</event>
<event>
 5   0  0.2504064E-01  0.5320220E+03  0.7818609E-02  0.1005743E+00
       -2   -1    0    0    0  501  0.00000000000E+00  0.00000000000E+00  0.23974010274E+03  0.23974010276E+03  0.25500000920E-02 0. -1.
        2   -1    0    0  501    0  0.00000000000E+00  0.00000000000E+00 -0.29516064225E+03  0.29516064226E+03  0.25500000920E-02 0.  1.
    10030    2    1    2    0    0  0.00000000000E+00  0.00000000000E+00 -0.55420539507E+02  0.53490074502E+03  0.53202196460E+03 0.  0.
        5    1    3    3  502    0  0.14975103933E+03 -0.18979000267E+03 -0.13918915264E+03  0.27900058980E+03  0.46999998093E+01 0.  1.
       -5    1    3    3    0  502 -0.14975103933E+03  0.18979000267E+03  0.83768613137E+02  0.25590015522E+03  0.46999998093E+01 0. -1.
</event>
<event>
 5   0  0.1439814E-01  0.5177226E+03  0.7818609E-02  0.1009254E+00
        1   -1    0    0  501    0  0.00000000000E+00  0.00000000000E+00  0.10575291280E+04  0.10575291280E+04  0.50400001928E-02 0.  1.
       -1   -1    0    0    0  501  0.00000000000E+00  0.00000000000E+00 -0.63363909423E+02  0.63363909624E+02  0.50400001928E-02 0. -1.
    10030    2    1    2    0    0  0.00000000000E+00  0.00000000000E+00  0.99416521855E+03  0.11208930376E+04  0.51772262843E+03 0.  0.
        4    1    3    3  502    0 -0.59695951837E+02 -0.14808659592E+03  0.55953221349E+02  0.16919108261E+03  0.12699999809E+01 0. -1.
       -4    1    3    3    0  502  0.59695951837E+02  0.14808659592E+03  0.93821199720E+03  0.95170195500E+03  0.12699999809E+01 0.  1.
</event>
<event>
 5   0  0.1439814E-01  0.5268233E+03  0.7818609E-02  0.1007005E+00
        1   -1    0    0  501    0  0.00000000000E+00  0.00000000000E+00  0.12367290515E+04  0.12367290515E+04  0.50400001928E-02 0.  1.
       -1   -1    0    0    0  501  0.00000000000E+00  0.00000000000E+00 -0.56104199323E+02  0.56104199549E+02  0.50400001928E-02 0. -1.
    10030    2    1    2    0    0  0.00000000000E+00  0.00000000000E+00  0.11806248522E+04  0.12928332510E+04  0.52682328485E+03 0.  0.
        4    1    3    3  502    0  0.19356381571E+03  0.10365208282E+02  0.10279930135E+04  0.10461097634E+04  0.12699999809E+01 0.  1.
       -4    1    3    3    0  502 -0.19356381571E+03 -0.10365208282E+02  0.15263183862E+03  0.24672348764E+03  0.12699999809E+01 0. -1.
</event>
<event>
 5   0  0.1453602E-01  0.5125042E+03  0.7818609E-02  0.1010566E+00
        1   -1    0    0  501    0  0.00000000000E+00  0.00000000000E+00  0.21920308542E+04  0.21920308542E+04  0.50400001928E-02 0.  1.
       -1   -1    0    0    0  501  0.00000000000E+00  0.00000000000E+00 -0.29956306314E+02  0.29956306738E+02  0.50400001928E-02 0. -1.
    10030    2    1    2    0    0  0.00000000000E+00  0.00000000000E+00  0.21620745478E+04  0.22219871609E+04  0.51250423683E+03 0.  0.
        2    1    3    3  502    0  0.20228173943E+03 -0.13608147687E+02  0.17605170234E+04  0.17721521587E+04  0.25500000920E-02 0.  1.
       -2    1    3    3    0  502 -0.20228173943E+03  0.13608147687E+02  0.40155752445E+03  0.44983500223E+03  0.25500000920E-02 0. -1.
</event>
<event>
 5   0  0.2511944E-01  0.4997555E+03  0.7818609E-02  0.1013843E+00
       -2   -1    0    0    0  501  0.00000000000E+00  0.00000000000E+00  0.11119000295E+03  0.11119000298E+03  0.25500000920E-02 0.  1.
        2   -1    0    0  501    0  0.00000000000E+00  0.00000000000E+00 -0.56155127423E+03  0.56155127424E+03  0.25500000920E-02 0. -1.
    10030    2    1    2    0    0  0.00000000000E+00  0.00000000000E+00 -0.45036127128E+03  0.67274127721E+03  0.49975549161E+03 0.  0.
        1    1    3    3  502    0 -0.16586284608E+03 -0.20285062817E+02 -0.47527650589E+03  0.50379532010E+03  0.50400001928E-02 0. -1.
       -1    1    3    3    0  502  0.16586284608E+03  0.20285062817E+02  0.24915234606E+02  0.16894595711E+03  0.50400001928E-02 0.  1.
</event>
<event>
 5   0  0.2504064E-01  0.4953835E+03  0.7818609E-02  0.1014991E+00
       -2   -1    0    0    0  501  0.00000000000E+00  0.00000000000E+00  0.64044301088E+02  0.64044301139E+02  0.25500000920E-02 0.  1.
        2   -1    0    0  501    0  0.00000000000E+00  0.00000000000E+00 -0.95794962388E+03  0.95794962388E+03  0.25500000920E-02 0. -1.
    10030    2    1    2    0    0  0.00000000000E+00  0.00000000000E+00 -0.89390532279E+03  0.10219939250E+04  0.49538354501E+03 0.  0.
        5    1    3    3  502    0  0.45181086018E+01  0.11248126002E+03 -0.90202240397E+03  0.90903187756E+03  0.46999998093E+01 0. -1.
       -5    1    3    3    0  502 -0.45181086018E+01 -0.11248126002E+03  0.81170811761E+01  0.11296204746E+03  0.46999998093E+01 0.  1.
</event>
<event>
 5   0  0.2466034E-01  0.5121616E+03  0.7818609E-02  0.1010652E+00
        2   -1    0    0  501    0  0.00000000000E+00  0.00000000000E+00  0.92161544024E+02  0.92161544059E+02  0.25500000920E-02 0.  1.
       -2   -1    0    0    0  501  0.00000000000E+00  0.00000000000E+00 -0.71154804396E+03  0.71154804397E+03  0.25500000920E-02 0. -1.
    10030    2    1    2    0    0  0.00000000000E+00  0.00000000000E+00 -0.61938649994E+03  0.80370958802E+03  0.51216156199E+03 0.  0.
        3    1    3    3  502    0  0.11587218802E+03  0.17484735793E+03 -0.54021493577E+03  0.57950854140E+03  0.10100000352E+00 0. -1.
       -3    1    3    3    0  502 -0.11587218802E+03 -0.17484735793E+03 -0.79171564169E+02  0.22420104662E+03  0.10100000352E+00 0.  1.
</event>
<event>
 5   0  0.1439814E-01  0.5045364E+03  0.7818609E-02  0.1012602E+00
        1   -1    0    0  501    0  0.00000000000E+00  0.00000000000E+00  0.33112857865E+03  0.33112857869E+03  0.50400001928E-02 0. -1.
       -1   -1    0    0    0  501  0.00000000000E+00  0.00000000000E+00 -0.19218894390E+03  0.19218894396E+03  0.50400001928E-02 0.  1.
    10030    2    1    2    0    0  0.00000000000E+00  0.00000000000E+00  0.13893963475E+03  0.52331752265E+03  0.50453642823E+03 0.  0.
        4    1    3    3  502    0  0.24230452801E+02 -0.16861172058E+03 -0.12352254290E+03  0.21041972023E+03  0.12699999809E+01 0.  1.
       -4    1    3    3    0  502 -0.24230452801E+02  0.16861172058E+03  0.26246217766E+03  0.31289780242E+03  0.12699999809E+01 0. -1.
</event>
<event>
 5   0  0.2511944E-01  0.4927536E+03  0.7818609E-02  0.1015688E+00
       -2   -1    0    0    0  501  0.00000000000E+00  0.00000000000E+00  0.34916293106E+03  0.34916293107E+03  0.25500000920E-02 0.  1.
        2   -1    0    0  501    0  0.00000000000E+00  0.00000000000E+00 -0.17384870939E+03  0.17384870940E+03  0.25500000920E-02 0. -1.
    10030    2    1    2    0    0  0.00000000000E+00  0.00000000000E+00  0.17531422167E+03  0.52301164047E+03  0.49275358928E+03 0.  0.
        1    1    3    3  502    0  0.53798112682E+02  0.10582024403E+03  0.31680620597E+03  0.33831691228E+03  0.50400001928E-02 0.  1.
       -1    1    3    3    0  502 -0.53798112682E+02 -0.10582024403E+03 -0.14149198429E+03  0.18469472818E+03  0.50400001928E-02 0. -1.
</event>
<event>
 5   0  0.1439814E-01  0.5066606E+03  0.7818609E-02  0.1012055E+00
       -1   -1    0    0    0  501  0.00000000000E+00  0.00000000000E+00  0.17419477084E+03  0.17419477091E+03  0.50400001928E-02 0.  1.
        1   -1    0    0  501    0  0.00000000000E+00  0.00000000000E+00 -0.36841650539E+03  0.36841650542E+03  0.50400001928E-02 0. -1.
    10030    2    1    2    0    0  0.00000000000E+00  0.00000000000E+00 -0.19422173455E+03  0.54261127633E+03  0.50666055208E+03 0.  0.
        4    1    3    3  502    0 -0.11970045852E+03  0.17601157140E+03 -0.24421185327E+03  0.32395881716E+03  0.12699999809E+01 0. -1.
       -4    1    3    3    0  502  0.11970045852E+03 -0.17601157140E+03  0.49990118726E+02  0.21865245918E+03  0.12699999809E+01 0.  1.
</event>
<event>
 5   0  0.2466034E-01  0.4934895E+03  0.7818609E-02  0.1015492E+00
       -2   -1    0    0    0  501  0.00000000000E+00  0.00000000000E+00  0.63513817078E+02  0.63513817129E+02  0.25500000920E-02 0.  1.
        2   -1    0    0  501    0  0.00000000000E+00  0.00000000000E+00 -0.95857818207E+03  0.95857818207E+03  0.25500000920E-02 0. -1.
    10030    2    1    2    0    0  0.00000000000E+00  0.00000000000E+00 -0.89506436499E+03  0.10220919992E+04  0.49348945009E+03 0.  0.
        3    1    3    3  502    0 -0.14963168225E+03 -0.16957357029E+03 -0.24314694581E+03  0.33206216817E+03  0.10100000352E+00 0.  1.
       -3    1    3    3    0  502  0.14963168225E+03  0.16957357029E+03 -0.65191741918E+03  0.69002983103E+03  0.10100000352E+00 0. -1.
</event>
<event>
 5   0  0.2413301E-01  0.3808481E+03  0.7818609E-02  0.1050621E+00
        2   -1    0    0  501    0  0.00000000000E+00  0.00000000000E+00  0.71974221379E+03  0.71974221379E+03  0.25500000920E-02 0.  1.
       -2   -1    0    0    0  501  0.00000000000E+00  0.00000000000E+00 -0.50380976338E+02  0.50380976403E+02  0.25500000920E-02 0. -1.
    10030    2    1    2    0    0  0.00000000000E+00  0.00000000000E+00  0.66936123745E+03  0.77012319020E+03  0.38084808241E+03 0.  0.
        4    1    3    3  502    0 -0.97702096919E+02 -0.16287732408E+03  0.36218304217E+03  0.40896563594E+03  0.12699999809E+01 0.  1.
       -4    1    3    3    0  502  0.97702096919E+02  0.16287732408E+03  0.30717819528E+03  0.36115755426E+03  0.12699999809E+01 0. -1.
</event>
<event>
 5   0  0.1529146E-01  0.5008511E+03  0.7818609E-02  0.1013557E+00
       -1   -1    0    0    0  501  0.00000000000E+00  0.00000000000E+00  0.65871480227E+02  0.65871480420E+02  0.50400001928E-02 0.  1.
        1   -1    0    0  501    0  0.00000000000E+00  0.00000000000E+00 -0.95205032148E+03  0.95205032149E+03  0.50400001928E-02 0. -1.
    10030    2    1    2    0    0  0.00000000000E+00  0.00000000000E+00 -0.88617884125E+03  0.10179218019E+04  0.50085113170E+03 0.  0.
        1    1    3    3  502    0 -0.11751513749E+03 -0.10245512355E+03 -0.44793476208E+02  0.16221379540E+03  0.50400001928E-02 0.  1.
       -1    1    3    3    0  502  0.11751513749E+03  0.10245512355E+03 -0.84138536504E+03  0.85570800652E+03  0.50400001928E-02 0. -1.
</event>
<event>
 5   0  0.2511944E-01  0.5247045E+03  0.7818609E-02  0.1007525E+00
       -2   -1    0    0    0  501  0.00000000000E+00  0.00000000000E+00  0.63061602536E+02  0.63061602588E+02  0.25500000920E-02 0.  1.
        2   -1    0    0  501    0  0.00000000000E+00  0.00000000000E+00 -0.10914520311E+04  0.10914520311E+04  0.25500000920E-02 0. -1.
    10030    2    1    2    0    0  0.00000000000E+00  0.00000000000E+00 -0.10283904286E+04  0.11545136337E+04  0.52470454240E+03 0.  0.
        1    1    3    3  502    0 -0.22065375877E+03  0.13920048755E+03 -0.57500735972E+03  0.63142562567E+03  0.50400001928E-02 0.  1.
       -1    1    3    3    0  502  0.22065375877E+03 -0.13920048755E+03 -0.45338306883E+03  0.52308800801E+03  0.50400001928E-02 0. -1.
</event>
<event>
 5   0  0.1413361E-01  0.4878113E+03  0.7818609E-02  0.1017010E+00
        1   -1    0    0  501    0  0.00000000000E+00  0.00000000000E+00  0.44111098322E+02  0.44111098610E+02  0.50400001928E-02 0.  1.
       -1   -1    0    0    0  501  0.00000000000E+00  0.00000000000E+00 -0.13486396100E+04  0.13486396100E+04  0.50400001928E-02 0. -1.
    10030    2    1    2    0    0  0.00000000000E+00  0.00000000000E+00 -0.13045285116E+04  0.13927507086E+04  0.48781133502E+03 0.  0.
        3    1    3    3  502    0 -0.28998681188E+02 -0.21614644579E+02  0.36412232855E+02  0.51322288271E+02  0.10100000352E+00 0.  1.
       -3    1    3    3    0  502  0.28998681188E+02  0.21614644579E+02 -0.13409407445E+04  0.13414284203E+04  0.10100000352E+00 0. -1.
</event>
<event>
 5   0  0.1448458E-01  0.5298177E+03  0.7818609E-02  0.1006276E+00
       -1   -1    0    0    0  501  0.00000000000E+00  0.00000000000E+00  0.42838699652E+03  0.42838699655E+03  0.50400001928E-02 0.  1.
        1   -1    0    0  501    0  0.00000000000E+00  0.00000000000E+00 -0.16381615247E+03  0.16381615255E+03  0.50400001928E-02 0. -1.
    10030    2    1    2    0    0  0.00000000000E+00  0.00000000000E+00  0.26457084405E+03  0.59220314910E+03  0.52981774063E+03 0.  0.
        5    1    3    3  502    0 -0.26392428249E+03  0.39113972794E+01  0.10771289833E+03  0.28512363000E+03  0.46999998093E+01 0.  1.
       -5    1    3    3    0  502  0.26392428249E+03 -0.39113972794E+01  0.15685794572E+03  0.30707951910E+03  0.46999998093E+01 0. -1.
</event>
<event>
 5   0  0.1439814E-01  0.4876507E+03  0.7818609E-02  0.1017053E+00
       -1   -1    0    0    0  501  0.00000000000E+00  0.00000000000E+00  0.31472491580E+03  0.31472491584E+03  0.50400001928E-02 0. -1.
        1   -1    0    0  501    0  0.00000000000E+00  0.00000000000E+00 -0.18889764959E+03  0.18889764966E+03  0.50400001928E-02 0.  1.
    10030    2    1    2    0    0  0.00000000000E+00  0.00000000000E+00  0.12582726621E+03  0.50362256549E+03  0.48765068190E+03 0.  0.
        4    1    3    3  502    0  0.13987265031E+03 -0.17686935881E+03 -0.32871359005E+02  0.22787994105E+03  0.12699999809E+01 0.  1.
       -4    1    3    3    0  502 -0.13987265031E+03  0.17686935881E+03  0.15869862521E+03  0.27574262444E+03  0.12699999809E+01 0. -1.
</event>
<event>
 5   0  0.1413361E-01  0.5040223E+03  0.7818609E-02  0.1012734E+00
       -1   -1    0    0    0  501  0.00000000000E+00  0.00000000000E+00  0.47438517895E+03  0.47438517898E+03  0.50400001928E-02 0. -1.
        1   -1    0    0  501    0  0.00000000000E+00  0.00000000000E+00 -0.13387773883E+03  0.13387773893E+03  0.50400001928E-02 0.  1.
    10030    2    1    2    0    0  0.00000000000E+00  0.00000000000E+00  0.34050744012E+03  0.60826291790E+03  0.50402228177E+03 0.  0.
        3    1    3    3  502    0 -0.62541629700E+02 -0.21103845237E+03  0.31835791904E+03  0.38704064211E+03  0.10100000352E+00 0. -1.
       -3    1    3    3    0  502  0.62541629700E+02  0.21103845237E+03  0.22149521074E+02  0.22122227580E+03  0.10100000352E+00 0.  1.
</event>
<event>
 5   0  0.1413361E-01  0.4851241E+03  0.7818609E-02  0.1017736E+00
        1   -1    0    0  501    0  0.00000000000E+00  0.00000000000E+00  0.95207770562E+02  0.95207770695E+02  0.50400001928E-02 0.  1.
       -1   -1    0    0    0  501  0.00000000000E+00  0.00000000000E+00 -0.61797852520E+03  0.61797852522E+03  0.50400001928E-02 0. -1.
    10030    2    1    2    0    0  0.00000000000E+00  0.00000000000E+00 -0.52277075464E+03  0.71318629592E+03  0.48512413955E+03 0.  0.
        3    1    3    3  502    0  0.14208946671E+02  0.20055692999E+02 -0.61614304168E+03  0.61663310242E+03  0.10100000352E+00 0. -1.
       -3    1    3    3    0  502 -0.14208946671E+02 -0.20055692999E+02  0.93372287039E+02  0.96553193500E+02  0.10100000352E+00 0.  1.
</event>
<event>
 5   0  0.1439814E-01  0.4980930E+03  0.7818609E-02  0.1014278E+00
       -1   -1    0    0    0  501  0.00000000000E+00  0.00000000000E+00  0.39192881864E+02  0.39192882188E+02  0.50400001928E-02 0. -1.
        1   -1    0    0  501    0  0.00000000000E+00  0.00000000000E+00 -0.15825360222E+04  0.15825360222E+04  0.50400001928E-02 0.  1.
    10030    2    1    2    0    0  0.00000000000E+00  0.00000000000E+00 -0.15433431404E+04  0.16217289044E+04  0.49809295371E+03 0.  0.
        4    1    3    3  502    0 -0.13706207392E+03  0.12206957944E+03 -0.22360462586E+03  0.28928815381E+03  0.12699999809E+01 0. -1.
       -4    1    3    3    0  502  0.13706207392E+03 -0.12206957944E+03 -0.13197385145E+04  0.13324407506E+04  0.12699999809E+01 0.  1.
</event>
<event>
 5   0  0.1413361E-01  0.4989871E+03  0.7818609E-02  0.1014044E+00
        1   -1    0    0  501    0  0.00000000000E+00  0.00000000000E+00  0.16528089911E+04  0.16528089911E+04  0.50400001928E-02 0.  1.
       -1   -1    0    0    0  501  0.00000000000E+00  0.00000000000E+00 -0.37661361073E+02  0.37661361410E+02  0.50400001928E-02 0. -1.
    10030    2    1    2    0    0  0.00000000000E+00  0.00000000000E+00  0.16151476300E+04  0.16904703525E+04  0.49898712003E+03 0.  0.
        3    1    3    3  502    0 -0.71256287056E+02 -0.99135881462E+02  0.70450930502E+02  0.14095646579E+03  0.10100000352E+00 0. -1.
       -3    1    3    3    0  502  0.71256287056E+02  0.99135881462E+02  0.15446966995E+04  0.15495138867E+04  0.10100000352E+00 0.  1.
</event>
<event>
 5   0  0.1529146E-01  0.4689218E+03  0.7818609E-02  0.1022225E+00
        1   -1    0    0  501    0  0.00000000000E+00  0.00000000000E+00  0.17521056427E+04  0.17521056427E+04  0.50400001928E-02 0. -1.
       -1   -1    0    0    0  501  0.00000000000E+00  0.00000000000E+00 -0.31374776637E+02  0.31374777042E+02  0.50400001928E-02 0.  1.
    10030    2    1    2    0    0  0.00000000000E+00  0.00000000000E+00  0.17207308660E+04  0.17834804197E+04  0.46892184232E+03 0.  0.
        1    1    3    3  502    0  0.90347919233E+02  0.76834633158E+02  0.16296009932E+04  0.16339111678E+04  0.50400001928E-02 0. -1.
       -1    1    3    3    0  502 -0.90347919233E+02 -0.76834633158E+02  0.91129872880E+02  0.14956925192E+03  0.50400001928E-02 0.  1.
</event>
<event>
 5   0  0.1413361E-01  0.3338157E+03  0.7818609E-02  0.1069461E+00
        1   -1    0    0  501    0  0.00000000000E+00  0.00000000000E+00  0.41617524380E+03  0.41617524383E+03  0.50400001928E-02 0. -1.
       -1   -1    0    0    0  501  0.00000000000E+00  0.00000000000E+00 -0.66938690918E+02  0.66938691108E+02  0.50400001928E-02 0.  1.
    10030    2    1    2    0    0  0.00000000000E+00  0.00000000000E+00  0.34923655288E+03  0.48311393494E+03  0.33381567408E+03 0.  0.
        3    1    3    3  502    0 -0.14288639827E+03 -0.72556962126E+02  0.24214723279E+03  0.29037273996E+03  0.10100000352E+00 0. -1.
       -3    1    3    3    0  502  0.14288639827E+03  0.72556962126E+02  0.10708932010E+03  0.19274119498E+03  0.10100000352E+00 0.  1.
</event>
<event>
 5   0  0.2466034E-01  0.4736886E+03  0.7818609E-02  0.1020884E+00
        2   -1    0    0  501    0  0.00000000000E+00  0.00000000000E+00  0.12677818643E+04  0.12677818643E+04  0.25500000920E-02 0.  1.
       -2   -1    0    0    0  501  0.00000000000E+00  0.00000000000E+00 -0.44246749195E+02  0.44246749268E+02  0.25500000920E-02 0. -1.
    10030    2    1    2    0    0  0.00000000000E+00  0.00000000000E+00  0.12235351151E+04  0.13120286136E+04  0.47368861601E+03 0.  0.
        3    1    3    3  502    0  0.90629239125E+02 -0.36228619583E+02  0.14045860292E+02  0.98607648048E+02  0.10100000352E+00 0. -1.
       -3    1    3    3    0  502 -0.90629239125E+02  0.36228619583E+02  0.12094892549E+04  0.12134209656E+04  0.10100000352E+00 0.  1.
</event>
<event>
 5   0  0.2488968E-01  0.4917808E+03  0.7818609E-02  0.1015947E+00
        2   -1    0    0  501    0  0.00000000000E+00  0.00000000000E+00  0.43761592335E+03  0.43761592336E+03  0.25500000920E-02 0.  1.
       -2   -1    0    0    0  501  0.00000000000E+00  0.00000000000E+00 -0.13816243054E+03  0.13816243056E+03  0.25500000920E-02 0. -1.
    10030    2    1    2    0    0  0.00000000000E+00  0.00000000000E+00  0.29945349281E+03  0.57577835392E+03  0.49178076263E+03 0.  0.
        2    1    3    3  502    0 -0.82181143751E+02 -0.32580968890E+02  0.41836624508E+03  0.42760446087E+03  0.25500000920E-02 0.  1.
       -2    1    3    3    0  502  0.82181143751E+02  0.32580968890E+02 -0.11891275228E+03  0.14817389305E+03  0.25500000920E-02 0. -1.
</event>
<event>
 5   0  0.1448458E-01  0.4975580E+03  0.7818609E-02  0.1014418E+00
       -1   -1    0    0    0  501  0.00000000000E+00  0.00000000000E+00  0.10066997843E+03  0.10066997856E+03  0.50400001928E-02 0. -1.
        1   -1    0    0  501    0  0.00000000000E+00  0.00000000000E+00 -0.61479095401E+03  0.61479095403E+03  0.50400001928E-02 0.  1.
    10030    2    1    2    0    0  0.00000000000E+00  0.00000000000E+00 -0.51412097558E+03  0.71546093259E+03  0.49755800519E+03 0.  0.
        5    1    3    3  502    0  0.18573320863E+03 -0.13099514416E+03 -0.11174729599E+03  0.25331028550E+03  0.46999998093E+01 0. -1.
       -5    1    3    3    0  502 -0.18573320863E+03  0.13099514416E+03 -0.40237367958E+03  0.46215064708E+03  0.46999998093E+01 0.  1.
</event>
<event>
 5   0  0.2466034E-01  0.4784032E+03  0.7818609E-02  0.1019575E+00
        2   -1    0    0  501    0  0.00000000000E+00  0.00000000000E+00  0.40353475279E+03  0.40353475280E+03  0.25500000920E-02 0. -1.
       -2   -1    0    0    0  501  0.00000000000E+00  0.00000000000E+00 -0.14179054868E+03  0.14179054870E+03  0.25500000920E-02 0.  1.
    10030    2    1    2    0    0  0.00000000000E+00  0.00000000000E+00  0.26174420411E+03  0.54532530150E+03  0.47840323584E+03 0.  0.
        3    1    3    3  502    0  0.13647155889E+02  0.15324434617E+03  0.33965288200E+03  0.37287285359E+03  0.10100000352E+00 0. -1.
       -3    1    3    3    0  502 -0.13647155889E+02 -0.15324434617E+03 -0.77908677885E+02  0.17245244790E+03  0.10100000352E+00 0.  1.
</event>
<event>
 5   0  0.2511944E-01  0.4997623E+03  0.7818609E-02  0.1013841E+00
       -2   -1    0    0    0  501  0.00000000000E+00  0.00000000000E+00  0.79741689963E+02  0.79741690003E+02  0.25500000920E-02 0. -1.
        2   -1    0    0  501    0  0.00000000000E+00  0.00000000000E+00 -0.78303579523E+03  0.78303579523E+03  0.25500000920E-02 0.  1.
    10030    2    1    2    0    0  0.00000000000E+00  0.00000000000E+00 -0.70329410527E+03  0.86277748524E+03  0.49976233404E+03 0.  0.
        1    1    3    3  502    0  0.12410723671E+03 -0.63850859266E+02  0.61796711898E+01  0.13970585812E+03  0.50400001928E-02 0. -1.
       -1    1    3    3    0  502 -0.12410723671E+03  0.63850859266E+02 -0.70947377646E+03  0.72307162711E+03  0.50400001928E-02 0.  1.
</event>
<event>
 5   0  0.2413301E-01  0.4800777E+03  0.7818609E-02  0.1019114E+00
        2   -1    0    0  501    0  0.00000000000E+00  0.00000000000E+00  0.42370946734E+03  0.42370946735E+03  0.25500000920E-02 0. -1.
       -2   -1    0    0    0  501  0.00000000000E+00  0.00000000000E+00 -0.13598623258E+03  0.13598623260E+03  0.25500000920E-02 0.  1.
    10030    2    1    2    0    0  0.00000000000E+00  0.00000000000E+00  0.28772323477E+03  0.55969569995E+03  0.48007771946E+03 0.  0.
        4    1    3    3  502    0  0.22038496991E+02 -0.20914902408E+03  0.89657065399E+01  0.21050179670E+03  0.12699999809E+01 0.  1.
       -4    1    3    3    0  502 -0.22038496991E+02  0.20914902408E+03  0.27875752823E+03  0.34919390325E+03  0.12699999809E+01 0. -1.
</event>
<event>
 5   0  0.2488968E-01  0.5013528E+03  0.7818609E-02  0.1013426E+00
        2   -1    0    0  501    0  0.00000000000E+00  0.00000000000E+00  0.19168764713E+04  0.19168764713E+04  0.25500000920E-02 0. -1.
       -2   -1    0    0    0  501  0.00000000000E+00  0.00000000000E+00 -0.32781803852E+02  0.32781803951E+02  0.25500000920E-02 0.  1.
    10030    2    1    2    0    0  0.00000000000E+00  0.00000000000E+00  0.18840946675E+04  0.19496582753E+04  0.50135284417E+03 0.  0.
        2    1    3    3  502    0 -0.12172092280E+03  0.15659321570E+03  0.34589053835E+03  0.39872005565E+03  0.25500000920E-02 0.  1.
       -2    1    3    3    0  502  0.12172092280E+03 -0.15659321570E+03  0.15382041291E+04  0.15509382196E+04  0.25500000920E-02 0. -1.
</event>
<event>
 5   0  0.1448458E-01  0.4884283E+03  0.7818609E-02  0.1016844E+00
       -1   -1    0    0    0  501  0.00000000000E+00  0.00000000000E+00  0.38118830734E+02  0.38118831067E+02  0.50400001928E-02 0.  1.
        1   -1    0    0  501    0  0.00000000000E+00  0.00000000000E+00 -0.15645954326E+04  0.15645954326E+04  0.50400001928E-02 0. -1.
    10030    2    1    2    0    0  0.00000000000E+00  0.00000000000E+00 -0.15264766019E+04  0.16027142637E+04  0.48842829048E+03 0.  0.
        5    1    3    3  502    0  0.43662998380E+02 -0.22734282643E+03 -0.50848808865E+03  0.55872483787E+03  0.46999998093E+01 0. -1.
       -5    1    3    3    0  502 -0.43662998380E+02  0.22734282643E+03 -0.10179885132E+04  0.10439894258E+04  0.46999998093E+01 0.  1.
</event>
<event>
 5   0  0.2488968E-01  0.5113708E+03  0.7818609E-02  0.1010853E+00
        2   -1    0    0  501    0  0.00000000000E+00  0.00000000000E+00  0.10663735813E+04  0.10663735813E+04  0.25500000920E-02 0. -1.
       -2   -1    0    0    0  501  0.00000000000E+00  0.00000000000E+00 -0.61305919220E+02  0.61305919273E+02  0.25500000920E-02 0.  1.
    10030    2    1    2    0    0  0.00000000000E+00  0.00000000000E+00  0.10050676621E+04  0.11276795006E+04  0.51137075655E+03 0.  0.
        2    1    3    3  502    0  0.95075166085E+02 -0.46949251222E+02  0.10156016801E+04  0.10211220750E+04  0.25500000920E-02 0. -1.
       -2    1    3    3    0  502 -0.95075166085E+02  0.46949251222E+02 -0.10534018062E+02  0.10655742555E+03  0.25500000920E-02 0.  1.
</event>
<event>
 5   0  0.1448458E-01  0.5191899E+03  0.7818609E-02  0.1008888E+00
       -1   -1    0    0    0  501  0.00000000000E+00  0.00000000000E+00  0.17109118875E+03  0.17109118882E+03  0.50400001928E-02 0.  1.
        1   -1    0    0  501    0  0.00000000000E+00  0.00000000000E+00 -0.39388088358E+03  0.39388088362E+03  0.50400001928E-02 0. -1.
    10030    2    1    2    0    0  0.00000000000E+00  0.00000000000E+00 -0.22278969484E+03  0.56497207244E+03  0.51918994069E+03 0.  0.
        5    1    3    3  502    0  0.15029312155E+03 -0.17049116760E+03  0.25006664080E+02  0.22869780030E+03  0.46999998093E+01 0.  1.
       -5    1    3    3    0  502 -0.15029312155E+03  0.17049116760E+03 -0.24779635892E+03  0.33627427214E+03  0.46999998093E+01 0. -1.
</event>
<event>
 5   0  0.1453602E-01  0.5092600E+03  0.7818609E-02  0.1011390E+00
       -1   -1    0    0    0  501  0.00000000000E+00  0.00000000000E+00  0.45198696398E+02  0.45198696679E+02  0.50400001928E-02 0. -1.
        1   -1    0    0  501    0  0.00000000000E+00  0.00000000000E+00 -0.14344758251E+04  0.14344758251E+04  0.50400001928E-02 0.  1.
    10030    2    1    2    0    0  0.00000000000E+00  0.00000000000E+00 -0.13892771287E+04  0.14796745218E+04  0.50926000244E+03 0.  0.
        2    1    3    3  502    0  0.58659759178E+02  0.21386873879E+03 -0.10581867156E+04  0.10811752540E+04  0.25500000920E-02 0.  1.
       -2    1    3    3    0  502 -0.58659759178E+02 -0.21386873879E+03 -0.33109041312E+03  0.39849926781E+03  0.25500000920E-02 0. -1.
</event>
<event>
 5   0  0.1453602E-01  0.5003045E+03  0.7818609E-02  0.1013699E+00
        1   -1    0    0  501    0  0.00000000000E+00  0.00000000000E+00  0.11568050244E+04  0.11568050244E+04  0.50400001928E-02 0.  1.
       -1   -1    0    0    0  501  0.00000000000E+00  0.00000000000E+00 -0.54093953846E+02  0.54093954081E+02  0.50400001928E-02 0. -1.
    10030    2    1    2    0    0  0.00000000000E+00  0.00000000000E+00  0.11027110706E+04  0.12108989785E+04  0.50030453825E+03 0.  0.
        2    1    3    3  502    0 -0.73530031811E+01 -0.21659942433E+03  0.85371956949E+03  0.88079877419E+03  0.25500000920E-02 0.  1.
       -2    1    3    3    0  502  0.73530031811E+01  0.21659942433E+03  0.24899150109E+03  0.33010020432E+03  0.25500000920E-02 0. -1.
</event>
<event>
 5   0  0.1453602E-01  0.5048445E+03  0.7818609E-02  0.1012522E+00
       -1   -1    0    0    0  501  0.00000000000E+00  0.00000000000E+00  0.58564701412E+02  0.58564701629E+02  0.50400001928E-02 0.  1.
        1   -1    0    0  501    0  0.00000000000E+00  0.00000000000E+00 -0.10879759378E+04  0.10879759378E+04  0.50400001928E-02 0. -1.
    10030    2    1    2    0    0  0.00000000000E+00  0.00000000000E+00 -0.10294112364E+04  0.11465406394E+04  0.50484447534E+03 0.  0.
        2    1    3    3  502    0  0.15405263026E+03 -0.76777657785E+02 -0.93402517595E+03  0.94975262618E+03  0.25500000920E-02 0. -1.
       -2    1    3    3    0  502 -0.15405263026E+03  0.76777657785E+02 -0.95386060414E+02  0.19678801323E+03  0.25500000920E-02 0.  1.
</event>
<event>
 5   0  0.2511944E-01  0.5056562E+03  0.7818609E-02  0.1012313E+00
        2   -1    0    0  501    0  0.00000000000E+00  0.00000000000E+00  0.13228763606E+03  0.13228763608E+03  0.25500000920E-02 0. -1.
       -2   -1    0    0    0  501  0.00000000000E+00  0.00000000000E+00 -0.48320500467E+03  0.48320500467E+03  0.25500000920E-02 0.  1.
    10030    2    1    2    0    0  0.00000000000E+00  0.00000000000E+00 -0.35091736861E+03  0.61549264076E+03  0.50565619865E+03 0.  0.
        1    1    3    3  502    0 -0.13265618232E+03 -0.19627939740E+03 -0.28295187490E+03  0.36903255695E+03  0.50400001928E-02 0.  1.
       -1    1    3    3    0  502  0.13265618232E+03  0.19627939740E+03 -0.67965493704E+02  0.24646008381E+03  0.50400001928E-02 0. -1.
</event>
<event>
 5   0  0.2413301E-01  0.4991050E+03  0.7818609E-02  0.1014013E+00
        2   -1    0    0  501    0  0.00000000000E+00  0.00000000000E+00  0.38549269628E+03  0.38549269629E+03  0.25500000920E-02 0. -1.
       -2   -1    0    0    0  501  0.00000000000E+00  0.00000000000E+00 -0.16155027776E+03  0.16155027778E+03  0.25500000920E-02 0.  1.
    10030    2    1    2    0    0  0.00000000000E+00  0.00000000000E+00  0.22394241852E+03  0.54704297406E+03  0.49910500765E+03 0.  0.
        4    1    3    3  502    0 -0.42010266080E+02  0.67027334531E+02  0.37138356329E+03  0.37971685506E+03  0.12699999809E+01 0. -1.
       -4    1    3    3    0  502  0.42010266080E+02 -0.67027334531E+02 -0.14744114477E+03  0.16732611901E+03  0.12699999809E+01 0.  1.
</event>
<event>
 5   0  0.9868500E-02  0.3740019E+03  0.7818609E-02  0.1053173E+00
        3   -1    0    0  501    0  0.00000000000E+00  0.00000000000E+00  0.19220034607E+03  0.19220037260E+03  0.10100000352E+00 0. -1.
       -3   -1    0    0    0  501  0.00000000000E+00  0.00000000000E+00 -0.18194213176E+03  0.18194215979E+03  0.10100000352E+00 0.  1.
    10030    2    1    2    0    0  0.00000000000E+00  0.00000000000E+00  0.10258214311E+02  0.37414253239E+03  0.37400187644E+03 0.  0.
        1    1    3    3  502    0 -0.21559671818E+01 -0.17741520217E+03  0.64215257650E+02  0.18869128622E+03  0.50400001928E-02 0. -1.
       -1    1    3    3    0  502  0.21559671818E+01  0.17741520217E+03 -0.53957043340E+02  0.18545124617E+03  0.50400001928E-02 0.  1.
</event>
<event>
 5   0  0.1413361E-01  0.5193522E+03  0.7818609E-02  0.1008848E+00
        1   -1    0    0  501    0  0.00000000000E+00  0.00000000000E+00  0.16754266767E+03  0.16754266775E+03  0.50400001928E-02 0. -1.
       -1   -1    0    0    0  501  0.00000000000E+00  0.00000000000E+00 -0.40247457769E+03  0.40247457772E+03  0.50400001928E-02 0.  1.
    10030    2    1    2    0    0  0.00000000000E+00  0.00000000000E+00 -0.23493191002E+03  0.57001724547E+03  0.51935215200E+03 0.  0.
        3    1    3    3  502    0 -0.75785042206E+02  0.90305144054E+02 -0.37140993142E+03  0.38967132178E+03  0.10100000352E+00 0.  1.
       -3    1    3    3    0  502  0.75785042206E+02 -0.90305144054E+02  0.13647802140E+03  0.18034592369E+03  0.10100000352E+00 0. -1.
</event>
<event>
 5   0  0.2466034E-01  0.5183807E+03  0.7818609E-02  0.1009090E+00
        2   -1    0    0  501    0  0.00000000000E+00  0.00000000000E+00  0.79009666285E+03  0.79009666286E+03  0.25500000920E-02 0. -1.
       -2   -1    0    0    0  501  0.00000000000E+00  0.00000000000E+00 -0.85027108452E+02  0.85027108490E+02  0.25500000920E-02 0.  1.
    10030    2    1    2    0    0  0.00000000000E+00  0.00000000000E+00  0.70506955440E+03  0.87512377135E+03  0.51838068891E+03 0.  0.
        3    1    3    3  502    0 -0.22010207876E+03 -0.21426768876E+02  0.12431335639E+03  0.25368849457E+03  0.10100000352E+00 0.  1.
       -3    1    3    3    0  502  0.22010207876E+03  0.21426768876E+02  0.58075619801E+03  0.62143527678E+03  0.10100000352E+00 0. -1.
</event>
<event>
 5   0  0.1413361E-01  0.5003749E+03  0.7818609E-02  0.1013681E+00
       -1   -1    0    0    0  501  0.00000000000E+00  0.00000000000E+00  0.12097102367E+03  0.12097102378E+03  0.50400001928E-02 0.  1.
        1   -1    0    0  501    0  0.00000000000E+00  0.00000000000E+00 -0.51742768061E+03  0.51742768063E+03  0.50400001928E-02 0. -1.
    10030    2    1    2    0    0  0.00000000000E+00  0.00000000000E+00 -0.39645665694E+03  0.63839870441E+03  0.50037488443E+03 0.  0.
        3    1    3    3  502    0 -0.14552425577E+03  0.17010564890E+03 -0.55696263350E+02  0.23068447012E+03  0.10100000352E+00 0.  1.
       -3    1    3    3    0  502  0.14552425577E+03 -0.17010564890E+03 -0.34076039359E+03  0.40771423429E+03  0.10100000352E+00 0. -1.
</event>
<event>
 5   0  0.1453602E-01  0.4978317E+03  0.7818609E-02  0.1014346E+00
       -1   -1    0    0    0  501  0.00000000000E+00  0.00000000000E+00  0.20634231101E+03  0.20634231108E+03  0.50400001928E-02 0. -1.
        1   -1    0    0  501    0  0.00000000000E+00  0.00000000000E+00 -0.30027335476E+03  0.30027335480E+03  0.50400001928E-02 0.  1.
    10030    2    1    2    0    0  0.00000000000E+00  0.00000000000E+00 -0.93931043746E+02  0.50661566588E+03  0.49783169037E+03 0.  0.
        2    1    3    3  502    0  0.18784546852E+03 -0.14082973571E+03  0.37199049640E+02  0.23770297391E+03  0.25500000920E-02 0. -1.
       -2    1    3    3    0  502 -0.18784546852E+03  0.14082973571E+03 -0.13113009339E+03  0.26891269197E+03  0.25500000920E-02 0.  1.
</event>
<event>
 5   0  0.2488968E-01  0.4758871E+03  0.7818609E-02  0.1020272E+00
       -2   -1    0    0    0  501  0.00000000000E+00  0.00000000000E+00  0.67832475364E+02  0.67832475412E+02  0.25500000920E-02 0. -1.
        2   -1    0    0  501    0  0.00000000000E+00  0.00000000000E+00 -0.83466129063E+03  0.83466129064E+03  0.25500000920E-02 0.  1.
    10030    2    1    2    0    0  0.00000000000E+00  0.00000000000E+00 -0.76682881527E+03  0.90249376605E+03  0.47588713560E+03 0.  0.
        2    1    3    3  502    0 -0.18236589128E+03 -0.10789747088E+03 -0.58870366870E+03  0.62567658744E+03  0.25500000920E-02 0.  1.
       -2    1    3    3    0  502  0.18236589128E+03  0.10789747088E+03 -0.17812514657E+03  0.27681717861E+03  0.25500000920E-02 0. -1.
</event>
<event>
 5   0  0.1448458E-01  0.4956743E+03  0.7818609E-02  0.1014914E+00
       -1   -1    0    0    0  501  0.00000000000E+00  0.00000000000E+00  0.14936808184E+03  0.14936808192E+03  0.50400001928E-02 0.  1.
        1   -1    0    0  501    0  0.00000000000E+00  0.00000000000E+00 -0.41122075221E+03  0.41122075224E+03  0.50400001928E-02 0. -1.
    10030    2    1    2    0    0  0.00000000000E+00  0.00000000000E+00 -0.26185267037E+03  0.56058883416E+03  0.49567430840E+03 0.  0.
        5    1    3    3  502    0 -0.17956512618E+02  0.15732247038E+02  0.14801399795E+03  0.15000057843E+03  0.46999998093E+01 0.  1.
       -5    1    3    3    0  502  0.17956512618E+02 -0.15732247038E+02 -0.40986666832E+03  0.41058825573E+03  0.46999998093E+01 0. -1.
</event>
<event>
 5   0  0.1439814E-01  0.5121704E+03  0.7818609E-02  0.1010650E+00
        1   -1    0    0  501    0  0.00000000000E+00  0.00000000000E+00  0.38936218474E+03  0.38936218478E+03  0.50400001928E-02 0. -1.
       -1   -1    0    0    0  501  0.00000000000E+00  0.00000000000E+00 -0.16842834080E+03  0.16842834088E+03  0.50400001928E-02 0.  1.
    10030    2    1    2    0    0  0.00000000000E+00  0.00000000000E+00  0.22093384394E+03  0.55779052566E+03  0.51217038875E+03 0.  0.
        4    1    3    3  502    0 -0.12663233095E+03  0.14774953334E+03 -0.70831190481E+02  0.20708535025E+03  0.12699999809E+01 0.  1.
       -4    1    3    3    0  502  0.12663233095E+03 -0.14774953334E+03  0.29176503442E+03  0.35070517540E+03  0.12699999809E+01 0. -1.
</event>
<event>
 5   0  0.2413301E-01  0.5117454E+03  0.7818609E-02  0.1010758E+00
        2   -1    0    0  501    0  0.00000000000E+00  0.00000000000E+00  0.11070786580E+04  0.11070786580E+04  0.25500000920E-02 0. -1.
       -2   -1    0    0    0  501  0.00000000000E+00  0.00000000000E+00 -0.59138380579E+02  0.59138380634E+02  0.25500000920E-02 0.  1.
    10030    2    1    2    0    0  0.00000000000E+00  0.00000000000E+00  0.10479402775E+04  0.11662170387E+04  0.51174540171E+03 0.  0.
        4    1    3    3  502    0 -0.22319929575E+02 -0.17641055181E+03  0.10468728227E+03  0.20634898114E+03  0.12699999809E+01 0.  1.
       -4    1    3    3    0  502  0.22319929575E+02  0.17641055181E+03  0.94325299518E+03  0.95986805753E+03  0.12699999809E+01 0. -1.
</event>
<event>
 5   0  0.1529146E-01  0.4975759E+03  0.7818609E-02  0.1014414E+00
       -1   -1    0    0    0  501  0.00000000000E+00  0.00000000000E+00  0.82368773898E+02  0.82368774053E+02  0.50400001928E-02 0.  1.
        1   -1    0    0  501    0  0.00000000000E+00  0.00000000000E+00 -0.75144309346E+03  0.75144309348E+03  0.50400001928E-02 0. -1.
    10030    2    1    2    0    0  0.00000000000E+00  0.00000000000E+00 -0.66907431956E+03  0.83381186753E+03  0.49757590912E+03 0.  0.
        1    1    3    3  502    0  0.21650582320E+03 -0.12071111846E+03 -0.29900890136E+03  0.38839705034E+03  0.50400001928E-02 0. -1.
       -1    1    3    3    0  502 -0.21650582320E+03  0.12071111846E+03 -0.37006541821E+03  0.44541481719E+03  0.50400001928E-02 0.  1.
</event>
<event>
 5   0  0.2413301E-01  0.5157944E+03  0.7818609E-02  0.1009737E+00
        2   -1    0    0  501    0  0.00000000000E+00  0.00000000000E+00  0.48762450927E+03  0.48762450927E+03  0.25500000920E-02 0.  1.
       -2   -1    0    0    0  501  0.00000000000E+00  0.00000000000E+00 -0.13639792641E+03  0.13639792644E+03  0.25500000920E-02 0. -1.
    10030    2    1    2    0    0  0.00000000000E+00  0.00000000000E+00  0.35122658285E+03  0.62402243571E+03  0.51579442394E+03 0.  0.
        4    1    3    3  502    0  0.21517881292E+03  0.10265875094E+03  0.29457461039E+03  0.37896774884E+03  0.12699999809E+01 0. -1.
       -4    1    3    3    0  502 -0.21517881292E+03 -0.10265875094E+03  0.56651972467E+02  0.24505468687E+03  0.12699999809E+01 0.  1.
</event>
<event>
 5   0  0.2504064E-01  0.5096420E+03  0.7818609E-02  0.1011292E+00
        2   -1    0    0  501    0  0.00000000000E+00  0.00000000000E+00  0.63776750912E+03  0.63776750913E+03  0.25500000920E-02 0. -1.
       -2   -1    0    0    0  501  0.00000000000E+00  0.00000000000E+00 -0.10181410790E+03  0.10181410793E+03  0.25500000920E-02 0.  1.
    10030    2    1    2    0    0  0.00000000000E+00  0.00000000000E+00  0.53595340122E+03  0.73958161706E+03  0.50964195275E+03 0.  0.
        5    1    3    3  502    0 -0.14307021854E+03  0.21076028811E+03  0.27488369065E+03  0.37479610438E+03  0.46999998093E+01 0. -1.
       -5    1    3    3    0  502  0.14307021854E+03 -0.21076028811E+03  0.26106971058E+03  0.36478551267E+03  0.46999998093E+01 0.  1.
</event>
<event>
 5   0  0.1439814E-01  0.4945415E+03  0.7818609E-02  0.1015214E+00
       -1   -1    0    0    0  501  0.00000000000E+00  0.00000000000E+00  0.78821152602E+02  0.78821152763E+02  0.50400001928E-02 0.  1.
        1   -1    0    0  501    0  0.00000000000E+00  0.00000000000E+00 -0.77571608007E+03  0.77571608009E+03  0.50400001928E-02 0. -1.
    10030    2    1    2    0    0  0.00000000000E+00  0.00000000000E+00 -0.69689492747E+03  0.85453723285E+03  0.49454154769E+03 0.  0.
        4    1    3    3  502    0 -0.20508005147E+03 -0.12145225525E+03 -0.46218655798E+03  0.52002548504E+03  0.12699999809E+01 0.  1.
       -4    1    3    3    0  502  0.20508005147E+03  0.12145225525E+03 -0.23470836948E+03  0.33451174781E+03  0.12699999809E+01 0. -1.
</event>
<event>
 5   0  0.2504064E-01  0.4986729E+03  0.7818609E-02  0.1014126E+00
       -2   -1    0    0    0  501  0.00000000000E+00  0.00000000000E+00  0.16525845043E+03  0.16525845045E+03  0.25500000920E-02 0. -1.
        2   -1    0    0  501    0  0.00000000000E+00  0.00000000000E+00 -0.37619058726E+03  0.37619058726E+03  0.25500000920E-02 0.  1.
    10030    2    1    2    0    0  0.00000000000E+00  0.00000000000E+00 -0.21093213683E+03  0.54144903771E+03  0.49867293298E+03 0.  0.
        5    1    3    3  502    0  0.21394123393E+03  0.29887301229E+02 -0.24056815928E+03  0.32335619928E+03  0.46999998093E+01 0.  1.
       -5    1    3    3    0  502 -0.21394123393E+03 -0.29887301229E+02  0.29636022453E+02  0.21809283844E+03  0.46999998093E+01 0. -1.
</event>
<event>
 5   0  0.9868500E-02  0.4905877E+03  0.7818609E-02  0.1016265E+00
       -4   -1    0    0    0  501  0.00000000000E+00  0.00000000000E+00  0.61189169994E+03  0.61189301790E+03  0.12699999809E+01 0.  1.
        4   -1    0    0  501    0  0.00000000000E+00  0.00000000000E+00 -0.98327366141E+02  0.98335567482E+02  0.12699999809E+01 0. -1.
    10030    2    1    2    0    0  0.00000000000E+00  0.00000000000E+00  0.51356433380E+03  0.71022858538E+03  0.49058772767E+03 0.  0.
        1    1    3    3  502    0  0.10848059571E+03  0.14117046484E+03  0.12500994031E+02  0.17847524945E+03  0.50400001928E-02 0. -1.
       -1    1    3    3    0  502 -0.10848059571E+03 -0.14117046484E+03  0.50106333976E+03  0.53175333593E+03  0.50400001928E-02 0.  1.
</event>
<event>
 5   0  0.9868500E-02  0.5161077E+03  0.7818609E-02  0.1009658E+00
       -3   -1    0    0    0  501  0.00000000000E+00  0.00000000000E+00  0.69450132788E+02  0.69450206229E+02  0.10100000352E+00 0. -1.
        3   -1    0    0  501    0  0.00000000000E+00  0.00000000000E+00 -0.95884273028E+03  0.95884273560E+03  0.10100000352E+00 0.  1.
    10030    2    1    2    0    0  0.00000000000E+00  0.00000000000E+00 -0.88939259749E+03  0.10282929418E+04  0.51610772300E+03 0.  0.
        1    1    3    3  502    0 -0.10687995821E+03  0.18779126180E+03 -0.72577944601E+03  0.75726130745E+03  0.50400001928E-02 0.  1.
       -1    1    3    3    0  502  0.10687995821E+03 -0.18779126180E+03 -0.16361315148E+03  0.27103163438E+03  0.50400001928E-02 0. -1.
</event>
<event>
 5   0  0.2488968E-01  0.4807919E+03  0.7818609E-02  0.1018918E+00
       -2   -1    0    0    0  501  0.00000000000E+00  0.00000000000E+00  0.40498500293E+02  0.40498500373E+02  0.25500000920E-02 0.  1.
        2   -1    0    0  501    0  0.00000000000E+00  0.00000000000E+00 -0.14269714190E+04  0.14269714190E+04  0.25500000920E-02 0. -1.
    10030    2    1    2    0    0  0.00000000000E+00  0.00000000000E+00 -0.13864729187E+04  0.14674699194E+04  0.48079185721E+03 0.  0.
        2    1    3    3  502    0 -0.18734259949E+03  0.12739104570E+03 -0.93863880694E+03  0.96559232495E+03  0.25500000920E-02 0. -1.
       -2    1    3    3    0  502  0.18734259949E+03 -0.12739104570E+03 -0.44783411175E+03  0.50187759440E+03  0.25500000920E-02 0.  1.
</event>
<event>
 5   0  0.1413361E-01  0.4874249E+03  0.7818609E-02  0.1017114E+00
        1   -1    0    0  501    0  0.00000000000E+00  0.00000000000E+00  0.53518129671E+03  0.53518129674E+03  0.50400001928E-02 0. -1.
       -1   -1    0    0    0  501  0.00000000000E+00  0.00000000000E+00 -0.11098249701E+03  0.11098249712E+03  0.50400001928E-02 0.  1.
    10030    2    1    2    0    0  0.00000000000E+00  0.00000000000E+00  0.42419879970E+03  0.64616379386E+03  0.48742489352E+03 0.  0.
        3    1    3    3  502    0  0.14385182133E+03 -0.15223744304E+02 -0.47916320864E+02  0.15238468721E+03  0.10100000352E+00 0.  1.
       -3    1    3    3    0  502 -0.14385182133E+03  0.15223744304E+02  0.47211512057E+03  0.49377910664E+03  0.10100000352E+00 0. -1.
</event>
</LesHouchesEvents>
