<LesHouchesEvents version="3.0">
<header>
<!--
#*********************************************************************
#                                                                    *
#                        MadGraph5_aMC@NLO                           *
#                                                                    *
#                           Going Beyond                             *
#                                                                    *
#                   http://madgraph.hep.uiuc.edu                     *
#                   http://madgraph.phys.ucl.ac.be                   *
#                   http://amcatnlo.cern.ch                          *
#                                                                    *
#                     The MadGraph5_aMC@NLO team                     *
#                                                                    *
#....................................................................*
#                                                                    *
# This file contains all the information necessary to reproduce      *
# the events generated:                                              *
#                                                                    *
# 1. software version                                                *
# 2. proc_card          : code generation info including model       *
# 3. param_card         : model primary parameters in the LH format  *
# 4. run_card           : running parameters (collider and cuts)     *
# 5. pythia_card        : present only if pythia has been run        *
# 6. pgs_card           : present only if pgs has been run           *
# 7. delphes_cards      : present only if delphes has been run       *
#                                                                    *
#                                                                    *
#*********************************************************************
-->
<MGVersion>
#5.2.2.3
</MGVersion>
<MG5ProcCard>
#************************************************************
#*                     MadGraph5_aMC@NLO                    *
#*                                                          *
#*                *                       *                 *
#*                  *        * *        *                   *
#*                    * * * * 5 * * * *                     *
#*                  *        * *        *                   *
#*                *                       *                 *
#*                                                          *
#*                                                          *
#*         VERSION 2.2.3                 2015-02-10         *
#*                                                          *
#*    The MadGraph5_aMC@NLO Development Team - Find us at   *
#*    https://server06.fynu.ucl.ac.be/projects/madgraph     *
#*                                                          *
#************************************************************
#*                                                          *
#*               Command File for MadGraph5_aMC@NLO         *
#*                                                          *
#*     run as ./bin/mg5_aMC  filename                       *
#*                                                          *
#************************************************************
set group_subprocesses Auto
set ignore_six_quark_processes False
set loop_optimized_output True
set gauge unitary
set complex_mass_scheme False
import model sm
define p = g u c d s u~ c~ d~ s~
define j = g u c d s u~ c~ d~ s~
define l+ = e+ mu+
define l- = e- mu-
define vl = ve vm vt
define vl~ = ve~ vm~ vt~
import model Zprime_UFO
generate p p > zph, zph > j j
add process p p > zph, zph > b b~
output Dijet_signal
</MG5ProcCard>
<MGProcCard>
#*********************************************************************
#                        MadGraph/MadEvent                           *
#                   http://madgraph.hep.uiuc.edu                     *
#                                                                    *
#                          proc_card.dat                             *
#*********************************************************************
#                                                                    *
#            This Files is generated by MADGRAPH 5                   *
#                                                                    *
# WARNING: This Files is generated for MADEVENT (compatibility issue)*
#          This files is NOT a valid MG4 proc_card.dat               *
#          Running this in MG4 will NEVER reproduce the result of MG5*
#                                                                    *
#*********************************************************************
#*********************************************************************
# Process(es) requested : mg2 input                                  *
#*********************************************************************
# Begin PROCESS # This is TAG. Do not modify this line
p p > zph , zph > j j           #Process
# Be carefull the coupling are here in MG5 convention
          
end_coup           # End the couplings input

done               # this tells MG there are no more procs
# End PROCESS  # This is TAG. Do not modify this line
#*********************************************************************
# Model information                                                  *
#*********************************************************************
# Begin MODEL  # This is TAG. Do not modify this line
Zprime_UFO
# End   MODEL  # This is TAG. Do not modify this line
#*********************************************************************
# Start multiparticle definitions                                    *
#*********************************************************************
# Begin MULTIPARTICLES # This is TAG. Do not modify this line

# End  MULTIPARTICLES # This is TAG. Do not modify this line
</MGProcCard>
<MGRunCard>
#*********************************************************************
#                       MadGraph5_aMC@NLO                            *
#                                                                    *
#                     run_card.dat MadEvent                          *
#                                                                    *
#  This file is used to set the parameters of the run.               *
#                                                                    *
#  Some notation/conventions:                                        *
#                                                                    *
#   Lines starting with a '# ' are info or comments                  *
#                                                                    *
#   mind the format:   value    = variable     ! comment             *
#*********************************************************************
#
#*******************                                                 
# Running parameters
#*******************                                                 
#                                                                    
#*********************************************************************
# Tag name for the run (one word)                                    *
#*********************************************************************
  tag_1     = run_tag ! name of the run 
#*********************************************************************
# Run to generate the grid pack                                      *
#*********************************************************************
  .false.     = gridpack  !True = setting up the grid pack
#*********************************************************************
# Number of events and rnd seed                                      *
# Warning: Do not generate more than 1M events in a single run       *
# If you want to run Pythia, avoid more than 50k events in a run.    *
#*********************************************************************
  2000 = nevents ! Number of unweighted events requested 
 1506 = iseed   ! rnd seed (0=assigned automatically=default))
#*********************************************************************
# Collider type and energy                                           *
# lpp: 0=No PDF, 1=proton, -1=antiproton, 2=photon from proton,      *
#                                         3=photon from electron     *
#*********************************************************************
        1     = lpp1    ! beam 1 type 
        1     = lpp2    ! beam 2 type
     4000     = ebeam1  ! beam 1 total energy in GeV
     4000     = ebeam2  ! beam 2 total energy in GeV
#*********************************************************************
# Beam polarization from -100 (left-handed) to 100 (right-handed)    *
#*********************************************************************
        0     = polbeam1 ! beam polarization for beam 1
        0     = polbeam2 ! beam polarization for beam 2
#*********************************************************************
# PDF CHOICE: this automatically fixes also alpha_s and its evol.    *
#*********************************************************************
 'nn23lo1'    = pdlabel     ! PDF set                                     
 230000    = lhaid     ! if pdlabel=lhapdf, this is the lhapdf number
#*********************************************************************
# Renormalization and factorization scales                           *
#*********************************************************************
 F        = fixed_ren_scale  ! if .true. use fixed ren scale
 F        = fixed_fac_scale  ! if .true. use fixed fac scale
 91.1880  = scale            ! fixed ren scale
 91.1880  = dsqrt_q2fact1    ! fixed fact scale for pdf1
 91.1880  = dsqrt_q2fact2    ! fixed fact scale for pdf2
 1        = scalefact        ! scale factor for event-by-event scales
#*********************************************************************
# Matching - Warning! ickkw > 1 is still beta
#*********************************************************************
 0        = ickkw            ! 0 no matching, 1 MLM, 2 CKKW matching
 1        = highestmult      ! for ickkw=2, highest mult group
 1        = ktscheme         ! for ickkw=1, 1 Durham kT, 2 Pythia pTE
 1        = alpsfact         ! scale factor for QCD emission vx
 F        = chcluster        ! cluster only according to channel diag
 T        = pdfwgt           ! for ickkw=1, perform pdf reweighting
 5        = asrwgtflavor     ! highest quark flavor for a_s reweight
 T        = clusinfo         ! include clustering tag in output
 3.0      = lhe_version       ! Change the way clustering information pass to shower.        
#*********************************************************************
#**********************************************************
#
#**********************************************************
# Automatic ptj and mjj cuts if xqcut > 0
# (turn off for VBF and single top processes)
#**********************************************************
   T  = auto_ptj_mjj  ! Automatic setting of ptj and mjj
#**********************************************************
#                                                                    
#**********************************
# BW cutoff (M+/-bwcutoff*Gamma)
#**********************************
  15  = bwcutoff      ! (M+/-bwcutoff*Gamma)
#**********************************************************
# Apply pt/E/eta/dr/mij cuts on decay products or not
# (note that etmiss/ptll/ptheavy/ht/sorted cuts always apply)
#**********************************************************
   T  = cut_decays    ! Cut decay products 
#*************************************************************
# Number of helicities to sum per event (0 = all helicities)
# 0 gives more stable result, but longer run time (needed for
# long decay chains e.g.).
# Use >=2 if most helicities contribute, e.g. pure QCD.
#*************************************************************
   0  = nhel          ! Number of helicities used per event
#*******************                                                 
# Standard Cuts
#*******************                                                 
#                                                                    
#*********************************************************************
# Minimum and maximum pt's (for max, -1 means no cut)                *
#*********************************************************************
 20  = ptj       ! minimum pt for the jets 
  0  = ptb       ! minimum pt for the b 
 10  = pta       ! minimum pt for the photons 
 10  = ptl       ! minimum pt for the charged leptons 
  0  = misset    ! minimum missing Et (sum of neutrino's momenta)
  0  = ptheavy   ! minimum pt for one heavy final state
 1.0 = ptonium   ! minimum pt for the quarkonium states
 -1  = ptjmax    ! maximum pt for the jets
 -1  = ptbmax    ! maximum pt for the b
 -1  = ptamax    ! maximum pt for the photons
 -1  = ptlmax    ! maximum pt for the charged leptons
 -1  = missetmax ! maximum missing Et (sum of neutrino's momenta)
#*********************************************************************
# Minimum and maximum E's (in the center of mass frame)              *
#*********************************************************************
  0  = ej     ! minimum E for the jets 
  0  = eb     ! minimum E for the b 
  0  = ea     ! minimum E for the photons 
  0  = el     ! minimum E for the charged leptons 
 -1   = ejmax ! maximum E for the jets
 -1   = ebmax ! maximum E for the b
 -1   = eamax ! maximum E for the photons
 -1   = elmax ! maximum E for the charged leptons
#*********************************************************************
# Maximum and minimum absolute rapidity (for max, -1 means no cut)   *
#*********************************************************************
   5  = etaj    ! max rap for the jets 
  -1  = etab    ! max rap for the b
 2.5  = etaa    ! max rap for the photons 
 2.5  = etal    ! max rap for the charged leptons 
 0.6  = etaonium ! max rap for the quarkonium states
   0  = etajmin ! min rap for the jets
   0  = etabmin ! min rap for the b
   0  = etaamin ! min rap for the photons
   0  = etalmin ! main rap for the charged leptons
#*********************************************************************
# Minimum and maximum DeltaR distance                                *
#*********************************************************************
 0.4 = drjj    ! min distance between jets 
 0   = drbb    ! min distance between b's 
 0.4 = drll    ! min distance between leptons 
 0.4 = draa    ! min distance between gammas 
 0   = drbj    ! min distance between b and jet 
 0.4 = draj    ! min distance between gamma and jet 
 0.4 = drjl    ! min distance between jet and lepton 
 0   = drab    ! min distance between gamma and b 
 0   = drbl    ! min distance between b and lepton 
 0.4 = dral    ! min distance between gamma and lepton 
 -1  = drjjmax ! max distance between jets
 -1  = drbbmax ! max distance between b's
 -1  = drllmax ! max distance between leptons
 -1  = draamax ! max distance between gammas
 -1  = drbjmax ! max distance between b and jet
 -1  = drajmax ! max distance between gamma and jet
 -1  = drjlmax ! max distance between jet and lepton
 -1  = drabmax ! max distance between gamma and b
 -1  = drblmax ! max distance between b and lepton
 -1  = dralmax ! maxdistance between gamma and lepton
#*********************************************************************
# Minimum and maximum invariant mass for pairs                       *
# WARNING: for four lepton final state mmll cut require to have      *
#          different lepton masses for each flavor!                  *           
#*********************************************************************
 0   = mmjj    ! min invariant mass of a jet pair 
 0   = mmbb    ! min invariant mass of a b pair 
 0   = mmaa    ! min invariant mass of gamma gamma pair
 0   = mmll    ! min invariant mass of l+l- (same flavour) lepton pair
 -1  = mmjjmax ! max invariant mass of a jet pair
 -1  = mmbbmax ! max invariant mass of a b pair
 -1  = mmaamax ! max invariant mass of gamma gamma pair
 -1  = mmllmax ! max invariant mass of l+l- (same flavour) lepton pair
#*********************************************************************
# Minimum and maximum invariant mass for all letpons                 *
#*********************************************************************
 0   = mmnl    ! min invariant mass for all letpons (l+- and vl) 
 -1  = mmnlmax ! max invariant mass for all letpons (l+- and vl) 
#*********************************************************************
# Minimum and maximum pt for 4-momenta sum of leptons                *
#*********************************************************************
 0   = ptllmin  ! Minimum pt for 4-momenta sum of leptons(l and vl)
 -1  = ptllmax  ! Maximum pt for 4-momenta sum of leptons(l and vl)
#*********************************************************************
# Inclusive cuts                                                     *
#*********************************************************************
 0  = xptj ! minimum pt for at least one jet  
 0  = xptb ! minimum pt for at least one b 
 0  = xpta ! minimum pt for at least one photon 
 0  = xptl ! minimum pt for at least one charged lepton 
#*********************************************************************
# Control the pt's of the jets sorted by pt                          *
#*********************************************************************
 0   = ptj1min ! minimum pt for the leading jet in pt
 0   = ptj2min ! minimum pt for the second jet in pt
 0   = ptj3min ! minimum pt for the third jet in pt
 0   = ptj4min ! minimum pt for the fourth jet in pt
 -1  = ptj1max ! maximum pt for the leading jet in pt 
 -1  = ptj2max ! maximum pt for the second jet in pt
 -1  = ptj3max ! maximum pt for the third jet in pt
 -1  = ptj4max ! maximum pt for the fourth jet in pt
 0   = cutuse  ! reject event if fails any (0) / all (1) jet pt cuts
#*********************************************************************
# Control the pt's of leptons sorted by pt                           *
#*********************************************************************
 0   = ptl1min ! minimum pt for the leading lepton in pt
 0   = ptl2min ! minimum pt for the second lepton in pt
 0   = ptl3min ! minimum pt for the third lepton in pt
 0   = ptl4min ! minimum pt for the fourth lepton in pt
 -1  = ptl1max ! maximum pt for the leading lepton in pt 
 -1  = ptl2max ! maximum pt for the second lepton in pt
 -1  = ptl3max ! maximum pt for the third lepton in pt
 -1  = ptl4max ! maximum pt for the fourth lepton in pt
#*********************************************************************
# Control the Ht(k)=Sum of k leading jets                            *
#*********************************************************************
 0   = htjmin ! minimum jet HT=Sum(jet pt)
 -1  = htjmax ! maximum jet HT=Sum(jet pt)
 0   = ihtmin  !inclusive Ht for all partons (including b)
 -1  = ihtmax  !inclusive Ht for all partons (including b)
 0   = ht2min ! minimum Ht for the two leading jets
 0   = ht3min ! minimum Ht for the three leading jets
 0   = ht4min ! minimum Ht for the four leading jets
 -1  = ht2max ! maximum Ht for the two leading jets
 -1  = ht3max ! maximum Ht for the three leading jets
 -1  = ht4max ! maximum Ht for the four leading jets
#***********************************************************************
# Photon-isolation cuts, according to hep-ph/9801442                   *
# When ptgmin=0, all the other parameters are ignored                  *
# When ptgmin>0, pta and draj are not going to be used                 *
#***********************************************************************
   0 = ptgmin ! Min photon transverse momentum
 0.4 = R0gamma ! Radius of isolation code
 1.0 = xn ! n parameter of eq.(3.4) in hep-ph/9801442
 1.0 = epsgamma ! epsilon_gamma parameter of eq.(3.4) in hep-ph/9801442
 .true. = isoEM ! isolate photons from EM energy (photons and leptons)
#*********************************************************************
# WBF cuts                                                           *
#*********************************************************************
 0   = xetamin ! minimum rapidity for two jets in the WBF case  
 0   = deltaeta ! minimum rapidity for two jets in the WBF case 
#*********************************************************************
# KT DURHAM CUT                                                      *
#*********************************************************************
 -1    =  ktdurham        
 0.4  =  dparameter 
#*********************************************************************
# maximal pdg code for quark to be considered as a light jet         *
# (otherwise b cuts are applied)                                     *
#*********************************************************************
 4 = maxjetflavor    ! Maximum jet pdg code
#*********************************************************************
# Jet measure cuts                                                   *
#*********************************************************************
 0   = xqcut   ! minimum kt jet measure between partons
#*********************************************************************
#
#*********************************************************************
# Store info for systematics studies                                 *
# WARNING: If use_syst is T, matched Pythia output is                *
#          meaningful ONLY if plotted taking matchscale              *
#          reweighting into account!                                 *
#*********************************************************************
   F  = use_syst      ! Enable systematics studies
#
#**************************************
# Parameter of the systematics study
#  will be used by SysCalc (if installed)
#**************************************                                  
#
0.5 1 2 = sys_scalefact  # factorization/renormalization scale factor
0.5 1 2 = sys_alpsfact  # \alpha_s emission scale factors
30 50 = sys_matchscale # variation of merging scale
# PDF sets and number of members (0 or none for all members).
CT10nlo.LHgrid = sys_pdf # matching scales
# MSTW2008nlo68cl.LHgrid 1  = sys_pdf
</MGRunCard>
<slha>
######################################################################
## PARAM_CARD AUTOMATICALY GENERATED BY MG5 FOLLOWING UFO MODEL   ####
######################################################################
##                                                                  ##
##  Width set on Auto will be computed following the information    ##
##        present in the decay.py files of the model.               ##
##        See  arXiv:1402.1178 for more details.                    ##
##                                                                  ##
######################################################################

###################################
## INFORMATION FOR CKMBLOCK
###################################
Block ckmblock 
    1 2.277360e-01 # cabi 

###################################
## INFORMATION FOR FRBLOCK
###################################
Block frblock 
    1 8.000000e-01 # gz 

###################################
## INFORMATION FOR MASS
###################################
Block mass 
    1 5.040000e-03 # MD 
    2 2.550000e-03 # MU 
    3 1.010000e-01 # MS 
    4 1.270000e+00 # MC 
    5 4.700000e+00 # MB 
    6 1.720000e+02 # MT 
   11 5.110000e-04 # Me 
   13 1.056600e-01 # MM 
   15 1.777000e+00 # MTA 
   23 9.118760e+01 # MZ 
   25 1.200000e+02 # MH 
  10030 9.000000e+02 # MZph 
  10031 3.000000e+02 # MZpl 
## Dependent parameters, given by model restrictions.
## Those values should be edited following the 
## analytical expression. MG5 ignores those values 
## but they are important for interfacing the output of MG5
## to external program such as Pythia.
  12 0.000000 # ve : 0.0 
  14 0.000000 # vm : 0.0 
  16 0.000000 # vt : 0.0 
  21 0.000000 # g : 0.0 
  22 0.000000 # a : 0.0 
  24 79.824360 # w+ : cmath.sqrt(MZ__exp__2/2. + cmath.sqrt(MZ__exp__4/4. - (aEW*cmath.pi*MZ__exp__2)/(Gf*sqrt__2))) 

###################################
## INFORMATION FOR SMINPUTS
###################################
Block sminputs 
    1 1.279000e+02 # aEWM1 
    2 1.166370e-05 # Gf 
    3 1.184000e-01 # aS 

###################################
## INFORMATION FOR YUKAWA
###################################
Block yukawa 
    1 5.040000e-03 # ymdo 
    2 2.550000e-03 # ymup 
    3 1.010000e-01 # yms 
    4 1.270000e+00 # ymc 
    5 4.700000e+00 # ymb 
    6 1.720000e+02 # ymt 
   11 5.110000e-04 # yme 
   13 1.056600e-01 # ymm 
   15 1.777000e+00 # ymtau 

###################################
## INFORMATION FOR DECAY
###################################
DECAY   6 1.508336e+00 # WT 
DECAY  23 2.495200e+00 # WZ 
DECAY  24 2.085000e+00 # WW 
DECAY  25 5.753088e-03 # WH 
## Dependent parameters, given by model restrictions.
## Those values should be edited following the 
## analytical expression. MG5 ignores those values 
## but they are important for interfacing the output of MG5
## to external program such as Pythia.
DECAY  1 0.000000 # d : 0.0 
DECAY  2 0.000000 # u : 0.0 
DECAY  3 0.000000 # s : 0.0 
DECAY  4 0.000000 # c : 0.0 
DECAY  5 0.000000 # b : 0.0 
DECAY  11 0.000000 # e- : 0.0 
DECAY  12 0.000000 # ve : 0.0 
DECAY  13 0.000000 # mu- : 0.0 
DECAY  14 0.000000 # vm : 0.0 
DECAY  15 0.000000 # ta- : 0.0 
DECAY  16 0.000000 # vt : 0.0 
DECAY  21 0.000000 # g : 0.0 
DECAY  22 0.000000 # a : 0.0 
DECAY  10030 0.308725 # zph : (gz__exp__2*MZph*(5 + cmath.sqrt(1 - (4*MT__exp__2)/MZph__exp__2)))/(144.*cmath.pi) 
DECAY  10031 0.132629 # zpl : (5*gz__exp__2*MZpl)/(144.*cmath.pi) 
#===========================================================
# QUANTUM NUMBERS OF NEW STATE(S) (NON SM PDG CODE)
#===========================================================

Block QNUMBERS 10030  # zph 
        1 0  # 3 times electric charge
        2 3  # number of spin states (2S+1)
        3 1  # colour rep (1: singlet, 3: triplet, 8: octet)
        4 0  # Particle/Antiparticle distinction (0=own anti)
Block QNUMBERS 10031  # zpl 
        1 0  # 3 times electric charge
        2 3  # number of spin states (2S+1)
        3 1  # colour rep (1: singlet, 3: triplet, 8: octet)
        4 0  # Particle/Antiparticle distinction (0=own anti)
</slha>
## END BANNER##
<MGGenerationInfo>
#  Number of Events        :         4011
#  Integrated weight (pb)  :  0.20482E+01
#  Max wgt                 :  0.68634E-03
#  Average wgt             :  0.51065E-03
</MGGenerationInfo>
</header>
<init>
     2212     2212  0.40000000000E+04  0.40000000000E+04 0 0  247000  247000 2   1
  0.20484256622E+01  0.45545017409E-02  0.68634050000E-03   0
</init>
<event>
 5   0  0.6863405E-03  0.9049734E+03  0.7818609E-02  0.9419386E-01
       -2   -1    0    0    0  501  0.00000000000E+00  0.00000000000E+00  0.35449068013E+03  0.35449068014E+03  0.25500000920E-02 0.  1.
        2   -1    0    0  501    0  0.00000000000E+00  0.00000000000E+00 -0.57757295715E+03  0.57757295716E+03  0.25500000920E-02 0. -1.
    10030    2    1    2    0    0  0.00000000000E+00  0.00000000000E+00 -0.22308227702E+03  0.93206363730E+03  0.90497343699E+03 0.  0.
        1    1    3    3  502    0 -0.17612809079E+03  0.15457278068E+03 -0.51020757659E+03  0.56144957042E+03  0.50400001928E-02 0. -1.
       -1    1    3    3    0  502  0.17612809079E+03 -0.15457278068E+03  0.28712529956E+03  0.37061406688E+03  0.50400001928E-02 0.  1.
</event>
<event>
 5   0  0.6863405E-03  0.8937072E+03  0.7818609E-02  0.9433482E-01
       -2   -1    0    0    0  501  0.00000000000E+00  0.00000000000E+00  0.27684830532E+03  0.27684830533E+03  0.25500000920E-02 0. -1.
        2   -1    0    0  501    0  0.00000000000E+00  0.00000000000E+00 -0.72125474288E+03  0.72125474289E+03  0.25500000920E-02 0.  1.
    10030    2    1    2    0    0  0.00000000000E+00  0.00000000000E+00 -0.44440643756E+03  0.99810304822E+03  0.89370723009E+03 0.  0.
        1    1    3    3  502    0 -0.91099127199E+01  0.12072052961E+03  0.25818402141E+03  0.28515859748E+03  0.50400001928E-02 0. -1.
       -1    1    3    3    0  502  0.91099127199E+01 -0.12072052961E+03 -0.70259045897E+03  0.71294445074E+03  0.50400001928E-02 0.  1.
</event>
<event>
 5   0  0.6524705E-03  0.8373023E+03  0.7818609E-02  0.9507540E-01
        2   -1    0    0  501    0  0.00000000000E+00  0.00000000000E+00  0.96824047947E+03  0.96824047947E+03  0.25500000920E-02 0. -1.
       -2   -1    0    0    0  501  0.00000000000E+00  0.00000000000E+00 -0.18101784102E+03  0.18101784104E+03  0.25500000920E-02 0.  1.
    10030    2    1    2    0    0  0.00000000000E+00  0.00000000000E+00  0.78722263844E+03  0.11492583205E+04  0.83730233774E+03 0.  0.
        3    1    3    3  502    0 -0.11885199755E+03  0.17904410494E+03 -0.99534396795E+02  0.23683263116E+03  0.10100000352E+00 0.  1.
       -3    1    3    3    0  502  0.11885199755E+03 -0.17904410494E+03  0.88675703524E+03  0.91242568935E+03  0.10100000352E+00 0. -1.
</event>
<event>
 5   0  0.6863405E-03  0.8515839E+03  0.7818609E-02  0.9488214E-01
       -2   -1    0    0    0  501  0.00000000000E+00  0.00000000000E+00  0.25809575421E+03  0.25809575422E+03  0.25500000920E-02 0. -1.
        2   -1    0    0  501    0  0.00000000000E+00  0.00000000000E+00 -0.70244778606E+03  0.70244778607E+03  0.25500000920E-02 0.  1.
    10030    2    1    2    0    0  0.00000000000E+00  0.00000000000E+00 -0.44435203186E+03  0.96054354029E+03  0.85158391517E+03 0.  0.
        1    1    3    3  502    0  0.19958783396E+03 -0.32277399871E+03 -0.43996207798E+03  0.58102064318E+03  0.50400001928E-02 0. -1.
       -1    1    3    3    0  502 -0.19958783396E+03  0.32277399871E+03 -0.43899538771E+01  0.37952289711E+03  0.50400001928E-02 0.  1.
</event>
<event>
 5   0  0.6524705E-03  0.9009999E+03  0.7818609E-02  0.9424332E-01
        2   -1    0    0  501    0  0.00000000000E+00  0.00000000000E+00  0.22492775361E+04  0.22492775362E+04  0.25500000920E-02 0.  1.
       -2   -1    0    0    0  501  0.00000000000E+00  0.00000000000E+00 -0.90229069491E+02  0.90229069527E+02  0.25500000920E-02 0. -1.
    10030    2    1    2    0    0  0.00000000000E+00  0.00000000000E+00  0.21590484667E+04  0.23395066057E+04  0.90099993154E+03 0.  0.
        3    1    3    3  502    0 -0.27247689135E+03  0.17071905233E+03  0.18988287696E+04  0.19258606797E+04  0.10100000352E+00 0.  1.
       -3    1    3    3    0  502  0.27247689135E+03 -0.17071905233E+03  0.26021969708E+03  0.41364592600E+03  0.10100000352E+00 0. -1.
</event>
<event>
 5   0  0.3969536E-03  0.9047977E+03  0.7818609E-02  0.9419604E-01
       -1   -1    0    0    0  501  0.00000000000E+00  0.00000000000E+00  0.24111214043E+03  0.24111214048E+03  0.50400001928E-02 0.  1.
        1   -1    0    0  501    0  0.00000000000E+00  0.00000000000E+00 -0.84883630304E+03  0.84883630305E+03  0.50400001928E-02 0. -1.
    10030    2    1    2    0    0  0.00000000000E+00  0.00000000000E+00 -0.60772416261E+03  0.10899484435E+04  0.90479774079E+03 0.  0.
        1    1    3    3  502    0  0.10168929202E+03  0.10906742907E+03  0.21065592651E+03  0.25809365663E+03  0.50400001928E-02 0.  1.
       -1    1    3    3    0  502 -0.10168929202E+03 -0.10906742907E+03 -0.81838008912E+03  0.83185478690E+03  0.50400001928E-02 0. -1.
</event>
<event>
 5   0  0.3943549E-03  0.9021740E+03  0.7818609E-02  0.9422868E-01
       -1   -1    0    0    0  501  0.00000000000E+00  0.00000000000E+00  0.20089039000E+03  0.20089039006E+03  0.50400001928E-02 0.  1.
        1   -1    0    0  501    0  0.00000000000E+00  0.00000000000E+00 -0.10128881620E+04  0.10128881620E+04  0.50400001928E-02 0. -1.
    10030    2    1    2    0    0  0.00000000000E+00  0.00000000000E+00 -0.81199777195E+03  0.12137785520E+04  0.90217403626E+03 0.  0.
        3    1    3    3  502    0  0.42932801396E+03 -0.11221330968E+03 -0.51500989997E+03  0.67981584102E+03  0.10100000352E+00 0. -1.
       -3    1    3    3    0  502 -0.42932801396E+03  0.11221330968E+03 -0.29698787198E+03  0.53396271100E+03  0.10100000352E+00 0.  1.
</event>
<event>
 5   0  0.6863405E-03  0.8970525E+03  0.7818609E-02  0.9429274E-01
        2   -1    0    0  501    0  0.00000000000E+00  0.00000000000E+00  0.34996439201E+03  0.34996439202E+03  0.25500000920E-02 0.  1.
       -2   -1    0    0    0  501  0.00000000000E+00  0.00000000000E+00 -0.57484641120E+03  0.57484641121E+03  0.25500000920E-02 0. -1.
    10030    2    1    2    0    0  0.00000000000E+00  0.00000000000E+00 -0.22488201919E+03  0.92481080323E+03  0.89705245065E+03 0.  0.
        1    1    3    3  502    0  0.56598840828E+02  0.77843908616E+02  0.33919325474E+03  0.35258356028E+03  0.50400001928E-02 0.  1.
       -1    1    3    3    0  502 -0.56598840828E+02 -0.77843908616E+02 -0.56407527393E+03  0.57222724295E+03  0.50400001928E-02 0. -1.
</event>
<event>
 5   0  0.3927993E-03  0.8981736E+03  0.7818609E-02  0.9427867E-01
       -1   -1    0    0    0  501  0.00000000000E+00  0.00000000000E+00  0.12174825171E+03  0.12174825181E+03  0.50400001928E-02 0. -1.
        1   -1    0    0  501    0  0.00000000000E+00  0.00000000000E+00 -0.16565243715E+04  0.16565243715E+04  0.50400001928E-02 0.  1.
    10030    2    1    2    0    0  0.00000000000E+00  0.00000000000E+00 -0.15347761198E+04  0.17782726234E+04  0.89817358289E+03 0.  0.
        2    1    3    3  502    0 -0.32442521578E+03 -0.30087824441E+03 -0.91945890144E+03  0.10203842953E+04  0.25500000920E-02 0.  1.
       -2    1    3    3    0  502  0.32442521578E+03  0.30087824441E+03 -0.61531721838E+03  0.75788832808E+03  0.25500000920E-02 0. -1.
</event>
<event>
 5   0  0.6863405E-03  0.9278944E+03  0.7818609E-02  0.9391369E-01
       -2   -1    0    0    0  501  0.00000000000E+00  0.00000000000E+00  0.23167606735E+03  0.23167606736E+03  0.25500000920E-02 0. -1.
        2   -1    0    0  501    0  0.00000000000E+00  0.00000000000E+00 -0.92908600372E+03  0.92908600372E+03  0.25500000920E-02 0.  1.
    10030    2    1    2    0    0  0.00000000000E+00  0.00000000000E+00 -0.69740993637E+03  0.11607620711E+04  0.92789437240E+03 0.  0.
        1    1    3    3  502    0 -0.16289780257E+03  0.99889343834E+02  0.18016334389E+03  0.26262598043E+03  0.50400001928E-02 0. -1.
       -1    1    3    3    0  502  0.16289780257E+03 -0.99889343834E+02 -0.87757328026E+03  0.89813609065E+03  0.50400001928E-02 0.  1.
</event>
<event>
 5   0  0.2560250E-03  0.9567382E+03  0.7818609E-02  0.9357309E-01
       -4   -1    0    0    0  501  0.00000000000E+00  0.00000000000E+00  0.11999367795E+04  0.11999374516E+04  0.12699999809E+01 0.  1.
        4   -1    0    0  501    0  0.00000000000E+00  0.00000000000E+00 -0.19070469086E+03  0.19070891960E+03  0.12699999809E+01 0. -1.
    10030    2    1    2    0    0  0.00000000000E+00  0.00000000000E+00  0.10092320887E+04  0.13906463712E+04  0.95673816739E+03 0.  0.
        1    1    3    3  502    0  0.20339112433E+03 -0.27972793240E+03  0.98498762581E+03  0.10439426654E+04  0.50400001928E-02 0.  1.
       -1    1    3    3    0  502 -0.20339112433E+03  0.27972793240E+03  0.24244462872E+02  0.34670370581E+03  0.50400001928E-02 0. -1.
</event>
<event>
 5   0  0.6724773E-03  0.9155235E+03  0.7818609E-02  0.9406382E-01
       -2   -1    0    0    0  501  0.00000000000E+00  0.00000000000E+00  0.36033585298E+03  0.36033585299E+03  0.25500000920E-02 0.  1.
        2   -1    0    0  501    0  0.00000000000E+00  0.00000000000E+00 -0.58152918689E+03  0.58152918689E+03  0.25500000920E-02 0. -1.
    10030    2    1    2    0    0  0.00000000000E+00  0.00000000000E+00 -0.22119333391E+03  0.94186503989E+03  0.91552349090E+03 0.  0.
        5    1    3    3  502    0 -0.74173579200E+02  0.13016561679E+03 -0.55556756645E+03  0.57543220152E+03  0.46999998093E+01 0. -1.
       -5    1    3    3    0  502  0.74173579200E+02 -0.13016561679E+03  0.33437423255E+03  0.36643283837E+03  0.46999998093E+01 0.  1.
</event>
<event>
 5   0  0.3794006E-03  0.9017789E+03  0.7818609E-02  0.9423360E-01
       -1   -1    0    0    0  501  0.00000000000E+00  0.00000000000E+00  0.61367901835E+03  0.61367901838E+03  0.50400001928E-02 0. -1.
        1   -1    0    0  501    0  0.00000000000E+00  0.00000000000E+00 -0.33128276352E+03  0.33128276356E+03  0.50400001928E-02 0.  1.
    10030    2    1    2    0    0  0.00000000000E+00  0.00000000000E+00  0.28239625483E+03  0.94496178194E+03  0.90177886678E+03 0.  0.
        5    1    3    3  502    0 -0.14610133333E+03 -0.36675129903E+03 -0.87008034495E+02  0.40428282552E+03  0.46999998093E+01 0.  1.
       -5    1    3    3    0  502  0.14610133333E+03  0.36675129903E+03  0.36940428933E+03  0.54067895642E+03  0.46999998093E+01 0. -1.
</event>
<event>
 5   0  0.2560250E-03  0.9095244E+03  0.7818609E-02  0.9413753E-01
       -3   -1    0    0    0  501  0.00000000000E+00  0.00000000000E+00  0.64043025191E+03  0.64043025988E+03  0.10100000352E+00 0.  1.
        3   -1    0    0  501    0  0.00000000000E+00  0.00000000000E+00 -0.32292142634E+03  0.32292144213E+03  0.10100000352E+00 0. -1.
    10030    2    1    2    0    0  0.00000000000E+00  0.00000000000E+00  0.31750882558E+03  0.96335170201E+03  0.90952440728E+03 0.  0.
        3    1    3    3  502    0  0.25520659604E+03 -0.37241256740E+03  0.10086526139E+03  0.46259630152E+03  0.10100000352E+00 0. -1.
       -3    1    3    3    0  502 -0.25520659604E+03  0.37241256740E+03  0.21664356418E+03  0.50075540049E+03  0.10100000352E+00 0.  1.
</event>
<event>
 5   0  0.3969536E-03  0.8949254E+03  0.7818609E-02  0.9431947E-01
       -1   -1    0    0    0  501  0.00000000000E+00  0.00000000000E+00  0.10965190767E+03  0.10965190778E+03  0.50400001928E-02 0. -1.
        1   -1    0    0  501    0  0.00000000000E+00  0.00000000000E+00 -0.18259860067E+04  0.18259860067E+04  0.50400001928E-02 0.  1.
    10030    2    1    2    0    0  0.00000000000E+00  0.00000000000E+00 -0.17163340991E+04  0.19356379145E+04  0.89492535807E+03 0.  0.
        1    1    3    3  502    0  0.16541771837E+03 -0.29636533728E+03 -0.14888582804E+04  0.15270541620E+04  0.50400001928E-02 0.  1.
       -1    1    3    3    0  502 -0.16541771837E+03  0.29636533728E+03 -0.22747581869E+03  0.40858375250E+03  0.50400001928E-02 0. -1.
</event>
<event>
 5   0  0.3943549E-03  0.9016325E+03  0.7818609E-02  0.9423543E-01
        1   -1    0    0  501    0  0.00000000000E+00  0.00000000000E+00  0.58054179603E+03  0.58054179605E+03  0.50400001928E-02 0. -1.
       -1   -1    0    0    0  501  0.00000000000E+00  0.00000000000E+00 -0.35007865912E+03  0.35007865916E+03  0.50400001928E-02 0.  1.
    10030    2    1    2    0    0  0.00000000000E+00  0.00000000000E+00  0.23046313691E+03  0.93062045521E+03  0.90163250506E+03 0.  0.
        3    1    3    3  502    0  0.33364841178E+03  0.10194842624E+03  0.40992913883E+03  0.53829049161E+03  0.10100000352E+00 0. -1.
       -3    1    3    3    0  502 -0.33364841178E+03 -0.10194842624E+03 -0.17946600192E+03  0.39232996360E+03  0.10100000352E+00 0.  1.
</event>
<event>
 5   0  0.3943549E-03  0.8942107E+03  0.7818609E-02  0.9432847E-01
        1   -1    0    0  501    0  0.00000000000E+00  0.00000000000E+00  0.46717147719E+03  0.46717147722E+03  0.50400001928E-02 0.  1.
       -1   -1    0    0    0  501  0.00000000000E+00  0.00000000000E+00 -0.42790111528E+03  0.42790111531E+03  0.50400001928E-02 0. -1.
    10030    2    1    2    0    0  0.00000000000E+00  0.00000000000E+00  0.39270361909E+02  0.89507259253E+03  0.89421070480E+03 0.  0.
        3    1    3    3  502    0 -0.80531939245E+02  0.41634286275E+03  0.16146301116E+03  0.45375884209E+03  0.10100000352E+00 0.  1.
       -3    1    3    3    0  502  0.80531939245E+02 -0.41634286275E+03 -0.12219264925E+03  0.44131375044E+03  0.10100000352E+00 0. -1.
</event>
<event>
 5   0  0.6863405E-03  0.9009274E+03  0.7818609E-02  0.9424423E-01
        2   -1    0    0  501    0  0.00000000000E+00  0.00000000000E+00  0.30057845066E+03  0.30057845067E+03  0.25500000920E-02 0. -1.
       -2   -1    0    0    0  501  0.00000000000E+00  0.00000000000E+00 -0.67509017020E+03  0.67509017020E+03  0.25500000920E-02 0.  1.
    10030    2    1    2    0    0  0.00000000000E+00  0.00000000000E+00 -0.37451171954E+03  0.97566862087E+03  0.90092742753E+03 0.  0.
        1    1    3    3  502    0 -0.48972910870E+02  0.31786093360E+03  0.15432093490E+03  0.35671959588E+03  0.50400001928E-02 0. -1.
       -1    1    3    3    0  502  0.48972910870E+02 -0.31786093360E+03 -0.52883265444E+03  0.61894902499E+03  0.50400001928E-02 0.  1.
</event>
<event>
 5   0  0.3998066E-03  0.9126413E+03  0.7818609E-02  0.9409916E-01
       -1   -1    0    0    0  501  0.00000000000E+00  0.00000000000E+00  0.23574848023E+03  0.23574848029E+03  0.50400001928E-02 0. -1.
        1   -1    0    0  501    0  0.00000000000E+00  0.00000000000E+00 -0.88326571519E+03  0.88326571521E+03  0.50400001928E-02 0.  1.
    10030    2    1    2    0    0  0.00000000000E+00  0.00000000000E+00 -0.64751723496E+03  0.11190141955E+04  0.91264133160E+03 0.  0.
        4    1    3    3  502    0  0.21956844036E+03  0.30685303220E+03 -0.91002758460E+01  0.37743014094E+03  0.12699999809E+01 0. -1.
       -4    1    3    3    0  502 -0.21956844036E+03 -0.30685303220E+03 -0.63841695911E+03  0.74158405455E+03  0.12699999809E+01 0.  1.
</event>
<event>
 5   0  0.3969536E-03  0.9023477E+03  0.7818609E-02  0.9422651E-01
       -1   -1    0    0    0  501  0.00000000000E+00  0.00000000000E+00  0.14458271725E+03  0.14458271734E+03  0.50400001928E-02 0.  1.
        1   -1    0    0  501    0  0.00000000000E+00  0.00000000000E+00 -0.14078988830E+04  0.14078988830E+04  0.50400001928E-02 0. -1.
    10030    2    1    2    0    0  0.00000000000E+00  0.00000000000E+00 -0.12633161657E+04  0.15524816003E+04  0.90234770724E+03 0.  0.
        1    1    3    3  502    0  0.39473932053E+03  0.11637398975E+03 -0.94981325446E+03  0.10351363461E+04  0.50400001928E-02 0. -1.
       -1    1    3    3    0  502 -0.39473932053E+03 -0.11637398975E+03 -0.31350291124E+03  0.51734525420E+03  0.50400001928E-02 0.  1.
</event>
<event>
 5   0  0.6609191E-03  0.9011060E+03  0.7818609E-02  0.9424200E-01
        2   -1    0    0  501    0  0.00000000000E+00  0.00000000000E+00  0.85810495028E+03  0.85810495028E+03  0.25500000920E-02 0. -1.
       -2   -1    0    0    0  501  0.00000000000E+00  0.00000000000E+00 -0.23656545638E+03  0.23656545640E+03  0.25500000920E-02 0.  1.
    10030    2    1    2    0    0  0.00000000000E+00  0.00000000000E+00  0.62153949390E+03  0.10946704067E+04  0.90110596313E+03 0.  0.
        2    1    3    3  502    0 -0.51339679030E+02  0.21742180199E+03  0.78608407533E+03  0.81721244246E+03  0.25500000920E-02 0. -1.
       -2    1    3    3    0  502  0.51339679030E+02 -0.21742180199E+03 -0.16454458143E+03  0.27745796422E+03  0.25500000920E-02 0.  1.
</event>
<event>
 5   0  0.3943549E-03  0.9013046E+03  0.7818609E-02  0.9423952E-01
       -1   -1    0    0    0  501  0.00000000000E+00  0.00000000000E+00  0.31068496433E+03  0.31068496437E+03  0.50400001928E-02 0. -1.
        1   -1    0    0  501    0  0.00000000000E+00  0.00000000000E+00 -0.65367659053E+03  0.65367659055E+03  0.50400001928E-02 0.  1.
    10030    2    1    2    0    0  0.00000000000E+00  0.00000000000E+00 -0.34299162620E+03  0.96436155492E+03  0.90130458390E+03 0.  0.
        3    1    3    3  502    0  0.33998963704E+03  0.16574024880E+03  0.90644182922E+02  0.38894621925E+03  0.10100000352E+00 0. -1.
       -3    1    3    3    0  502 -0.33998963704E+03 -0.16574024880E+03 -0.43363580913E+03  0.57541533567E+03  0.10100000352E+00 0.  1.
</event>
<event>
 5   0  0.2560250E-03  0.9057694E+03  0.7818609E-02  0.9418398E-01
       -3   -1    0    0    0  501  0.00000000000E+00  0.00000000000E+00  0.16798460022E+04  0.16798460052E+04  0.10100000352E+00 0.  1.
        3   -1    0    0  501    0  0.00000000000E+00  0.00000000000E+00 -0.12209720298E+03  0.12209724476E+03  0.10100000352E+00 0. -1.
    10030    2    1    2    0    0  0.00000000000E+00  0.00000000000E+00  0.15577487992E+04  0.18019432500E+04  0.90576937171E+03 0.  0.
        5    1    3    3  502    0 -0.17113500254E+03  0.15546404545E+03  0.42153662063E+01  0.23129227794E+03  0.46999998093E+01 0. -1.
       -5    1    3    3    0  502  0.17113500254E+03 -0.15546404545E+03  0.15535334330E+04  0.15706509720E+04  0.46999998093E+01 0.  1.
</event>
<event>
 5   0  0.6524705E-03  0.9086758E+03  0.7818609E-02  0.9414801E-01
        2   -1    0    0  501    0  0.00000000000E+00  0.00000000000E+00  0.14755779790E+04  0.14755779790E+04  0.25500000920E-02 0.  1.
       -2   -1    0    0    0  501  0.00000000000E+00  0.00000000000E+00 -0.13989292760E+03  0.13989292762E+03  0.25500000920E-02 0. -1.
    10030    2    1    2    0    0  0.00000000000E+00  0.00000000000E+00  0.13356850515E+04  0.16154709067E+04  0.90867579126E+03 0.  0.
        3    1    3    3  502    0 -0.37626471752E+03 -0.43487420392E+02  0.22176444395E+03  0.43891431075E+03  0.10100000352E+00 0. -1.
       -3    1    3    3    0  502  0.37626471752E+03  0.43487420392E+02  0.11139206075E+04  0.11765565959E+04  0.10100000352E+00 0.  1.
</event>
<event>
 5   0  0.3969536E-03  0.9073977E+03  0.7818609E-02  0.9416381E-01
       -1   -1    0    0    0  501  0.00000000000E+00  0.00000000000E+00  0.17648021337E+03  0.17648021345E+03  0.50400001928E-02 0.  1.
        1   -1    0    0  501    0  0.00000000000E+00  0.00000000000E+00 -0.11663780246E+04  0.11663780246E+04  0.50400001928E-02 0. -1.
    10030    2    1    2    0    0  0.00000000000E+00  0.00000000000E+00 -0.98989781123E+03  0.13428582381E+04  0.90739769167E+03 0.  0.
        1    1    3    3  502    0  0.16226230150E+03 -0.42368655978E+03 -0.49763208339E+03  0.67340704323E+03  0.50400001928E-02 0. -1.
       -1    1    3    3    0  502 -0.16226230150E+03  0.42368655978E+03 -0.49226572784E+03  0.66945119483E+03  0.50400001928E-02 0.  1.
</event>
<event>
 5   0  0.6609191E-03  0.9034422E+03  0.7818609E-02  0.9421289E-01
       -2   -1    0    0    0  501  0.00000000000E+00  0.00000000000E+00  0.43427982628E+03  0.43427982629E+03  0.25500000920E-02 0. -1.
        2   -1    0    0  501    0  0.00000000000E+00  0.00000000000E+00 -0.46986288890E+03  0.46986288891E+03  0.25500000920E-02 0.  1.
    10030    2    1    2    0    0  0.00000000000E+00  0.00000000000E+00 -0.35583062625E+02  0.90414271520E+03  0.90344224779E+03 0.  0.
        2    1    3    3  502    0 -0.18708411753E+01 -0.37050842904E+03  0.24081155979E+03  0.44189388248E+03  0.25500000920E-02 0. -1.
       -2    1    3    3    0  502  0.18708411753E+01  0.37050842904E+03 -0.27639462242E+03  0.46224883271E+03  0.25500000920E-02 0.  1.
</event>
<event>
 5   0  0.3927993E-03  0.9033991E+03  0.7818609E-02  0.9421342E-01
       -1   -1    0    0    0  501  0.00000000000E+00  0.00000000000E+00  0.61886363854E+03  0.61886363856E+03  0.50400001928E-02 0.  1.
        1   -1    0    0  501    0  0.00000000000E+00  0.00000000000E+00 -0.32968893596E+03  0.32968893600E+03  0.50400001928E-02 0. -1.
    10030    2    1    2    0    0  0.00000000000E+00  0.00000000000E+00  0.28917470258E+03  0.94855257456E+03  0.90339912447E+03 0.  0.
        2    1    3    3  502    0  0.36206176437E+03  0.25374851802E+03  0.47468508720E+02  0.44466874293E+03  0.25500000920E-02 0. -1.
       -2    1    3    3    0  502 -0.36206176437E+03 -0.25374851802E+03  0.24170619386E+03  0.50388383162E+03  0.25500000920E-02 0.  1.
</event>
<event>
 5   0  0.6524705E-03  0.8934217E+03  0.7818609E-02  0.9433842E-01
        2   -1    0    0  501    0  0.00000000000E+00  0.00000000000E+00  0.77017002078E+03  0.77017002079E+03  0.25500000920E-02 0. -1.
       -2   -1    0    0    0  501  0.00000000000E+00  0.00000000000E+00 -0.25909936971E+03  0.25909936972E+03  0.25500000920E-02 0.  1.
    10030    2    1    2    0    0  0.00000000000E+00  0.00000000000E+00  0.51107065107E+03  0.10292693905E+04  0.89342166296E+03 0.  0.
        3    1    3    3  502    0  0.30432166161E+03 -0.44508749396E+02 -0.11769768727E+03  0.32931058028E+03  0.10100000352E+00 0.  1.
       -3    1    3    3    0  502 -0.30432166161E+03  0.44508749396E+02  0.62876833835E+03  0.69995881022E+03  0.10100000352E+00 0. -1.
</event>
<event>
 5   0  0.6724773E-03  0.9049171E+03  0.7818609E-02  0.9419456E-01
       -2   -1    0    0    0  501  0.00000000000E+00  0.00000000000E+00  0.53935854034E+03  0.53935854034E+03  0.25500000920E-02 0. -1.
        2   -1    0    0  501    0  0.00000000000E+00  0.00000000000E+00 -0.37955961973E+03  0.37955961974E+03  0.25500000920E-02 0.  1.
    10030    2    1    2    0    0  0.00000000000E+00  0.00000000000E+00  0.15979892060E+03  0.91891816008E+03  0.90491706245E+03 0.  0.
        5    1    3    3  502    0  0.27061533383E+03 -0.25974185828E+03 -0.17699322327E+03  0.41478570723E+03  0.46999998093E+01 0.  1.
       -5    1    3    3    0  502 -0.27061533383E+03  0.25974185828E+03  0.33679214387E+03  0.50413245285E+03  0.46999998093E+01 0. -1.
</event>
<event>
 5   0  0.3927993E-03  0.8885598E+03  0.7818609E-02  0.9439996E-01
       -1   -1    0    0    0  501  0.00000000000E+00  0.00000000000E+00  0.95667119801E+02  0.95667119933E+02  0.50400001928E-02 0.  1.
        1   -1    0    0  501    0  0.00000000000E+00  0.00000000000E+00 -0.20632443690E+04  0.20632443690E+04  0.50400001928E-02 0. -1.
    10030    2    1    2    0    0  0.00000000000E+00  0.00000000000E+00 -0.19675772492E+04  0.21589114889E+04  0.88855983788E+03 0.  0.
        2    1    3    3  502    0  0.85605658224E+02 -0.72198902653E+01 -0.20428710172E+04  0.20446766122E+04  0.25500000920E-02 0. -1.
       -2    1    3    3    0  502 -0.85605658224E+02  0.72198902653E+01  0.75293768062E+02  0.11423487668E+03  0.25500000920E-02 0.  1.
</event>
<event>
 5   0  0.6524705E-03  0.9032168E+03  0.7818609E-02  0.9421569E-01
       -2   -1    0    0    0  501  0.00000000000E+00  0.00000000000E+00  0.39074017176E+03  0.39074017177E+03  0.25500000920E-02 0. -1.
        2   -1    0    0  501    0  0.00000000000E+00  0.00000000000E+00 -0.52195847722E+03  0.52195847722E+03  0.25500000920E-02 0.  1.
    10030    2    1    2    0    0  0.00000000000E+00  0.00000000000E+00 -0.13121830546E+03  0.91269864900E+03  0.90321679579E+03 0.  0.
        3    1    3    3  502    0 -0.35887211878E+03  0.18192989995E+03  0.14163518742E+03  0.42655389184E+03  0.10100000352E+00 0. -1.
       -3    1    3    3    0  502  0.35887211878E+03 -0.18192989995E+03 -0.27285349288E+03  0.48614475715E+03  0.10100000352E+00 0.  1.
</event>
<event>
 5   0  0.6863405E-03  0.8998869E+03  0.7818609E-02  0.9425723E-01
       -2   -1    0    0    0  501  0.00000000000E+00  0.00000000000E+00  0.88137960362E+02  0.88137960399E+02  0.25500000920E-02 0. -1.
        2   -1    0    0  501    0  0.00000000000E+00  0.00000000000E+00 -0.22969572905E+04  0.22969572905E+04  0.25500000920E-02 0.  1.
    10030    2    1    2    0    0  0.00000000000E+00  0.00000000000E+00 -0.22088193302E+04  0.23850952509E+04  0.89988694995E+03 0.  0.
        1    1    3    3  502    0 -0.24919972647E+03  0.24860431636E+03 -0.18472162093E+04  0.18804553527E+04  0.50400001928E-02 0.  1.
       -1    1    3    3    0  502  0.24919972647E+03 -0.24860431636E+03 -0.36160312088E+03  0.50463989819E+03  0.50400001928E-02 0. -1.
</event>
<event>
 5   0  0.3794006E-03  0.8988493E+03  0.7818609E-02  0.9427021E-01
       -1   -1    0    0    0  501  0.00000000000E+00  0.00000000000E+00  0.96982323401E+02  0.96982323532E+02  0.50400001928E-02 0. -1.
        1   -1    0    0  501    0  0.00000000000E+00  0.00000000000E+00 -0.20826733100E+04  0.20826733100E+04  0.50400001928E-02 0.  1.
    10030    2    1    2    0    0  0.00000000000E+00  0.00000000000E+00 -0.19856909866E+04  0.21796556335E+04  0.89884925685E+03 0.  0.
        5    1    3    3  502    0 -0.71080478996E+02 -0.26294595727E+03 -0.12606118225E+03  0.30017748518E+03  0.46999998093E+01 0. -1.
       -5    1    3    3    0  502  0.71080478996E+02  0.26294595727E+03 -0.18596298043E+04  0.18794781483E+04  0.46999998093E+01 0.  1.
</event>
<event>
 5   0  0.6524705E-03  0.8940701E+03  0.7818609E-02  0.9433025E-01
       -2   -1    0    0    0  501  0.00000000000E+00  0.00000000000E+00  0.99621271221E+02  0.99621271253E+02  0.25500000920E-02 0. -1.
        2   -1    0    0  501    0  0.00000000000E+00  0.00000000000E+00 -0.20060004764E+04  0.20060004764E+04  0.25500000920E-02 0.  1.
    10030    2    1    2    0    0  0.00000000000E+00  0.00000000000E+00 -0.19063792052E+04  0.21056217476E+04  0.89407005892E+03 0.  0.
        3    1    3    3  502    0 -0.28186483064E+03  0.18893622685E+03 -0.26779717886E+03  0.43227308472E+03  0.10100000352E+00 0. -1.
       -3    1    3    3    0  502  0.28186483064E+03 -0.18893622685E+03 -0.16385820263E+04  0.16733486629E+04  0.10100000352E+00 0.  1.
</event>
<event>
 5   0  0.3998066E-03  0.9083978E+03  0.7818609E-02  0.9415144E-01
        1   -1    0    0  501    0  0.00000000000E+00  0.00000000000E+00  0.56030097904E+03  0.56030097907E+03  0.50400001928E-02 0.  1.
       -1   -1    0    0    0  501  0.00000000000E+00  0.00000000000E+00 -0.36818895729E+03  0.36818895733E+03  0.50400001928E-02 0. -1.
    10030    2    1    2    0    0  0.00000000000E+00  0.00000000000E+00  0.19211202175E+03  0.92848993639E+03  0.90839778351E+03 0.  0.
        4    1    3    3  502    0  0.11245533295E+03 -0.10482303013E+03  0.53289761383E+03  0.55463100281E+03  0.12699999809E+01 0.  1.
       -4    1    3    3    0  502 -0.11245533295E+03  0.10482303013E+03 -0.34078559207E+03  0.37385893358E+03  0.12699999809E+01 0. -1.
</event>
<event>
 5   0  0.3969536E-03  0.8967546E+03  0.7818609E-02  0.9429647E-01
        1   -1    0    0  501    0  0.00000000000E+00  0.00000000000E+00  0.12981939355E+04  0.12981939355E+04  0.50400001928E-02 0.  1.
       -1   -1    0    0    0  501  0.00000000000E+00  0.00000000000E+00 -0.15486298496E+03  0.15486298505E+03  0.50400001928E-02 0. -1.
    10030    2    1    2    0    0  0.00000000000E+00  0.00000000000E+00  0.11433309505E+04  0.14530569205E+04  0.89675456615E+03 0.  0.
        1    1    3    3  502    0  0.34604619763E+01  0.44800484505E+03  0.60073584835E+03  0.74940234554E+03  0.50400001928E-02 0. -1.
       -1    1    3    3    0  502 -0.34604619763E+01 -0.44800484505E+03  0.54259510216E+03  0.70365457499E+03  0.50400001928E-02 0.  1.
</event>
<event>
 5   0  0.3943549E-03  0.8937108E+03  0.7818609E-02  0.9433478E-01
        1   -1    0    0  501    0  0.00000000000E+00  0.00000000000E+00  0.31723144799E+03  0.31723144803E+03  0.50400001928E-02 0. -1.
       -1   -1    0    0    0  501  0.00000000000E+00  0.00000000000E+00 -0.62944498524E+03  0.62944498526E+03  0.50400001928E-02 0.  1.
    10030    2    1    2    0    0  0.00000000000E+00  0.00000000000E+00 -0.31221353725E+03  0.94667643329E+03  0.89371079019E+03 0.  0.
        3    1    3    3  502    0 -0.20076800974E+03 -0.23432028323E+03 -0.49847379689E+03  0.58625073583E+03  0.10100000352E+00 0.  1.
       -3    1    3    3    0  502  0.20076800974E+03  0.23432028323E+03  0.18626025964E+03  0.36042569746E+03  0.10100000352E+00 0. -1.
</event>
<event>
 5   0  0.6534628E-03  0.9007252E+03  0.7818609E-02  0.9424675E-01
       -2   -1    0    0    0  501  0.00000000000E+00  0.00000000000E+00  0.16404997084E+03  0.16404997086E+03  0.25500000920E-02 0.  1.
        2   -1    0    0  501    0  0.00000000000E+00  0.00000000000E+00 -0.12363699295E+04  0.12363699295E+04  0.25500000920E-02 0. -1.
    10030    2    1    2    0    0  0.00000000000E+00  0.00000000000E+00 -0.10723199586E+04  0.14004199004E+04  0.90072515430E+03 0.  0.
        4    1    3    3  502    0 -0.18901350881E+02  0.56458657716E+02 -0.12302212902E+04  0.12316618354E+04  0.12699999809E+01 0. -1.
       -4    1    3    3    0  502  0.18901350881E+02 -0.56458657716E+02  0.15790133151E+03  0.16875806496E+03  0.12699999809E+01 0.  1.
</event>
<event>
 5   0  0.6534628E-03  0.8994417E+03  0.7818609E-02  0.9426280E-01
       -2   -1    0    0    0  501  0.00000000000E+00  0.00000000000E+00  0.12731019327E+03  0.12731019330E+03  0.25500000920E-02 0. -1.
        2   -1    0    0  501    0  0.00000000000E+00  0.00000000000E+00 -0.15886303034E+04  0.15886303034E+04  0.25500000920E-02 0.  1.
    10030    2    1    2    0    0  0.00000000000E+00  0.00000000000E+00 -0.14613201101E+04  0.17159404967E+04  0.89944167346E+03 0.  0.
        4    1    3    3  502    0 -0.38171021128E+03 -0.78348588039E+01 -0.11840675174E+04  0.12440986975E+04  0.12699999809E+01 0. -1.
       -4    1    3    3    0  502  0.38171021128E+03  0.78348588039E+01 -0.27725259268E+03  0.47184179918E+03  0.12699999809E+01 0.  1.
</event>
<event>
 5   0  0.2560250E-03  0.9005167E+03  0.7818609E-02  0.9424936E-01
        4   -1    0    0  501    0  0.00000000000E+00  0.00000000000E+00  0.23401310716E+03  0.23401655331E+03  0.12699999809E+01 0.  1.
       -4   -1    0    0    0  501  0.00000000000E+00  0.00000000000E+00 -0.86631981513E+03  0.86632074603E+03  0.12699999809E+01 0. -1.
    10030    2    1    2    0    0  0.00000000000E+00  0.00000000000E+00 -0.63230670797E+03  0.11003372993E+04  0.90051674020E+03 0.  0.
        5    1    3    3  502    0  0.14802350006E+03 -0.21450320578E+02  0.20274154239E+03  0.25198669773E+03  0.46999998093E+01 0.  1.
       -5    1    3    3    0  502 -0.14802350006E+03  0.21450320578E+02 -0.83504825036E+03  0.84835060161E+03  0.46999998093E+01 0. -1.
</event>
<event>
 5   0  0.3794006E-03  0.8997426E+03  0.7818609E-02  0.9425903E-01
        1   -1    0    0  501    0  0.00000000000E+00  0.00000000000E+00  0.82659614591E+03  0.82659614592E+03  0.50400001928E-02 0. -1.
       -1   -1    0    0    0  501  0.00000000000E+00  0.00000000000E+00 -0.24484049393E+03  0.24484049398E+03  0.50400001928E-02 0.  1.
    10030    2    1    2    0    0  0.00000000000E+00  0.00000000000E+00  0.58175565198E+03  0.10714366399E+04  0.89974264915E+03 0.  0.
        5    1    3    3  502    0 -0.44496606944E+03  0.55680780164E+02  0.33326463696E+03  0.55873299570E+03  0.46999998093E+01 0. -1.
       -5    1    3    3    0  502  0.44496606944E+03 -0.55680780164E+02  0.24849101502E+03  0.51270364420E+03  0.46999998093E+01 0.  1.
</event>
<event>
 5   0  0.3794006E-03  0.8983390E+03  0.7818609E-02  0.9427660E-01
        1   -1    0    0  501    0  0.00000000000E+00  0.00000000000E+00  0.70476821082E+03  0.70476821084E+03  0.50400001928E-02 0. -1.
       -1   -1    0    0    0  501  0.00000000000E+00  0.00000000000E+00 -0.28626893058E+03  0.28626893063E+03  0.50400001928E-02 0.  1.
    10030    2    1    2    0    0  0.00000000000E+00  0.00000000000E+00  0.41849928023E+03  0.99103714146E+03  0.89833900516E+03 0.  0.
        5    1    3    3  502    0  0.17232962118E+03 -0.38847246640E+03  0.36958354964E+03  0.56322503997E+03  0.46999998093E+01 0. -1.
       -5    1    3    3    0  502 -0.17232962118E+03  0.38847246640E+03  0.48915730595E+02  0.42781210149E+03  0.46999998093E+01 0.  1.
</event>
<event>
 5   0  0.6609191E-03  0.8985051E+03  0.7818609E-02  0.9427452E-01
       -2   -1    0    0    0  501  0.00000000000E+00  0.00000000000E+00  0.28473896117E+03  0.28473896118E+03  0.25500000920E-02 0.  1.
        2   -1    0    0  501    0  0.00000000000E+00  0.00000000000E+00 -0.70881705432E+03  0.70881705433E+03  0.25500000920E-02 0. -1.
    10030    2    1    2    0    0  0.00000000000E+00  0.00000000000E+00 -0.42407809316E+03  0.99355601551E+03  0.89850505110E+03 0.  0.
        2    1    3    3  502    0 -0.30398110609E+02 -0.36113911412E+03  0.81531141264E+02  0.37147386433E+03  0.25500000920E-02 0.  1.
       -2    1    3    3    0  502  0.30398110609E+02  0.36113911412E+03 -0.50560923442E+03  0.62208215118E+03  0.25500000920E-02 0. -1.
</event>
<event>
 5   0  0.6524705E-03  0.9049149E+03  0.7818609E-02  0.9419458E-01
       -2   -1    0    0    0  501  0.00000000000E+00  0.00000000000E+00  0.24708654574E+03  0.24708654575E+03  0.25500000920E-02 0.  1.
        2   -1    0    0  501    0  0.00000000000E+00  0.00000000000E+00 -0.82852646068E+03  0.82852646069E+03  0.25500000920E-02 0. -1.
    10030    2    1    2    0    0  0.00000000000E+00  0.00000000000E+00 -0.58143991494E+03  0.10756130064E+04  0.90491489375E+03 0.  0.
        3    1    3    3  502    0 -0.20599731540E+03  0.40160680352E+03 -0.32821025733E+03  0.55807248795E+03  0.10100000352E+00 0. -1.
       -3    1    3    3    0  502  0.20599731540E+03 -0.40160680352E+03 -0.25322965761E+03  0.51754051849E+03  0.10100000352E+00 0.  1.
</event>
<event>
 5   0  0.6863405E-03  0.9930101E+03  0.7818609E-02  0.9316245E-01
        2   -1    0    0  501    0  0.00000000000E+00  0.00000000000E+00  0.91417638163E+03  0.91417638163E+03  0.25500000920E-02 0.  1.
       -2   -1    0    0    0  501  0.00000000000E+00  0.00000000000E+00 -0.26966050085E+03  0.26966050087E+03  0.25500000920E-02 0. -1.
    10030    2    1    2    0    0  0.00000000000E+00  0.00000000000E+00  0.64451588078E+03  0.11838368825E+04  0.99301009249E+03 0.  0.
        1    1    3    3  502    0 -0.15524184804E+03 -0.46047010527E+03  0.20077053869E+03  0.52577709960E+03  0.50400001928E-02 0.  1.
       -1    1    3    3    0  502  0.15524184804E+03  0.46047010527E+03  0.44374534209E+03  0.65805978290E+03  0.50400001928E-02 0. -1.
</event>
<event>
 5   0  0.6609191E-03  0.9007308E+03  0.7818609E-02  0.9424668E-01
        2   -1    0    0  501    0  0.00000000000E+00  0.00000000000E+00  0.88630719188E+03  0.88630719189E+03  0.25500000920E-02 0. -1.
       -2   -1    0    0    0  501  0.00000000000E+00  0.00000000000E+00 -0.22884727505E+03  0.22884727507E+03  0.25500000920E-02 0.  1.
    10030    2    1    2    0    0  0.00000000000E+00  0.00000000000E+00  0.65745991683E+03  0.11151544670E+04  0.90073078272E+03 0.  0.
        2    1    3    3  502    0  0.15165987521E+03  0.42274672539E+03  0.37004232671E+03  0.58193370339E+03  0.25500000920E-02 0. -1.
       -2    1    3    3    0  502 -0.15165987521E+03 -0.42274672539E+03  0.28741759012E+03  0.53322076356E+03  0.25500000920E-02 0.  1.
</event>
<event>
 5   0  0.6524705E-03  0.8984702E+03  0.7818609E-02  0.9427496E-01
       -2   -1    0    0    0  501  0.00000000000E+00  0.00000000000E+00  0.15082395573E+03  0.15082395575E+03  0.25500000920E-02 0. -1.
        2   -1    0    0  501    0  0.00000000000E+00  0.00000000000E+00 -0.13380645674E+04  0.13380645674E+04  0.25500000920E-02 0.  1.
    10030    2    1    2    0    0  0.00000000000E+00  0.00000000000E+00 -0.11872406117E+04  0.14888885231E+04  0.89847023567E+03 0.  0.
        3    1    3    3  502    0 -0.13279032416E+03  0.25708680605E+03 -0.24169281409E+02  0.29036366922E+03  0.10100000352E+00 0. -1.
       -3    1    3    3    0  502  0.13279032416E+03 -0.25708680605E+03 -0.11630713302E+04  0.11985248539E+04  0.10100000352E+00 0.  1.
</event>
<event>
 5   0  0.3943549E-03  0.8984884E+03  0.7818609E-02  0.9427473E-01
       -1   -1    0    0    0  501  0.00000000000E+00  0.00000000000E+00  0.20279808954E+03  0.20279808961E+03  0.50400001928E-02 0.  1.
        1   -1    0    0  501    0  0.00000000000E+00  0.00000000000E+00 -0.99517865460E+03  0.99517865461E+03  0.50400001928E-02 0. -1.
    10030    2    1    2    0    0  0.00000000000E+00  0.00000000000E+00 -0.79238056505E+03  0.11979767442E+04  0.89848835263E+03 0.  0.
        3    1    3    3  502    0  0.51432205286E+02  0.60032514076E+02 -0.98583216668E+03  0.98899658520E+03  0.10100000352E+00 0. -1.
       -3    1    3    3    0  502 -0.51432205286E+02 -0.60032514076E+02  0.19345160163E+03  0.20898015901E+03  0.10100000352E+00 0.  1.
</event>
<event>
 5   0  0.6724773E-03  0.8991963E+03  0.7818609E-02  0.9426587E-01
        2   -1    0    0  501    0  0.00000000000E+00  0.00000000000E+00  0.40294540058E+03  0.40294540059E+03  0.25500000920E-02 0. -1.
       -2   -1    0    0    0  501  0.00000000000E+00  0.00000000000E+00 -0.50165229806E+03  0.50165229807E+03  0.25500000920E-02 0.  1.
    10030    2    1    2    0    0  0.00000000000E+00  0.00000000000E+00 -0.98706897474E+02  0.90459769866E+03  0.89919627713E+03 0.  0.
        5    1    3    3  502    0 -0.21969090185E+03  0.14939963406E+03 -0.41420548809E+03  0.49211037316E+03  0.46999998093E+01 0.  1.
       -5    1    3    3    0  502  0.21969090185E+03 -0.14939963406E+03  0.31549859062E+03  0.41248732549E+03  0.46999998093E+01 0. -1.
</event>
<event>
 5   0  0.3794006E-03  0.9390825E+03  0.7818609E-02  0.9378003E-01
       -1   -1    0    0    0  501  0.00000000000E+00  0.00000000000E+00  0.22078695231E+03  0.22078695237E+03  0.50400001928E-02 0. -1.
        1   -1    0    0  501    0  0.00000000000E+00  0.00000000000E+00 -0.99855981773E+03  0.99855981775E+03  0.50400001928E-02 0.  1.
    10030    2    1    2    0    0  0.00000000000E+00  0.00000000000E+00 -0.77777286542E+03  0.12193467701E+04  0.93908248605E+03 0.  0.
        5    1    3    3  502    0  0.16359008773E+03 -0.32382462922E+03 -0.19089670923E+01  0.36283583264E+03  0.46999998093E+01 0. -1.
       -5    1    3    3    0  502 -0.16359008773E+03  0.32382462922E+03 -0.77586389833E+03  0.85651093748E+03  0.46999998093E+01 0.  1.
</event>
<event>
 5   0  0.3943549E-03  0.8945999E+03  0.7818609E-02  0.9432357E-01
       -1   -1    0    0    0  501  0.00000000000E+00  0.00000000000E+00  0.16815663047E+03  0.16815663055E+03  0.50400001928E-02 0. -1.
        1   -1    0    0  501    0  0.00000000000E+00  0.00000000000E+00 -0.11898265463E+04  0.11898265463E+04  0.50400001928E-02 0.  1.
    10030    2    1    2    0    0  0.00000000000E+00  0.00000000000E+00 -0.10216699158E+04  0.13579831768E+04  0.89459985005E+03 0.  0.
        3    1    3    3  502    0 -0.36125169213E+02 -0.21942582169E+03 -0.10999679830E+04  0.11222220337E+04  0.10100000352E+00 0.  1.
       -3    1    3    3    0  502  0.36125169213E+02  0.21942582169E+03  0.78298067223E+02  0.23576114312E+03  0.10100000352E+00 0. -1.
</event>
<event>
 5   0  0.6524705E-03  0.8990380E+03  0.7818609E-02  0.9426785E-01
       -2   -1    0    0    0  501  0.00000000000E+00  0.00000000000E+00  0.17187402431E+03  0.17187402433E+03  0.25500000920E-02 0.  1.
        2   -1    0    0  501    0  0.00000000000E+00  0.00000000000E+00 -0.11756710373E+04  0.11756710373E+04  0.25500000920E-02 0. -1.
    10030    2    1    2    0    0  0.00000000000E+00  0.00000000000E+00 -0.10037970130E+04  0.13475450617E+04  0.89903795796E+03 0.  0.
        3    1    3    3  502    0  0.11461675791E+03  0.42900890831E+03 -0.39717385391E+03  0.59576230582E+03  0.10100000352E+00 0. -1.
       -3    1    3    3    0  502 -0.11461675791E+03 -0.42900890831E+03 -0.60662315910E+03  0.75178275584E+03  0.10100000352E+00 0.  1.
</event>
<event>
 5   0  0.3969536E-03  0.9017856E+03  0.7818609E-02  0.9423352E-01
        1   -1    0    0  501    0  0.00000000000E+00  0.00000000000E+00  0.13839434582E+04  0.13839434582E+04  0.50400001928E-02 0. -1.
       -1   -1    0    0    0  501  0.00000000000E+00  0.00000000000E+00 -0.14690217314E+03  0.14690217322E+03  0.50400001928E-02 0.  1.
    10030    2    1    2    0    0  0.00000000000E+00  0.00000000000E+00  0.12370412851E+04  0.15308456315E+04  0.90178556562E+03 0.  0.
        1    1    3    3  502    0 -0.29522952986E+03 -0.33782654397E+03  0.69476131454E+03  0.82703115620E+03  0.50400001928E-02 0.  1.
       -1    1    3    3    0  502  0.29522952986E+03  0.33782654397E+03  0.54227997056E+03  0.70381447527E+03  0.50400001928E-02 0. -1.
</event>
<event>
 5   0  0.3943549E-03  0.8990609E+03  0.7818609E-02  0.9426756E-01
       -1   -1    0    0    0  501  0.00000000000E+00  0.00000000000E+00  0.45203994137E+03  0.45203994140E+03  0.50400001928E-02 0. -1.
        1   -1    0    0  501    0  0.00000000000E+00  0.00000000000E+00 -0.44703492163E+03  0.44703492166E+03  0.50400001928E-02 0.  1.
    10030    2    1    2    0    0  0.00000000000E+00  0.00000000000E+00  0.50050197405E+01  0.89907486306E+03  0.89906093184E+03 0.  0.
        3    1    3    3  502    0  0.25537761762E+03 -0.90668759078E+02 -0.35616595092E+03  0.44754077608E+03  0.10100000352E+00 0.  1.
       -3    1    3    3    0  502 -0.25537761762E+03  0.90668759078E+02  0.36117097066E+03  0.45153408698E+03  0.10100000352E+00 0. -1.
</event>
<event>
 5   0  0.3927993E-03  0.8950478E+03  0.7818609E-02  0.9431793E-01
        1   -1    0    0  501    0  0.00000000000E+00  0.00000000000E+00  0.46434248970E+03  0.46434248972E+03  0.50400001928E-02 0.  1.
       -1   -1    0    0    0  501  0.00000000000E+00  0.00000000000E+00 -0.43131448895E+03  0.43131448898E+03  0.50400001928E-02 0. -1.
    10030    2    1    2    0    0  0.00000000000E+00  0.00000000000E+00  0.33028000742E+02  0.89565697871E+03  0.89504780580E+03 0.  0.
        2    1    3    3  502    0 -0.42095012497E+03  0.10021380189E+03 -0.97738265990E+02  0.44361535416E+03  0.25500000920E-02 0. -1.
       -2    1    3    3    0  502  0.42095012497E+03 -0.10021380189E+03  0.13076626673E+03  0.45204162455E+03  0.25500000920E-02 0.  1.
</event>
<event>
 5   0  0.3794006E-03  0.9123031E+03  0.7818609E-02  0.9410331E-01
        1   -1    0    0  501    0  0.00000000000E+00  0.00000000000E+00  0.24322545547E+03  0.24322545552E+03  0.50400001928E-02 0.  1.
       -1   -1    0    0    0  501  0.00000000000E+00  0.00000000000E+00 -0.85547883917E+03  0.85547883918E+03  0.50400001928E-02 0. -1.
    10030    2    1    2    0    0  0.00000000000E+00  0.00000000000E+00 -0.61225338370E+03  0.10987042947E+04  0.91230308634E+03 0.  0.
        5    1    3    3  502    0 -0.35255391524E+03 -0.35588029850E+02 -0.65202300615E+03  0.74210299929E+03  0.46999998093E+01 0. -1.
       -5    1    3    3    0  502  0.35255391524E+03  0.35588029850E+02  0.39769622448E+02  0.35660129540E+03  0.46999998093E+01 0.  1.
</event>
<event>
 5   0  0.6534628E-03  0.8901346E+03  0.7818609E-02  0.9437998E-01
        2   -1    0    0  501    0  0.00000000000E+00  0.00000000000E+00  0.78213845659E+03  0.78213845659E+03  0.25500000920E-02 0.  1.
       -2   -1    0    0    0  501  0.00000000000E+00  0.00000000000E+00 -0.25326067147E+03  0.25326067148E+03  0.25500000920E-02 0. -1.
    10030    2    1    2    0    0  0.00000000000E+00  0.00000000000E+00  0.52887778512E+03  0.10353991281E+04  0.89013462062E+03 0.  0.
        4    1    3    3  502    0 -0.13772424655E+03  0.10916413412E+03  0.74006788397E+03  0.76064897426E+03  0.12699999809E+01 0.  1.
       -4    1    3    3    0  502  0.13772424655E+03 -0.10916413412E+03 -0.21119009885E+03  0.27475015381E+03  0.12699999809E+01 0. -1.
</event>
<event>
 5   0  0.6863405E-03  0.9124167E+03  0.7818609E-02  0.9410192E-01
       -2   -1    0    0    0  501  0.00000000000E+00  0.00000000000E+00  0.14505032169E+03  0.14505032171E+03  0.25500000920E-02 0.  1.
        2   -1    0    0  501    0  0.00000000000E+00  0.00000000000E+00 -0.14348542183E+04  0.14348542183E+04  0.25500000920E-02 0. -1.
    10030    2    1    2    0    0  0.00000000000E+00  0.00000000000E+00 -0.12898038966E+04  0.15799045400E+04  0.91241671611E+03 0.  0.
        1    1    3    3  502    0  0.20897045626E+03 -0.39623678416E+03 -0.79439713724E+03  0.91199728749E+03  0.50400001928E-02 0. -1.
       -1    1    3    3    0  502 -0.20897045626E+03  0.39623678416E+03 -0.49540675934E+03  0.66790725249E+03  0.50400001928E-02 0.  1.
</event>
<event>
 5   0  0.3998066E-03  0.8870768E+03  0.7818609E-02  0.9441882E-01
       -1   -1    0    0    0  501  0.00000000000E+00  0.00000000000E+00  0.28491738943E+03  0.28491738947E+03  0.50400001928E-02 0. -1.
        1   -1    0    0  501    0  0.00000000000E+00  0.00000000000E+00 -0.69046786088E+03  0.69046786089E+03  0.50400001928E-02 0.  1.
    10030    2    1    2    0    0  0.00000000000E+00  0.00000000000E+00 -0.40555047145E+03  0.97538525037E+03  0.88707677331E+03 0.  0.
        4    1    3    3  502    0 -0.32264700103E+03  0.29810116178E+03 -0.27019206606E+03  0.51572352612E+03  0.12699999809E+01 0.  1.
       -4    1    3    3    0  502  0.32264700103E+03 -0.29810116178E+03 -0.13535840539E+03  0.45966172425E+03  0.12699999809E+01 0. -1.
</event>
<event>
 5   0  0.6609191E-03  0.8932196E+03  0.7818609E-02  0.9434097E-01
        2   -1    0    0  501    0  0.00000000000E+00  0.00000000000E+00  0.99835326708E+03  0.99835326708E+03  0.25500000920E-02 0.  1.
       -2   -1    0    0    0  501  0.00000000000E+00  0.00000000000E+00 -0.19978930753E+03  0.19978930755E+03  0.25500000920E-02 0. -1.
    10030    2    1    2    0    0  0.00000000000E+00  0.00000000000E+00  0.79856395954E+03  0.11981425746E+04  0.89321958759E+03 0.  0.
        2    1    3    3  502    0 -0.30263410580E+03  0.11732371303E+03  0.81077611977E+03  0.87333279569E+03  0.25500000920E-02 0.  1.
       -2    1    3    3    0  502  0.30263410580E+03 -0.11732371303E+03 -0.12212160224E+02  0.32480977894E+03  0.25500000920E-02 0. -1.
</event>
<event>
 5   0  0.3794006E-03  0.9286613E+03  0.7818609E-02  0.9390446E-01
        1   -1    0    0  501    0  0.00000000000E+00  0.00000000000E+00  0.10312331057E+04  0.10312331057E+04  0.50400001928E-02 0. -1.
       -1   -1    0    0    0  501  0.00000000000E+00  0.00000000000E+00 -0.20907297341E+03  0.20907297347E+03  0.50400001928E-02 0.  1.
    10030    2    1    2    0    0  0.00000000000E+00  0.00000000000E+00  0.82216013226E+03  0.12403060791E+04  0.92866134134E+03 0.  0.
        5    1    3    3  502    0 -0.13284047388E+03 -0.20930529593E+03  0.93541509468E+03  0.96771834113E+03  0.46999998093E+01 0. -1.
       -5    1    3    3    0  502  0.13284047388E+03  0.20930529593E+03 -0.11325496242E+03  0.27258773802E+03  0.46999998093E+01 0.  1.
</event>
<event>
 5   0  0.6609191E-03  0.9033607E+03  0.7818609E-02  0.9421390E-01
        2   -1    0    0  501    0  0.00000000000E+00  0.00000000000E+00  0.67218044480E+03  0.67218044480E+03  0.25500000920E-02 0.  1.
       -2   -1    0    0    0  501  0.00000000000E+00  0.00000000000E+00 -0.30351245947E+03  0.30351245948E+03  0.25500000920E-02 0. -1.
    10030    2    1    2    0    0  0.00000000000E+00  0.00000000000E+00  0.36866798533E+03  0.97569290428E+03  0.90336070318E+03 0.  0.
        2    1    3    3  502    0 -0.65574135385E+02 -0.21839836912E+03  0.60544684410E+03  0.64696498816E+03  0.25500000920E-02 0.  1.
       -2    1    3    3    0  502  0.65574135385E+02  0.21839836912E+03 -0.23677885877E+03  0.32872791612E+03  0.25500000920E-02 0. -1.
</event>
<event>
 5   0  0.3998066E-03  0.8942593E+03  0.7818609E-02  0.9432786E-01
        1   -1    0    0  501    0  0.00000000000E+00  0.00000000000E+00  0.52111632951E+03  0.52111632954E+03  0.50400001928E-02 0. -1.
       -1   -1    0    0    0  501  0.00000000000E+00  0.00000000000E+00 -0.38364743054E+03  0.38364743058E+03  0.50400001928E-02 0.  1.
    10030    2    1    2    0    0  0.00000000000E+00  0.00000000000E+00  0.13746889897E+03  0.90476376011E+03  0.89425933790E+03 0.  0.
        4    1    3    3  502    0 -0.32160395286E+03  0.65253356178E+02 -0.23853718670E+03  0.40569533560E+03  0.12699999809E+01 0.  1.
       -4    1    3    3    0  502  0.32160395286E+03 -0.65253356178E+02  0.37600608567E+03  0.49906842451E+03  0.12699999809E+01 0. -1.
</event>
<event>
 5   0  0.3927993E-03  0.9264848E+03  0.7818609E-02  0.9393067E-01
        1   -1    0    0  501    0  0.00000000000E+00  0.00000000000E+00  0.74599754794E+03  0.74599754796E+03  0.50400001928E-02 0.  1.
       -1   -1    0    0    0  501  0.00000000000E+00  0.00000000000E+00 -0.28765979364E+03  0.28765979368E+03  0.50400001928E-02 0. -1.
    10030    2    1    2    0    0  0.00000000000E+00  0.00000000000E+00  0.45833775430E+03  0.10336573416E+04  0.92648475590E+03 0.  0.
        2    1    3    3  502    0  0.29633282738E+01 -0.26825707345E+03 -0.19217131515E+03  0.33000068658E+03  0.25500000920E-02 0. -1.
       -2    1    3    3    0  502 -0.29633282738E+01  0.26825707345E+03  0.65050906945E+03  0.70365665506E+03  0.25500000920E-02 0.  1.
</event>
<event>
 5   0  0.3927993E-03  0.8968648E+03  0.7818609E-02  0.9429509E-01
        1   -1    0    0  501    0  0.00000000000E+00  0.00000000000E+00  0.50548166441E+03  0.50548166444E+03  0.50400001928E-02 0. -1.
       -1   -1    0    0    0  501  0.00000000000E+00  0.00000000000E+00 -0.39782181659E+03  0.39782181662E+03  0.50400001928E-02 0.  1.
    10030    2    1    2    0    0  0.00000000000E+00  0.00000000000E+00  0.10765984782E+03  0.90330348106E+03  0.89686483712E+03 0.  0.
        2    1    3    3  502    0 -0.32599429970E+03  0.10371242963E+02 -0.25613225428E+03  0.41470902788E+03  0.25500000920E-02 0.  1.
       -2    1    3    3    0  502  0.32599429970E+03 -0.10371242963E+02  0.36379210210E+03  0.48859445318E+03  0.25500000920E-02 0. -1.
</event>
<event>
 5   0  0.6609191E-03  0.8987272E+03  0.7818609E-02  0.9427174E-01
        2   -1    0    0  501    0  0.00000000000E+00  0.00000000000E+00  0.50887447851E+03  0.50887447851E+03  0.25500000920E-02 0. -1.
       -2   -1    0    0    0  501  0.00000000000E+00  0.00000000000E+00 -0.39681226360E+03  0.39681226361E+03  0.25500000920E-02 0.  1.
    10030    2    1    2    0    0  0.00000000000E+00  0.00000000000E+00  0.11206221490E+03  0.90568674212E+03  0.89872717487E+03 0.  0.
        2    1    3    3  502    0 -0.26121817039E+03  0.27194121192E+03  0.30234290394E+03  0.48331996323E+03  0.25500000920E-02 0.  1.
       -2    1    3    3    0  502  0.26121817039E+03 -0.27194121192E+03 -0.19028068904E+03  0.42236677889E+03  0.25500000920E-02 0. -1.
</event>
<event>
 5   0  0.2560250E-03  0.8921855E+03  0.7818609E-02  0.9435403E-01
       -3   -1    0    0    0  501  0.00000000000E+00  0.00000000000E+00  0.85980949645E+03  0.85980950238E+03  0.10100000352E+00 0. -1.
        3   -1    0    0  501    0  0.00000000000E+00  0.00000000000E+00 -0.23144512789E+03  0.23144514993E+03  0.10100000352E+00 0.  1.
    10030    2    1    2    0    0  0.00000000000E+00  0.00000000000E+00  0.62836436856E+03  0.10912546523E+04  0.89218548324E+03 0.  0.
        2    1    3    3  502    0 -0.21782741143E+03 -0.20767161562E+03  0.71692756694E+03  0.77753547658E+03  0.25500000920E-02 0. -1.
       -2    1    3    3    0  502  0.21782741143E+03  0.20767161562E+03 -0.88563198375E+02  0.31371917573E+03  0.25500000920E-02 0.  1.
</event>
<event>
 5   0  0.6724773E-03  0.9181231E+03  0.7818609E-02  0.9403206E-01
        2   -1    0    0  501    0  0.00000000000E+00  0.00000000000E+00  0.12430950645E+04  0.12430950645E+04  0.25500000920E-02 0. -1.
       -2   -1    0    0    0  501  0.00000000000E+00  0.00000000000E+00 -0.16952644324E+03  0.16952644326E+03  0.25500000920E-02 0.  1.
    10030    2    1    2    0    0  0.00000000000E+00  0.00000000000E+00  0.10735686212E+04  0.14126215077E+04  0.91812305254E+03 0.  0.
        5    1    3    3  502    0 -0.22984324289E+03  0.39346406791E+03  0.62208291887E+03  0.77113626357E+03  0.46999998093E+01 0. -1.
       -5    1    3    3    0  502  0.22984324289E+03 -0.39346406791E+03  0.45148570236E+03  0.64148524416E+03  0.46999998093E+01 0.  1.
</event>
<event>
 5   0  0.6724773E-03  0.9020669E+03  0.7818609E-02  0.9423001E-01
       -2   -1    0    0    0  501  0.00000000000E+00  0.00000000000E+00  0.76821616820E+02  0.76821616863E+02  0.25500000920E-02 0.  1.
        2   -1    0    0  501    0  0.00000000000E+00  0.00000000000E+00 -0.26480978125E+04  0.26480978125E+04  0.25500000920E-02 0. -1.
    10030    2    1    2    0    0  0.00000000000E+00  0.00000000000E+00 -0.25712761957E+04  0.27249194294E+04  0.90206686119E+03 0.  0.
        5    1    3    3  502    0 -0.33932693370E+03  0.23193633358E+02 -0.39092267260E+03  0.51819237598E+03  0.46999998093E+01 0.  1.
       -5    1    3    3    0  502  0.33932693370E+03 -0.23193633358E+02 -0.21803535231E+04  0.22067270534E+04  0.46999998093E+01 0. -1.
</event>
<event>
 5   0  0.6534628E-03  0.9013314E+03  0.7818609E-02  0.9423919E-01
        2   -1    0    0  501    0  0.00000000000E+00  0.00000000000E+00  0.69539735388E+03  0.69539735389E+03  0.25500000920E-02 0.  1.
       -2   -1    0    0    0  501  0.00000000000E+00  0.00000000000E+00 -0.29206261589E+03  0.29206261590E+03  0.25500000920E-02 0. -1.
    10030    2    1    2    0    0  0.00000000000E+00  0.00000000000E+00  0.40333473799E+03  0.98745996978E+03  0.90133139358E+03 0.  0.
        4    1    3    3  502    0  0.21640246601E+03  0.14442845809E+00  0.63474913777E+03  0.67062517769E+03  0.12699999809E+01 0.  1.
       -4    1    3    3    0  502 -0.21640246601E+03 -0.14442845809E+00 -0.23141439978E+03  0.31683479209E+03  0.12699999809E+01 0. -1.
</event>
<event>
 5   0  0.3998066E-03  0.9005766E+03  0.7818609E-02  0.9424861E-01
        1   -1    0    0  501    0  0.00000000000E+00  0.00000000000E+00  0.34938008880E+03  0.34938008883E+03  0.50400001928E-02 0.  1.
       -1   -1    0    0    0  501  0.00000000000E+00  0.00000000000E+00 -0.58034089100E+03  0.58034089102E+03  0.50400001928E-02 0. -1.
    10030    2    1    2    0    0  0.00000000000E+00  0.00000000000E+00 -0.23096080220E+03  0.92972097985E+03  0.90057659764E+03 0.  0.
        4    1    3    3  502    0 -0.47439813411E+02  0.37380157096E+03 -0.36999433717E+03  0.52808670953E+03  0.12699999809E+01 0.  1.
       -4    1    3    3    0  502  0.47439813411E+02 -0.37380157096E+03  0.13903353497E+03  0.40163427032E+03  0.12699999809E+01 0. -1.
</event>
<event>
 5   0  0.3927993E-03  0.8791609E+03  0.7818609E-02  0.9452013E-01
        1   -1    0    0  501    0  0.00000000000E+00  0.00000000000E+00  0.29987800480E+03  0.29987800485E+03  0.50400001928E-02 0. -1.
       -1   -1    0    0    0  501  0.00000000000E+00  0.00000000000E+00 -0.64436520207E+03  0.64436520209E+03  0.50400001928E-02 0.  1.
    10030    2    1    2    0    0  0.00000000000E+00  0.00000000000E+00 -0.34448719727E+03  0.94424320694E+03  0.87916085261E+03 0.  0.
        2    1    3    3  502    0 -0.17699417844E+03 -0.16632886692E+03 -0.56575238044E+03  0.61568497395E+03  0.25500000920E-02 0.  1.
       -2    1    3    3    0  502  0.17699417844E+03  0.16632886692E+03  0.22126518317E+03  0.32855823299E+03  0.25500000920E-02 0. -1.
</event>
<event>
 5   0  0.6609191E-03  0.9026921E+03  0.7818609E-02  0.9422222E-01
        2   -1    0    0  501    0  0.00000000000E+00  0.00000000000E+00  0.58305402943E+03  0.58305402944E+03  0.25500000920E-02 0. -1.
       -2   -1    0    0    0  501  0.00000000000E+00  0.00000000000E+00 -0.34939004450E+03  0.34939004451E+03  0.25500000920E-02 0.  1.
    10030    2    1    2    0    0  0.00000000000E+00  0.00000000000E+00  0.23366398494E+03  0.93244407394E+03  0.90269213643E+03 0.  0.
        2    1    3    3  502    0 -0.14653122921E+03  0.20887837139E+01 -0.32413087430E+03  0.35571981648E+03  0.25500000920E-02 0.  1.
       -2    1    3    3    0  502  0.14653122921E+03 -0.20887837139E+01  0.55779485924E+03  0.57672425747E+03  0.25500000920E-02 0. -1.
</event>
<event>
 5   0  0.3927993E-03  0.8975931E+03  0.7818609E-02  0.9428595E-01
       -1   -1    0    0    0  501  0.00000000000E+00  0.00000000000E+00  0.43417748649E+03  0.43417748652E+03  0.50400001928E-02 0.  1.
        1   -1    0    0  501    0  0.00000000000E+00  0.00000000000E+00 -0.46390786676E+03  0.46390786678E+03  0.50400001928E-02 0. -1.
    10030    2    1    2    0    0  0.00000000000E+00  0.00000000000E+00 -0.29730380263E+02  0.89808535331E+03  0.89759311846E+03 0.  0.
        2    1    3    3  502    0 -0.78624086381E+02  0.86548206825E+02  0.41866910680E+03  0.43469087873E+03  0.25500000920E-02 0.  1.
       -2    1    3    3    0  502  0.78624086381E+02 -0.86548206825E+02 -0.44839948706E+03  0.46339447457E+03  0.25500000920E-02 0. -1.
</event>
<event>
 5   0  0.6524705E-03  0.8965777E+03  0.7818609E-02  0.9429870E-01
        2   -1    0    0  501    0  0.00000000000E+00  0.00000000000E+00  0.64282953215E+03  0.64282953215E+03  0.25500000920E-02 0.  1.
       -2   -1    0    0    0  501  0.00000000000E+00  0.00000000000E+00 -0.31262236852E+03  0.31262236853E+03  0.25500000920E-02 0. -1.
    10030    2    1    2    0    0  0.00000000000E+00  0.00000000000E+00  0.33020716363E+03  0.95545190068E+03  0.89657769524E+03 0.  0.
        3    1    3    3  502    0 -0.14663325572E+03 -0.54661179109E+02  0.61277660454E+03  0.63244314643E+03  0.10100000352E+00 0.  1.
       -3    1    3    3    0  502  0.14663325572E+03  0.54661179109E+02 -0.28256944091E+03  0.32300875425E+03  0.10100000352E+00 0. -1.
</event>
<event>
 5   0  0.6724773E-03  0.9044577E+03  0.7818609E-02  0.9420026E-01
       -2   -1    0    0    0  501  0.00000000000E+00  0.00000000000E+00  0.85396770606E+03  0.85396770606E+03  0.25500000920E-02 0. -1.
        2   -1    0    0  501    0  0.00000000000E+00  0.00000000000E+00 -0.23948322644E+03  0.23948322645E+03  0.25500000920E-02 0.  1.
    10030    2    1    2    0    0  0.00000000000E+00  0.00000000000E+00  0.61448447962E+03  0.10934509325E+04  0.90445771937E+03 0.  0.
        5    1    3    3  502    0  0.18589599495E+03 -0.25655385251E+03  0.69732853902E+03  0.76594150005E+03  0.46999998093E+01 0. -1.
       -5    1    3    3    0  502 -0.18589599495E+03  0.25655385251E+03 -0.82844059397E+02  0.32750943247E+03  0.46999998093E+01 0.  1.
</event>
<event>
 5   0  0.3794006E-03  0.8985373E+03  0.7818609E-02  0.9427412E-01
        1   -1    0    0  501    0  0.00000000000E+00  0.00000000000E+00  0.29066285727E+03  0.29066285732E+03  0.50400001928E-02 0. -1.
       -1   -1    0    0    0  501  0.00000000000E+00  0.00000000000E+00 -0.69442070149E+03  0.69442070151E+03  0.50400001928E-02 0.  1.
    10030    2    1    2    0    0  0.00000000000E+00  0.00000000000E+00 -0.40375784421E+03  0.98508355882E+03  0.89853726751E+03 0.  0.
        5    1    3    3  502    0  0.22768972272E+03 -0.27728592396E+03 -0.49827081411E+03  0.61402441942E+03  0.46999998093E+01 0.  1.
       -5    1    3    3    0  502 -0.22768972272E+03  0.27728592396E+03  0.94512969893E+02  0.37105913940E+03  0.46999998093E+01 0. -1.
</event>
<event>
 5   0  0.3943549E-03  0.8970246E+03  0.7818609E-02  0.9429308E-01
        1   -1    0    0  501    0  0.00000000000E+00  0.00000000000E+00  0.46385272861E+03  0.46385272863E+03  0.50400001928E-02 0. -1.
       -1   -1    0    0    0  501  0.00000000000E+00  0.00000000000E+00 -0.43367921915E+03  0.43367921918E+03  0.50400001928E-02 0.  1.
    10030    2    1    2    0    0  0.00000000000E+00  0.00000000000E+00  0.30173509454E+02  0.89753194781E+03  0.89702461319E+03 0.  0.
        3    1    3    3  502    0 -0.21838269548E+03  0.86832519185E+01  0.40696740281E+03  0.46194033998E+03  0.10100000352E+00 0. -1.
       -3    1    3    3    0  502  0.21838269548E+03 -0.86832519185E+01 -0.37679389335E+03  0.43559160784E+03  0.10100000352E+00 0.  1.
</event>
<event>
 5   0  0.6524705E-03  0.9059285E+03  0.7818609E-02  0.9418201E-01
        2   -1    0    0  501    0  0.00000000000E+00  0.00000000000E+00  0.99264755433E+03  0.99264755434E+03  0.25500000920E-02 0.  1.
       -2   -1    0    0    0  501  0.00000000000E+00  0.00000000000E+00 -0.20669634219E+03  0.20669634220E+03  0.25500000920E-02 0. -1.
    10030    2    1    2    0    0  0.00000000000E+00  0.00000000000E+00  0.78595121215E+03  0.11993438965E+04  0.90592851500E+03 0.  0.
        3    1    3    3  502    0  0.64587328698E+02 -0.20364110513E+02  0.98590756478E+03  0.98823072029E+03  0.10100000352E+00 0.  1.
       -3    1    3    3    0  502 -0.64587328698E+02  0.20364110513E+02 -0.19995635264E+03  0.21111317625E+03  0.10100000352E+00 0. -1.
</event>
<event>
 5   0  0.6863405E-03  0.8971364E+03  0.7818609E-02  0.9429168E-01
        2   -1    0    0  501    0  0.00000000000E+00  0.00000000000E+00  0.18800462783E+04  0.18800462783E+04  0.25500000920E-02 0.  1.
       -2   -1    0    0    0  501  0.00000000000E+00  0.00000000000E+00 -0.10702579639E+03  0.10702579642E+03  0.25500000920E-02 0. -1.
    10030    2    1    2    0    0  0.00000000000E+00  0.00000000000E+00  0.17730204819E+04  0.19870720747E+04  0.89713644497E+03 0.  0.
        1    1    3    3  502    0 -0.18744278091E+03  0.74427860658E+02  0.17739637210E+04  0.17853911577E+04  0.50400001928E-02 0.  1.
       -1    1    3    3    0  502  0.18744278091E+03 -0.74427860658E+02 -0.94323911184E+00  0.20168091701E+03  0.50400001928E-02 0. -1.
</event>
<event>
 5   0  0.6863405E-03  0.8979695E+03  0.7818609E-02  0.9428123E-01
        2   -1    0    0  501    0  0.00000000000E+00  0.00000000000E+00  0.99701620802E+03  0.99701620802E+03  0.25500000920E-02 0. -1.
       -2   -1    0    0    0  501  0.00000000000E+00  0.00000000000E+00 -0.20219059668E+03  0.20219059669E+03  0.25500000920E-02 0.  1.
    10030    2    1    2    0    0  0.00000000000E+00  0.00000000000E+00  0.79482561134E+03  0.11992068047E+04  0.89796949170E+03 0.  0.
        1    1    3    3  502    0  0.13498604638E+02 -0.44644789200E+03  0.45845640251E+03  0.64006265758E+03  0.50400001928E-02 0.  1.
       -1    1    3    3    0  502 -0.13498604638E+02  0.44644789200E+03  0.33636920883E+03  0.55914414713E+03  0.50400001928E-02 0. -1.
</event>
<event>
 5   0  0.6609191E-03  0.8982046E+03  0.7818609E-02  0.9427829E-01
        2   -1    0    0  501    0  0.00000000000E+00  0.00000000000E+00  0.43018329496E+03  0.43018329497E+03  0.25500000920E-02 0. -1.
       -2   -1    0    0    0  501  0.00000000000E+00  0.00000000000E+00 -0.46885333208E+03  0.46885333208E+03  0.25500000920E-02 0.  1.
    10030    2    1    2    0    0  0.00000000000E+00  0.00000000000E+00 -0.38670037120E+02  0.89903662705E+03  0.89820458973E+03 0.  0.
        2    1    3    3  502    0  0.17243385717E+03 -0.28113050894E+03 -0.32445353998E+03  0.46264230002E+03  0.25500000920E-02 0.  1.
       -2    1    3    3    0  502 -0.17243385717E+03  0.28113050894E+03  0.28578350286E+03  0.43639432703E+03  0.25500000920E-02 0. -1.
</event>
<event>
 5   0  0.3969536E-03  0.8940681E+03  0.7818609E-02  0.9433027E-01
       -1   -1    0    0    0  501  0.00000000000E+00  0.00000000000E+00  0.11006098774E+04  0.11006098774E+04  0.50400001928E-02 0. -1.
        1   -1    0    0  501    0  0.00000000000E+00  0.00000000000E+00 -0.18157156690E+03  0.18157156697E+03  0.50400001928E-02 0.  1.
    10030    2    1    2    0    0  0.00000000000E+00  0.00000000000E+00  0.91903831054E+03  0.12821814444E+04  0.89406814067E+03 0.  0.
        1    1    3    3  502    0 -0.40030346990E+03  0.95383912056E+02  0.20907083832E+03  0.46157510132E+03  0.50400001928E-02 0.  1.
       -1    1    3    3    0  502  0.40030346990E+03 -0.95383912056E+02  0.70996747222E+03  0.82060634310E+03  0.50400001928E-02 0. -1.
</event>
<event>
 5   0  0.6863405E-03  0.9014760E+03  0.7818609E-02  0.9423738E-01
        2   -1    0    0  501    0  0.00000000000E+00  0.00000000000E+00  0.69510955268E+03  0.69510955268E+03  0.25500000920E-02 0.  1.
       -2   -1    0    0    0  501  0.00000000000E+00  0.00000000000E+00 -0.29227733390E+03  0.29227733391E+03  0.25500000920E-02 0. -1.
    10030    2    1    2    0    0  0.00000000000E+00  0.00000000000E+00  0.40283221878E+03  0.98738688660E+03  0.90147604923E+03 0.  0.
        1    1    3    3  502    0 -0.25366237035E+03 -0.89806551710E+02  0.59747725114E+03  0.65527771251E+03  0.50400001928E-02 0.  1.
       -1    1    3    3    0  502  0.25366237035E+03  0.89806551710E+02 -0.19464503236E+03  0.33210917408E+03  0.50400001928E-02 0. -1.
</event>
<event>
 5   0  0.6534628E-03  0.8986046E+03  0.7818609E-02  0.9427327E-01
        2   -1    0    0  501    0  0.00000000000E+00  0.00000000000E+00  0.15429698502E+03  0.15429698504E+03  0.25500000920E-02 0. -1.
       -2   -1    0    0    0  501  0.00000000000E+00  0.00000000000E+00 -0.13083375645E+04  0.13083375645E+04  0.25500000920E-02 0.  1.
    10030    2    1    2    0    0  0.00000000000E+00  0.00000000000E+00 -0.11540405795E+04  0.14626345495E+04  0.89860456620E+03 0.  0.
        4    1    3    3  502    0 -0.24972881312E+03  0.58417760062E+02 -0.11774834937E+04  0.12050917416E+04  0.12699999809E+01 0.  1.
       -4    1    3    3    0  502  0.24972881312E+03 -0.58417760062E+02  0.23442914239E+02  0.25754280793E+03  0.12699999809E+01 0. -1.
</event>
<event>
 5   0  0.6524705E-03  0.8999189E+03  0.7818609E-02  0.9425683E-01
       -2   -1    0    0    0  501  0.00000000000E+00  0.00000000000E+00  0.61591941313E+03  0.61591941313E+03  0.25500000920E-02 0. -1.
        2   -1    0    0  501    0  0.00000000000E+00  0.00000000000E+00 -0.32871752559E+03  0.32871752560E+03  0.25500000920E-02 0.  1.
    10030    2    1    2    0    0  0.00000000000E+00  0.00000000000E+00  0.28720188754E+03  0.94463693873E+03  0.89991889735E+03 0.  0.
        3    1    3    3  502    0  0.31889113410E+03  0.15772092930E+03 -0.14558097460E+03  0.38439729098E+03  0.10100000352E+00 0.  1.
       -3    1    3    3    0  502 -0.31889113410E+03 -0.15772092930E+03  0.43278286214E+03  0.56023964775E+03  0.10100000352E+00 0. -1.
</event>
<event>
 5   0  0.3794006E-03  0.8990296E+03  0.7818609E-02  0.9426795E-01
       -1   -1    0    0    0  501  0.00000000000E+00  0.00000000000E+00  0.24980448171E+03  0.24980448176E+03  0.50400001928E-02 0.  1.
        1   -1    0    0  501    0  0.00000000000E+00  0.00000000000E+00 -0.80888682238E+03  0.80888682240E+03  0.50400001928E-02 0. -1.
    10030    2    1    2    0    0  0.00000000000E+00  0.00000000000E+00 -0.55908234068E+03  0.10586913042E+04  0.89902959564E+03 0.  0.
        5    1    3    3  502    0 -0.45188615257E+02 -0.27005010582E+03  0.14023807377E+03  0.30766520430E+03  0.46999998093E+01 0.  1.
       -5    1    3    3    0  502  0.45188615257E+02  0.27005010582E+03 -0.69932041445E+03  0.75102609986E+03  0.46999998093E+01 0. -1.
</event>
<event>
 5   0  0.2560250E-03  0.8974021E+03  0.7818609E-02  0.9428835E-01
       -4   -1    0    0    0  501  0.00000000000E+00  0.00000000000E+00  0.16115509378E+03  0.16116009789E+03  0.12699999809E+01 0. -1.
        4   -1    0    0  501    0  0.00000000000E+00  0.00000000000E+00 -0.12492851602E+04  0.12492858057E+04  0.12699999809E+01 0.  1.
    10030    2    1    2    0    0  0.00000000000E+00  0.00000000000E+00 -0.10881300664E+04  0.14104459036E+04  0.89740214262E+03 0.  0.
        5    1    3    3  502    0  0.12818682567E+03 -0.25944897041E+02 -0.12186252132E+04  0.12256322859E+04  0.46999998093E+01 0.  1.
       -5    1    3    3    0  502 -0.12818682567E+03  0.25944897041E+02  0.13049514680E+03  0.18481361772E+03  0.46999998093E+01 0. -1.
</event>
<event>
 5   0  0.6863405E-03  0.8991571E+03  0.7818609E-02  0.9426636E-01
        2   -1    0    0  501    0  0.00000000000E+00  0.00000000000E+00  0.20307308380E+03  0.20307308381E+03  0.25500000920E-02 0. -1.
       -2   -1    0    0    0  501  0.00000000000E+00  0.00000000000E+00 -0.99531094902E+03  0.99531094903E+03  0.25500000920E-02 0.  1.
    10030    2    1    2    0    0  0.00000000000E+00  0.00000000000E+00 -0.79223786523E+03  0.11983840328E+04  0.89915708031E+03 0.  0.
        1    1    3    3  502    0  0.26553803173E+03  0.26179964961E+03 -0.73083498932E+03  0.82046894181E+03  0.50400001928E-02 0.  1.
       -1    1    3    3    0  502 -0.26553803173E+03 -0.26179964961E+03 -0.61402875903E+02  0.37791509103E+03  0.50400001928E-02 0. -1.
</event>
<event>
 5   0  0.6534628E-03  0.9173263E+03  0.7818609E-02  0.9404178E-01
        2   -1    0    0  501    0  0.00000000000E+00  0.00000000000E+00  0.12868270970E+04  0.12868270970E+04  0.25500000920E-02 0.  1.
       -2   -1    0    0    0  501  0.00000000000E+00  0.00000000000E+00 -0.16348107112E+03  0.16348107114E+03  0.25500000920E-02 0. -1.
    10030    2    1    2    0    0  0.00000000000E+00  0.00000000000E+00  0.11233460259E+04  0.14503081681E+04  0.91732627167E+03 0.  0.
        4    1    3    3  502    0  0.16227435919E+03 -0.17681485177E+03 -0.56287751313E+02  0.24650838385E+03  0.12699999809E+01 0. -1.
       -4    1    3    3    0  502 -0.16227435919E+03  0.17681485177E+03  0.11796337772E+04  0.12037997843E+04  0.12699999809E+01 0.  1.
</event>
<event>
 5   0  0.6524705E-03  0.9097855E+03  0.7818609E-02  0.9413431E-01
        2   -1    0    0  501    0  0.00000000000E+00  0.00000000000E+00  0.10699879488E+04  0.10699879488E+04  0.25500000920E-02 0.  1.
       -2   -1    0    0    0  501  0.00000000000E+00  0.00000000000E+00 -0.19339230097E+03  0.19339230098E+03  0.25500000920E-02 0. -1.
    10030    2    1    2    0    0  0.00000000000E+00  0.00000000000E+00  0.87659564779E+03  0.12633802497E+04  0.90978553831E+03 0.  0.
        3    1    3    3  502    0  0.29467187003E+03  0.34057399481E+03  0.52727233608E+03  0.69342503814E+03  0.10100000352E+00 0.  1.
       -3    1    3    3    0  502 -0.29467187003E+03 -0.34057399481E+03  0.34932331171E+03  0.56995521160E+03  0.10100000352E+00 0. -1.
</event>
<event>
 5   0  0.3969536E-03  0.8969302E+03  0.7818609E-02  0.9429427E-01
       -1   -1    0    0    0  501  0.00000000000E+00  0.00000000000E+00  0.16557980986E+03  0.16557980993E+03  0.50400001928E-02 0.  1.
        1   -1    0    0  501    0  0.00000000000E+00  0.00000000000E+00 -0.12146466199E+04  0.12146466199E+04  0.50400001928E-02 0. -1.
    10030    2    1    2    0    0  0.00000000000E+00  0.00000000000E+00 -0.10490668101E+04  0.13802264299E+04  0.89693022344E+03 0.  0.
        1    1    3    3  502    0  0.20911641325E+02  0.29905850012E+03 -0.10377930852E+04  0.10802257963E+04  0.50400001928E-02 0. -1.
       -1    1    3    3    0  502 -0.20911641325E+02 -0.29905850012E+03 -0.11273724843E+02  0.30000063356E+03  0.50400001928E-02 0.  1.
</event>
<event>
 5   0  0.6609191E-03  0.9004385E+03  0.7818609E-02  0.9425033E-01
       -2   -1    0    0    0  501  0.00000000000E+00  0.00000000000E+00  0.24866960899E+03  0.24866960900E+03  0.25500000920E-02 0.  1.
        2   -1    0    0  501    0  0.00000000000E+00  0.00000000000E+00 -0.81512724812E+03  0.81512724812E+03  0.25500000920E-02 0. -1.
    10030    2    1    2    0    0  0.00000000000E+00  0.00000000000E+00 -0.56645763913E+03  0.10637968571E+04  0.90043850223E+03 0.  0.
        2    1    3    3  502    0  0.19382018220E+02 -0.43624901185E+03 -0.41269288121E+03  0.60083631479E+03  0.25500000920E-02 0.  1.
       -2    1    3    3    0  502 -0.19382018220E+02  0.43624901185E+03 -0.15376475792E+03  0.46296054233E+03  0.25500000920E-02 0. -1.
</event>
<event>
 5   0  0.3969536E-03  0.9011088E+03  0.7818609E-02  0.9424196E-01
       -1   -1    0    0    0  501  0.00000000000E+00  0.00000000000E+00  0.62191392116E+03  0.62191392118E+03  0.50400001928E-02 0. -1.
        1   -1    0    0  501    0  0.00000000000E+00  0.00000000000E+00 -0.32641057911E+03  0.32641057915E+03  0.50400001928E-02 0.  1.
    10030    2    1    2    0    0  0.00000000000E+00  0.00000000000E+00  0.29550334205E+03  0.94832450033E+03  0.90110883514E+03 0.  0.
        1    1    3    3  502    0 -0.50939165764E+02  0.40997087893E+03  0.33697364985E+03  0.53312490178E+03  0.50400001928E-02 0.  1.
       -1    1    3    3    0  502  0.50939165764E+02 -0.40997087893E+03 -0.41470307801E+02  0.41519959855E+03  0.50400001928E-02 0. -1.
</event>
<event>
 5   0  0.3927993E-03  0.9023058E+03  0.7818609E-02  0.9422704E-01
        1   -1    0    0  501    0  0.00000000000E+00  0.00000000000E+00  0.60998322256E+03  0.60998322258E+03  0.50400001928E-02 0. -1.
       -1   -1    0    0    0  501  0.00000000000E+00  0.00000000000E+00 -0.33367957254E+03  0.33367957258E+03  0.50400001928E-02 0.  1.
    10030    2    1    2    0    0  0.00000000000E+00  0.00000000000E+00  0.27630365002E+03  0.94366279516E+03  0.90230580402E+03 0.  0.
        2    1    3    3  502    0  0.27194932689E+03 -0.12523967076E+03  0.49110755269E+03  0.57517652929E+03  0.25500000920E-02 0. -1.
       -2    1    3    3    0  502 -0.27194932689E+03  0.12523967076E+03 -0.21480390268E+03  0.36848626587E+03  0.25500000920E-02 0.  1.
</event>
<event>
 5   0  0.6724773E-03  0.9005340E+03  0.7818609E-02  0.9424914E-01
       -2   -1    0    0    0  501  0.00000000000E+00  0.00000000000E+00  0.26611878586E+03  0.26611878587E+03  0.25500000920E-02 0.  1.
        2   -1    0    0  501    0  0.00000000000E+00  0.00000000000E+00 -0.76184165908E+03  0.76184165909E+03  0.25500000920E-02 0. -1.
    10030    2    1    2    0    0  0.00000000000E+00  0.00000000000E+00 -0.49572287322E+03  0.10279604450E+04  0.90053401344E+03 0.  0.
        5    1    3    3  502    0  0.14624682434E+03  0.39927889772E+03 -0.78909593130E+02  0.43250501232E+03  0.46999998093E+01 0.  1.
       -5    1    3    3    0  502 -0.14624682434E+03 -0.39927889772E+03 -0.41681328009E+03  0.59545543264E+03  0.46999998093E+01 0. -1.
</event>
<event>
 5   0  0.3969536E-03  0.8990859E+03  0.7818609E-02  0.9426725E-01
        1   -1    0    0  501    0  0.00000000000E+00  0.00000000000E+00  0.34930282650E+03  0.34930282653E+03  0.50400001928E-02 0.  1.
       -1   -1    0    0    0  501  0.00000000000E+00  0.00000000000E+00 -0.57854919504E+03  0.57854919507E+03  0.50400001928E-02 0. -1.
    10030    2    1    2    0    0  0.00000000000E+00  0.00000000000E+00 -0.22924636855E+03  0.92785202160E+03  0.89908591163E+03 0.  0.
        1    1    3    3  502    0  0.29561235811E+03 -0.14371215846E+03  0.20186292930E+03  0.38573111491E+03  0.50400001928E-02 0.  1.
       -1    1    3    3    0  502 -0.29561235811E+03  0.14371215846E+03 -0.43110929785E+03  0.54212090669E+03  0.50400001928E-02 0. -1.
</event>
<event>
 5   0  0.6534628E-03  0.8912193E+03  0.7818609E-02  0.9436625E-01
       -2   -1    0    0    0  501  0.00000000000E+00  0.00000000000E+00  0.51609593381E+03  0.51609593382E+03  0.25500000920E-02 0. -1.
        2   -1    0    0  501    0  0.00000000000E+00  0.00000000000E+00 -0.38475006773E+03  0.38475006774E+03  0.25500000920E-02 0.  1.
    10030    2    1    2    0    0  0.00000000000E+00  0.00000000000E+00  0.13134586609E+03  0.90084600156E+03  0.89121926706E+03 0.  0.
        4    1    3    3  502    0 -0.33800460047E+03  0.77338497298E+02 -0.21723958973E+03  0.40917356384E+03  0.12699999809E+01 0.  1.
       -4    1    3    3    0  502  0.33800460047E+03 -0.77338497298E+02  0.34858545581E+03  0.49167243771E+03  0.12699999809E+01 0. -1.
</event>
<event>
 5   0  0.2560250E-03  0.9000307E+03  0.7818609E-02  0.9425543E-01
        3   -1    0    0  501    0  0.00000000000E+00  0.00000000000E+00  0.20936545578E+04  0.20936545603E+04  0.10100000352E+00 0. -1.
       -3   -1    0    0    0  501  0.00000000000E+00  0.00000000000E+00 -0.96727403795E+02  0.96727456526E+02  0.10100000352E+00 0.  1.
    10030    2    1    2    0    0  0.00000000000E+00  0.00000000000E+00  0.19969271540E+04  0.21903820168E+04  0.90003073335E+03 0.  0.
        2    1    3    3  502    0  0.34651856486E+03 -0.22325698446E+03  0.14378415090E+04  0.14957630166E+04  0.25500000920E-02 0. -1.
       -2    1    3    3    0  502 -0.34651856486E+03  0.22325698446E+03  0.55908564507E+03  0.69461900020E+03  0.25500000920E-02 0.  1.
</event>
<event>
 5   0  0.6524705E-03  0.9061347E+03  0.7818609E-02  0.9417945E-01
        2   -1    0    0  501    0  0.00000000000E+00  0.00000000000E+00  0.14169239223E+04  0.14169239223E+04  0.25500000920E-02 0.  1.
       -2   -1    0    0    0  501  0.00000000000E+00  0.00000000000E+00 -0.14487017120E+03  0.14487017122E+03  0.25500000920E-02 0. -1.
    10030    2    1    2    0    0  0.00000000000E+00  0.00000000000E+00  0.12720537511E+04  0.15617940936E+04  0.90613467260E+03 0.  0.
        3    1    3    3  502    0 -0.66646963424E+02 -0.42879165912E+03  0.86052847125E+03  0.96374963798E+03  0.10100000352E+00 0.  1.
       -3    1    3    3    0  502  0.66646963424E+02  0.42879165912E+03  0.41152527989E+03  0.59804445558E+03  0.10100000352E+00 0. -1.
</event>
<event>
 5   0  0.6724773E-03  0.8975109E+03  0.7818609E-02  0.9428698E-01
       -2   -1    0    0    0  501  0.00000000000E+00  0.00000000000E+00  0.45813408873E+03  0.45813408874E+03  0.25500000920E-02 0.  1.
        2   -1    0    0  501    0  0.00000000000E+00  0.00000000000E+00 -0.43956884252E+03  0.43956884253E+03  0.25500000920E-02 0. -1.
    10030    2    1    2    0    0  0.00000000000E+00  0.00000000000E+00  0.18565246214E+02  0.89770293127E+03  0.89751093834E+03 0.  0.
        5    1    3    3  502    0  0.15226420907E+03  0.17228911802E+03  0.39471094079E+03  0.45682244508E+03  0.46999998093E+01 0.  1.
       -5    1    3    3    0  502 -0.15226420907E+03 -0.17228911802E+03 -0.37614569458E+03  0.44088048619E+03  0.46999998093E+01 0. -1.
</event>
<event>
 5   0  0.3943549E-03  0.9085463E+03  0.7818609E-02  0.9414961E-01
       -1   -1    0    0    0  501  0.00000000000E+00  0.00000000000E+00  0.54759326809E+03  0.54759326811E+03  0.50400001928E-02 0. -1.
        1   -1    0    0  501    0  0.00000000000E+00  0.00000000000E+00 -0.37685653514E+03  0.37685653518E+03  0.50400001928E-02 0.  1.
    10030    2    1    2    0    0  0.00000000000E+00  0.00000000000E+00  0.17073673295E+03  0.92444980329E+03  0.90854631518E+03 0.  0.
        3    1    3    3  502    0  0.37720097554E+03  0.10359779629E+03  0.32038986692E+03  0.50563104767E+03  0.10100000352E+00 0. -1.
       -3    1    3    3    0  502 -0.37720097554E+03 -0.10359779629E+03 -0.14965313397E+03  0.41881875562E+03  0.10100000352E+00 0.  1.
</event>
<event>
 5   0  0.6609191E-03  0.9007637E+03  0.7818609E-02  0.9424627E-01
       -2   -1    0    0    0  501  0.00000000000E+00  0.00000000000E+00  0.21940711150E+03  0.21940711152E+03  0.25500000920E-02 0.  1.
        2   -1    0    0  501    0  0.00000000000E+00  0.00000000000E+00 -0.92450891162E+03  0.92450891163E+03  0.25500000920E-02 0. -1.
    10030    2    1    2    0    0  0.00000000000E+00  0.00000000000E+00 -0.70510180012E+03  0.11439160231E+04  0.90076374231E+03 0.  0.
        2    1    3    3  502    0  0.12775863188E+03 -0.30428296356E+03 -0.74176929753E+03  0.81186949733E+03  0.25500000920E-02 0. -1.
       -2    1    3    3    0  502 -0.12775863188E+03  0.30428296356E+03  0.36667497405E+02  0.33204652581E+03  0.25500000920E-02 0.  1.
</event>
<event>
 5   0  0.6534628E-03  0.8963379E+03  0.7818609E-02  0.9430171E-01
       -2   -1    0    0    0  501  0.00000000000E+00  0.00000000000E+00  0.20210728603E+03  0.20210728605E+03  0.25500000920E-02 0. -1.
        2   -1    0    0  501    0  0.00000000000E+00  0.00000000000E+00 -0.99380582686E+03  0.99380582686E+03  0.25500000920E-02 0.  1.
    10030    2    1    2    0    0  0.00000000000E+00  0.00000000000E+00 -0.79169854083E+03  0.11959131129E+04  0.89633787942E+03 0.  0.
        4    1    3    3  502    0 -0.35721400057E+02  0.28095003854E+03  0.67578717870E+02  0.29116565489E+03  0.12699999809E+01 0. -1.
       -4    1    3    3    0  502  0.35721400057E+02 -0.28095003854E+03 -0.85927725870E+03  0.90474745802E+03  0.12699999809E+01 0.  1.
</event>
<event>
 5   0  0.6534628E-03  0.9023290E+03  0.7818609E-02  0.9422675E-01
       -2   -1    0    0    0  501  0.00000000000E+00  0.00000000000E+00  0.28981919624E+03  0.28981919625E+03  0.25500000920E-02 0. -1.
        2   -1    0    0  501    0  0.00000000000E+00  0.00000000000E+00 -0.70233232908E+03  0.70233232909E+03  0.25500000920E-02 0.  1.
    10030    2    1    2    0    0  0.00000000000E+00  0.00000000000E+00 -0.41251313284E+03  0.99215152533E+03  0.90232896687E+03 0.  0.
        4    1    3    3  502    0 -0.20531754440E+03  0.33873982089E+03 -0.44373751314E+03  0.59481472221E+03  0.12699999809E+01 0.  1.
       -4    1    3    3    0  502  0.20531754440E+03 -0.33873982089E+03  0.31224380294E+02  0.39733680312E+03  0.12699999809E+01 0. -1.
</event>
<event>
 5   0  0.3998066E-03  0.9165234E+03  0.7818609E-02  0.9405159E-01
       -1   -1    0    0    0  501  0.00000000000E+00  0.00000000000E+00  0.10822942185E+03  0.10822942197E+03  0.50400001928E-02 0.  1.
        1   -1    0    0  501    0  0.00000000000E+00  0.00000000000E+00 -0.19403577971E+04  0.19403577971E+04  0.50400001928E-02 0. -1.
    10030    2    1    2    0    0  0.00000000000E+00  0.00000000000E+00 -0.18321283752E+04  0.20485872191E+04  0.91652343709E+03 0.  0.
        4    1    3    3  502    0  0.39057715224E+03  0.49782601285E+02 -0.14401314929E+04  0.14929866540E+04  0.12699999809E+01 0. -1.
       -4    1    3    3    0  502 -0.39057715224E+03 -0.49782601285E+02 -0.39199688234E+03  0.55560056507E+03  0.12699999809E+01 0.  1.
</event>
<event>
 5   0  0.3943549E-03  0.9023534E+03  0.7818609E-02  0.9422644E-01
       -1   -1    0    0    0  501  0.00000000000E+00  0.00000000000E+00  0.61388592856E+03  0.61388592858E+03  0.50400001928E-02 0.  1.
        1   -1    0    0  501    0  0.00000000000E+00  0.00000000000E+00 -0.33159323987E+03  0.33159323991E+03  0.50400001928E-02 0. -1.
    10030    2    1    2    0    0  0.00000000000E+00  0.00000000000E+00  0.28229268869E+03  0.94547916849E+03  0.90235342076E+03 0.  0.
        3    1    3    3  502    0 -0.13429888232E+03 -0.37251266933E+03  0.36771808661E+03  0.54038734258E+03  0.10100000352E+00 0.  1.
       -3    1    3    3    0  502  0.13429888232E+03  0.37251266933E+03 -0.85425397925E+02  0.40509182590E+03  0.10100000352E+00 0. -1.
</event>
<event>
 5   0  0.3969536E-03  0.9070080E+03  0.7818609E-02  0.9416863E-01
        1   -1    0    0  501    0  0.00000000000E+00  0.00000000000E+00  0.70465058814E+03  0.70465058815E+03  0.50400001928E-02 0. -1.
       -1   -1    0    0    0  501  0.00000000000E+00  0.00000000000E+00 -0.29186932983E+03  0.29186932987E+03  0.50400001928E-02 0.  1.
    10030    2    1    2    0    0  0.00000000000E+00  0.00000000000E+00  0.41278125831E+03  0.99651991803E+03  0.90700803735E+03 0.  0.
        1    1    3    3  502    0  0.36493817223E+03  0.95155567345E+02 -0.70320830347E+02  0.38363976691E+03  0.50400001928E-02 0.  1.
       -1    1    3    3    0  502 -0.36493817223E+03 -0.95155567345E+02  0.48310208865E+03  0.61288015112E+03  0.50400001928E-02 0. -1.
</event>
<event>
 5   0  0.3998066E-03  0.8918214E+03  0.7818609E-02  0.9435863E-01
       -1   -1    0    0    0  501  0.00000000000E+00  0.00000000000E+00  0.16470475186E+03  0.16470475193E+03  0.50400001928E-02 0. -1.
        1   -1    0    0  501    0  0.00000000000E+00  0.00000000000E+00 -0.12072289540E+04  0.12072289540E+04  0.50400001928E-02 0.  1.
    10030    2    1    2    0    0  0.00000000000E+00  0.00000000000E+00 -0.10425242022E+04  0.13719337060E+04  0.89182138428E+03 0.  0.
        4    1    3    3  502    0 -0.22047159437E+03  0.36424262186E+03 -0.72508231904E+03  0.84084861526E+03  0.12699999809E+01 0.  1.
       -4    1    3    3    0  502  0.22047159437E+03 -0.36424262186E+03 -0.31744188311E+03  0.53108509069E+03  0.12699999809E+01 0. -1.
</event>
<event>
 5   0  0.3969536E-03  0.8702029E+03  0.7818609E-02  0.9463615E-01
        1   -1    0    0  501    0  0.00000000000E+00  0.00000000000E+00  0.10098608504E+04  0.10098608504E+04  0.50400001928E-02 0.  1.
       -1   -1    0    0    0  501  0.00000000000E+00  0.00000000000E+00 -0.18746472404E+03  0.18746472411E+03  0.50400001928E-02 0. -1.
    10030    2    1    2    0    0  0.00000000000E+00  0.00000000000E+00  0.82239612636E+03  0.11973255745E+04  0.87020293194E+03 0.  0.
        1    1    3    3  502    0  0.31140588556E+02  0.35148856024E+02 -0.18396780844E+03  0.18986661872E+03  0.50400001928E-02 0. -1.
       -1    1    3    3    0  502 -0.31140588556E+02 -0.35148856024E+02  0.10063639348E+04  0.10074589558E+04  0.50400001928E-02 0.  1.
</event>
<event>
 5   0  0.6609191E-03  0.9014936E+03  0.7818609E-02  0.9423716E-01
       -2   -1    0    0    0  501  0.00000000000E+00  0.00000000000E+00  0.21755544595E+03  0.21755544596E+03  0.25500000920E-02 0.  1.
        2   -1    0    0  501    0  0.00000000000E+00  0.00000000000E+00 -0.93388914468E+03  0.93388914468E+03  0.25500000920E-02 0. -1.
    10030    2    1    2    0    0  0.00000000000E+00  0.00000000000E+00 -0.71633369873E+03  0.11514445906E+04  0.90149358144E+03 0.  0.
        2    1    3    3  502    0 -0.41485672868E+02 -0.38123745479E+03 -0.66071815761E+03  0.76394472430E+03  0.25500000920E-02 0. -1.
       -2    1    3    3    0  502  0.41485672868E+02  0.38123745479E+03 -0.55615541122E+02  0.38749986634E+03  0.25500000920E-02 0.  1.
</event>
<event>
 5   0  0.3998066E-03  0.8931061E+03  0.7818609E-02  0.9434240E-01
       -1   -1    0    0    0  501  0.00000000000E+00  0.00000000000E+00  0.13202899222E+03  0.13202899232E+03  0.50400001928E-02 0.  1.
        1   -1    0    0  501    0  0.00000000000E+00  0.00000000000E+00 -0.15103473080E+04  0.15103473080E+04  0.50400001928E-02 0. -1.
    10030    2    1    2    0    0  0.00000000000E+00  0.00000000000E+00 -0.13783183158E+04  0.16423763003E+04  0.89310611478E+03 0.  0.
        4    1    3    3  502    0 -0.11772551831E+03  0.45424955185E+02 -0.14768761974E+04  0.14822576158E+04  0.12699999809E+01 0. -1.
       -4    1    3    3    0  502  0.11772551831E+03 -0.45424955185E+02  0.98557881609E+02  0.16011868455E+03  0.12699999809E+01 0.  1.
</event>
<event>
 5   0  0.6534628E-03  0.8973887E+03  0.7818609E-02  0.9428852E-01
       -2   -1    0    0    0  501  0.00000000000E+00  0.00000000000E+00  0.22449821693E+03  0.22449821695E+03  0.25500000920E-02 0. -1.
        2   -1    0    0  501    0  0.00000000000E+00  0.00000000000E+00 -0.89678491133E+03  0.89678491134E+03  0.25500000920E-02 0.  1.
    10030    2    1    2    0    0  0.00000000000E+00  0.00000000000E+00 -0.67228669440E+03  0.11212831283E+04  0.89738868631E+03 0.  0.
        4    1    3    3  502    0 -0.42460869790E+02  0.52356406782E+02  0.21813274806E+03  0.22831475527E+03  0.12699999809E+01 0. -1.
       -4    1    3    3    0  502  0.42460869790E+02 -0.52356406782E+02 -0.89041944246E+03  0.89296837302E+03  0.12699999809E+01 0.  1.
</event>
<event>
 5   0  0.3969536E-03  0.8923530E+03  0.7818609E-02  0.9435191E-01
        1   -1    0    0  501    0  0.00000000000E+00  0.00000000000E+00  0.65668971739E+03  0.65668971741E+03  0.50400001928E-02 0. -1.
       -1   -1    0    0    0  501  0.00000000000E+00  0.00000000000E+00 -0.30314693767E+03  0.30314693771E+03  0.50400001928E-02 0.  1.
    10030    2    1    2    0    0  0.00000000000E+00  0.00000000000E+00  0.35354277973E+03  0.95983665512E+03  0.89235301726E+03 0.  0.
        1    1    3    3  502    0  0.28682379920E+03 -0.48996226204E+02  0.54058844295E+03  0.61392539176E+03  0.50400001928E-02 0. -1.
       -1    1    3    3    0  502 -0.28682379920E+03  0.48996226204E+02 -0.18704566322E+03  0.34591126337E+03  0.50400001928E-02 0.  1.
</event>
<event>
 5   0  0.3943549E-03  0.8793100E+03  0.7818609E-02  0.9451821E-01
        1   -1    0    0  501    0  0.00000000000E+00  0.00000000000E+00  0.12236741503E+03  0.12236741513E+03  0.50400001928E-02 0. -1.
       -1   -1    0    0    0  501  0.00000000000E+00  0.00000000000E+00 -0.15796402785E+04  0.15796402785E+04  0.50400001928E-02 0.  1.
    10030    2    1    2    0    0  0.00000000000E+00  0.00000000000E+00 -0.14572728635E+04  0.17020076936E+04  0.87930995137E+03 0.  0.
        3    1    3    3  502    0 -0.41695322099E+03  0.13799132287E+03 -0.76758487233E+03  0.88435181919E+03  0.10100000352E+00 0. -1.
       -3    1    3    3    0  502  0.41695322099E+03 -0.13799132287E+03 -0.68968799113E+03  0.81765587443E+03  0.10100000352E+00 0.  1.
</event>
<event>
 5   0  0.6609191E-03  0.8968931E+03  0.7818609E-02  0.9429474E-01
        2   -1    0    0  501    0  0.00000000000E+00  0.00000000000E+00  0.92305334388E+03  0.92305334388E+03  0.25500000920E-02 0. -1.
       -2   -1    0    0    0  501  0.00000000000E+00  0.00000000000E+00 -0.21786857262E+03  0.21786857264E+03  0.25500000920E-02 0.  1.
    10030    2    1    2    0    0  0.00000000000E+00  0.00000000000E+00  0.70518477125E+03  0.11409219165E+04  0.89689311403E+03 0.  0.
        2    1    3    3  502    0  0.29775846038E+03  0.37173455793E+02  0.77652678535E+03  0.83248772658E+03  0.25500000920E-02 0.  1.
       -2    1    3    3    0  502 -0.29775846038E+03 -0.37173455793E+02 -0.71342014095E+02  0.30843418994E+03  0.25500000920E-02 0. -1.
</event>
<event>
 5   0  0.6524705E-03  0.9377204E+03  0.7818609E-02  0.9379620E-01
        2   -1    0    0  501    0  0.00000000000E+00  0.00000000000E+00  0.14964258755E+03  0.14964258757E+03  0.25500000920E-02 0.  1.
       -2   -1    0    0    0  501  0.00000000000E+00  0.00000000000E+00 -0.14690328420E+04  0.14690328420E+04  0.25500000920E-02 0. -1.
    10030    2    1    2    0    0  0.00000000000E+00  0.00000000000E+00 -0.13193902544E+04  0.16186754296E+04  0.93772037556E+03 0.  0.
        3    1    3    3  502    0 -0.22707526872E+03  0.37659273424E+03 -0.37898703954E+03  0.58053118046E+03  0.10100000352E+00 0. -1.
       -3    1    3    3    0  502  0.22707526872E+03 -0.37659273424E+03 -0.94040321489E+03  0.10381442491E+04  0.10100000352E+00 0.  1.
</event>
<event>
 5   0  0.6724773E-03  0.9023717E+03  0.7818609E-02  0.9422622E-01
        2   -1    0    0  501    0  0.00000000000E+00  0.00000000000E+00  0.53137713459E+03  0.53137713460E+03  0.25500000920E-02 0.  1.
       -2   -1    0    0    0  501  0.00000000000E+00  0.00000000000E+00 -0.38309636836E+03  0.38309636836E+03  0.25500000920E-02 0. -1.
    10030    2    1    2    0    0  0.00000000000E+00  0.00000000000E+00  0.14828076624E+03  0.91447350296E+03  0.90237165402E+03 0.  0.
        5    1    3    3  502    0 -0.11056454020E+03 -0.42060605331E+03 -0.47522109768E+02  0.43750932624E+03  0.46999998093E+01 0.  1.
       -5    1    3    3    0  502  0.11056454020E+03  0.42060605331E+03  0.19580287600E+03  0.47696417673E+03  0.46999998093E+01 0. -1.
</event>
<event>
 5   0  0.3998066E-03  0.9009574E+03  0.7818609E-02  0.9424385E-01
       -1   -1    0    0    0  501  0.00000000000E+00  0.00000000000E+00  0.30368373781E+03  0.30368373785E+03  0.50400001928E-02 0.  1.
        1   -1    0    0  501    0  0.00000000000E+00  0.00000000000E+00 -0.66823163580E+03  0.66823163582E+03  0.50400001928E-02 0. -1.
    10030    2    1    2    0    0  0.00000000000E+00  0.00000000000E+00 -0.36454789799E+03  0.97191537367E+03  0.90095744830E+03 0.  0.
        4    1    3    3  502    0  0.42771818049E+02  0.17034543359E+03  0.26522548564E+03  0.31810873345E+03  0.12699999809E+01 0.  1.
       -4    1    3    3    0  502 -0.42771818049E+02 -0.17034543359E+03 -0.62977338363E+03  0.65380664022E+03  0.12699999809E+01 0. -1.
</event>
<event>
 5   0  0.3969536E-03  0.9004910E+03  0.7818609E-02  0.9424968E-01
        1   -1    0    0  501    0  0.00000000000E+00  0.00000000000E+00  0.53269466163E+03  0.53269466166E+03  0.50400001928E-02 0.  1.
       -1   -1    0    0    0  501  0.00000000000E+00  0.00000000000E+00 -0.38055765337E+03  0.38055765340E+03  0.50400001928E-02 0. -1.
    10030    2    1    2    0    0  0.00000000000E+00  0.00000000000E+00  0.15213700827E+03  0.91325231506E+03  0.90049104475E+03 0.  0.
        1    1    3    3  502    0 -0.14682339747E+03 -0.25205073953E+03 -0.27177063937E+03  0.39868028016E+03  0.50400001928E-02 0. -1.
       -1    1    3    3    0  502  0.14682339747E+03  0.25205073953E+03  0.42390764764E+03  0.51457203489E+03  0.50400001928E-02 0.  1.
</event>
<event>
 5   0  0.3943549E-03  0.8929773E+03  0.7818609E-02  0.9434403E-01
        1   -1    0    0  501    0  0.00000000000E+00  0.00000000000E+00  0.72338811400E+03  0.72338811402E+03  0.50400001928E-02 0.  1.
       -1   -1    0    0    0  501  0.00000000000E+00  0.00000000000E+00 -0.27558110524E+03  0.27558110529E+03  0.50400001928E-02 0. -1.
    10030    2    1    2    0    0  0.00000000000E+00  0.00000000000E+00  0.44780700877E+03  0.99896921931E+03  0.89297725840E+03 0.  0.
        3    1    3    3  502    0  0.10327459241E+03  0.42244063249E+03  0.33705416389E+03  0.55020655123E+03  0.10100000352E+00 0.  1.
       -3    1    3    3    0  502 -0.10327459241E+03 -0.42244063249E+03  0.11075284487E+03  0.44876266808E+03  0.10100000352E+00 0. -1.
</event>
<event>
 5   0  0.6524705E-03  0.8900137E+03  0.7818609E-02  0.9438152E-01
       -2   -1    0    0    0  501  0.00000000000E+00  0.00000000000E+00  0.15560258508E+03  0.15560258510E+03  0.25500000920E-02 0.  1.
        2   -1    0    0  501    0  0.00000000000E+00  0.00000000000E+00 -0.12726724059E+04  0.12726724059E+04  0.25500000920E-02 0. -1.
    10030    2    1    2    0    0  0.00000000000E+00  0.00000000000E+00 -0.11170698208E+04  0.14282749910E+04  0.89001374447E+03 0.  0.
        3    1    3    3  502    0 -0.16931296224E+03  0.24865777282E+03 -0.10847788262E+04  0.11257187389E+04  0.10100000352E+00 0. -1.
       -3    1    3    3    0  502  0.16931296224E+03 -0.24865777282E+03 -0.32290994654E+02  0.30255625213E+03  0.10100000352E+00 0.  1.
</event>
<event>
 5   0  0.6609191E-03  0.8799708E+03  0.7818609E-02  0.9450971E-01
       -2   -1    0    0    0  501  0.00000000000E+00  0.00000000000E+00  0.19617059278E+04  0.19617059278E+04  0.25500000920E-02 0.  1.
        2   -1    0    0  501    0  0.00000000000E+00  0.00000000000E+00 -0.98683062558E+02  0.98683062591E+02  0.25500000920E-02 0. -1.
    10030    2    1    2    0    0  0.00000000000E+00  0.00000000000E+00  0.18630228652E+04  0.20603889903E+04  0.87997079230E+03 0.  0.
        2    1    3    3  502    0 -0.15258086854E+03 -0.16990937758E+03  0.18120786810E+04  0.18264115813E+04  0.25500000920E-02 0.  1.
       -2    1    3    3    0  502  0.15258086854E+03  0.16990937758E+03  0.50944184150E+02  0.23397740904E+03  0.25500000920E-02 0. -1.
</event>
<event>
 5   0  0.2560250E-03  0.8961787E+03  0.7818609E-02  0.9430371E-01
       -4   -1    0    0    0  501  0.00000000000E+00  0.00000000000E+00  0.36189954597E+03  0.36190177434E+03  0.12699999809E+01 0.  1.
        4   -1    0    0  501    0  0.00000000000E+00  0.00000000000E+00 -0.55480143392E+03  0.55480288750E+03  0.12699999809E+01 0. -1.
    10030    2    1    2    0    0  0.00000000000E+00  0.00000000000E+00 -0.19290188795E+03  0.91670466184E+03  0.89617872027E+03 0.  0.
        5    1    3    3  502    0  0.42874411080E+03  0.12906724024E+03 -0.11363206341E+03  0.46196774875E+03  0.46999998093E+01 0.  1.
       -5    1    3    3    0  502 -0.42874411080E+03 -0.12906724024E+03 -0.79269824545E+02  0.45473691309E+03  0.46999998093E+01 0. -1.
</event>
<event>
 5   0  0.3927993E-03  0.8946920E+03  0.7818609E-02  0.9432241E-01
       -1   -1    0    0    0  501  0.00000000000E+00  0.00000000000E+00  0.44736263852E+03  0.44736263855E+03  0.50400001928E-02 0. -1.
        1   -1    0    0  501    0  0.00000000000E+00  0.00000000000E+00 -0.44732934385E+03  0.44732934388E+03  0.50400001928E-02 0.  1.
    10030    2    1    2    0    0  0.00000000000E+00  0.00000000000E+00  0.33294668716E-01  0.89469198243E+03  0.89469198181E+03 0.  0.
        2    1    3    3  502    0  0.17956476597E+03 -0.10813011630E+03  0.39521635452E+03  0.44736069800E+03  0.25500000920E-02 0. -1.
       -2    1    3    3    0  502 -0.17956476597E+03  0.10813011630E+03 -0.39518305985E+03  0.44733128443E+03  0.25500000920E-02 0.  1.
</event>
<event>
 5   0  0.6863405E-03  0.8992784E+03  0.7818609E-02  0.9426484E-01
       -2   -1    0    0    0  501  0.00000000000E+00  0.00000000000E+00  0.11544131037E+03  0.11544131040E+03  0.25500000920E-02 0. -1.
        2   -1    0    0  501    0  0.00000000000E+00  0.00000000000E+00 -0.17513261993E+04  0.17513261993E+04  0.25500000920E-02 0.  1.
    10030    2    1    2    0    0  0.00000000000E+00  0.00000000000E+00 -0.16358848889E+04  0.18667675097E+04  0.89927835816E+03 0.  0.
        1    1    3    3  502    0 -0.34976332755E+02 -0.21203859546E+03  0.19309840184E+01  0.21491263002E+03  0.50400001928E-02 0. -1.
       -1    1    3    3    0  502  0.34976332755E+02  0.21203859546E+03 -0.16378158729E+04  0.16518548797E+04  0.50400001928E-02 0.  1.
</event>
<event>
 5   0  0.3943549E-03  0.8987757E+03  0.7818609E-02  0.9427113E-01
       -1   -1    0    0    0  501  0.00000000000E+00  0.00000000000E+00  0.42623220319E+03  0.42623220322E+03  0.50400001928E-02 0.  1.
        1   -1    0    0  501    0  0.00000000000E+00  0.00000000000E+00 -0.47380145882E+03  0.47380145885E+03  0.50400001928E-02 0. -1.
    10030    2    1    2    0    0  0.00000000000E+00  0.00000000000E+00 -0.47569255631E+02  0.90003366207E+03  0.89877569993E+03 0.  0.
        3    1    3    3  502    0  0.25917640510E+03 -0.94442540317E+02 -0.37904535507E+03  0.46879333803E+03  0.10100000352E+00 0. -1.
       -3    1    3    3    0  502 -0.25917640510E+03  0.94442540317E+02  0.33147609944E+03  0.43124032404E+03  0.10100000352E+00 0.  1.
</event>
<event>
 5   0  0.6863405E-03  0.8962516E+03  0.7818609E-02  0.9430279E-01
       -2   -1    0    0    0  501  0.00000000000E+00  0.00000000000E+00  0.34673277532E+03  0.34673277533E+03  0.25500000920E-02 0.  1.
        2   -1    0    0  501    0  0.00000000000E+00  0.00000000000E+00 -0.57916864243E+03  0.57916864243E+03  0.25500000920E-02 0. -1.
    10030    2    1    2    0    0  0.00000000000E+00  0.00000000000E+00 -0.23243586710E+03  0.92590141777E+03  0.89625164050E+03 0.  0.
        1    1    3    3  502    0 -0.19301690013E+03 -0.31279319712E+03  0.14862536666E+03  0.39646514039E+03  0.50400001928E-02 0.  1.
       -1    1    3    3    0  502  0.19301690013E+03  0.31279319712E+03 -0.38106123376E+03  0.52943627738E+03  0.50400001928E-02 0. -1.
</event>
<event>
 5   0  0.3927993E-03  0.9011452E+03  0.7818609E-02  0.9424151E-01
       -1   -1    0    0    0  501  0.00000000000E+00  0.00000000000E+00  0.10986425017E+03  0.10986425029E+03  0.50400001928E-02 0.  1.
        1   -1    0    0  501    0  0.00000000000E+00  0.00000000000E+00 -0.18478772855E+04  0.18478772855E+04  0.50400001928E-02 0. -1.
    10030    2    1    2    0    0  0.00000000000E+00  0.00000000000E+00 -0.17380130353E+04  0.19577415358E+04  0.90114516590E+03 0.  0.
        2    1    3    3  502    0  0.43293955196E+03 -0.18031645025E+02 -0.60068813490E+03  0.74066728785E+03  0.25500000920E-02 0.  1.
       -2    1    3    3    0  502 -0.43293955196E+03  0.18031645025E+02 -0.11373249004E+04  0.12170742479E+04  0.25500000920E-02 0. -1.
</event>
<event>
 5   0  0.3998066E-03  0.8940887E+03  0.7818609E-02  0.9433001E-01
        1   -1    0    0  501    0  0.00000000000E+00  0.00000000000E+00  0.15300128501E+04  0.15300128501E+04  0.50400001928E-02 0.  1.
       -1   -1    0    0    0  501  0.00000000000E+00  0.00000000000E+00 -0.13061894920E+03  0.13061894930E+03  0.50400001928E-02 0. -1.
    10030    2    1    2    0    0  0.00000000000E+00  0.00000000000E+00  0.13993939009E+04  0.16606317994E+04  0.89408874465E+03 0.  0.
        4    1    3    3  502    0  0.44225237310E+03 -0.61439178724E+02  0.74060596162E+03  0.86478941800E+03  0.12699999809E+01 0. -1.
       -4    1    3    3    0  502 -0.44225237310E+03  0.61439178724E+02  0.65878793924E+03  0.79584238137E+03  0.12699999809E+01 0.  1.
</event>
<event>
 5   0  0.6534628E-03  0.8967031E+03  0.7818609E-02  0.9429712E-01
        2   -1    0    0  501    0  0.00000000000E+00  0.00000000000E+00  0.25927320337E+03  0.25927320338E+03  0.25500000920E-02 0. -1.
       -2   -1    0    0    0  501  0.00000000000E+00  0.00000000000E+00 -0.77531779653E+03  0.77531779653E+03  0.25500000920E-02 0.  1.
    10030    2    1    2    0    0  0.00000000000E+00  0.00000000000E+00 -0.51604459316E+03  0.10345909999E+04  0.89670313648E+03 0.  0.
        4    1    3    3  502    0  0.95932847672E+02  0.30889337668E+01 -0.76332289707E+03  0.76933484964E+03  0.12699999809E+01 0.  1.
       -4    1    3    3    0  502 -0.95932847672E+02 -0.30889337668E+01  0.24727830391E+03  0.26525615028E+03  0.12699999809E+01 0. -1.
</event>
<event>
 5   0  0.6609191E-03  0.9043759E+03  0.7818609E-02  0.9420128E-01
        2   -1    0    0  501    0  0.00000000000E+00  0.00000000000E+00  0.77094031941E+03  0.77094031941E+03  0.25500000920E-02 0.  1.
       -2   -1    0    0    0  501  0.00000000000E+00  0.00000000000E+00 -0.26522666495E+03  0.26522666497E+03  0.25500000920E-02 0. -1.
    10030    2    1    2    0    0  0.00000000000E+00  0.00000000000E+00  0.50571365446E+03  0.10361669844E+04  0.90437587275E+03 0.  0.
        2    1    3    3  502    0 -0.14291707201E+03 -0.35958399592E+03 -0.15223455591E+02  0.38724371293E+03  0.25500000920E-02 0. -1.
       -2    1    3    3    0  502  0.14291707201E+03  0.35958399592E+03  0.52093711005E+03  0.64892327145E+03  0.25500000920E-02 0.  1.
</event>
<event>
 5   0  0.3794006E-03  0.9090700E+03  0.7818609E-02  0.9414314E-01
        1   -1    0    0  501    0  0.00000000000E+00  0.00000000000E+00  0.20580606053E+04  0.20580606053E+04  0.50400001928E-02 0.  1.
       -1   -1    0    0    0  501  0.00000000000E+00  0.00000000000E+00 -0.10038677520E+03  0.10038677532E+03  0.50400001928E-02 0. -1.
    10030    2    1    2    0    0  0.00000000000E+00  0.00000000000E+00  0.19576738301E+04  0.21584473806E+04  0.90907000273E+03 0.  0.
        5    1    3    3  502    0  0.13589222368E+03  0.57709723592E+02 -0.41808740204E+02  0.15351602330E+03  0.46999998093E+01 0. -1.
       -5    1    3    3    0  502 -0.13589222368E+03 -0.57709723592E+02  0.19994825703E+04  0.20049313573E+04  0.46999998093E+01 0.  1.
</event>
<event>
 5   0  0.6724773E-03  0.8974871E+03  0.7818609E-02  0.9428728E-01
        2   -1    0    0  501    0  0.00000000000E+00  0.00000000000E+00  0.50183459651E+03  0.50183459652E+03  0.25500000920E-02 0.  1.
       -2   -1    0    0    0  501  0.00000000000E+00  0.00000000000E+00 -0.40126922598E+03  0.40126922599E+03  0.25500000920E-02 0. -1.
    10030    2    1    2    0    0  0.00000000000E+00  0.00000000000E+00  0.10056537053E+03  0.90310382251E+03  0.89748711438E+03 0.  0.
        5    1    3    3  502    0  0.39825850945E+03 -0.11041733306E+02 -0.15744794494E+03  0.42842001072E+03  0.46999998093E+01 0. -1.
       -5    1    3    3    0  502 -0.39825850945E+03  0.11041733306E+02  0.25801331547E+03  0.47468381179E+03  0.46999998093E+01 0.  1.
</event>
<event>
 5   0  0.6609191E-03  0.8993823E+03  0.7818609E-02  0.9426354E-01
       -2   -1    0    0    0  501  0.00000000000E+00  0.00000000000E+00  0.18012578942E+03  0.18012578944E+03  0.25500000920E-02 0.  1.
        2   -1    0    0  501    0  0.00000000000E+00  0.00000000000E+00 -0.11226718440E+04  0.11226718440E+04  0.25500000920E-02 0. -1.
    10030    2    1    2    0    0  0.00000000000E+00  0.00000000000E+00 -0.94254605460E+03  0.13027976335E+04  0.89938234846E+03 0.  0.
        2    1    3    3  502    0 -0.44539744129E+03  0.43626605869E+02 -0.53507475331E+03  0.69755799264E+03  0.25500000920E-02 0. -1.
       -2    1    3    3    0  502  0.44539744129E+03 -0.43626605869E+02 -0.40747130129E+03  0.60523964083E+03  0.25500000920E-02 0.  1.
</event>
<event>
 5   0  0.2560250E-03  0.8945247E+03  0.7818609E-02  0.9432452E-01
        4   -1    0    0  501    0  0.00000000000E+00  0.00000000000E+00  0.98513417735E+03  0.98513499597E+03  0.12699999809E+01 0.  1.
       -4   -1    0    0    0  501  0.00000000000E+00  0.00000000000E+00 -0.20305943040E+03  0.20306340186E+03  0.12699999809E+01 0. -1.
    10030    2    1    2    0    0  0.00000000000E+00  0.00000000000E+00  0.78207474695E+03  0.11881983978E+04  0.89452474689E+03 0.  0.
        4    1    3    3  502    0  0.53841485052E+02 -0.65789795896E+02 -0.19222881678E+03  0.21019213510E+03  0.12699999809E+01 0. -1.
       -4    1    3    3    0  502 -0.53841485052E+02  0.65789795896E+02  0.97430356373E+03  0.97800626274E+03  0.12699999809E+01 0.  1.
</event>
<event>
 5   0  0.3943549E-03  0.8965358E+03  0.7818609E-02  0.9429922E-01
        1   -1    0    0  501    0  0.00000000000E+00  0.00000000000E+00  0.16879860425E+04  0.16879860425E+04  0.50400001928E-02 0.  1.
       -1   -1    0    0    0  501  0.00000000000E+00  0.00000000000E+00 -0.11904370090E+03  0.11904370100E+03  0.50400001928E-02 0. -1.
    10030    2    1    2    0    0  0.00000000000E+00  0.00000000000E+00  0.15689423416E+04  0.18070297435E+04  0.89653578994E+03 0.  0.
        3    1    3    3  502    0  0.20020690864E+03  0.15081043518E+02  0.15922941552E+04  0.16049021562E+04  0.10100000352E+00 0.  1.
       -3    1    3    3    0  502 -0.20020690864E+03 -0.15081043518E+02 -0.23351813608E+02  0.20212758728E+03  0.10100000352E+00 0. -1.
</event>
<event>
 5   0  0.6863405E-03  0.8824242E+03  0.7818609E-02  0.9447823E-01
        2   -1    0    0  501    0  0.00000000000E+00  0.00000000000E+00  0.52994409477E+03  0.52994409478E+03  0.25500000920E-02 0. -1.
       -2   -1    0    0    0  501  0.00000000000E+00  0.00000000000E+00 -0.36733709723E+03  0.36733709724E+03  0.25500000920E-02 0.  1.
    10030    2    1    2    0    0  0.00000000000E+00  0.00000000000E+00  0.16260699754E+03  0.89728119202E+03  0.88242421879E+03 0.  0.
        1    1    3    3  502    0 -0.43337506198E+03 -0.80258211799E+02  0.10196306869E+03  0.45238456241E+03  0.50400001928E-02 0. -1.
       -1    1    3    3    0  502  0.43337506198E+03  0.80258211799E+02  0.60643928856E+02  0.44489662961E+03  0.50400001928E-02 0.  1.
</event>
<event>
 5   0  0.3943549E-03  0.9753437E+03  0.7818609E-02  0.9336009E-01
        1   -1    0    0  501    0  0.00000000000E+00  0.00000000000E+00  0.15288571814E+04  0.15288571814E+04  0.50400001928E-02 0. -1.
       -1   -1    0    0    0  501  0.00000000000E+00  0.00000000000E+00 -0.15555659765E+03  0.15555659774E+03  0.50400001928E-02 0.  1.
    10030    2    1    2    0    0  0.00000000000E+00  0.00000000000E+00  0.13733005837E+04  0.16844137791E+04  0.97534367585E+03 0.  0.
        3    1    3    3  502    0 -0.14609891515E+03  0.37821659635E+03  0.21866607900E+03  0.46065990825E+03  0.10100000352E+00 0.  1.
       -3    1    3    3    0  502  0.14609891515E+03 -0.37821659635E+03  0.11546345047E+04  0.12237538708E+04  0.10100000352E+00 0. -1.
</event>
<event>
 5   0  0.6609191E-03  0.9019606E+03  0.7818609E-02  0.9423134E-01
        2   -1    0    0  501    0  0.00000000000E+00  0.00000000000E+00  0.70995384035E+03  0.70995384036E+03  0.25500000920E-02 0.  1.
       -2   -1    0    0    0  501  0.00000000000E+00  0.00000000000E+00 -0.28647389279E+03  0.28647389280E+03  0.25500000920E-02 0. -1.
    10030    2    1    2    0    0  0.00000000000E+00  0.00000000000E+00  0.42347994757E+03  0.99642773316E+03  0.90196062077E+03 0.  0.
        2    1    3    3  502    0  0.33104770210E+03  0.21465516301E+03  0.45305275491E+03  0.60077135318E+03  0.25500000920E-02 0.  1.
       -2    1    3    3    0  502 -0.33104770210E+03 -0.21465516301E+03 -0.29572807339E+02  0.39565637997E+03  0.25500000920E-02 0. -1.
</event>
<event>
 5   0  0.6524705E-03  0.9006624E+03  0.7818609E-02  0.9424754E-01
        2   -1    0    0  501    0  0.00000000000E+00  0.00000000000E+00  0.10235678858E+04  0.10235678858E+04  0.25500000920E-02 0.  1.
       -2   -1    0    0    0  501  0.00000000000E+00  0.00000000000E+00 -0.19812871664E+03  0.19812871665E+03  0.25500000920E-02 0. -1.
    10030    2    1    2    0    0  0.00000000000E+00  0.00000000000E+00  0.82543916913E+03  0.12216966024E+04  0.90066240426E+03 0.  0.
        3    1    3    3  502    0 -0.44633245680E+03  0.58966852287E+02  0.39859500388E+03  0.60130502990E+03  0.10100000352E+00 0.  1.
       -3    1    3    3    0  502  0.44633245680E+03 -0.58966852287E+02  0.42684416525E+03  0.62039157253E+03  0.10100000352E+00 0. -1.
</event>
<event>
 5   0  0.6863405E-03  0.8992799E+03  0.7818609E-02  0.9426482E-01
        2   -1    0    0  501    0  0.00000000000E+00  0.00000000000E+00  0.55572557846E+03  0.55572557846E+03  0.25500000920E-02 0. -1.
       -2   -1    0    0    0  501  0.00000000000E+00  0.00000000000E+00 -0.36380561729E+03  0.36380561730E+03  0.25500000920E-02 0.  1.
    10030    2    1    2    0    0  0.00000000000E+00  0.00000000000E+00  0.19191996117E+03  0.91953119576E+03  0.89927990552E+03 0.  0.
        1    1    3    3  502    0 -0.39341645849E+02 -0.38405248299E+03  0.33165462300E+03  0.50895860713E+03  0.50400001928E-02 0. -1.
       -1    1    3    3    0  502  0.39341645849E+02  0.38405248299E+03 -0.13973466183E+03  0.41057258863E+03  0.50400001928E-02 0.  1.
</event>
<event>
 5   0  0.6724773E-03  0.9058311E+03  0.7818609E-02  0.9418322E-01
       -2   -1    0    0    0  501  0.00000000000E+00  0.00000000000E+00  0.24657928251E+03  0.24657928252E+03  0.25500000920E-02 0.  1.
        2   -1    0    0  501    0  0.00000000000E+00  0.00000000000E+00 -0.83191286037E+03  0.83191286037E+03  0.25500000920E-02 0. -1.
    10030    2    1    2    0    0  0.00000000000E+00  0.00000000000E+00 -0.58533357786E+03  0.10784921429E+04  0.90583105760E+03 0.  0.
        5    1    3    3  502    0 -0.75096810913E+02  0.31502621538E+03 -0.66960243635E+03  0.74382159161E+03  0.46999998093E+01 0. -1.
       -5    1    3    3    0  502  0.75096810913E+02 -0.31502621538E+03  0.84268858497E+02  0.33467055128E+03  0.46999998093E+01 0.  1.
</event>
<event>
 5   0  0.3998066E-03  0.8998019E+03  0.7818609E-02  0.9425829E-01
        1   -1    0    0  501    0  0.00000000000E+00  0.00000000000E+00  0.45682796275E+03  0.45682796277E+03  0.50400001928E-02 0. -1.
       -1   -1    0    0    0  501  0.00000000000E+00  0.00000000000E+00 -0.44307900708E+03  0.44307900711E+03  0.50400001928E-02 0.  1.
    10030    2    1    2    0    0  0.00000000000E+00  0.00000000000E+00  0.13748955669E+02  0.89990696988E+03  0.89980193413E+03 0.  0.
        4    1    3    3  502    0  0.34780947425E+03 -0.25360294552E+03 -0.12399714184E+03  0.44795400260E+03  0.12699999809E+01 0.  1.
       -4    1    3    3    0  502 -0.34780947425E+03  0.25360294552E+03  0.13774609751E+03  0.45195296728E+03  0.12699999809E+01 0. -1.
</event>
<event>
 5   0  0.3794006E-03  0.9675218E+03  0.7818609E-02  0.9344902E-01
        1   -1    0    0  501    0  0.00000000000E+00  0.00000000000E+00  0.17914836212E+04  0.17914836212E+04  0.50400001928E-02 0. -1.
       -1   -1    0    0    0  501  0.00000000000E+00  0.00000000000E+00 -0.13063172598E+03  0.13063172608E+03  0.50400001928E-02 0.  1.
    10030    2    1    2    0    0  0.00000000000E+00  0.00000000000E+00  0.16608518952E+04  0.19221153473E+04  0.96752177775E+03 0.  0.
        5    1    3    3  502    0  0.36879374991E+03 -0.21633082101E+03  0.38092459683E+03  0.57265477607E+03  0.46999998093E+01 0.  1.
       -5    1    3    3    0  502 -0.36879374991E+03  0.21633082101E+03  0.12799272984E+04  0.13494605712E+04  0.46999998093E+01 0. -1.
</event>
<event>
 5   0  0.2560250E-03  0.8919380E+03  0.7818609E-02  0.9435716E-01
       -3   -1    0    0    0  501  0.00000000000E+00  0.00000000000E+00  0.16786458083E+04  0.16786458113E+04  0.10100000352E+00 0. -1.
        3   -1    0    0  501    0  0.00000000000E+00  0.00000000000E+00 -0.11848139553E+03  0.11848143858E+03  0.10100000352E+00 0.  1.
    10030    2    1    2    0    0  0.00000000000E+00  0.00000000000E+00  0.15601644128E+04  0.17971272499E+04  0.89193797852E+03 0.  0.
        5    1    3    3  502    0  0.81394674346E+02  0.25751617780E+03  0.65087431713E+02  0.27784553012E+03  0.46999998093E+01 0.  1.
       -5    1    3    3    0  502 -0.81394674346E+02 -0.25751617780E+03  0.14950769811E+04  0.15192817198E+04  0.46999998093E+01 0. -1.
</event>
<event>
 5   0  0.6534628E-03  0.8975433E+03  0.7818609E-02  0.9428658E-01
        2   -1    0    0  501    0  0.00000000000E+00  0.00000000000E+00  0.45726944829E+03  0.45726944830E+03  0.25500000920E-02 0.  1.
       -2   -1    0    0    0  501  0.00000000000E+00  0.00000000000E+00 -0.44043178769E+03  0.44043178770E+03  0.25500000920E-02 0. -1.
    10030    2    1    2    0    0  0.00000000000E+00  0.00000000000E+00  0.16837660605E+02  0.89770123600E+03  0.89754331500E+03 0.  0.
        4    1    3    3  502    0 -0.89169432870E+02  0.25974046700E+02  0.44755023351E+03  0.45708715064E+03  0.12699999809E+01 0.  1.
       -4    1    3    3    0  502  0.89169432870E+02 -0.25974046700E+02 -0.43071257291E+03  0.44061408536E+03  0.12699999809E+01 0. -1.
</event>
<event>
 5   0  0.3998066E-03  0.8973849E+03  0.7818609E-02  0.9428856E-01
        1   -1    0    0  501    0  0.00000000000E+00  0.00000000000E+00  0.59936787058E+03  0.59936787060E+03  0.50400001928E-02 0.  1.
       -1   -1    0    0    0  501  0.00000000000E+00  0.00000000000E+00 -0.33589542823E+03  0.33589542826E+03  0.50400001928E-02 0. -1.
    10030    2    1    2    0    0  0.00000000000E+00  0.00000000000E+00  0.26347244236E+03  0.93526329887E+03  0.89738492874E+03 0.  0.
        4    1    3    3  502    0  0.42397992699E+03  0.81802121819E+02  0.25883774170E+03  0.50343733974E+03  0.12699999809E+01 0.  1.
       -4    1    3    3    0  502 -0.42397992699E+03 -0.81802121819E+02  0.46347006570E+01  0.43182595912E+03  0.12699999809E+01 0. -1.
</event>
<event>
 5   0  0.3969536E-03  0.9036290E+03  0.7818609E-02  0.9421056E-01
       -1   -1    0    0    0  501  0.00000000000E+00  0.00000000000E+00  0.61346005014E+03  0.61346005016E+03  0.50400001928E-02 0.  1.
        1   -1    0    0  501    0  0.00000000000E+00  0.00000000000E+00 -0.33276227440E+03  0.33276227443E+03  0.50400001928E-02 0. -1.
    10030    2    1    2    0    0  0.00000000000E+00  0.00000000000E+00  0.28069777574E+03  0.94622232459E+03  0.90362904239E+03 0.  0.
        1    1    3    3  502    0 -0.33266581493E+03 -0.13422164778E+03 -0.14728840851E+03  0.38778327770E+03  0.50400001928E-02 0. -1.
       -1    1    3    3    0  502  0.33266581493E+03  0.13422164778E+03  0.42798618426E+03  0.55843904689E+03  0.50400001928E-02 0.  1.
</event>
<event>
 5   0  0.6863405E-03  0.8887656E+03  0.7818609E-02  0.9439735E-01
        2   -1    0    0  501    0  0.00000000000E+00  0.00000000000E+00  0.10224093762E+04  0.10224093762E+04  0.25500000920E-02 0. -1.
       -2   -1    0    0    0  501  0.00000000000E+00  0.00000000000E+00 -0.19314774963E+03  0.19314774965E+03  0.25500000920E-02 0.  1.
    10030    2    1    2    0    0  0.00000000000E+00  0.00000000000E+00  0.82926162658E+03  0.12155571259E+04  0.88876559391E+03 0.  0.
        1    1    3    3  502    0 -0.34254780151E+03 -0.16177829319E+03  0.96911468614E+02  0.39102818983E+03  0.50400001928E-02 0.  1.
       -1    1    3    3    0  502  0.34254780151E+03  0.16177829319E+03  0.73235015796E+03  0.82452893604E+03  0.50400001928E-02 0. -1.
</event>
<event>
 5   0  0.3794006E-03  0.8993157E+03  0.7818609E-02  0.9426437E-01
       -1   -1    0    0    0  501  0.00000000000E+00  0.00000000000E+00  0.19287018641E+03  0.19287018647E+03  0.50400001928E-02 0. -1.
        1   -1    0    0  501    0  0.00000000000E+00  0.00000000000E+00 -0.10483329047E+04  0.10483329047E+04  0.50400001928E-02 0.  1.
    10030    2    1    2    0    0  0.00000000000E+00  0.00000000000E+00 -0.85546271828E+03  0.12412030912E+04  0.89931565714E+03 0.  0.
        5    1    3    3  502    0  0.44609255118E+03  0.37239248919E+02 -0.48603813320E+03  0.66078777440E+03  0.46999998093E+01 0.  1.
       -5    1    3    3    0  502 -0.44609255118E+03 -0.37239248919E+02 -0.36942458508E+03  0.58041531677E+03  0.46999998093E+01 0. -1.
</event>
<event>
 5   0  0.6534628E-03  0.8950135E+03  0.7818609E-02  0.9431836E-01
       -2   -1    0    0    0  501  0.00000000000E+00  0.00000000000E+00  0.21601950741E+03  0.21601950742E+03  0.25500000920E-02 0. -1.
        2   -1    0    0  501    0  0.00000000000E+00  0.00000000000E+00 -0.92705653907E+03  0.92705653908E+03  0.25500000920E-02 0.  1.
    10030    2    1    2    0    0  0.00000000000E+00  0.00000000000E+00 -0.71103703166E+03  0.11430760465E+04  0.89501351257E+03 0.  0.
        4    1    3    3  502    0 -0.41307294621E+03  0.29993969745E+02 -0.57200303748E+03  0.70619967778E+03  0.12699999809E+01 0. -1.
       -4    1    3    3    0  502  0.41307294621E+03 -0.29993969745E+02 -0.13903399418E+03  0.43687636872E+03  0.12699999809E+01 0.  1.
</event>
<event>
 5   0  0.6863405E-03  0.8963548E+03  0.7818609E-02  0.9430150E-01
        2   -1    0    0  501    0  0.00000000000E+00  0.00000000000E+00  0.78951520355E+03  0.78951520355E+03  0.25500000920E-02 0. -1.
       -2   -1    0    0    0  501  0.00000000000E+00  0.00000000000E+00 -0.25441307519E+03  0.25441307520E+03  0.25500000920E-02 0.  1.
    10030    2    1    2    0    0  0.00000000000E+00  0.00000000000E+00  0.53510212837E+03  0.10439282788E+04  0.89635482004E+03 0.  0.
        1    1    3    3  502    0 -0.12607628550E+03 -0.17096798132E+03  0.72715908261E+03  0.75755238225E+03  0.50400001928E-02 0. -1.
       -1    1    3    3    0  502  0.12607628550E+03  0.17096798132E+03 -0.19205695424E+03  0.28637589651E+03  0.50400001928E-02 0.  1.
</event>
<event>
 5   0  0.6524705E-03  0.8863185E+03  0.7818609E-02  0.9442847E-01
        2   -1    0    0  501    0  0.00000000000E+00  0.00000000000E+00  0.85330635808E+03  0.85330635808E+03  0.25500000920E-02 0. -1.
       -2   -1    0    0    0  501  0.00000000000E+00  0.00000000000E+00 -0.23015196163E+03  0.23015196164E+03  0.25500000920E-02 0.  1.
    10030    2    1    2    0    0  0.00000000000E+00  0.00000000000E+00  0.62315439645E+03  0.10834583197E+04  0.88631852556E+03 0.  0.
        3    1    3    3  502    0 -0.89639327492E+01  0.26796382382E+03 -0.11975914840E+03  0.29364472887E+03  0.10100000352E+00 0.  1.
       -3    1    3    3    0  502  0.89639327492E+01 -0.26796382382E+03  0.74291354485E+03  0.78981359085E+03  0.10100000352E+00 0. -1.
</event>
<event>
 5   0  0.6609191E-03  0.8675150E+03  0.7818609E-02  0.9467126E-01
       -2   -1    0    0    0  501  0.00000000000E+00  0.00000000000E+00  0.12995551667E+03  0.12995551670E+03  0.25500000920E-02 0.  1.
        2   -1    0    0  501    0  0.00000000000E+00  0.00000000000E+00 -0.14477690896E+04  0.14477690896E+04  0.25500000920E-02 0. -1.
    10030    2    1    2    0    0  0.00000000000E+00  0.00000000000E+00 -0.13178135729E+04  0.15777246063E+04  0.86751502599E+03 0.  0.
        2    1    3    3  502    0 -0.27031618474E+03 -0.13694233356E+03 -0.12233443343E+04  0.12603155965E+04  0.25500000920E-02 0. -1.
       -2    1    3    3    0  502  0.27031618474E+03  0.13694233356E+03 -0.94469238608E+02  0.31740900980E+03  0.25500000920E-02 0.  1.
</event>
<event>
 5   0  0.6863405E-03  0.9026799E+03  0.7818609E-02  0.9422238E-01
        2   -1    0    0  501    0  0.00000000000E+00  0.00000000000E+00  0.18892582215E+04  0.18892582215E+04  0.25500000920E-02 0. -1.
       -2   -1    0    0    0  501  0.00000000000E+00  0.00000000000E+00 -0.10782420774E+03  0.10782420777E+03  0.25500000920E-02 0.  1.
    10030    2    1    2    0    0  0.00000000000E+00  0.00000000000E+00  0.17814340138E+04  0.19970824293E+04  0.90267994547E+03 0.  0.
        1    1    3    3  502    0 -0.44012031138E+03 -0.99684498096E+02  0.87289614560E+03  0.98264468079E+03  0.50400001928E-02 0.  1.
       -1    1    3    3    0  502  0.44012031138E+03  0.99684498096E+02  0.90853786820E+03  0.10144377485E+04  0.50400001928E-02 0. -1.
</event>
<event>
 5   0  0.6724773E-03  0.8854634E+03  0.7818609E-02  0.9443938E-01
       -2   -1    0    0    0  501  0.00000000000E+00  0.00000000000E+00  0.14650998342E+03  0.14650998344E+03  0.25500000920E-02 0.  1.
        2   -1    0    0  501    0  0.00000000000E+00  0.00000000000E+00 -0.13378703067E+04  0.13378703067E+04  0.25500000920E-02 0. -1.
    10030    2    1    2    0    0  0.00000000000E+00  0.00000000000E+00 -0.11913603232E+04  0.14843802901E+04  0.88546339612E+03 0.  0.
        5    1    3    3  502    0  0.26866562111E+02 -0.13885800964E+03 -0.12989362687E+04  0.13066219343E+04  0.46999998093E+01 0. -1.
       -5    1    3    3    0  502 -0.26866562111E+02  0.13885800964E+03  0.10757594550E+03  0.17775835578E+03  0.46999998093E+01 0.  1.
</event>
<event>
 5   0  0.6609191E-03  0.8583982E+03  0.7818609E-02  0.9479134E-01
        2   -1    0    0  501    0  0.00000000000E+00  0.00000000000E+00  0.24571854823E+03  0.24571854824E+03  0.25500000920E-02 0. -1.
       -2   -1    0    0    0  501  0.00000000000E+00  0.00000000000E+00 -0.74968647862E+03  0.74968647862E+03  0.25500000920E-02 0.  1.
    10030    2    1    2    0    0  0.00000000000E+00  0.00000000000E+00 -0.50396793039E+03  0.99540502686E+03  0.85839821333E+03 0.  0.
        2    1    3    3  502    0 -0.12399486848E+03  0.93093860461E+02 -0.71607430955E+03  0.73266882769E+03  0.25500000920E-02 0.  1.
       -2    1    3    3    0  502  0.12399486848E+03 -0.93093860461E+02  0.21210637916E+03  0.26273619917E+03  0.25500000920E-02 0. -1.
</event>
<event>
 5   0  0.3943549E-03  0.8980519E+03  0.7818609E-02  0.9428020E-01
        1   -1    0    0  501    0  0.00000000000E+00  0.00000000000E+00  0.16093995573E+04  0.16093995573E+04  0.50400001928E-02 0. -1.
       -1   -1    0    0    0  501  0.00000000000E+00  0.00000000000E+00 -0.12527919964E+03  0.12527919974E+03  0.50400001928E-02 0.  1.
    10030    2    1    2    0    0  0.00000000000E+00  0.00000000000E+00  0.14841203577E+04  0.17346787571E+04  0.89805186607E+03 0.  0.
        3    1    3    3  502    0 -0.32216170946E+02 -0.36197370963E+03  0.23260979730E+03  0.43147442118E+03  0.10100000352E+00 0.  1.
       -3    1    3    3    0  502  0.32216170946E+02  0.36197370963E+03  0.12515105604E+04  0.13032043359E+04  0.10100000352E+00 0. -1.
</event>
<event>
 5   0  0.3969536E-03  0.9021442E+03  0.7818609E-02  0.9422905E-01
       -1   -1    0    0    0  501  0.00000000000E+00  0.00000000000E+00  0.47702106920E+03  0.47702106923E+03  0.50400001928E-02 0. -1.
        1   -1    0    0  501    0  0.00000000000E+00  0.00000000000E+00 -0.42653473631E+03  0.42653473634E+03  0.50400001928E-02 0.  1.
    10030    2    1    2    0    0  0.00000000000E+00  0.00000000000E+00  0.50486332891E+02  0.90355580556E+03  0.90214423678E+03 0.  0.
        1    1    3    3  502    0 -0.19172857543E+03  0.18268207816E+03 -0.34047673049E+03  0.43134324191E+03  0.50400001928E-02 0.  1.
       -1    1    3    3    0  502  0.19172857543E+03 -0.18268207816E+03  0.39096306338E+03  0.47221256365E+03  0.50400001928E-02 0. -1.
</event>
<event>
 5   0  0.6609191E-03  0.9005158E+03  0.7818609E-02  0.9424937E-01
        2   -1    0    0  501    0  0.00000000000E+00  0.00000000000E+00  0.60188724848E+03  0.60188724848E+03  0.25500000920E-02 0.  1.
       -2   -1    0    0    0  501  0.00000000000E+00  0.00000000000E+00 -0.33682746492E+03  0.33682746493E+03  0.25500000920E-02 0. -1.
    10030    2    1    2    0    0  0.00000000000E+00  0.00000000000E+00  0.26505978355E+03  0.93871471342E+03  0.90051575462E+03 0.  0.
        2    1    3    3  502    0 -0.32267126910E+03  0.28323088199E+03  0.27391386483E+03  0.50927918254E+03  0.25500000920E-02 0. -1.
       -2    1    3    3    0  502  0.32267126910E+03 -0.28323088199E+03 -0.88540812715E+01  0.42943553088E+03  0.25500000920E-02 0.  1.
</event>
<event>
 5   0  0.6724773E-03  0.8986282E+03  0.7818609E-02  0.9427298E-01
       -2   -1    0    0    0  501  0.00000000000E+00  0.00000000000E+00  0.47196022906E+03  0.47196022907E+03  0.25500000920E-02 0. -1.
        2   -1    0    0  501    0  0.00000000000E+00  0.00000000000E+00 -0.42775462616E+03  0.42775462616E+03  0.25500000920E-02 0.  1.
    10030    2    1    2    0    0  0.00000000000E+00  0.00000000000E+00  0.44205602905E+02  0.89971485523E+03  0.89862822424E+03 0.  0.
        5    1    3    3  502    0  0.66279737505E+02 -0.10812075457E+02  0.46688223410E+03  0.47171073243E+03  0.46999998093E+01 0. -1.
       -5    1    3    3    0  502 -0.66279737505E+02  0.10812075457E+02 -0.42267663119E+03  0.42800412280E+03  0.46999998093E+01 0.  1.
</event>
<event>
 5   0  0.6724773E-03  0.9125530E+03  0.7818609E-02  0.9410024E-01
        2   -1    0    0  501    0  0.00000000000E+00  0.00000000000E+00  0.29249338614E+04  0.29249338615E+04  0.25500000920E-02 0.  1.
       -2   -1    0    0    0  501  0.00000000000E+00  0.00000000000E+00 -0.71177070977E+02  0.71177071023E+02  0.25500000920E-02 0. -1.
    10030    2    1    2    0    0  0.00000000000E+00  0.00000000000E+00  0.28537567905E+04  0.29961109325E+04  0.91255295765E+03 0.  0.
        5    1    3    3  502    0  0.31199820839E+03  0.13886506291E+03  0.43352297213E+03  0.55189731391E+03  0.46999998093E+01 0. -1.
       -5    1    3    3    0  502 -0.31199820839E+03 -0.13886506291E+03  0.24202338183E+04  0.24442136186E+04  0.46999998093E+01 0.  1.
</event>
<event>
 5   0  0.3998066E-03  0.9026679E+03  0.7818609E-02  0.9422253E-01
        1   -1    0    0  501    0  0.00000000000E+00  0.00000000000E+00  0.50602963952E+03  0.50602963954E+03  0.50400001928E-02 0. -1.
       -1   -1    0    0    0  501  0.00000000000E+00  0.00000000000E+00 -0.40255017219E+03  0.40255017223E+03  0.50400001928E-02 0.  1.
    10030    2    1    2    0    0  0.00000000000E+00  0.00000000000E+00  0.10347946732E+03  0.90857981177E+03  0.90266786483E+03 0.  0.
        4    1    3    3  502    0  0.40737852209E+03  0.58307226404E+02 -0.13479457524E+03  0.43304524397E+03  0.12699999809E+01 0.  1.
       -4    1    3    3    0  502 -0.40737852209E+03 -0.58307226404E+02  0.23827404256E+03  0.47553456780E+03  0.12699999809E+01 0. -1.
</event>
<event>
 5   0  0.3794006E-03  0.9018510E+03  0.7818609E-02  0.9423270E-01
        1   -1    0    0  501    0  0.00000000000E+00  0.00000000000E+00  0.23827699313E+04  0.23827699313E+04  0.50400001928E-02 0.  1.
       -1   -1    0    0    0  501  0.00000000000E+00  0.00000000000E+00 -0.85335064819E+02  0.85335064968E+02  0.50400001928E-02 0. -1.
    10030    2    1    2    0    0  0.00000000000E+00  0.00000000000E+00  0.22974348664E+04  0.24681049962E+04  0.90185104474E+03 0.  0.
        5    1    3    3  502    0  0.20294156405E+03 -0.39760731329E+03  0.97487960945E+03  0.10722356070E+04  0.46999998093E+01 0.  1.
       -5    1    3    3    0  502 -0.20294156405E+03  0.39760731329E+03  0.13225552570E+04  0.13958693892E+04  0.46999998093E+01 0. -1.
</event>
<event>
 5   0  0.6863405E-03  0.9042873E+03  0.7818609E-02  0.9420238E-01
       -2   -1    0    0    0  501  0.00000000000E+00  0.00000000000E+00  0.12887088512E+04  0.12887088512E+04  0.25500000920E-02 0.  1.
        2   -1    0    0  501    0  0.00000000000E+00  0.00000000000E+00 -0.15863464662E+03  0.15863464664E+03  0.25500000920E-02 0. -1.
    10030    2    1    2    0    0  0.00000000000E+00  0.00000000000E+00  0.11300742046E+04  0.14473434979E+04  0.90428728451E+03 0.  0.
        1    1    3    3  502    0 -0.33496465276E+03 -0.42423300303E+02  0.83723403010E+02  0.34786586962E+03  0.50400001928E-02 0. -1.
       -1    1    3    3    0  502  0.33496465276E+03  0.42423300303E+02  0.10463508016E+04  0.10994776283E+04  0.50400001928E-02 0.  1.
</event>
<event>
 5   0  0.6534628E-03  0.8873548E+03  0.7818609E-02  0.9441528E-01
        2   -1    0    0  501    0  0.00000000000E+00  0.00000000000E+00  0.46677692609E+03  0.46677692610E+03  0.25500000920E-02 0. -1.
       -2   -1    0    0    0  501  0.00000000000E+00  0.00000000000E+00 -0.42172103997E+03  0.42172103998E+03  0.25500000920E-02 0.  1.
    10030    2    1    2    0    0  0.00000000000E+00  0.00000000000E+00  0.45055886121E+02  0.88849796607E+03  0.88735483480E+03 0.  0.
        4    1    3    3  502    0 -0.20602665997E+03  0.29819641012E+01 -0.37090592363E+03  0.42429788335E+03  0.12699999809E+01 0.  1.
       -4    1    3    3    0  502  0.20602665997E+03 -0.29819641012E+01  0.41596180975E+03  0.46420008272E+03  0.12699999809E+01 0. -1.
</event>
<event>
 5   0  0.6609191E-03  0.8978791E+03  0.7818609E-02  0.9428236E-01
        2   -1    0    0  501    0  0.00000000000E+00  0.00000000000E+00  0.38172755981E+03  0.38172755982E+03  0.25500000920E-02 0. -1.
       -2   -1    0    0    0  501  0.00000000000E+00  0.00000000000E+00 -0.52798581162E+03  0.52798581162E+03  0.25500000920E-02 0.  1.
    10030    2    1    2    0    0  0.00000000000E+00  0.00000000000E+00 -0.14625825181E+03  0.90971337144E+03  0.89787913550E+03 0.  0.
        2    1    3    3  502    0  0.12139530873E+03 -0.35489741672E+03  0.17681595961E+03  0.41467201613E+03  0.25500000920E-02 0. -1.
       -2    1    3    3    0  502 -0.12139530873E+03  0.35489741672E+03 -0.32307421142E+03  0.49504135531E+03  0.25500000920E-02 0.  1.
</event>
<event>
 5   0  0.6609191E-03  0.8930407E+03  0.7818609E-02  0.9434323E-01
       -2   -1    0    0    0  501  0.00000000000E+00  0.00000000000E+00  0.17511978041E+03  0.17511978043E+03  0.25500000920E-02 0. -1.
        2   -1    0    0  501    0  0.00000000000E+00  0.00000000000E+00 -0.11385373819E+04  0.11385373819E+04  0.25500000920E-02 0.  1.
    10030    2    1    2    0    0  0.00000000000E+00  0.00000000000E+00 -0.96341760149E+03  0.13136571623E+04  0.89304068514E+03 0.  0.
        2    1    3    3  502    0 -0.13434942120E+03 -0.27846270916E+03 -0.78086898044E+01  0.30927693580E+03  0.25500000920E-02 0. -1.
       -2    1    3    3    0  502  0.13434942120E+03  0.27846270916E+03 -0.95560891169E+03  0.10043802265E+04  0.25500000920E-02 0.  1.
</event>
<event>
 5   0  0.2560250E-03  0.9136430E+03  0.7818609E-02  0.9408686E-01
        4   -1    0    0  501    0  0.00000000000E+00  0.00000000000E+00  0.68509556725E+03  0.68509674439E+03  0.12699999809E+01 0.  1.
       -4   -1    0    0    0  501  0.00000000000E+00  0.00000000000E+00 -0.30460568671E+03  0.30460833422E+03  0.12699999809E+01 0. -1.
    10030    2    1    2    0    0  0.00000000000E+00  0.00000000000E+00  0.38048988054E+03  0.98970507861E+03  0.91364303392E+03 0.  0.
        5    1    3    3  502    0  0.38804565308E+03  0.22312389650E+03  0.91555410757E+02  0.45691157274E+03  0.46999998093E+01 0.  1.
       -5    1    3    3    0  502 -0.38804565308E+03 -0.22312389650E+03  0.28893446979E+03  0.53279350587E+03  0.46999998093E+01 0. -1.
</event>
<event>
 5   0  0.3943549E-03  0.9080450E+03  0.7818609E-02  0.9415580E-01
        1   -1    0    0  501    0  0.00000000000E+00  0.00000000000E+00  0.79955997051E+03  0.79955997053E+03  0.50400001928E-02 0. -1.
       -1   -1    0    0    0  501  0.00000000000E+00  0.00000000000E+00 -0.25781235848E+03  0.25781235853E+03  0.50400001928E-02 0.  1.
    10030    2    1    2    0    0  0.00000000000E+00  0.00000000000E+00  0.54174761203E+03  0.10573723291E+04  0.90804502483E+03 0.  0.
        3    1    3    3  502    0  0.22764811637E+03 -0.25128169578E+03  0.62247245091E+03  0.70882869430E+03  0.10100000352E+00 0. -1.
       -3    1    3    3    0  502 -0.22764811637E+03  0.25128169578E+03 -0.80724838880E+02  0.34854363476E+03  0.10100000352E+00 0.  1.
</event>
<event>
 5   0  0.6724773E-03  0.8963349E+03  0.7818609E-02  0.9430175E-01
       -2   -1    0    0    0  501  0.00000000000E+00  0.00000000000E+00  0.19742058050E+03  0.19742058052E+03  0.25500000920E-02 0.  1.
        2   -1    0    0  501    0  0.00000000000E+00  0.00000000000E+00 -0.10173917593E+04  0.10173917593E+04  0.25500000920E-02 0. -1.
    10030    2    1    2    0    0  0.00000000000E+00  0.00000000000E+00 -0.81997117881E+03  0.12148123398E+04  0.89633491895E+03 0.  0.
        5    1    3    3  502    0  0.24072096946E+02 -0.21627988526E+03 -0.94094148297E+03  0.96578953142E+03  0.46999998093E+01 0. -1.
       -5    1    3    3    0  502 -0.24072096946E+02  0.21627988526E+03  0.12097030417E+03  0.24902280841E+03  0.46999998093E+01 0.  1.
</event>
<event>
 5   0  0.6863405E-03  0.9122603E+03  0.7818609E-02  0.9410384E-01
       -2   -1    0    0    0  501  0.00000000000E+00  0.00000000000E+00  0.47586533308E+03  0.47586533309E+03  0.25500000920E-02 0. -1.
        2   -1    0    0  501    0  0.00000000000E+00  0.00000000000E+00 -0.43721338226E+03  0.43721338227E+03  0.25500000920E-02 0.  1.
    10030    2    1    2    0    0  0.00000000000E+00  0.00000000000E+00  0.38651950819E+02  0.91307871535E+03  0.91226025186E+03 0.  0.
        1    1    3    3  502    0 -0.10816180162E+01 -0.29667324367E+03  0.36610255731E+03  0.47121891505E+03  0.50400001928E-02 0. -1.
       -1    1    3    3    0  502  0.10816180162E+01  0.29667324367E+03 -0.32745060649E+03  0.44185980030E+03  0.50400001928E-02 0.  1.
</event>
<event>
 5   0  0.3998066E-03  0.8787171E+03  0.7818609E-02  0.9452584E-01
        1   -1    0    0  501    0  0.00000000000E+00  0.00000000000E+00  0.26372236355E+03  0.26372236360E+03  0.50400001928E-02 0. -1.
       -1   -1    0    0    0  501  0.00000000000E+00  0.00000000000E+00 -0.73196654152E+03  0.73196654154E+03  0.50400001928E-02 0.  1.
    10030    2    1    2    0    0  0.00000000000E+00  0.00000000000E+00 -0.46824417796E+03  0.99568890514E+03  0.87871712492E+03 0.  0.
        4    1    3    3  502    0 -0.17852051247E+02  0.15387619522E+03 -0.69999390202E+03  0.71693071838E+03  0.12699999809E+01 0.  1.
       -4    1    3    3    0  502  0.17852051247E+02 -0.15387619522E+03  0.23174972405E+03  0.27875818676E+03  0.12699999809E+01 0. -1.
</event>
<event>
 5   0  0.3943549E-03  0.8998903E+03  0.7818609E-02  0.9425719E-01
       -1   -1    0    0    0  501  0.00000000000E+00  0.00000000000E+00  0.10015896574E+03  0.10015896587E+03  0.50400001928E-02 0. -1.
        1   -1    0    0  501    0  0.00000000000E+00  0.00000000000E+00 -0.20212931529E+04  0.20212931529E+04  0.50400001928E-02 0.  1.
    10030    2    1    2    0    0  0.00000000000E+00  0.00000000000E+00 -0.19211341872E+04  0.21214521188E+04  0.89989028619E+03 0.  0.
        3    1    3    3  502    0  0.34894113708E+03 -0.45407678935E+02 -0.16216175727E+04  0.16593569046E+04  0.10100000352E+00 0. -1.
       -3    1    3    3    0  502 -0.34894113708E+03  0.45407678935E+02 -0.29951661446E+03  0.46209521421E+03  0.10100000352E+00 0.  1.
</event>
<event>
 5   0  0.6724773E-03  0.8984193E+03  0.7818609E-02  0.9427560E-01
        2   -1    0    0  501    0  0.00000000000E+00  0.00000000000E+00  0.54607003969E+03  0.54607003970E+03  0.25500000920E-02 0.  1.
       -2   -1    0    0    0  501  0.00000000000E+00  0.00000000000E+00 -0.36953004701E+03  0.36953004702E+03  0.25500000920E-02 0. -1.
    10030    2    1    2    0    0  0.00000000000E+00  0.00000000000E+00  0.17653999268E+03  0.91560008671E+03  0.89841925056E+03 0.  0.
        5    1    3    3  502    0  0.39869808106E+03 -0.47098241964E+02  0.29358932974E+03  0.49738836815E+03  0.46999998093E+01 0.  1.
       -5    1    3    3    0  502 -0.39869808106E+03  0.47098241964E+02 -0.11704933706E+03  0.41821171856E+03  0.46999998093E+01 0. -1.
</event>
<event>
 5   0  0.2560250E-03  0.8902822E+03  0.7818609E-02  0.9437811E-01
       -4   -1    0    0    0  501  0.00000000000E+00  0.00000000000E+00  0.18070883221E+03  0.18071329486E+03  0.12699999809E+01 0.  1.
        4   -1    0    0  501    0  0.00000000000E+00  0.00000000000E+00 -0.10965001665E+04  0.10965009020E+04  0.12699999809E+01 0. -1.
    10030    2    1    2    0    0  0.00000000000E+00  0.00000000000E+00 -0.91579133431E+03  0.12772141968E+04  0.89028216686E+03 0.  0.
        4    1    3    3  502    0  0.44233662426E+03 -0.15673405499E+02 -0.38997253806E+03  0.58990468565E+03  0.12699999809E+01 0.  1.
       -4    1    3    3    0  502 -0.44233662426E+03  0.15673405499E+02 -0.52581879624E+03  0.68730951120E+03  0.12699999809E+01 0. -1.
</event>
<event>
 5   0  0.6609191E-03  0.9014228E+03  0.7818609E-02  0.9423805E-01
        2   -1    0    0  501    0  0.00000000000E+00  0.00000000000E+00  0.93475812601E+03  0.93475812601E+03  0.25500000920E-02 0.  1.
       -2   -1    0    0    0  501  0.00000000000E+00  0.00000000000E+00 -0.21731905542E+03  0.21731905544E+03  0.25500000920E-02 0. -1.
    10030    2    1    2    0    0  0.00000000000E+00  0.00000000000E+00  0.71743907059E+03  0.11520771814E+04  0.90142277096E+03 0.  0.
        2    1    3    3  502    0  0.37036821332E+01  0.45045805840E+03  0.37744104834E+03  0.58769713682E+03  0.25500000920E-02 0.  1.
       -2    1    3    3    0  502 -0.37036821332E+01 -0.45045805840E+03  0.33999802225E+03  0.56438004463E+03  0.25500000920E-02 0. -1.
</event>
<event>
 5   0  0.6534628E-03  0.8956760E+03  0.7818609E-02  0.9431003E-01
       -2   -1    0    0    0  501  0.00000000000E+00  0.00000000000E+00  0.12414437930E+03  0.12414437933E+03  0.25500000920E-02 0. -1.
        2   -1    0    0  501    0  0.00000000000E+00  0.00000000000E+00 -0.16155293952E+04  0.16155293952E+04  0.25500000920E-02 0.  1.
    10030    2    1    2    0    0  0.00000000000E+00  0.00000000000E+00 -0.14913850159E+04  0.17396737745E+04  0.89567604420E+03 0.  0.
        4    1    3    3  502    0 -0.13511396714E+02  0.15667096340E+03  0.68752991140E+02  0.17163022842E+03  0.12699999809E+01 0. -1.
       -4    1    3    3    0  502  0.13511396714E+02 -0.15667096340E+03 -0.15601380070E+04  0.15680435461E+04  0.12699999809E+01 0.  1.
</event>
<event>
 5   0  0.3969536E-03  0.9008304E+03  0.7818609E-02  0.9424544E-01
       -1   -1    0    0    0  501  0.00000000000E+00  0.00000000000E+00  0.69791042112E+03  0.69791042114E+03  0.50400001928E-02 0.  1.
        1   -1    0    0  501    0  0.00000000000E+00  0.00000000000E+00 -0.29068754960E+03  0.29068754965E+03  0.50400001928E-02 0. -1.
    10030    2    1    2    0    0  0.00000000000E+00  0.00000000000E+00  0.40722287152E+03  0.98859797079E+03  0.90083043952E+03 0.  0.
        1    1    3    3  502    0  0.36082226533E+02 -0.14548815590E+03 -0.26251218888E+03  0.30229353270E+03  0.50400001928E-02 0. -1.
       -1    1    3    3    0  502 -0.36082226533E+02  0.14548815590E+03  0.66973506040E+03  0.68630443808E+03  0.50400001928E-02 0.  1.
</event>
<event>
 5   0  0.3969536E-03  0.8151871E+03  0.7818609E-02  0.9538291E-01
        1   -1    0    0  501    0  0.00000000000E+00  0.00000000000E+00  0.11755203803E+04  0.11755203804E+04  0.50400001928E-02 0.  1.
       -1   -1    0    0    0  501  0.00000000000E+00  0.00000000000E+00 -0.14132676077E+03  0.14132676086E+03  0.50400001928E-02 0. -1.
    10030    2    1    2    0    0  0.00000000000E+00  0.00000000000E+00  0.10341936196E+04  0.13168471412E+04  0.81518706476E+03 0.  0.
        1    1    3    3  502    0 -0.25567742020E+03 -0.20960078345E+03  0.13200586507E+03  0.35599014040E+03  0.50400001928E-02 0. -1.
       -1    1    3    3    0  502  0.25567742020E+03  0.20960078345E+03  0.90218775450E+03  0.96085700082E+03  0.50400001928E-02 0.  1.
</event>
<event>
 5   0  0.3794006E-03  0.9013577E+03  0.7818609E-02  0.9423886E-01
        1   -1    0    0  501    0  0.00000000000E+00  0.00000000000E+00  0.76536026077E+03  0.76536026078E+03  0.50400001928E-02 0.  1.
       -1   -1    0    0    0  501  0.00000000000E+00  0.00000000000E+00 -0.26538017201E+03  0.26538017206E+03  0.50400001928E-02 0. -1.
    10030    2    1    2    0    0  0.00000000000E+00  0.00000000000E+00  0.49998008875E+03  0.10307404328E+04  0.90135772630E+03 0.  0.
        5    1    3    3  502    0  0.78918832328E+02 -0.32282629911E+03  0.59805603214E+03  0.68420618900E+03  0.46999998093E+01 0.  1.
       -5    1    3    3    0  502 -0.78918832328E+02  0.32282629911E+03 -0.98075943384E+02  0.34653424385E+03  0.46999998093E+01 0. -1.
</event>
<event>
 5   0  0.6863405E-03  0.9069964E+03  0.7818609E-02  0.9416878E-01
        2   -1    0    0  501    0  0.00000000000E+00  0.00000000000E+00  0.23406891451E+03  0.23406891453E+03  0.25500000920E-02 0.  1.
       -2   -1    0    0    0  501  0.00000000000E+00  0.00000000000E+00 -0.87863271957E+03  0.87863271957E+03  0.25500000920E-02 0. -1.
    10030    2    1    2    0    0  0.00000000000E+00  0.00000000000E+00 -0.64456380506E+03  0.11127016341E+04  0.90699637692E+03 0.  0.
        1    1    3    3  502    0 -0.17347695189E+03  0.34596586687E+02  0.18999921456E+03  0.25959753120E+03  0.50400001928E-02 0.  1.
       -1    1    3    3    0  502  0.17347695189E+03 -0.34596586687E+02 -0.83456301961E+03  0.85310410290E+03  0.50400001928E-02 0. -1.
</event>
<event>
 5   0  0.2560250E-03  0.8985555E+03  0.7818609E-02  0.9427389E-01
        3   -1    0    0  501    0  0.00000000000E+00  0.00000000000E+00  0.15502699682E+03  0.15502702972E+03  0.10100000352E+00 0.  1.
       -3   -1    0    0    0  501  0.00000000000E+00  0.00000000000E+00 -0.13020343342E+04  0.13020343381E+04  0.10100000352E+00 0. -1.
    10030    2    1    2    0    0  0.00000000000E+00  0.00000000000E+00 -0.11470073374E+04  0.14570613678E+04  0.89855550615E+03 0.  0.
        1    1    3    3  502    0 -0.18941029000E+03 -0.16914827255E+03  0.27487348386E+02  0.25542699625E+03  0.50400001928E-02 0.  1.
       -1    1    3    3    0  502  0.18941029000E+03  0.16914827255E+03 -0.11744946857E+04  0.12016343716E+04  0.50400001928E-02 0. -1.
</event>
<event>
 5   0  0.6534628E-03  0.9033736E+03  0.7818609E-02  0.9421374E-01
       -2   -1    0    0    0  501  0.00000000000E+00  0.00000000000E+00  0.25574018865E+03  0.25574018866E+03  0.25500000920E-02 0. -1.
        2   -1    0    0  501    0  0.00000000000E+00  0.00000000000E+00 -0.79776662392E+03  0.79776662393E+03  0.25500000920E-02 0.  1.
    10030    2    1    2    0    0  0.00000000000E+00  0.00000000000E+00 -0.54202643528E+03  0.10535068126E+04  0.90337364785E+03 0.  0.
        4    1    3    3  502    0 -0.29839747924E+03 -0.17565368923E+03  0.67230816813E+02  0.35272775591E+03  0.12699999809E+01 0. -1.
       -4    1    3    3    0  502  0.29839747924E+03  0.17565368923E+03 -0.60925725209E+03  0.70077905668E+03  0.12699999809E+01 0.  1.
</event>
<event>
 5   0  0.3998066E-03  0.8912543E+03  0.7818609E-02  0.9436580E-01
       -1   -1    0    0    0  501  0.00000000000E+00  0.00000000000E+00  0.35220692495E+03  0.35220692499E+03  0.50400001928E-02 0.  1.
        1   -1    0    0  501    0  0.00000000000E+00  0.00000000000E+00 -0.56382641875E+03  0.56382641878E+03  0.50400001928E-02 0. -1.
    10030    2    1    2    0    0  0.00000000000E+00  0.00000000000E+00 -0.21161949380E+03  0.91603334376E+03  0.89125432775E+03 0.  0.
        4    1    3    3  502    0  0.60315089252E+02 -0.23872821041E+03  0.27593672215E+03  0.36982665665E+03  0.12699999809E+01 0.  1.
       -4    1    3    3    0  502 -0.60315089252E+02  0.23872821041E+03 -0.48755621595E+03  0.54620668711E+03  0.12699999809E+01 0. -1.
</event>
<event>
 5   0  0.3794006E-03  0.8797967E+03  0.7818609E-02  0.9451195E-01
       -1   -1    0    0    0  501  0.00000000000E+00  0.00000000000E+00  0.16306813489E+03  0.16306813497E+03  0.50400001928E-02 0.  1.
        1   -1    0    0  501    0  0.00000000000E+00  0.00000000000E+00 -0.11866852815E+04  0.11866852815E+04  0.50400001928E-02 0. -1.
    10030    2    1    2    0    0  0.00000000000E+00  0.00000000000E+00 -0.10236171466E+04  0.13497534164E+04  0.87979669382E+03 0.  0.
        5    1    3    3  502    0  0.38936758472E+03  0.16690987088E+03 -0.33013825541E+03  0.53710276364E+03  0.46999998093E+01 0. -1.
       -5    1    3    3    0  502 -0.38936758472E+03 -0.16690987088E+03 -0.69347889115E+03  0.81265065280E+03  0.46999998093E+01 0.  1.
</event>
<event>
 5   0  0.6863405E-03  0.8927589E+03  0.7818609E-02  0.9434679E-01
        2   -1    0    0  501    0  0.00000000000E+00  0.00000000000E+00  0.18626766754E+03  0.18626766756E+03  0.25500000920E-02 0. -1.
       -2   -1    0    0    0  501  0.00000000000E+00  0.00000000000E+00 -0.10697220571E+04  0.10697220571E+04  0.25500000920E-02 0.  1.
    10030    2    1    2    0    0  0.00000000000E+00  0.00000000000E+00 -0.88345438960E+03  0.12559897247E+04  0.89275894286E+03 0.  0.
        1    1    3    3  502    0  0.40412309101E+03  0.15541202689E+03 -0.28899172075E+03  0.52056179794E+03  0.50400001928E-02 0. -1.
       -1    1    3    3    0  502 -0.40412309101E+03 -0.15541202689E+03 -0.59446266885E+03  0.73542792677E+03  0.50400001928E-02 0.  1.
</event>
<event>
 5   0  0.3943549E-03  0.8911183E+03  0.7818609E-02  0.9436753E-01
        1   -1    0    0  501    0  0.00000000000E+00  0.00000000000E+00  0.70117256124E+03  0.70117256126E+03  0.50400001928E-02 0. -1.
       -1   -1    0    0    0  501  0.00000000000E+00  0.00000000000E+00 -0.28312997272E+03  0.28312997277E+03  0.50400001928E-02 0.  1.
    10030    2    1    2    0    0  0.00000000000E+00  0.00000000000E+00  0.41804258852E+03  0.98430253403E+03  0.89111832698E+03 0.  0.
        3    1    3    3  502    0 -0.24849892451E+03 -0.33201914756E+03  0.38894936035E+03  0.56856841712E+03  0.10100000352E+00 0.  1.
       -3    1    3    3    0  502  0.24849892451E+03  0.33201914756E+03  0.29093228166E+02  0.41573411690E+03  0.10100000352E+00 0. -1.
</event>
<event>
 5   0  0.6609191E-03  0.9003431E+03  0.7818609E-02  0.9425153E-01
        2   -1    0    0  501    0  0.00000000000E+00  0.00000000000E+00  0.49193463407E+03  0.49193463407E+03  0.25500000920E-02 0.  1.
       -2   -1    0    0    0  501  0.00000000000E+00  0.00000000000E+00 -0.41195396910E+03  0.41195396911E+03  0.25500000920E-02 0. -1.
    10030    2    1    2    0    0  0.00000000000E+00  0.00000000000E+00  0.79980664966E+02  0.90388860318E+03  0.90034310137E+03 0.  0.
        2    1    3    3  502    0 -0.56213976235E+02 -0.88996887805E+02 -0.39942490880E+03  0.41306260414E+03  0.25500000920E-02 0. -1.
       -2    1    3    3    0  502  0.56213976235E+02  0.88996887805E+02  0.47940557377E+03  0.49082599904E+03  0.25500000920E-02 0.  1.
</event>
<event>
 5   0  0.6609191E-03  0.9014544E+03  0.7818609E-02  0.9423765E-01
       -2   -1    0    0    0  501  0.00000000000E+00  0.00000000000E+00  0.20690682307E+03  0.20690682308E+03  0.25500000920E-02 0.  1.
        2   -1    0    0  501    0  0.00000000000E+00  0.00000000000E+00 -0.98186716476E+03  0.98186716476E+03  0.25500000920E-02 0. -1.
    10030    2    1    2    0    0  0.00000000000E+00  0.00000000000E+00 -0.77496034169E+03  0.11887739878E+04  0.90145441536E+03 0.  0.
        2    1    3    3  502    0 -0.42493405015E+03 -0.59367068213E+02 -0.56954892761E+03  0.71307739882E+03  0.25500000920E-02 0. -1.
       -2    1    3    3    0  502  0.42493405015E+03  0.59367068213E+02 -0.20541141409E+03  0.47569658902E+03  0.25500000920E-02 0.  1.
</event>
<event>
 5   0  0.6534628E-03  0.9021072E+03  0.7818609E-02  0.9422951E-01
       -2   -1    0    0    0  501  0.00000000000E+00  0.00000000000E+00  0.22735898013E+03  0.22735898014E+03  0.25500000920E-02 0. -1.
        2   -1    0    0  501    0  0.00000000000E+00  0.00000000000E+00 -0.89483751322E+03  0.89483751322E+03  0.25500000920E-02 0.  1.
    10030    2    1    2    0    0  0.00000000000E+00  0.00000000000E+00 -0.66747853309E+03  0.11221964934E+04  0.90210718741E+03 0.  0.
        4    1    3    3  502    0 -0.57166304963E+02  0.43945821380E+03 -0.22924392613E+03  0.49894478519E+03  0.12699999809E+01 0.  1.
       -4    1    3    3    0  502  0.57166304963E+02 -0.43945821380E+03 -0.43823460696E+03  0.62325170817E+03  0.12699999809E+01 0. -1.
</event>
<event>
 5   0  0.6724773E-03  0.9050037E+03  0.7818609E-02  0.9419348E-01
       -2   -1    0    0    0  501  0.00000000000E+00  0.00000000000E+00  0.31786504724E+03  0.31786504725E+03  0.25500000920E-02 0.  1.
        2   -1    0    0  501    0  0.00000000000E+00  0.00000000000E+00 -0.64416625068E+03  0.64416625069E+03  0.25500000920E-02 0. -1.
    10030    2    1    2    0    0  0.00000000000E+00  0.00000000000E+00 -0.32630120344E+03  0.96203129794E+03  0.90500372532E+03 0.  0.
        5    1    3    3  502    0  0.40774246146E+03 -0.12259862388E+03 -0.32593929007E+03  0.53623021946E+03  0.46999998093E+01 0. -1.
       -5    1    3    3    0  502 -0.40774246146E+03  0.12259862388E+03 -0.36191337594E+00  0.42580107848E+03  0.46999998093E+01 0.  1.
</event>
<event>
 5   0  0.6863405E-03  0.8925222E+03  0.7818609E-02  0.9434978E-01
       -2   -1    0    0    0  501  0.00000000000E+00  0.00000000000E+00  0.48879228562E+03  0.48879228563E+03  0.25500000920E-02 0. -1.
        2   -1    0    0  501    0  0.00000000000E+00  0.00000000000E+00 -0.40743064038E+03  0.40743064039E+03  0.25500000920E-02 0.  1.
    10030    2    1    2    0    0  0.00000000000E+00  0.00000000000E+00  0.81361645239E+02  0.89622292602E+03  0.89252216544E+03 0.  0.
        1    1    3    3  502    0  0.77587415725E+02  0.38536501357E+03 -0.17143652755E+03  0.42885485163E+03  0.50400001928E-02 0.  1.
       -1    1    3    3    0  502 -0.77587415725E+02 -0.38536501357E+03  0.25279817279E+03  0.46736807439E+03  0.50400001928E-02 0. -1.
</event>
<event>
 5   0  0.6724773E-03  0.8958604E+03  0.7818609E-02  0.9430771E-01
       -2   -1    0    0    0  501  0.00000000000E+00  0.00000000000E+00  0.15134499252E+03  0.15134499254E+03  0.25500000920E-02 0. -1.
        2   -1    0    0  501    0  0.00000000000E+00  0.00000000000E+00 -0.13257225342E+04  0.13257225342E+04  0.25500000920E-02 0.  1.
    10030    2    1    2    0    0  0.00000000000E+00  0.00000000000E+00 -0.11743775416E+04  0.14770675267E+04  0.89586040661E+03 0.  0.
        5    1    3    3  502    0  0.31174484991E+02 -0.22739372761E+02 -0.13229363542E+04  0.13235073158E+04  0.46999998093E+01 0.  1.
       -5    1    3    3    0  502 -0.31174484991E+02  0.22739372761E+02  0.14855881258E+03  0.15356021093E+03  0.46999998093E+01 0. -1.
</event>
<event>
 5   0  0.3998066E-03  0.9219108E+03  0.7818609E-02  0.9398599E-01
       -1   -1    0    0    0  501  0.00000000000E+00  0.00000000000E+00  0.24942062430E+03  0.24942062435E+03  0.50400001928E-02 0.  1.
        1   -1    0    0  501    0  0.00000000000E+00  0.00000000000E+00 -0.85189374898E+03  0.85189374899E+03  0.50400001928E-02 0. -1.
    10030    2    1    2    0    0  0.00000000000E+00  0.00000000000E+00 -0.60247312468E+03  0.11013143733E+04  0.92191077821E+03 0.  0.
        4    1    3    3  502    0  0.48496383732E+02  0.44002557101E+03 -0.14776952096E+03  0.46670316755E+03  0.12699999809E+01 0. -1.
       -4    1    3    3    0  502 -0.48496383732E+02 -0.44002557101E+03 -0.45470360372E+03  0.63461120579E+03  0.12699999809E+01 0.  1.
</event>
<event>
 5   0  0.3794006E-03  0.8991479E+03  0.7818609E-02  0.9426647E-01
       -1   -1    0    0    0  501  0.00000000000E+00  0.00000000000E+00  0.97675520011E+02  0.97675520141E+02  0.50400001928E-02 0.  1.
        1   -1    0    0  501    0  0.00000000000E+00  0.00000000000E+00 -0.20692671929E+04  0.20692671929E+04  0.50400001928E-02 0. -1.
    10030    2    1    2    0    0  0.00000000000E+00  0.00000000000E+00 -0.19715916729E+04  0.21669427131E+04  0.89914792834E+03 0.  0.
        5    1    3    3  502    0  0.34208980520E+03 -0.15396194788E+03 -0.15827987490E+04  0.16266541384E+04  0.46999998093E+01 0. -1.
       -5    1    3    3    0  502 -0.34208980520E+03  0.15396194788E+03 -0.38879292393E+03  0.54028857467E+03  0.46999998093E+01 0.  1.
</event>
<event>
 5   0  0.6534628E-03  0.8891821E+03  0.7818609E-02  0.9439206E-01
        2   -1    0    0  501    0  0.00000000000E+00  0.00000000000E+00  0.10004842171E+04  0.10004842171E+04  0.25500000920E-02 0. -1.
       -2   -1    0    0    0  501  0.00000000000E+00  0.00000000000E+00 -0.19756553454E+03  0.19756553456E+03  0.25500000920E-02 0.  1.
    10030    2    1    2    0    0  0.00000000000E+00  0.00000000000E+00  0.80291868255E+03  0.11980497517E+04  0.88918209420E+03 0.  0.
        4    1    3    3  502    0  0.17029688320E+03 -0.28450252678E+03  0.24108177120E+01  0.33158730541E+03  0.12699999809E+01 0.  1.
       -4    1    3    3    0  502 -0.17029688320E+03  0.28450252678E+03  0.80050786484E+03  0.86646244624E+03  0.12699999809E+01 0. -1.
</event>
<event>
 5   0  0.6609191E-03  0.8883229E+03  0.7818609E-02  0.9440297E-01
       -2   -1    0    0    0  501  0.00000000000E+00  0.00000000000E+00  0.62782795684E+03  0.62782795684E+03  0.25500000920E-02 0. -1.
        2   -1    0    0  501    0  0.00000000000E+00  0.00000000000E+00 -0.31422526683E+03  0.31422526684E+03  0.25500000920E-02 0.  1.
    10030    2    1    2    0    0  0.00000000000E+00  0.00000000000E+00  0.31360269000E+03  0.94205322368E+03  0.88832293062E+03 0.  0.
        2    1    3    3  502    0 -0.42102616509E+03 -0.10333467337E+03  0.25928130874E+03  0.50514144898E+03  0.25500000920E-02 0.  1.
       -2    1    3    3    0  502  0.42102616509E+03  0.10333467337E+03  0.54321381268E+02  0.43691177471E+03  0.25500000920E-02 0. -1.
</event>
<event>
 5   0  0.3794006E-03  0.9005528E+03  0.7818609E-02  0.9424891E-01
        1   -1    0    0  501    0  0.00000000000E+00  0.00000000000E+00  0.56224539377E+03  0.56224539379E+03  0.50400001928E-02 0.  1.
       -1   -1    0    0    0  501  0.00000000000E+00  0.00000000000E+00 -0.36060563711E+03  0.36060563714E+03  0.50400001928E-02 0. -1.
    10030    2    1    2    0    0  0.00000000000E+00  0.00000000000E+00  0.20163975666E+03  0.92285103093E+03  0.90055284899E+03 0.  0.
        5    1    3    3  502    0 -0.84272521843E+02  0.43545114175E+03  0.21394564948E+02  0.44407135935E+03  0.46999998093E+01 0. -1.
       -5    1    3    3    0  502  0.84272521843E+02 -0.43545114175E+03  0.18024519172E+03  0.47877967158E+03  0.46999998093E+01 0.  1.
</event>
<event>
 5   0  0.3927993E-03  0.9484246E+03  0.7818609E-02  0.9366994E-01
       -1   -1    0    0    0  501  0.00000000000E+00  0.00000000000E+00  0.41246124179E+03  0.41246124182E+03  0.50400001928E-02 0.  1.
        1   -1    0    0  501    0  0.00000000000E+00  0.00000000000E+00 -0.54520828108E+03  0.54520828110E+03  0.50400001928E-02 0. -1.
    10030    2    1    2    0    0  0.00000000000E+00  0.00000000000E+00 -0.13274703929E+03  0.95766952293E+03  0.94842455615E+03 0.  0.
        2    1    3    3  502    0 -0.30085857129E+02  0.87262031881E+01 -0.54416238427E+03  0.54506330447E+03  0.25500000920E-02 0. -1.
       -2    1    3    3    0  502  0.30085857129E+02 -0.87262031881E+01  0.41141534498E+03  0.41260621846E+03  0.25500000920E-02 0.  1.
</event>
<event>
 5   0  0.6724773E-03  0.9459841E+03  0.7818609E-02  0.9369857E-01
       -2   -1    0    0    0  501  0.00000000000E+00  0.00000000000E+00  0.96804297120E+02  0.96804297154E+02  0.25500000920E-02 0.  1.
        2   -1    0    0  501    0  0.00000000000E+00  0.00000000000E+00 -0.23110696572E+04  0.23110696572E+04  0.25500000920E-02 0. -1.
    10030    2    1    2    0    0  0.00000000000E+00  0.00000000000E+00 -0.22142653601E+04  0.24078739544E+04  0.94598408825E+03 0.  0.
        5    1    3    3  502    0  0.42474854093E+03  0.20640559178E+03 -0.10405242185E+04  0.11426842655E+04  0.46999998093E+01 0.  1.
       -5    1    3    3    0  502 -0.42474854093E+03 -0.20640559178E+03 -0.11737411416E+04  0.12651896889E+04  0.46999998093E+01 0. -1.
</event>
<event>
 5   0  0.3927993E-03  0.9037371E+03  0.7818609E-02  0.9420922E-01
        1   -1    0    0  501    0  0.00000000000E+00  0.00000000000E+00  0.55605929178E+03  0.55605929180E+03  0.50400001928E-02 0.  1.
       -1   -1    0    0    0  501  0.00000000000E+00  0.00000000000E+00 -0.36720041467E+03  0.36720041470E+03  0.50400001928E-02 0. -1.
    10030    2    1    2    0    0  0.00000000000E+00  0.00000000000E+00  0.18885887711E+03  0.92325970651E+03  0.90373713556E+03 0.  0.
        2    1    3    3  502    0 -0.11866744877E+03 -0.21706670643E+03  0.48073185539E+03  0.54065056666E+03  0.25500000920E-02 0.  1.
       -2    1    3    3    0  502  0.11866744877E+03  0.21706670643E+03 -0.29187297828E+03  0.38260913984E+03  0.25500000920E-02 0. -1.
</event>
<event>
 5   0  0.3943549E-03  0.9041273E+03  0.7818609E-02  0.9420437E-01
       -1   -1    0    0    0  501  0.00000000000E+00  0.00000000000E+00  0.70042175381E+03  0.70042175383E+03  0.50400001928E-02 0.  1.
        1   -1    0    0  501    0  0.00000000000E+00  0.00000000000E+00 -0.29176928819E+03  0.29176928824E+03  0.50400001928E-02 0. -1.
    10030    2    1    2    0    0  0.00000000000E+00  0.00000000000E+00  0.40865246562E+03  0.99219104207E+03  0.90412732859E+03 0.  0.
        3    1    3    3  502    0  0.24776248129E+03 -0.21016744899E+02  0.61863519285E+03  0.66673642674E+03  0.10100000352E+00 0.  1.
       -3    1    3    3    0  502 -0.24776248129E+03  0.21016744899E+02 -0.20998272724E+03  0.32545461533E+03  0.10100000352E+00 0. -1.
</event>
<event>
 5   0  0.3969536E-03  0.9009413E+03  0.7818609E-02  0.9424406E-01
       -1   -1    0    0    0  501  0.00000000000E+00  0.00000000000E+00  0.18503509515E+03  0.18503509522E+03  0.50400001928E-02 0.  1.
        1   -1    0    0  501    0  0.00000000000E+00  0.00000000000E+00 -0.10966774251E+04  0.10966774251E+04  0.50400001928E-02 0. -1.
    10030    2    1    2    0    0  0.00000000000E+00  0.00000000000E+00 -0.91164232995E+03  0.12817125203E+04  0.90094131163E+03 0.  0.
        1    1    3    3  502    0  0.37308827899E+03  0.88250994974E+02 -0.11934205147E+03  0.40152911140E+03  0.50400001928E-02 0.  1.
       -1    1    3    3    0  502 -0.37308827899E+03 -0.88250994974E+02 -0.79230027848E+03  0.88018340892E+03  0.50400001928E-02 0. -1.
</event>
<event>
 5   0  0.6863405E-03  0.8903858E+03  0.7818609E-02  0.9437680E-01
       -2   -1    0    0    0  501  0.00000000000E+00  0.00000000000E+00  0.14360253397E+03  0.14360253399E+03  0.25500000920E-02 0. -1.
        2   -1    0    0  501    0  0.00000000000E+00  0.00000000000E+00 -0.13801756219E+04  0.13801756219E+04  0.25500000920E-02 0.  1.
    10030    2    1    2    0    0  0.00000000000E+00  0.00000000000E+00 -0.12365730879E+04  0.15237781559E+04  0.89038579650E+03 0.  0.
        1    1    3    3  502    0  0.25067549562E+02  0.36195557840E+03 -0.17677838082E+03  0.40359734727E+03  0.50400001928E-02 0. -1.
       -1    1    3    3    0  502 -0.25067549562E+02 -0.36195557840E+03 -0.10597947071E+04  0.11201808086E+04  0.50400001928E-02 0.  1.
</event>
<event>
 5   0  0.2560250E-03  0.8399114E+03  0.7818609E-02  0.9503978E-01
        3   -1    0    0  501    0  0.00000000000E+00  0.00000000000E+00  0.10548733332E+04  0.10548733380E+04  0.10100000352E+00 0.  1.
       -3   -1    0    0    0  501  0.00000000000E+00  0.00000000000E+00 -0.16718856791E+03  0.16718859842E+03  0.10100000352E+00 0. -1.
    10030    2    1    2    0    0  0.00000000000E+00  0.00000000000E+00  0.88768476530E+03  0.12220619365E+04  0.83991138462E+03 0.  0.
        3    1    3    3  502    0 -0.56318489761E+02  0.95625967177E+02  0.10331519150E+04  0.10390952736E+04  0.10100000352E+00 0.  1.
       -3    1    3    3    0  502  0.56318489761E+02 -0.95625967177E+02 -0.14546714970E+03  0.18296666289E+03  0.10100000352E+00 0. -1.
</event>
<event>
 5   0  0.6524705E-03  0.8975665E+03  0.7818609E-02  0.9428629E-01
        2   -1    0    0  501    0  0.00000000000E+00  0.00000000000E+00  0.57319476798E+03  0.57319476799E+03  0.25500000920E-02 0. -1.
       -2   -1    0    0    0  501  0.00000000000E+00  0.00000000000E+00 -0.35137518212E+03  0.35137518213E+03  0.25500000920E-02 0.  1.
    10030    2    1    2    0    0  0.00000000000E+00  0.00000000000E+00  0.22181958586E+03  0.92456995012E+03  0.89756652344E+03 0.  0.
        3    1    3    3  502    0 -0.15427246388E+03 -0.35141920086E+02  0.54351055536E+03  0.56607303561E+03  0.10100000352E+00 0. -1.
       -3    1    3    3    0  502  0.15427246388E+03  0.35141920086E+02 -0.32169096949E+03  0.35849691451E+03  0.10100000352E+00 0.  1.
</event>
<event>
 5   0  0.6724773E-03  0.8996976E+03  0.7818609E-02  0.9425959E-01
        2   -1    0    0  501    0  0.00000000000E+00  0.00000000000E+00  0.89053858826E+03  0.89053858826E+03  0.25500000920E-02 0. -1.
       -2   -1    0    0    0  501  0.00000000000E+00  0.00000000000E+00 -0.22723771524E+03  0.22723771526E+03  0.25500000920E-02 0.  1.
    10030    2    1    2    0    0  0.00000000000E+00  0.00000000000E+00  0.66330087301E+03  0.11177763035E+04  0.89969762508E+03 0.  0.
        5    1    3    3  502    0  0.32505003027E+03  0.45927252916E+02 -0.50422755696E+02  0.33216167604E+03  0.46999998093E+01 0.  1.
       -5    1    3    3    0  502 -0.32505003027E+03 -0.45927252916E+02  0.71372362871E+03  0.78561462748E+03  0.46999998093E+01 0. -1.
</event>
<event>
 5   0  0.6534628E-03  0.9013357E+03  0.7818609E-02  0.9423913E-01
        2   -1    0    0  501    0  0.00000000000E+00  0.00000000000E+00  0.29162303354E+03  0.29162303355E+03  0.25500000920E-02 0.  1.
       -2   -1    0    0    0  501  0.00000000000E+00  0.00000000000E+00 -0.69645223071E+03  0.69645223072E+03  0.25500000920E-02 0. -1.
    10030    2    1    2    0    0  0.00000000000E+00  0.00000000000E+00 -0.40482919717E+03  0.98807526426E+03  0.90133570270E+03 0.  0.
        4    1    3    3  502    0 -0.48320537859E+00  0.39459849755E+03 -0.44106081775E+03  0.59181455339E+03  0.12699999809E+01 0. -1.
       -4    1    3    3    0  502  0.48320537859E+00 -0.39459849755E+03  0.36231620575E+02  0.39626071087E+03  0.12699999809E+01 0.  1.
</event>
<event>
 5   0  0.6863405E-03  0.9500442E+03  0.7818609E-02  0.9365099E-01
        2   -1    0    0  501    0  0.00000000000E+00  0.00000000000E+00  0.15719232628E+04  0.15719232628E+04  0.25500000920E-02 0. -1.
       -2   -1    0    0    0  501  0.00000000000E+00  0.00000000000E+00 -0.14354771372E+03  0.14354771375E+03  0.25500000920E-02 0.  1.
    10030    2    1    2    0    0  0.00000000000E+00  0.00000000000E+00  0.14283755490E+04  0.17154709765E+04  0.95004418958E+03 0.  0.
        1    1    3    3  502    0 -0.40091684875E+03  0.11476916575E+03  0.11249131748E+04  0.11997232731E+04  0.50400001928E-02 0.  1.
       -1    1    3    3    0  502  0.40091684875E+03 -0.11476916575E+03  0.30346237420E+03  0.51574770343E+03  0.50400001928E-02 0. -1.
</event>
<event>
 5   0  0.3927993E-03  0.9013040E+03  0.7818609E-02  0.9423953E-01
       -1   -1    0    0    0  501  0.00000000000E+00  0.00000000000E+00  0.26920736066E+03  0.26920736070E+03  0.50400001928E-02 0. -1.
        1   -1    0    0  501    0  0.00000000000E+00  0.00000000000E+00 -0.75438952868E+03  0.75438952870E+03  0.50400001928E-02 0.  1.
    10030    2    1    2    0    0  0.00000000000E+00  0.00000000000E+00 -0.48518216802E+03  0.10235968894E+04  0.90130397526E+03 0.  0.
        2    1    3    3  502    0  0.58874778465E+02 -0.20383488302E+03 -0.69412001010E+03  0.72582193926E+03  0.25500000920E-02 0.  1.
       -2    1    3    3    0  502 -0.58874778465E+02  0.20383488302E+03  0.20893784208E+03  0.29777495014E+03  0.25500000920E-02 0. -1.
</event>
<event>
 5   0  0.3943549E-03  0.9034371E+03  0.7818609E-02  0.9421295E-01
        1   -1    0    0  501    0  0.00000000000E+00  0.00000000000E+00  0.84239744216E+03  0.84239744218E+03  0.50400001928E-02 0. -1.
       -1   -1    0    0    0  501  0.00000000000E+00  0.00000000000E+00 -0.24222489417E+03  0.24222489423E+03  0.50400001928E-02 0.  1.
    10030    2    1    2    0    0  0.00000000000E+00  0.00000000000E+00  0.60017254799E+03  0.10846223364E+04  0.90343706215E+03 0.  0.
        3    1    3    3  502    0 -0.13749571990E+03  0.29214500795E+03 -0.79173572929E+02  0.33244885849E+03  0.10100000352E+00 0.  1.
       -3    1    3    3    0  502  0.13749571990E+03 -0.29214500795E+03  0.67934612092E+03  0.75217347791E+03  0.10100000352E+00 0. -1.
</event>
<event>
 5   0  0.6524705E-03  0.9004454E+03  0.7818609E-02  0.9425025E-01
        2   -1    0    0  501    0  0.00000000000E+00  0.00000000000E+00  0.12483358617E+04  0.12483358617E+04  0.25500000920E-02 0. -1.
       -2   -1    0    0    0  501  0.00000000000E+00  0.00000000000E+00 -0.16237656579E+03  0.16237656581E+03  0.25500000920E-02 0.  1.
    10030    2    1    2    0    0  0.00000000000E+00  0.00000000000E+00  0.10859592959E+04  0.14107124275E+04  0.90044542353E+03 0.  0.
        3    1    3    3  502    0 -0.15749809323E+03  0.14960515677E+03  0.11608034349E+04  0.11809538420E+04  0.10100000352E+00 0. -1.
       -3    1    3    3    0  502  0.15749809323E+03 -0.14960515677E+03 -0.74844138927E+02  0.22975858555E+03  0.10100000352E+00 0.  1.
</event>
<event>
 5   0  0.6524705E-03  0.8971051E+03  0.7818609E-02  0.9429207E-01
       -2   -1    0    0    0  501  0.00000000000E+00  0.00000000000E+00  0.18235565360E+03  0.18235565362E+03  0.25500000920E-02 0.  1.
        2   -1    0    0  501    0  0.00000000000E+00  0.00000000000E+00 -0.11033350188E+04  0.11033350188E+04  0.25500000920E-02 0. -1.
    10030    2    1    2    0    0  0.00000000000E+00  0.00000000000E+00 -0.92097936516E+03  0.12856906724E+04  0.89710507410E+03 0.  0.
        3    1    3    3  502    0 -0.49964836451E+02  0.26934373464E+03 -0.96952577250E+03  0.10074833825E+04  0.10100000352E+00 0. -1.
       -3    1    3    3    0  502  0.49964836451E+02 -0.26934373464E+03  0.48546407345E+02  0.27820728987E+03  0.10100000352E+00 0.  1.
</event>
<event>
 5   0  0.3927993E-03  0.8970953E+03  0.7818609E-02  0.9429220E-01
        1   -1    0    0  501    0  0.00000000000E+00  0.00000000000E+00  0.16819271220E+04  0.16819271220E+04  0.50400001928E-02 0.  1.
       -1   -1    0    0    0  501  0.00000000000E+00  0.00000000000E+00 -0.11962171139E+03  0.11962171150E+03  0.50400001928E-02 0. -1.
    10030    2    1    2    0    0  0.00000000000E+00  0.00000000000E+00  0.15623054106E+04  0.18015488335E+04  0.89709531460E+03 0.  0.
        2    1    3    3  502    0  0.29668128845E+03 -0.26772269249E+03  0.37205191780E+03  0.54600170013E+03  0.25500000920E-02 0. -1.
       -2    1    3    3    0  502 -0.29668128845E+03  0.26772269249E+03  0.11902534928E+04  0.12555471333E+04  0.25500000920E-02 0.  1.
</event>
<event>
 5   0  0.3969536E-03  0.8834782E+03  0.7818609E-02  0.9446473E-01
        1   -1    0    0  501    0  0.00000000000E+00  0.00000000000E+00  0.40916801249E+03  0.40916801252E+03  0.50400001928E-02 0.  1.
       -1   -1    0    0    0  501  0.00000000000E+00  0.00000000000E+00 -0.47690291635E+03  0.47690291638E+03  0.50400001928E-02 0. -1.
    10030    2    1    2    0    0  0.00000000000E+00  0.00000000000E+00 -0.67734903862E+02  0.88607092890E+03  0.88347816829E+03 0.  0.
        1    1    3    3  502    0 -0.70097563027E+02 -0.16998543717E+03  0.36896374865E+03  0.41224139171E+03  0.50400001928E-02 0.  1.
       -1    1    3    3    0  502  0.70097563027E+02  0.16998543717E+03 -0.43669865251E+03  0.47382953720E+03  0.50400001928E-02 0. -1.
</event>
<event>
 5   0  0.6724773E-03  0.8970369E+03  0.7818609E-02  0.9429293E-01
       -2   -1    0    0    0  501  0.00000000000E+00  0.00000000000E+00  0.14267332296E+03  0.14267332298E+03  0.25500000920E-02 0. -1.
        2   -1    0    0  501    0  0.00000000000E+00  0.00000000000E+00 -0.14099960431E+04  0.14099960431E+04  0.25500000920E-02 0.  1.
    10030    2    1    2    0    0  0.00000000000E+00  0.00000000000E+00 -0.12673227202E+04  0.15526693661E+04  0.89703694652E+03 0.  0.
        5    1    3    3  502    0  0.36664387870E+02 -0.36707414045E+03 -0.10751529572E+04  0.11366897876E+04  0.46999998093E+01 0.  1.
       -5    1    3    3    0  502 -0.36664387870E+02  0.36707414045E+03 -0.19216976299E+03  0.41597957850E+03  0.46999998093E+01 0. -1.
</event>
<event>
 5   0  0.3998066E-03  0.9041429E+03  0.7818609E-02  0.9420417E-01
       -1   -1    0    0    0  501  0.00000000000E+00  0.00000000000E+00  0.36743687513E+03  0.36743687517E+03  0.50400001928E-02 0. -1.
        1   -1    0    0  501    0  0.00000000000E+00  0.00000000000E+00 -0.55620058360E+03  0.55620058363E+03  0.50400001928E-02 0.  1.
    10030    2    1    2    0    0  0.00000000000E+00  0.00000000000E+00 -0.18876370847E+03  0.92363745879E+03  0.90414291882E+03 0.  0.
        4    1    3    3  502    0 -0.40649704172E+03 -0.77396960488E+02  0.91578390830E+02  0.42381405001E+03  0.12699999809E+01 0. -1.
       -4    1    3    3    0  502  0.40649704172E+03  0.77396960488E+02 -0.28034209930E+03  0.49982340878E+03  0.12699999809E+01 0.  1.
</event>
<event>
 5   0  0.3969536E-03  0.9005342E+03  0.7818609E-02  0.9424914E-01
       -1   -1    0    0    0  501  0.00000000000E+00  0.00000000000E+00  0.32151918803E+03  0.32151918807E+03  0.50400001928E-02 0.  1.
        1   -1    0    0  501    0  0.00000000000E+00  0.00000000000E+00 -0.63057028762E+03  0.63057028764E+03  0.50400001928E-02 0. -1.
    10030    2    1    2    0    0  0.00000000000E+00  0.00000000000E+00 -0.30905109959E+03  0.95208947571E+03  0.90053416792E+03 0.  0.
        1    1    3    3  502    0  0.19667914862E+03  0.14847821764E+03 -0.55294456511E+03  0.60537274527E+03  0.50400001928E-02 0. -1.
       -1    1    3    3    0  502 -0.19667914862E+03 -0.14847821764E+03  0.24389346552E+03  0.34671673043E+03  0.50400001928E-02 0.  1.
</event>
<event>
 5   0  0.6534628E-03  0.8988012E+03  0.7818609E-02  0.9427081E-01
       -2   -1    0    0    0  501  0.00000000000E+00  0.00000000000E+00  0.53062942708E+03  0.53062942708E+03  0.25500000920E-02 0. -1.
        2   -1    0    0  501    0  0.00000000000E+00  0.00000000000E+00 -0.38060629728E+03  0.38060629728E+03  0.25500000920E-02 0.  1.
    10030    2    1    2    0    0  0.00000000000E+00  0.00000000000E+00  0.15002312980E+03  0.91123572437E+03  0.89880120488E+03 0.  0.
        4    1    3    3  502    0  0.89246052544E+02  0.25390499756E+03  0.43988875393E+03  0.51569015350E+03  0.12699999809E+01 0. -1.
       -4    1    3    3    0  502 -0.89246052544E+02 -0.25390499756E+03 -0.28986562413E+03  0.39554557087E+03  0.12699999809E+01 0.  1.
</event>
<event>
 5   0  0.3943549E-03  0.8999532E+03  0.7818609E-02  0.9425640E-01
        1   -1    0    0  501    0  0.00000000000E+00  0.00000000000E+00  0.17113790561E+04  0.17113790561E+04  0.50400001928E-02 0. -1.
       -1   -1    0    0    0  501  0.00000000000E+00  0.00000000000E+00 -0.11831330897E+03  0.11831330908E+03  0.50400001928E-02 0.  1.
    10030    2    1    2    0    0  0.00000000000E+00  0.00000000000E+00  0.15930657471E+04  0.18296923652E+04  0.89995315242E+03 0.  0.
        3    1    3    3  502    0  0.20028107856E+02  0.42007375743E+03  0.11219289582E+04  0.11981601246E+04  0.10100000352E+00 0.  1.
       -3    1    3    3    0  502 -0.20028107856E+02 -0.42007375743E+03  0.47113678888E+03  0.63153224052E+03  0.10100000352E+00 0. -1.
</event>
<event>
 5   0  0.3969536E-03  0.9014481E+03  0.7818609E-02  0.9423773E-01
        1   -1    0    0  501    0  0.00000000000E+00  0.00000000000E+00  0.64951432982E+03  0.64951432984E+03  0.50400001928E-02 0.  1.
       -1   -1    0    0    0  501  0.00000000000E+00  0.00000000000E+00 -0.31277548225E+03  0.31277548229E+03  0.50400001928E-02 0. -1.
    10030    2    1    2    0    0  0.00000000000E+00  0.00000000000E+00  0.33673884757E+03  0.96228981212E+03  0.90144807452E+03 0.  0.
        1    1    3    3  502    0  0.34325339201E+03 -0.20254969957E+03  0.39305809746E+03  0.55977132825E+03  0.50400001928E-02 0.  1.
       -1    1    3    3    0  502 -0.34325339201E+03  0.20254969957E+03 -0.56319249896E+02  0.40251848387E+03  0.50400001928E-02 0. -1.
</event>
<event>
 5   0  0.3969536E-03  0.8758773E+03  0.7818609E-02  0.9456249E-01
        1   -1    0    0  501    0  0.00000000000E+00  0.00000000000E+00  0.98102527399E+03  0.98102527400E+03  0.50400001928E-02 0.  1.
       -1   -1    0    0    0  501  0.00000000000E+00  0.00000000000E+00 -0.19549981349E+03  0.19549981355E+03  0.50400001928E-02 0. -1.
    10030    2    1    2    0    0  0.00000000000E+00  0.00000000000E+00  0.78552546050E+03  0.11765250876E+04  0.87587729308E+03 0.  0.
        1    1    3    3  502    0  0.18079034742E+03  0.19228279579E+03  0.86219553160E+03  0.90168672942E+03  0.50400001928E-02 0.  1.
       -1    1    3    3    0  502 -0.18079034742E+03 -0.19228279579E+03 -0.76670071094E+02  0.27483835813E+03  0.50400001928E-02 0. -1.
</event>
<event>
 5   0  0.3794006E-03  0.9333149E+03  0.7818609E-02  0.9384868E-01
        1   -1    0    0  501    0  0.00000000000E+00  0.00000000000E+00  0.52252382765E+03  0.52252382767E+03  0.50400001928E-02 0. -1.
       -1   -1    0    0    0  501  0.00000000000E+00  0.00000000000E+00 -0.41676407966E+03  0.41676407969E+03  0.50400001928E-02 0.  1.
    10030    2    1    2    0    0  0.00000000000E+00  0.00000000000E+00  0.10575974798E+03  0.93928790736E+03  0.93331487110E+03 0.  0.
        5    1    3    3  502    0  0.23136451944E+03 -0.34611216217E+03  0.26499854576E+03  0.49352759691E+03  0.46999998093E+01 0. -1.
       -5    1    3    3    0  502 -0.23136451944E+03  0.34611216217E+03 -0.15923879778E+03  0.44576031045E+03  0.46999998093E+01 0.  1.
</event>
<event>
 5   0  0.3794006E-03  0.8985734E+03  0.7818609E-02  0.9427367E-01
        1   -1    0    0  501    0  0.00000000000E+00  0.00000000000E+00  0.68433836725E+03  0.68433836727E+03  0.50400001928E-02 0.  1.
       -1   -1    0    0    0  501  0.00000000000E+00  0.00000000000E+00 -0.29496889524E+03  0.29496889529E+03  0.50400001928E-02 0. -1.
    10030    2    1    2    0    0  0.00000000000E+00  0.00000000000E+00  0.38936947201E+03  0.97930726256E+03  0.89857338530E+03 0.  0.
        5    1    3    3  502    0 -0.27205339641E+03 -0.29321899379E+03  0.41762703172E+03  0.57829478334E+03  0.46999998093E+01 0.  1.
       -5    1    3    3    0  502  0.27205339641E+03  0.29321899379E+03 -0.28257559709E+02  0.40101247922E+03  0.46999998093E+01 0. -1.
</event>
<event>
 5   0  0.3927993E-03  0.9035299E+03  0.7818609E-02  0.9421180E-01
        1   -1    0    0  501    0  0.00000000000E+00  0.00000000000E+00  0.22239512922E+03  0.22239512928E+03  0.50400001928E-02 0.  1.
       -1   -1    0    0    0  501  0.00000000000E+00  0.00000000000E+00 -0.91769796996E+03  0.91769796997E+03  0.50400001928E-02 0. -1.
    10030    2    1    2    0    0  0.00000000000E+00  0.00000000000E+00 -0.69530284074E+03  0.11400930992E+04  0.90352987478E+03 0.  0.
        2    1    3    3  502    0  0.60636563099E+02  0.15743053650E+03 -0.87645895621E+03  0.89254774020E+03  0.25500000920E-02 0. -1.
       -2    1    3    3    0  502 -0.60636563099E+02 -0.15743053650E+03  0.18115611547E+03  0.24754535905E+03  0.25500000920E-02 0.  1.
</event>
<event>
 5   0  0.3927993E-03  0.9449600E+03  0.7818609E-02  0.9371061E-01
        1   -1    0    0  501    0  0.00000000000E+00  0.00000000000E+00  0.59847970544E+03  0.59847970546E+03  0.50400001928E-02 0. -1.
       -1   -1    0    0    0  501  0.00000000000E+00  0.00000000000E+00 -0.37300737683E+03  0.37300737686E+03  0.50400001928E-02 0.  1.
    10030    2    1    2    0    0  0.00000000000E+00  0.00000000000E+00  0.22547232861E+03  0.97148708232E+03  0.94495998865E+03 0.  0.
        2    1    3    3  502    0 -0.37093439572E+03  0.55875821418E+02 -0.18259609082E+03  0.41719991100E+03  0.25500000920E-02 0.  1.
       -2    1    3    3    0  502  0.37093439572E+03 -0.55875821418E+02  0.40806841943E+03  0.55428717132E+03  0.25500000920E-02 0. -1.
</event>
<event>
 5   0  0.3927993E-03  0.9002949E+03  0.7818609E-02  0.9425213E-01
       -1   -1    0    0    0  501  0.00000000000E+00  0.00000000000E+00  0.12220151465E+03  0.12220151475E+03  0.50400001928E-02 0.  1.
        1   -1    0    0  501    0  0.00000000000E+00  0.00000000000E+00 -0.16581848927E+04  0.16581848927E+04  0.50400001928E-02 0. -1.
    10030    2    1    2    0    0  0.00000000000E+00  0.00000000000E+00 -0.15359833780E+04  0.17803864074E+04  0.90029485292E+03 0.  0.
        2    1    3    3  502    0  0.39446631716E+03  0.20901965760E+03 -0.65370633650E+03  0.79159640412E+03  0.25500000920E-02 0.  1.
       -2    1    3    3    0  502 -0.39446631716E+03 -0.20901965760E+03 -0.88227704150E+03  0.98879000329E+03  0.25500000920E-02 0. -1.
</event>
<event>
 5   0  0.6724773E-03  0.8951645E+03  0.7818609E-02  0.9431646E-01
       -2   -1    0    0    0  501  0.00000000000E+00  0.00000000000E+00  0.17826934316E+03  0.17826934318E+03  0.25500000920E-02 0. -1.
        2   -1    0    0  501    0  0.00000000000E+00  0.00000000000E+00 -0.11237482030E+04  0.11237482030E+04  0.25500000920E-02 0.  1.
    10030    2    1    2    0    0  0.00000000000E+00  0.00000000000E+00 -0.94547885986E+03  0.13020175462E+04  0.89516446319E+03 0.  0.
        5    1    3    3  502    0 -0.19248796903E+03  0.19787317832E+03 -0.98513339802E+03  0.10230910589E+04  0.46999998093E+01 0.  1.
       -5    1    3    3    0  502  0.19248796903E+03 -0.19787317832E+03  0.39654538157E+02  0.27892648729E+03  0.46999998093E+01 0. -1.
</event>
<event>
 5   0  0.3969536E-03  0.9003335E+03  0.7818609E-02  0.9425165E-01
        1   -1    0    0  501    0  0.00000000000E+00  0.00000000000E+00  0.67806393799E+03  0.67806393801E+03  0.50400001928E-02 0. -1.
       -1   -1    0    0    0  501  0.00000000000E+00  0.00000000000E+00 -0.29886576290E+03  0.29886576294E+03  0.50400001928E-02 0.  1.
    10030    2    1    2    0    0  0.00000000000E+00  0.00000000000E+00  0.37919817509E+03  0.97692970096E+03  0.90033348522E+03 0.  0.
        1    1    3    3  502    0 -0.51217770688E+02 -0.44719268236E+03  0.18227656231E+03  0.48562259048E+03  0.50400001928E-02 0. -1.
       -1    1    3    3    0  502  0.51217770688E+02  0.44719268236E+03  0.19692161279E+03  0.49130711047E+03  0.50400001928E-02 0.  1.
</event>
<event>
 5   0  0.2560250E-03  0.8998053E+03  0.7818609E-02  0.9425825E-01
       -3   -1    0    0    0  501  0.00000000000E+00  0.00000000000E+00  0.29841711654E+03  0.29841713363E+03  0.10100000352E+00 0. -1.
        3   -1    0    0  501    0  0.00000000000E+00  0.00000000000E+00 -0.67828674179E+03  0.67828674931E+03  0.10100000352E+00 0.  1.
    10030    2    1    2    0    0  0.00000000000E+00  0.00000000000E+00 -0.37986962525E+03  0.97670388293E+03  0.89980528047E+03 0.  0.
        4    1    3    3  502    0 -0.33301113418E+03  0.78489223543E+02 -0.50705639872E+03  0.61169009971E+03  0.12699999809E+01 0.  1.
       -4    1    3    3    0  502  0.33301113418E+03 -0.78489223543E+02  0.12718677347E+03  0.36501378323E+03  0.12699999809E+01 0. -1.
</event>
<event>
 5   0  0.6724773E-03  0.8964753E+03  0.7818609E-02  0.9429998E-01
       -2   -1    0    0    0  501  0.00000000000E+00  0.00000000000E+00  0.30506611581E+03  0.30506611582E+03  0.25500000920E-02 0. -1.
        2   -1    0    0  501    0  0.00000000000E+00  0.00000000000E+00 -0.65860141080E+03  0.65860141080E+03  0.25500000920E-02 0.  1.
    10030    2    1    2    0    0  0.00000000000E+00  0.00000000000E+00 -0.35353529499E+03  0.96366752663E+03  0.89647526294E+03 0.  0.
        5    1    3    3  502    0 -0.84888644922E+01 -0.43966984458E+03 -0.26994339155E+03  0.51601662540E+03  0.46999998093E+01 0.  1.
       -5    1    3    3    0  502  0.84888644922E+01  0.43966984458E+03 -0.83591903438E+02  0.44765090123E+03  0.46999998093E+01 0. -1.
</event>
<event>
 5   0  0.3998066E-03  0.9061061E+03  0.7818609E-02  0.9417981E-01
       -1   -1    0    0    0  501  0.00000000000E+00  0.00000000000E+00  0.60295245031E+03  0.60295245033E+03  0.50400001928E-02 0.  1.
        1   -1    0    0  501    0  0.00000000000E+00  0.00000000000E+00 -0.34041999874E+03  0.34041999877E+03  0.50400001928E-02 0. -1.
    10030    2    1    2    0    0  0.00000000000E+00  0.00000000000E+00  0.26253245157E+03  0.94337244910E+03  0.90610611387E+03 0.  0.
        4    1    3    3  502    0  0.69521095276E+01 -0.21799995935E+03 -0.28215880282E+03  0.35663358929E+03  0.12699999809E+01 0. -1.
       -4    1    3    3    0  502 -0.69521095276E+01  0.21799995935E+03  0.54469125439E+03  0.58673885981E+03  0.12699999809E+01 0.  1.
</event>
<event>
 5   0  0.6534628E-03  0.8860671E+03  0.7818609E-02  0.9443168E-01
       -2   -1    0    0    0  501  0.00000000000E+00  0.00000000000E+00  0.13012785472E+03  0.13012785474E+03  0.25500000920E-02 0. -1.
        2   -1    0    0  501    0  0.00000000000E+00  0.00000000000E+00 -0.15083529101E+04  0.15083529101E+04  0.25500000920E-02 0.  1.
    10030    2    1    2    0    0  0.00000000000E+00  0.00000000000E+00 -0.13782250553E+04  0.16384807648E+04  0.88606710438E+03 0.  0.
        4    1    3    3  502    0  0.22667934909E+03  0.20882887233E+02  0.13708539175E+02  0.22805516708E+03  0.12699999809E+01 0. -1.
       -4    1    3    3    0  502 -0.22667934909E+03 -0.20882887233E+02 -0.13919335945E+04  0.14104255977E+04  0.12699999809E+01 0.  1.
</event>
<event>
 5   0  0.6863405E-03  0.8995688E+03  0.7818609E-02  0.9426121E-01
        2   -1    0    0  501    0  0.00000000000E+00  0.00000000000E+00  0.18205281706E+04  0.18205281706E+04  0.25500000920E-02 0.  1.
       -2   -1    0    0    0  501  0.00000000000E+00  0.00000000000E+00 -0.11112489493E+03  0.11112489496E+03  0.25500000920E-02 0. -1.
    10030    2    1    2    0    0  0.00000000000E+00  0.00000000000E+00  0.17094032757E+04  0.19316530656E+04  0.89956878939E+03 0.  0.
        1    1    3    3  502    0  0.36467272082E+03  0.23231429602E+03  0.58866148567E+03  0.73039610499E+03  0.50400001928E-02 0.  1.
       -1    1    3    3    0  502 -0.36467272082E+03 -0.23231429602E+03  0.11207417900E+04  0.12012569606E+04  0.50400001928E-02 0. -1.
</event>
<event>
 5   0  0.3943549E-03  0.8954850E+03  0.7818609E-02  0.9431243E-01
       -1   -1    0    0    0  501  0.00000000000E+00  0.00000000000E+00  0.24091891311E+03  0.24091891317E+03  0.50400001928E-02 0.  1.
        1   -1    0    0  501    0  0.00000000000E+00  0.00000000000E+00 -0.83211959592E+03  0.83211959594E+03  0.50400001928E-02 0. -1.
    10030    2    1    2    0    0  0.00000000000E+00  0.00000000000E+00 -0.59120068281E+03  0.10730385091E+04  0.89548500527E+03 0.  0.
        3    1    3    3  502    0 -0.77882063859E+01  0.30375373062E+03 -0.68966086511E+03  0.75363061515E+03  0.10100000352E+00 0. -1.
       -3    1    3    3    0  502  0.77882063859E+01 -0.30375373062E+03  0.98460182303E+02  0.31940789396E+03  0.10100000352E+00 0.  1.
</event>
<event>
 5   0  0.6524705E-03  0.8983283E+03  0.7818609E-02  0.9427674E-01
       -2   -1    0    0    0  501  0.00000000000E+00  0.00000000000E+00  0.55138541965E+03  0.55138541966E+03  0.25500000920E-02 0.  1.
        2   -1    0    0  501    0  0.00000000000E+00  0.00000000000E+00 -0.36589364357E+03  0.36589364358E+03  0.25500000920E-02 0. -1.
    10030    2    1    2    0    0  0.00000000000E+00  0.00000000000E+00  0.18549177609E+03  0.91727906324E+03  0.89832827010E+03 0.  0.
        3    1    3    3  502    0 -0.40792104161E+02 -0.20621903954E+03 -0.31256363852E+03  0.37667801417E+03  0.10100000352E+00 0. -1.
       -3    1    3    3    0  502  0.40792104161E+02  0.20621903954E+03  0.49805541461E+03  0.54060104907E+03  0.10100000352E+00 0.  1.
</event>
<event>
 5   0  0.3998066E-03  0.8952784E+03  0.7818609E-02  0.9431503E-01
       -1   -1    0    0    0  501  0.00000000000E+00  0.00000000000E+00  0.86754783595E+03  0.86754783597E+03  0.50400001928E-02 0.  1.
        1   -1    0    0  501    0  0.00000000000E+00  0.00000000000E+00 -0.23097382724E+03  0.23097382729E+03  0.50400001928E-02 0. -1.
    10030    2    1    2    0    0  0.00000000000E+00  0.00000000000E+00  0.63657400872E+03  0.10985216633E+04  0.89527837909E+03 0.  0.
        4    1    3    3  502    0  0.77092179958E+02 -0.21623272203E+03 -0.15324431393E+03  0.27601671496E+03  0.12699999809E+01 0. -1.
       -4    1    3    3    0  502 -0.77092179958E+02  0.21623272203E+03  0.78981832264E+03  0.82250494830E+03  0.12699999809E+01 0.  1.
</event>
<event>
 5   0  0.6609191E-03  0.9040519E+03  0.7818609E-02  0.9420530E-01
        2   -1    0    0  501    0  0.00000000000E+00  0.00000000000E+00  0.76659803108E+03  0.76659803109E+03  0.25500000920E-02 0.  1.
       -2   -1    0    0    0  501  0.00000000000E+00  0.00000000000E+00 -0.26653794276E+03  0.26653794277E+03  0.25500000920E-02 0. -1.
    10030    2    1    2    0    0  0.00000000000E+00  0.00000000000E+00  0.50006008833E+03  0.10331359739E+04  0.90405190589E+03 0.  0.
        2    1    3    3  502    0 -0.10114057143E+03  0.37565610350E+03 -0.13010263231E+02  0.38925080635E+03  0.25500000920E-02 0. -1.
       -2    1    3    3    0  502  0.10114057143E+03 -0.37565610350E+03  0.51307035156E+03  0.64388516751E+03  0.25500000920E-02 0.  1.
</event>
<event>
 5   0  0.3998066E-03  0.9034924E+03  0.7818609E-02  0.9421226E-01
       -1   -1    0    0    0  501  0.00000000000E+00  0.00000000000E+00  0.27101141845E+03  0.27101141849E+03  0.50400001928E-02 0.  1.
        1   -1    0    0  501    0  0.00000000000E+00  0.00000000000E+00 -0.75301114674E+03  0.75301114676E+03  0.50400001928E-02 0. -1.
    10030    2    1    2    0    0  0.00000000000E+00  0.00000000000E+00 -0.48199972829E+03  0.10240225653E+04  0.90349237743E+03 0.  0.
        4    1    3    3  502    0 -0.32547208078E+02 -0.34006179183E+02 -0.75022194403E+03  0.75169829000E+03  0.12699999809E+01 0. -1.
       -4    1    3    3    0  502  0.32547208078E+02  0.34006179183E+02  0.26822221574E+03  0.27232427525E+03  0.12699999809E+01 0.  1.
</event>
<event>
 5   0  0.3998066E-03  0.9204278E+03  0.7818609E-02  0.9400400E-01
        1   -1    0    0  501    0  0.00000000000E+00  0.00000000000E+00  0.11564065636E+04  0.11564065636E+04  0.50400001928E-02 0. -1.
       -1   -1    0    0    0  501  0.00000000000E+00  0.00000000000E+00 -0.18315085955E+03  0.18315085962E+03  0.50400001928E-02 0.  1.
    10030    2    1    2    0    0  0.00000000000E+00  0.00000000000E+00  0.97325570408E+03  0.13395574233E+04  0.92042784872E+03 0.  0.
        4    1    3    3  502    0 -0.35524459577E+03 -0.56022475968E+02  0.90454288200E+03  0.97341495721E+03  0.12699999809E+01 0. -1.
       -4    1    3    3    0  502  0.35524459577E+03  0.56022475968E+02  0.68712822082E+02  0.36614246606E+03  0.12699999809E+01 0.  1.
</event>
<event>
 5   0  0.3927993E-03  0.9004566E+03  0.7818609E-02  0.9425011E-01
        1   -1    0    0  501    0  0.00000000000E+00  0.00000000000E+00  0.68540355062E+03  0.68540355064E+03  0.50400001928E-02 0.  1.
       -1   -1    0    0    0  501  0.00000000000E+00  0.00000000000E+00 -0.29574621387E+03  0.29574621391E+03  0.50400001928E-02 0. -1.
    10030    2    1    2    0    0  0.00000000000E+00  0.00000000000E+00  0.38965733676E+03  0.98114976455E+03  0.90045656219E+03 0.  0.
        2    1    3    3  502    0 -0.18891654559E+03 -0.39778313878E+03  0.29695411923E+03  0.53113335014E+03  0.25500000920E-02 0. -1.
       -2    1    3    3    0  502  0.18891654559E+03  0.39778313878E+03  0.92703217526E+02  0.45001641441E+03  0.25500000920E-02 0.  1.
</event>
<event>
 5   0  0.6609191E-03  0.9048160E+03  0.7818609E-02  0.9419581E-01
       -2   -1    0    0    0  501  0.00000000000E+00  0.00000000000E+00  0.29613410472E+03  0.29613410474E+03  0.25500000920E-02 0. -1.
        2   -1    0    0  501    0  0.00000000000E+00  0.00000000000E+00 -0.69114966930E+03  0.69114966931E+03  0.25500000920E-02 0.  1.
    10030    2    1    2    0    0  0.00000000000E+00  0.00000000000E+00 -0.39501556458E+03  0.98728377404E+03  0.90481597810E+03 0.  0.
        2    1    3    3  502    0 -0.14950426912E+03  0.29161682340E+03  0.14281886331E+03  0.35747604941E+03  0.25500000920E-02 0. -1.
       -2    1    3    3    0  502  0.14950426912E+03 -0.29161682340E+03 -0.53783442789E+03  0.62980772463E+03  0.25500000920E-02 0.  1.
</event>
<event>
 5   0  0.6863405E-03  0.9080009E+03  0.7818609E-02  0.9415635E-01
       -2   -1    0    0    0  501  0.00000000000E+00  0.00000000000E+00  0.22414130572E+03  0.22414130574E+03  0.25500000920E-02 0. -1.
        2   -1    0    0  501    0  0.00000000000E+00  0.00000000000E+00 -0.91958237763E+03  0.91958237764E+03  0.25500000920E-02 0.  1.
    10030    2    1    2    0    0  0.00000000000E+00  0.00000000000E+00 -0.69544107191E+03  0.11437236834E+04  0.90800086971E+03 0.  0.
        1    1    3    3  502    0 -0.43296071835E+03 -0.16433518812E+02 -0.51854169414E+03  0.67572962993E+03  0.50400001928E-02 0. -1.
       -1    1    3    3    0  502  0.43296071835E+03  0.16433518812E+02 -0.17689937777E+03  0.46799405344E+03  0.50400001928E-02 0.  1.
</event>
<event>
 5   0  0.2560250E-03  0.8967243E+03  0.7818609E-02  0.9429686E-01
       -4   -1    0    0    0  501  0.00000000000E+00  0.00000000000E+00  0.38365667462E+03  0.38365877662E+03  0.12699999809E+01 0. -1.
        4   -1    0    0  501    0  0.00000000000E+00  0.00000000000E+00 -0.52397618650E+03  0.52397772560E+03  0.12699999809E+01 0.  1.
    10030    2    1    2    0    0  0.00000000000E+00  0.00000000000E+00 -0.14031951188E+03  0.90763650221E+03  0.89672429137E+03 0.  0.
        4    1    3    3  502    0  0.15940504123E+03 -0.79648620915E+02  0.34627506087E+03  0.38943792916E+03  0.12699999809E+01 0. -1.
       -4    1    3    3    0  502 -0.15940504123E+03  0.79648620915E+02 -0.48659457276E+03  0.51819857306E+03  0.12699999809E+01 0.  1.
</event>
<event>
 5   0  0.6863405E-03  0.8877966E+03  0.7818609E-02  0.9440966E-01
       -2   -1    0    0    0  501  0.00000000000E+00  0.00000000000E+00  0.41244572417E+03  0.41244572417E+03  0.25500000920E-02 0. -1.
        2   -1    0    0  501    0  0.00000000000E+00  0.00000000000E+00 -0.47774945523E+03  0.47774945524E+03  0.25500000920E-02 0.  1.
    10030    2    1    2    0    0  0.00000000000E+00  0.00000000000E+00 -0.65303731065E+02  0.89019517941E+03  0.88779664347E+03 0.  0.
        1    1    3    3  502    0  0.36381189589E+03 -0.83560140123E+02 -0.27351810434E+03  0.46276726985E+03  0.50400001928E-02 0. -1.
       -1    1    3    3    0  502 -0.36381189589E+03  0.83560140123E+02  0.20821437328E+03  0.42742790957E+03  0.50400001928E-02 0.  1.
</event>
<event>
 5   0  0.3969536E-03  0.8917863E+03  0.7818609E-02  0.9435908E-01
        1   -1    0    0  501    0  0.00000000000E+00  0.00000000000E+00  0.42157470297E+03  0.42157470300E+03  0.50400001928E-02 0.  1.
       -1   -1    0    0    0  501  0.00000000000E+00  0.00000000000E+00 -0.47161440905E+03  0.47161440908E+03  0.50400001928E-02 0. -1.
    10030    2    1    2    0    0  0.00000000000E+00  0.00000000000E+00 -0.50039706088E+02  0.89318911208E+03  0.89178630722E+03 0.  0.
        1    1    3    3  502    0  0.40753992824E+03  0.11763233066E+03  0.11265380507E+03  0.43888157645E+03  0.50400001928E-02 0.  1.
       -1    1    3    3    0  502 -0.40753992824E+03 -0.11763233066E+03 -0.16269351116E+03  0.45430753563E+03  0.50400001928E-02 0. -1.
</event>
<event>
 5   0  0.6724773E-03  0.9030614E+03  0.7818609E-02  0.9421763E-01
       -2   -1    0    0    0  501  0.00000000000E+00  0.00000000000E+00  0.32513129802E+03  0.32513129803E+03  0.25500000920E-02 0. -1.
        2   -1    0    0  501    0  0.00000000000E+00  0.00000000000E+00 -0.62706967549E+03  0.62706967550E+03  0.25500000920E-02 0.  1.
    10030    2    1    2    0    0  0.00000000000E+00  0.00000000000E+00 -0.30193837747E+03  0.95220097353E+03  0.90306140998E+03 0.  0.
        5    1    3    3  502    0 -0.61953801202E+02 -0.22244789919E+03  0.25813347833E+03  0.34637598643E+03  0.46999998093E+01 0. -1.
       -5    1    3    3    0  502  0.61953801202E+02  0.22244789919E+03 -0.56007185580E+03  0.60582498710E+03  0.46999998093E+01 0.  1.
</event>
<event>
 5   0  0.2560250E-03  0.9007761E+03  0.7818609E-02  0.9424612E-01
        3   -1    0    0  501    0  0.00000000000E+00  0.00000000000E+00  0.12474015953E+04  0.12474015994E+04  0.10100000352E+00 0. -1.
       -3   -1    0    0    0  501  0.00000000000E+00  0.00000000000E+00 -0.16261753359E+03  0.16261756496E+03  0.10100000352E+00 0.  1.
    10030    2    1    2    0    0  0.00000000000E+00  0.00000000000E+00  0.10847840617E+04  0.14100191644E+04  0.90077610055E+03 0.  0.
        1    1    3    3  502    0 -0.18441035801E+03  0.33714216776E+03  0.17469622521E+03  0.42212651249E+03  0.50400001928E-02 0. -1.
       -1    1    3    3    0  502  0.18441035801E+03 -0.33714216776E+03  0.91008783654E+03  0.98789265190E+03  0.50400001928E-02 0.  1.
</event>
<event>
 5   0  0.6534628E-03  0.8993623E+03  0.7818609E-02  0.9426379E-01
       -2   -1    0    0    0  501  0.00000000000E+00  0.00000000000E+00  0.12424785616E+03  0.12424785619E+03  0.25500000920E-02 0.  1.
        2   -1    0    0  501    0  0.00000000000E+00  0.00000000000E+00 -0.16274979385E+04  0.16274979385E+04  0.25500000920E-02 0. -1.
    10030    2    1    2    0    0  0.00000000000E+00  0.00000000000E+00 -0.15032500823E+04  0.17517457947E+04  0.89936228471E+03 0.  0.
        4    1    3    3  502    0  0.36061374037E+03 -0.23532219693E+03 -0.10040293802E+04  0.10924721576E+04  0.12699999809E+01 0. -1.
       -4    1    3    3    0  502 -0.36061374037E+03  0.23532219693E+03 -0.49922070218E+03  0.65927363704E+03  0.12699999809E+01 0.  1.
</event>
<event>
 5   0  0.6534628E-03  0.8936543E+03  0.7818609E-02  0.9433549E-01
       -2   -1    0    0    0  501  0.00000000000E+00  0.00000000000E+00  0.31527305515E+03  0.31527305516E+03  0.25500000920E-02 0. -1.
        2   -1    0    0  501    0  0.00000000000E+00  0.00000000000E+00 -0.63327482944E+03  0.63327482945E+03  0.25500000920E-02 0.  1.
    10030    2    1    2    0    0  0.00000000000E+00  0.00000000000E+00 -0.31800177429E+03  0.94854788461E+03  0.89365427372E+03 0.  0.
        4    1    3    3  502    0  0.20519828953E+03  0.34200134911E+03 -0.37282387532E+03  0.54595834614E+03  0.12699999809E+01 0.  1.
       -4    1    3    3    0  502 -0.20519828953E+03 -0.34200134911E+03  0.54822101023E+02  0.40258953846E+03  0.12699999809E+01 0. -1.
</event>
<event>
 5   0  0.3927993E-03  0.8991257E+03  0.7818609E-02  0.9426675E-01
        1   -1    0    0  501    0  0.00000000000E+00  0.00000000000E+00  0.57431603428E+03  0.57431603430E+03  0.50400001928E-02 0. -1.
       -1   -1    0    0    0  501  0.00000000000E+00  0.00000000000E+00 -0.35190860990E+03  0.35190860993E+03  0.50400001928E-02 0.  1.
    10030    2    1    2    0    0  0.00000000000E+00  0.00000000000E+00  0.22240742438E+03  0.92622464424E+03  0.89912570265E+03 0.  0.
        2    1    3    3  502    0 -0.11335841077E+03 -0.21652709471E+03 -0.27749150482E+03  0.36977783504E+03  0.25500000920E-02 0.  1.
       -2    1    3    3    0  502  0.11335841077E+03  0.21652709471E+03  0.49989892921E+03  0.55644680919E+03  0.25500000920E-02 0. -1.
</event>
<event>
 5   0  0.3943549E-03  0.9004087E+03  0.7818609E-02  0.9425071E-01
       -1   -1    0    0    0  501  0.00000000000E+00  0.00000000000E+00  0.30906930614E+03  0.30906930618E+03  0.50400001928E-02 0.  1.
        1   -1    0    0  501    0  0.00000000000E+00  0.00000000000E+00 -0.65578807424E+03  0.65578807426E+03  0.50400001928E-02 0. -1.
    10030    2    1    2    0    0  0.00000000000E+00  0.00000000000E+00 -0.34671876810E+03  0.96485738044E+03  0.90040871855E+03 0.  0.
        3    1    3    3  502    0  0.41904393007E+03 -0.13099850764E+03 -0.66601416435E+02  0.44406551680E+03  0.10100000352E+00 0.  1.
       -3    1    3    3    0  502 -0.41904393007E+03  0.13099850764E+03 -0.28011735166E+03  0.52079186365E+03  0.10100000352E+00 0. -1.
</event>
<event>
 5   0  0.3794006E-03  0.8992595E+03  0.7818609E-02  0.9426508E-01
       -1   -1    0    0    0  501  0.00000000000E+00  0.00000000000E+00  0.99377868589E+03  0.99377868590E+03  0.50400001928E-02 0. -1.
        1   -1    0    0  501    0  0.00000000000E+00  0.00000000000E+00 -0.20343252714E+03  0.20343252721E+03  0.50400001928E-02 0.  1.
    10030    2    1    2    0    0  0.00000000000E+00  0.00000000000E+00  0.79034615874E+03  0.11972112131E+04  0.89925949434E+03 0.  0.
        5    1    3    3  502    0  0.50436906382E+02 -0.73244166363E+02  0.98192006105E+03  0.98595014363E+03  0.46999998093E+01 0. -1.
       -5    1    3    3    0  502 -0.50436906382E+02  0.73244166363E+02 -0.19157390231E+03  0.21126106948E+03  0.46999998093E+01 0.  1.
</event>
<event>
 5   0  0.6534628E-03  0.8904892E+03  0.7818609E-02  0.9437549E-01
        2   -1    0    0  501    0  0.00000000000E+00  0.00000000000E+00  0.80729463430E+03  0.80729463430E+03  0.25500000920E-02 0.  1.
       -2   -1    0    0    0  501  0.00000000000E+00  0.00000000000E+00 -0.24556432011E+03  0.24556432012E+03  0.25500000920E-02 0. -1.
    10030    2    1    2    0    0  0.00000000000E+00  0.00000000000E+00  0.56173031419E+03  0.10528589544E+04  0.89048920939E+03 0.  0.
        4    1    3    3  502    0 -0.12738649251E+03  0.41770901676E+03  0.38348364983E+03  0.58117937313E+03  0.12699999809E+01 0. -1.
       -4    1    3    3    0  502  0.12738649251E+03 -0.41770901676E+03  0.17824666436E+03  0.47167958130E+03  0.12699999809E+01 0.  1.
</event>
<event>
 5   0  0.6724773E-03  0.7913297E+03  0.7818609E-02  0.9572652E-01
        2   -1    0    0  501    0  0.00000000000E+00  0.00000000000E+00  0.18299447606E+03  0.18299447608E+03  0.25500000920E-02 0. -1.
       -2   -1    0    0    0  501  0.00000000000E+00  0.00000000000E+00 -0.85549400575E+03  0.85549400576E+03  0.25500000920E-02 0.  1.
    10030    2    1    2    0    0  0.00000000000E+00  0.00000000000E+00 -0.67249952969E+03  0.10384884818E+04  0.79132970972E+03 0.  0.
        5    1    3    3  502    0 -0.13504622926E+03 -0.12116933879E+03  0.12514156110E+03  0.22045859705E+03  0.46999998093E+01 0. -1.
       -5    1    3    3    0  502  0.13504622926E+03  0.12116933879E+03 -0.79764109079E+03  0.81802988479E+03  0.46999998093E+01 0.  1.
</event>
<event>
 5   0  0.6863405E-03  0.8959135E+03  0.7818609E-02  0.9430704E-01
        2   -1    0    0  501    0  0.00000000000E+00  0.00000000000E+00  0.65175937161E+03  0.65175937161E+03  0.25500000920E-02 0. -1.
       -2   -1    0    0    0  501  0.00000000000E+00  0.00000000000E+00 -0.30788240935E+03  0.30788240936E+03  0.25500000920E-02 0.  1.
    10030    2    1    2    0    0  0.00000000000E+00  0.00000000000E+00  0.34387696226E+03  0.95964178097E+03  0.89591349058E+03 0.  0.
        1    1    3    3  502    0  0.29771712176E+03 -0.14630362542E+03  0.49439198921E+03  0.59536851985E+03  0.50400001928E-02 0. -1.
       -1    1    3    3    0  502 -0.29771712176E+03  0.14630362542E+03 -0.15051502695E+03  0.36427326112E+03  0.50400001928E-02 0.  1.
</event>
<event>
 5   0  0.6863405E-03  0.9005083E+03  0.7818609E-02  0.9424946E-01
        2   -1    0    0  501    0  0.00000000000E+00  0.00000000000E+00  0.39310424871E+03  0.39310424872E+03  0.25500000920E-02 0. -1.
       -2   -1    0    0    0  501  0.00000000000E+00  0.00000000000E+00 -0.51571256916E+03  0.51571256917E+03  0.25500000920E-02 0.  1.
    10030    2    1    2    0    0  0.00000000000E+00  0.00000000000E+00 -0.12260832046E+03  0.90881681789E+03  0.90050830547E+03 0.  0.
        1    1    3    3  502    0 -0.70083320395E+01 -0.49333573568E+02  0.39031299555E+03  0.39348081620E+03  0.50400001928E-02 0. -1.
       -1    1    3    3    0  502  0.70083320395E+01  0.49333573568E+02 -0.51292131600E+03  0.51533600169E+03  0.50400001928E-02 0.  1.
</event>
<event>
 5   0  0.2560250E-03  0.9020236E+03  0.7818609E-02  0.9423055E-01
       -3   -1    0    0    0  501  0.00000000000E+00  0.00000000000E+00  0.38315363558E+03  0.38315364889E+03  0.10100000352E+00 0. -1.
        3   -1    0    0  501    0  0.00000000000E+00  0.00000000000E+00 -0.53088793994E+03  0.53088794955E+03  0.10100000352E+00 0.  1.
    10030    2    1    2    0    0  0.00000000000E+00  0.00000000000E+00 -0.14773430437E+03  0.91404159844E+03  0.90202362441E+03 0.  0.
        2    1    3    3  502    0  0.34067986507E+03  0.11039451822E+03 -0.35167660821E+03  0.50192246103E+03  0.25500000920E-02 0.  1.
       -2    1    3    3    0  502 -0.34067986507E+03 -0.11039451822E+03  0.20394230385E+03  0.41211913741E+03  0.25500000920E-02 0. -1.
</event>
<event>
 5   0  0.2560250E-03  0.8965321E+03  0.7818609E-02  0.9429927E-01
       -3   -1    0    0    0  501  0.00000000000E+00  0.00000000000E+00  0.20490783239E+03  0.20490785729E+03  0.10100000352E+00 0.  1.
        3   -1    0    0  501    0  0.00000000000E+00  0.00000000000E+00 -0.98064783122E+03  0.98064783643E+03  0.10100000352E+00 0. -1.
    10030    2    1    2    0    0  0.00000000000E+00  0.00000000000E+00 -0.77573999883E+03  0.11855556937E+04  0.89653207255E+03 0.  0.
        2    1    3    3  502    0  0.39713941650E+03 -0.20105704959E+03 -0.45782857719E+03  0.63855356817E+03  0.25500000920E-02 0.  1.
       -2    1    3    3    0  502 -0.39713941650E+03  0.20105704959E+03 -0.31791142164E+03  0.54700212554E+03  0.25500000920E-02 0. -1.
</event>
<event>
 5   0  0.6534628E-03  0.9090375E+03  0.7818609E-02  0.9414354E-01
       -2   -1    0    0    0  501  0.00000000000E+00  0.00000000000E+00  0.21977524140E+03  0.21977524141E+03  0.25500000920E-02 0.  1.
        2   -1    0    0  501    0  0.00000000000E+00  0.00000000000E+00 -0.93999357017E+03  0.93999357017E+03  0.25500000920E-02 0. -1.
    10030    2    1    2    0    0  0.00000000000E+00  0.00000000000E+00 -0.72021832877E+03  0.11597688116E+04  0.90903754336E+03 0.  0.
        4    1    3    3  502    0 -0.17923165167E+03 -0.41009495649E+03 -0.46124434516E+03  0.64268951846E+03  0.12699999809E+01 0. -1.
       -4    1    3    3    0  502  0.17923165167E+03  0.41009495649E+03 -0.25897398362E+03  0.51707929313E+03  0.12699999809E+01 0.  1.
</event>
<event>
 5   0  0.3998066E-03  0.9050863E+03  0.7818609E-02  0.9419246E-01
        1   -1    0    0  501    0  0.00000000000E+00  0.00000000000E+00  0.15854739128E+04  0.15854739128E+04  0.50400001928E-02 0.  1.
       -1   -1    0    0    0  501  0.00000000000E+00  0.00000000000E+00 -0.12916976960E+03  0.12916976970E+03  0.50400001928E-02 0. -1.
    10030    2    1    2    0    0  0.00000000000E+00  0.00000000000E+00  0.14563041432E+04  0.17146436825E+04  0.90508629447E+03 0.  0.
        4    1    3    3  502    0 -0.44505722463E+03  0.60961226532E+02  0.62436295152E+03  0.76917027534E+03  0.12699999809E+01 0. -1.
       -4    1    3    3    0  502  0.44505722463E+03 -0.60961226532E+02  0.83194119167E+03  0.94547340716E+03  0.12699999809E+01 0.  1.
</event>
<event>
 5   0  0.6534628E-03  0.8372573E+03  0.7818609E-02  0.9507601E-01
        2   -1    0    0  501    0  0.00000000000E+00  0.00000000000E+00  0.19568190092E+04  0.19568190092E+04  0.25500000920E-02 0.  1.
       -2   -1    0    0    0  501  0.00000000000E+00  0.00000000000E+00 -0.89558589065E+02  0.89558589102E+02  0.25500000920E-02 0. -1.
    10030    2    1    2    0    0  0.00000000000E+00  0.00000000000E+00  0.18672604201E+04  0.20463775983E+04  0.83725730706E+03 0.  0.
        4    1    3    3  502    0 -0.87726114795E+02  0.80209748358E+02 -0.47439842463E+02  0.12799072819E+03  0.12699999809E+01 0. -1.
       -4    1    3    3    0  502  0.87726114795E+02 -0.80209748358E+02  0.19147002626E+04  0.19183868701E+04  0.12699999809E+01 0.  1.
</event>
<event>
 5   0  0.3943549E-03  0.9035409E+03  0.7818609E-02  0.9421166E-01
        1   -1    0    0  501    0  0.00000000000E+00  0.00000000000E+00  0.19264210212E+04  0.19264210213E+04  0.50400001928E-02 0. -1.
       -1   -1    0    0    0  501  0.00000000000E+00  0.00000000000E+00 -0.10594597644E+03  0.10594597656E+03  0.50400001928E-02 0.  1.
    10030    2    1    2    0    0  0.00000000000E+00  0.00000000000E+00  0.18204750448E+04  0.20323669978E+04  0.90354093712E+03 0.  0.
        3    1    3    3  502    0  0.14702402432E+03 -0.11835937761E+03  0.18334838162E+04  0.18431733290E+04  0.10100000352E+00 0. -1.
       -3    1    3    3    0  502 -0.14702402432E+03  0.11835937761E+03 -0.13008771438E+02  0.18919366885E+03  0.10100000352E+00 0.  1.
</event>
<event>
 5   0  0.3998066E-03  0.9040979E+03  0.7818609E-02  0.9420473E-01
        1   -1    0    0  501    0  0.00000000000E+00  0.00000000000E+00  0.65165134953E+03  0.65165134955E+03  0.50400001928E-02 0. -1.
       -1   -1    0    0    0  501  0.00000000000E+00  0.00000000000E+00 -0.31358528574E+03  0.31358528578E+03  0.50400001928E-02 0.  1.
    10030    2    1    2    0    0  0.00000000000E+00  0.00000000000E+00  0.33806606379E+03  0.96523663532E+03  0.90409794751E+03 0.  0.
        4    1    3    3  502    0 -0.25503080692E+03 -0.15231070880E+03  0.53282093931E+03  0.61003199159E+03  0.12699999809E+01 0. -1.
       -4    1    3    3    0  502  0.25503080692E+03  0.15231070880E+03 -0.19475487552E+03  0.35520464374E+03  0.12699999809E+01 0.  1.
</event>
<event>
 5   0  0.3927993E-03  0.8988674E+03  0.7818609E-02  0.9426998E-01
        1   -1    0    0  501    0  0.00000000000E+00  0.00000000000E+00  0.39045704153E+03  0.39045704156E+03  0.50400001928E-02 0. -1.
       -1   -1    0    0    0  501  0.00000000000E+00  0.00000000000E+00 -0.51731845322E+03  0.51731845324E+03  0.50400001928E-02 0.  1.
    10030    2    1    2    0    0  0.00000000000E+00  0.00000000000E+00 -0.12686141169E+03  0.90777549481E+03  0.89886736018E+03 0.  0.
        2    1    3    3  502    0  0.94262641237E+02 -0.43282511631E+03  0.13266692967E+02  0.44316930398E+03  0.25500000920E-02 0. -1.
       -2    1    3    3    0  502 -0.94262641237E+02  0.43282511631E+03 -0.14012810466E+03  0.46460619083E+03  0.25500000920E-02 0.  1.
</event>
<event>
 5   0  0.6863405E-03  0.8958682E+03  0.7818609E-02  0.9430761E-01
       -2   -1    0    0    0  501  0.00000000000E+00  0.00000000000E+00  0.43273566450E+03  0.43273566451E+03  0.25500000920E-02 0.  1.
        2   -1    0    0  501    0  0.00000000000E+00  0.00000000000E+00 -0.46366629374E+03  0.46366629375E+03  0.25500000920E-02 0. -1.
    10030    2    1    2    0    0  0.00000000000E+00  0.00000000000E+00 -0.30930629239E+02  0.89640195825E+03  0.89586816381E+03 0.  0.
        1    1    3    3  502    0  0.60862171153E+02 -0.68538770045E+02 -0.45418200632E+03  0.46333903545E+03  0.50400001928E-02 0. -1.
       -1    1    3    3    0  502 -0.60862171153E+02  0.68538770045E+02  0.42325137709E+03  0.43306292280E+03  0.50400001928E-02 0.  1.
</event>
<event>
 5   0  0.3969536E-03  0.9124827E+03  0.7818609E-02  0.9410111E-01
       -1   -1    0    0    0  501  0.00000000000E+00  0.00000000000E+00  0.39216170927E+03  0.39216170930E+03  0.50400001928E-02 0.  1.
        1   -1    0    0  501    0  0.00000000000E+00  0.00000000000E+00 -0.53079163339E+03  0.53079163341E+03  0.50400001928E-02 0. -1.
    10030    2    1    2    0    0  0.00000000000E+00  0.00000000000E+00 -0.13862992412E+03  0.92295334271E+03  0.91248266667E+03 0.  0.
        1    1    3    3  502    0 -0.33654976862E+02  0.14318122746E+03  0.36752352285E+03  0.39586242716E+03  0.50400001928E-02 0.  1.
       -1    1    3    3    0  502  0.33654976862E+02 -0.14318122746E+03 -0.50615344696E+03  0.52709091556E+03  0.50400001928E-02 0. -1.
</event>
<event>
 5   0  0.6524705E-03  0.9041765E+03  0.7818609E-02  0.9420376E-01
       -2   -1    0    0    0  501  0.00000000000E+00  0.00000000000E+00  0.22795622194E+03  0.22795622196E+03  0.25500000920E-02 0. -1.
        2   -1    0    0  501    0  0.00000000000E+00  0.00000000000E+00 -0.89659235114E+03  0.89659235114E+03  0.25500000920E-02 0.  1.
    10030    2    1    2    0    0  0.00000000000E+00  0.00000000000E+00 -0.66863612920E+03  0.11245485731E+04  0.90417654249E+03 0.  0.
        3    1    3    3  502    0 -0.21187542908E+03  0.14773260042E+03 -0.79578540911E+03  0.83665437681E+03  0.10100000352E+00 0.  1.
       -3    1    3    3    0  502  0.21187542908E+03 -0.14773260042E+03  0.12714927991E+03  0.28789419629E+03  0.10100000352E+00 0. -1.
</event>
<event>
 5   0  0.6609191E-03  0.9001397E+03  0.7818609E-02  0.9425407E-01
        2   -1    0    0  501    0  0.00000000000E+00  0.00000000000E+00  0.11517161464E+04  0.11517161464E+04  0.25500000920E-02 0. -1.
       -2   -1    0    0    0  501  0.00000000000E+00  0.00000000000E+00 -0.17587916550E+03  0.17587916552E+03  0.25500000920E-02 0.  1.
    10030    2    1    2    0    0  0.00000000000E+00  0.00000000000E+00  0.97583698089E+03  0.13275953119E+04  0.90013971078E+03 0.  0.
        2    1    3    3  502    0 -0.24743534329E+03 -0.25626556912E+03  0.89362114720E+03  0.96200574102E+03  0.25500000920E-02 0. -1.
       -2    1    3    3    0  502  0.24743534329E+03  0.25626556912E+03  0.82215833691E+02  0.36558957089E+03  0.25500000920E-02 0.  1.
</event>
<event>
 5   0  0.6534628E-03  0.8985201E+03  0.7818609E-02  0.9427433E-01
        2   -1    0    0  501    0  0.00000000000E+00  0.00000000000E+00  0.10509915872E+04  0.10509915872E+04  0.25500000920E-02 0. -1.
       -2   -1    0    0    0  501  0.00000000000E+00  0.00000000000E+00 -0.19204206539E+03  0.19204206541E+03  0.25500000920E-02 0.  1.
    10030    2    1    2    0    0  0.00000000000E+00  0.00000000000E+00  0.85894952178E+03  0.12430336526E+04  0.89852010577E+03 0.  0.
        4    1    3    3  502    0 -0.74348826813E+02  0.32862596271E+02  0.10407307374E+04  0.10439012305E+04  0.12699999809E+01 0. -1.
       -4    1    3    3    0  502  0.74348826813E+02 -0.32862596271E+02 -0.18178121563E+03  0.19913242211E+03  0.12699999809E+01 0.  1.
</event>
<event>
 5   0  0.3998066E-03  0.8944453E+03  0.7818609E-02  0.9432552E-01
       -1   -1    0    0    0  501  0.00000000000E+00  0.00000000000E+00  0.59819308736E+03  0.59819308738E+03  0.50400001928E-02 0. -1.
        1   -1    0    0  501    0  0.00000000000E+00  0.00000000000E+00 -0.33435376636E+03  0.33435376640E+03  0.50400001928E-02 0.  1.
    10030    2    1    2    0    0  0.00000000000E+00  0.00000000000E+00  0.26383932099E+03  0.93254685378E+03  0.89444532935E+03 0.  0.
        4    1    3    3  502    0  0.30008179500E+03 -0.26933242157E+03  0.33359556952E+03  0.52333225957E+03  0.12699999809E+01 0. -1.
       -4    1    3    3    0  502 -0.30008179500E+03  0.26933242157E+03 -0.69756248530E+02  0.40921459421E+03  0.12699999809E+01 0.  1.
</event>
<event>
 5   0  0.3969536E-03  0.9090917E+03  0.7818609E-02  0.9414287E-01
       -1   -1    0    0    0  501  0.00000000000E+00  0.00000000000E+00  0.16118460904E+03  0.16118460912E+03  0.50400001928E-02 0. -1.
        1   -1    0    0  501    0  0.00000000000E+00  0.00000000000E+00 -0.12818339891E+04  0.12818339892E+04  0.50400001928E-02 0.  1.
    10030    2    1    2    0    0  0.00000000000E+00  0.00000000000E+00 -0.11206493801E+04  0.14430185983E+04  0.90909165755E+03 0.  0.
        1    1    3    3  502    0  0.18043612870E+03  0.18714299175E+03  0.31539379967E+02  0.26186719614E+03  0.50400001928E-02 0. -1.
       -1    1    3    3    0  502 -0.18043612870E+03 -0.18714299175E+03 -0.11521887601E+04  0.11811514021E+04  0.50400001928E-02 0.  1.
</event>
<event>
 5   0  0.6534628E-03  0.8944597E+03  0.7818609E-02  0.9432534E-01
        2   -1    0    0  501    0  0.00000000000E+00  0.00000000000E+00  0.10564127430E+04  0.10564127430E+04  0.25500000920E-02 0.  1.
       -2   -1    0    0    0  501  0.00000000000E+00  0.00000000000E+00 -0.18933371987E+03  0.18933371989E+03  0.25500000920E-02 0. -1.
    10030    2    1    2    0    0  0.00000000000E+00  0.00000000000E+00  0.86707902315E+03  0.12457464629E+04  0.89445973496E+03 0.  0.
        4    1    3    3  502    0  0.23796419556E+03 -0.25313127377E+01  0.96090598032E+03  0.98993700902E+03  0.12699999809E+01 0.  1.
       -4    1    3    3    0  502 -0.23796419556E+03  0.25313127377E+01 -0.93826957168E+02  0.25580945390E+03  0.12699999809E+01 0. -1.
</event>
<event>
 5   0  0.6724773E-03  0.8984514E+03  0.7818609E-02  0.9427519E-01
        2   -1    0    0  501    0  0.00000000000E+00  0.00000000000E+00  0.76357395172E+03  0.76357395172E+03  0.25500000920E-02 0.  1.
       -2   -1    0    0    0  501  0.00000000000E+00  0.00000000000E+00 -0.26428836489E+03  0.26428836490E+03  0.25500000920E-02 0. -1.
    10030    2    1    2    0    0  0.00000000000E+00  0.00000000000E+00  0.49928558683E+03  0.10278623166E+04  0.89845135912E+03 0.  0.
        5    1    3    3  502    0  0.44660066336E+03 -0.47292187647E+02  0.26067060874E+03  0.51928793534E+03  0.46999998093E+01 0. -1.
       -5    1    3    3    0  502 -0.44660066336E+03  0.47292187647E+02  0.23861497809E+03  0.50857438128E+03  0.46999998093E+01 0.  1.
</event>
<event>
 5   0  0.3927993E-03  0.9034683E+03  0.7818609E-02  0.9421256E-01
       -1   -1    0    0    0  501  0.00000000000E+00  0.00000000000E+00  0.11457796851E+04  0.11457796851E+04  0.50400001928E-02 0. -1.
        1   -1    0    0  501    0  0.00000000000E+00  0.00000000000E+00 -0.17810032865E+03  0.17810032872E+03  0.50400001928E-02 0.  1.
    10030    2    1    2    0    0  0.00000000000E+00  0.00000000000E+00  0.96767935641E+03  0.13238800138E+04  0.90346829170E+03 0.  0.
        2    1    3    3  502    0  0.14940365383E+03  0.24718589870E+03  0.99280000161E+03  0.10339604265E+04  0.25500000920E-02 0. -1.
       -2    1    3    3    0  502 -0.14940365383E+03 -0.24718589870E+03 -0.25120645199E+02  0.28991958733E+03  0.25500000920E-02 0.  1.
</event>
<event>
 5   0  0.2560250E-03  0.9030051E+03  0.7818609E-02  0.9421833E-01
       -3   -1    0    0    0  501  0.00000000000E+00  0.00000000000E+00  0.33366986008E+03  0.33366987536E+03  0.10100000352E+00 0.  1.
        3   -1    0    0  501    0  0.00000000000E+00  0.00000000000E+00 -0.61094675799E+03  0.61094676634E+03  0.10100000352E+00 0. -1.
    10030    2    1    2    0    0  0.00000000000E+00  0.00000000000E+00 -0.27727689791E+03  0.94461664170E+03  0.90300505074E+03 0.  0.
        3    1    3    3  502    0  0.23932645495E+01  0.99259498154E+02 -0.59938509904E+03  0.60755302883E+03  0.10100000352E+00 0. -1.
       -3    1    3    3    0  502 -0.23932645495E+01 -0.99259498154E+02  0.32210820112E+03  0.33706361287E+03  0.10100000352E+00 0.  1.
</event>
<event>
 5   0  0.3943549E-03  0.9018735E+03  0.7818609E-02  0.9423243E-01
        1   -1    0    0  501    0  0.00000000000E+00  0.00000000000E+00  0.54660439939E+03  0.54660439941E+03  0.50400001928E-02 0.  1.
       -1   -1    0    0    0  501  0.00000000000E+00  0.00000000000E+00 -0.37201298652E+03  0.37201298656E+03  0.50400001928E-02 0. -1.
    10030    2    1    2    0    0  0.00000000000E+00  0.00000000000E+00  0.17459141287E+03  0.91861738597E+03  0.90187346139E+03 0.  0.
        3    1    3    3  502    0 -0.36206052398E+03  0.18349781957E+03 -0.11278091606E+03  0.42128234955E+03  0.10100000352E+00 0. -1.
       -3    1    3    3    0  502  0.36206052398E+03 -0.18349781957E+03  0.28737232893E+03  0.49733503642E+03  0.10100000352E+00 0.  1.
</event>
<event>
 5   0  0.6609191E-03  0.9026275E+03  0.7818609E-02  0.9422303E-01
        2   -1    0    0  501    0  0.00000000000E+00  0.00000000000E+00  0.90986944935E+03  0.90986944936E+03  0.25500000920E-02 0. -1.
       -2   -1    0    0    0  501  0.00000000000E+00  0.00000000000E+00 -0.22386081758E+03  0.22386081759E+03  0.25500000920E-02 0.  1.
    10030    2    1    2    0    0  0.00000000000E+00  0.00000000000E+00  0.68600863177E+03  0.11337302669E+04  0.90262753965E+03 0.  0.
        2    1    3    3  502    0 -0.33905686286E+03 -0.25681913399E+03  0.15347852250E+03  0.45218500717E+03  0.25500000920E-02 0.  1.
       -2    1    3    3    0  502  0.33905686286E+03  0.25681913399E+03  0.53253010927E+03  0.68154525978E+03  0.25500000920E-02 0. -1.
</event>
<event>
 5   0  0.6534628E-03  0.8985224E+03  0.7818609E-02  0.9427430E-01
       -2   -1    0    0    0  501  0.00000000000E+00  0.00000000000E+00  0.23213458501E+03  0.23213458502E+03  0.25500000920E-02 0. -1.
        2   -1    0    0  501    0  0.00000000000E+00  0.00000000000E+00 -0.86947677126E+03  0.86947677126E+03  0.25500000920E-02 0.  1.
    10030    2    1    2    0    0  0.00000000000E+00  0.00000000000E+00 -0.63734218625E+03  0.11016113563E+04  0.89852240814E+03 0.  0.
        4    1    3    3  502    0 -0.13631358899E+03 -0.26388801468E+03  0.94584498285E+02  0.31171480403E+03  0.12699999809E+01 0. -1.
       -4    1    3    3    0  502  0.13631358899E+03  0.26388801468E+03 -0.73192668454E+03  0.78989655226E+03  0.12699999809E+01 0.  1.
</event>
<event>
 5   0  0.3969536E-03  0.8950019E+03  0.7818609E-02  0.9431851E-01
        1   -1    0    0  501    0  0.00000000000E+00  0.00000000000E+00  0.66022239397E+03  0.66022239399E+03  0.50400001928E-02 0.  1.
       -1   -1    0    0    0  501  0.00000000000E+00  0.00000000000E+00 -0.30331761399E+03  0.30331761404E+03  0.50400001928E-02 0. -1.
    10030    2    1    2    0    0  0.00000000000E+00  0.00000000000E+00  0.35690477998E+03  0.96354000803E+03  0.89500185760E+03 0.  0.
        1    1    3    3  502    0  0.46139009776E+02  0.16043847997E+03  0.62544365638E+03  0.64734000449E+03  0.50400001928E-02 0.  1.
       -1    1    3    3    0  502 -0.46139009776E+02 -0.16043847997E+03 -0.26853887640E+03  0.31620000354E+03  0.50400001928E-02 0. -1.
</event>
<event>
 5   0  0.3969536E-03  0.9054218E+03  0.7818609E-02  0.9418829E-01
        1   -1    0    0  501    0  0.00000000000E+00  0.00000000000E+00  0.29122162686E+03  0.29122162691E+03  0.50400001928E-02 0. -1.
       -1   -1    0    0    0  501  0.00000000000E+00  0.00000000000E+00 -0.70374979090E+03  0.70374979092E+03  0.50400001928E-02 0.  1.
    10030    2    1    2    0    0  0.00000000000E+00  0.00000000000E+00 -0.41252816404E+03  0.99497141783E+03  0.90542180014E+03 0.  0.
        1    1    3    3  502    0 -0.37565778319E+03  0.23987630530E+03 -0.11912616162E+03  0.46135718735E+03  0.50400001928E-02 0. -1.
       -1    1    3    3    0  502  0.37565778319E+03 -0.23987630530E+03 -0.29340200242E+03  0.53361423047E+03  0.50400001928E-02 0.  1.
</event>
<event>
 5   0  0.6524705E-03  0.9053346E+03  0.7818609E-02  0.9418937E-01
       -2   -1    0    0    0  501  0.00000000000E+00  0.00000000000E+00  0.23376730873E+03  0.23376730874E+03  0.25500000920E-02 0.  1.
        2   -1    0    0  501    0  0.00000000000E+00  0.00000000000E+00 -0.87654550518E+03  0.87654550518E+03  0.25500000920E-02 0. -1.
    10030    2    1    2    0    0  0.00000000000E+00  0.00000000000E+00 -0.64277819645E+03  0.11103128139E+04  0.90533459833E+03 0.  0.
        3    1    3    3  502    0  0.10150237130E+03  0.15386838502E+03  0.18565379200E+03  0.26162100828E+03  0.10100000352E+00 0.  1.
       -3    1    3    3    0  502 -0.10150237130E+03 -0.15386838502E+03 -0.82843198844E+03  0.84869180564E+03  0.10100000352E+00 0. -1.
</event>
<event>
 5   0  0.3998066E-03  0.8799448E+03  0.7818609E-02  0.9451005E-01
        1   -1    0    0  501    0  0.00000000000E+00  0.00000000000E+00  0.13443628593E+04  0.13443628593E+04  0.50400001928E-02 0. -1.
       -1   -1    0    0    0  501  0.00000000000E+00  0.00000000000E+00 -0.14399065878E+03  0.14399065887E+03  0.50400001928E-02 0.  1.
    10030    2    1    2    0    0  0.00000000000E+00  0.00000000000E+00  0.12003722005E+04  0.14883535182E+04  0.87994475697E+03 0.  0.
        4    1    3    3  502    0  0.16899210919E+03  0.31767483548E+03  0.10284134920E+04  0.10895464917E+04  0.12699999809E+01 0. -1.
       -4    1    3    3    0  502 -0.16899210919E+03 -0.31767483548E+03  0.17195870852E+03  0.39880702652E+03  0.12699999809E+01 0.  1.
</event>
<event>
 5   0  0.3969536E-03  0.8979301E+03  0.7818609E-02  0.9428173E-01
        1   -1    0    0  501    0  0.00000000000E+00  0.00000000000E+00  0.55568789111E+03  0.55568789113E+03  0.50400001928E-02 0.  1.
       -1   -1    0    0    0  501  0.00000000000E+00  0.00000000000E+00 -0.36273889432E+03  0.36273889436E+03  0.50400001928E-02 0. -1.
    10030    2    1    2    0    0  0.00000000000E+00  0.00000000000E+00  0.19294899678E+03  0.91842678549E+03  0.89793008912E+03 0.  0.
        1    1    3    3  502    0 -0.20018461305E+03  0.12305038506E+03 -0.29482096366E+03  0.37700752937E+03  0.50400001928E-02 0. -1.
       -1    1    3    3    0  502  0.20018461305E+03 -0.12305038506E+03  0.48776996044E+03  0.54141925612E+03  0.50400001928E-02 0.  1.
</event>
<event>
 5   0  0.2560250E-03  0.9000156E+03  0.7818609E-02  0.9425562E-01
        3   -1    0    0  501    0  0.00000000000E+00  0.00000000000E+00  0.25073854527E+03  0.25073856561E+03  0.10100000352E+00 0.  1.
       -3   -1    0    0    0  501  0.00000000000E+00  0.00000000000E+00 -0.80764203277E+03  0.80764203909E+03  0.10100000352E+00 0. -1.
    10030    2    1    2    0    0  0.00000000000E+00  0.00000000000E+00 -0.55690348750E+03  0.10583806047E+04  0.90001556098E+03 0.  0.
        5    1    3    3  502    0 -0.22331702491E+03 -0.49550461967E+02 -0.73413994584E+03  0.76896637896E+03  0.46999998093E+01 0. -1.
       -5    1    3    3    0  502  0.22331702491E+03  0.49550461967E+02  0.17723645834E+03  0.28941422573E+03  0.46999998093E+01 0.  1.
</event>
<event>
 5   0  0.3969536E-03  0.9065541E+03  0.7818609E-02  0.9417425E-01
        1   -1    0    0  501    0  0.00000000000E+00  0.00000000000E+00  0.85307997429E+03  0.85307997430E+03  0.50400001928E-02 0. -1.
       -1   -1    0    0    0  501  0.00000000000E+00  0.00000000000E+00 -0.24084504155E+03  0.24084504160E+03  0.50400001928E-02 0.  1.
    10030    2    1    2    0    0  0.00000000000E+00  0.00000000000E+00  0.61223493273E+03  0.10939250159E+04  0.90655409522E+03 0.  0.
        1    1    3    3  502    0  0.35409671642E+02  0.20019213293E+03 -0.18274528819E+03  0.27336162005E+03  0.50400001928E-02 0.  1.
       -1    1    3    3    0  502 -0.35409671642E+02 -0.20019213293E+03  0.79498022093E+03  0.82056339586E+03  0.50400001928E-02 0. -1.
</event>
<event>
 5   0  0.3943549E-03  0.8806636E+03  0.7818609E-02  0.9450081E-01
       -1   -1    0    0    0  501  0.00000000000E+00  0.00000000000E+00  0.22284277732E+03  0.22284277737E+03  0.50400001928E-02 0. -1.
        1   -1    0    0  501    0  0.00000000000E+00  0.00000000000E+00 -0.87008462605E+03  0.87008462606E+03  0.50400001928E-02 0.  1.
    10030    2    1    2    0    0  0.00000000000E+00  0.00000000000E+00 -0.64724184873E+03  0.10929274034E+04  0.88066355575E+03 0.  0.
        3    1    3    3  502    0 -0.37142122141E+03 -0.93594746402E+02 -0.59317923752E+03  0.70609866045E+03  0.10100000352E+00 0.  1.
       -3    1    3    3    0  502  0.37142122141E+03  0.93594746402E+02 -0.54062611209E+02  0.38682874298E+03  0.10100000352E+00 0. -1.
</event>
<event>
 5   0  0.2560250E-03  0.8966424E+03  0.7818609E-02  0.9429788E-01
        4   -1    0    0  501    0  0.00000000000E+00  0.00000000000E+00  0.65899822200E+03  0.65899944575E+03  0.12699999809E+01 0.  1.
       -4   -1    0    0    0  501  0.00000000000E+00  0.00000000000E+00 -0.30499329409E+03  0.30499593824E+03  0.12699999809E+01 0. -1.
    10030    2    1    2    0    0  0.00000000000E+00  0.00000000000E+00  0.35400492791E+03  0.96399538399E+03  0.89664240998E+03 0.  0.
        2    1    3    3  502    0 -0.12134390101E+03  0.11473398201E+02  0.64084521604E+03  0.65233317569E+03  0.25500000920E-02 0.  1.
       -2    1    3    3    0  502  0.12134390101E+03 -0.11473398201E+02 -0.28684028813E+03  0.31166220830E+03  0.25500000920E-02 0. -1.
</event>
<event>
 5   0  0.3998066E-03  0.9029529E+03  0.7818609E-02  0.9421898E-01
        1   -1    0    0  501    0  0.00000000000E+00  0.00000000000E+00  0.12369645930E+04  0.12369645930E+04  0.50400001928E-02 0.  1.
       -1   -1    0    0    0  501  0.00000000000E+00  0.00000000000E+00 -0.16478318891E+03  0.16478318899E+03  0.50400001928E-02 0. -1.
    10030    2    1    2    0    0  0.00000000000E+00  0.00000000000E+00  0.10721814041E+04  0.14017477820E+04  0.90295286758E+03 0.  0.
        4    1    3    3  502    0  0.63216730183E+02 -0.78876151638E+02  0.12191689136E+04  0.12233528743E+04  0.12699999809E+01 0.  1.
       -4    1    3    3    0  502 -0.63216730183E+02  0.78876151638E+02 -0.14698750946E+03  0.17839490774E+03  0.12699999809E+01 0. -1.
</event>
<event>
 5   0  0.3969536E-03  0.8810821E+03  0.7818609E-02  0.9449544E-01
        1   -1    0    0  501    0  0.00000000000E+00  0.00000000000E+00  0.80091732595E+03  0.80091732596E+03  0.50400001928E-02 0. -1.
       -1   -1    0    0    0  501  0.00000000000E+00  0.00000000000E+00 -0.24231765593E+03  0.24231765599E+03  0.50400001928E-02 0.  1.
    10030    2    1    2    0    0  0.00000000000E+00  0.00000000000E+00  0.55859967001E+03  0.10432349819E+04  0.88108208257E+03 0.  0.
        1    1    3    3  502    0  0.38546940131E+03  0.13930756123E+03  0.47052534016E+03  0.62400909586E+03  0.50400001928E-02 0. -1.
       -1    1    3    3    0  502 -0.38546940131E+03 -0.13930756123E+03  0.88074329851E+02  0.41922588608E+03  0.50400001928E-02 0.  1.
</event>
<event>
 5   0  0.3969536E-03  0.8934258E+03  0.7818609E-02  0.9433837E-01
        1   -1    0    0  501    0  0.00000000000E+00  0.00000000000E+00  0.43780261139E+03  0.43780261142E+03  0.50400001928E-02 0. -1.
       -1   -1    0    0    0  501  0.00000000000E+00  0.00000000000E+00 -0.45580455450E+03  0.45580455453E+03  0.50400001928E-02 0.  1.
    10030    2    1    2    0    0  0.00000000000E+00  0.00000000000E+00 -0.18001943109E+02  0.89360716595E+03  0.89342582069E+03 0.  0.
        1    1    3    3  502    0 -0.58400258768E+02 -0.16999424476E+03 -0.41803848949E+03  0.45504374757E+03  0.50400001928E-02 0.  1.
       -1    1    3    3    0  502  0.58400258768E+02  0.16999424476E+03  0.40003654639E+03  0.43856341838E+03  0.50400001928E-02 0. -1.
</event>
<event>
 5   0  0.6724773E-03  0.8991798E+03  0.7818609E-02  0.9426607E-01
        2   -1    0    0  501    0  0.00000000000E+00  0.00000000000E+00  0.92836757420E+03  0.92836757420E+03  0.25500000920E-02 0.  1.
       -2   -1    0    0    0  501  0.00000000000E+00  0.00000000000E+00 -0.21772744470E+03  0.21772744471E+03  0.25500000920E-02 0. -1.
    10030    2    1    2    0    0  0.00000000000E+00  0.00000000000E+00  0.71064012950E+03  0.11460950189E+04  0.89917984782E+03 0.  0.
        5    1    3    3  502    0 -0.92316214841E+02  0.29881502908E+03  0.76695148770E+03  0.82828097866E+03  0.46999998093E+01 0.  1.
       -5    1    3    3    0  502  0.92316214841E+02 -0.29881502908E+03 -0.56311358200E+02  0.31781404026E+03  0.46999998093E+01 0. -1.
</event>
<event>
 5   0  0.6534628E-03  0.8914103E+03  0.7818609E-02  0.9436383E-01
       -2   -1    0    0    0  501  0.00000000000E+00  0.00000000000E+00  0.64496964608E+03  0.64496964608E+03  0.25500000920E-02 0. -1.
        2   -1    0    0  501    0  0.00000000000E+00  0.00000000000E+00 -0.30800374874E+03  0.30800374876E+03  0.25500000920E-02 0.  1.
    10030    2    1    2    0    0  0.00000000000E+00  0.00000000000E+00  0.33696589733E+03  0.95297339484E+03  0.89141027328E+03 0.  0.
        4    1    3    3  502    0  0.44539520786E+03  0.12876042955E+02  0.15733327373E+03  0.47254423665E+03  0.12699999809E+01 0. -1.
       -4    1    3    3    0  502 -0.44539520786E+03 -0.12876042955E+02  0.17963262360E+03  0.48042915818E+03  0.12699999809E+01 0.  1.
</event>
<event>
 5   0  0.3794006E-03  0.9009499E+03  0.7818609E-02  0.9424395E-01
        1   -1    0    0  501    0  0.00000000000E+00  0.00000000000E+00  0.47015825327E+03  0.47015825329E+03  0.50400001928E-02 0. -1.
       -1   -1    0    0    0  501  0.00000000000E+00  0.00000000000E+00 -0.43161568777E+03  0.43161568780E+03  0.50400001928E-02 0.  1.
    10030    2    1    2    0    0  0.00000000000E+00  0.00000000000E+00  0.38542565495E+02  0.90177394110E+03  0.90094989399E+03 0.  0.
        5    1    3    3  502    0  0.22826893899E+03 -0.28015608727E+03 -0.24988254849E+03  0.43938311277E+03  0.46999998093E+01 0.  1.
       -5    1    3    3    0  502 -0.22826893899E+03  0.28015608727E+03  0.28842511399E+03  0.46239082833E+03  0.46999998093E+01 0. -1.
</event>
<event>
 5   0  0.6534628E-03  0.8981398E+03  0.7818609E-02  0.9427910E-01
       -2   -1    0    0    0  501  0.00000000000E+00  0.00000000000E+00  0.18119134310E+03  0.18119134312E+03  0.25500000920E-02 0. -1.
        2   -1    0    0  501    0  0.00000000000E+00  0.00000000000E+00 -0.11129878605E+04  0.11129878605E+04  0.25500000920E-02 0.  1.
    10030    2    1    2    0    0  0.00000000000E+00  0.00000000000E+00 -0.93179651740E+03  0.12941792036E+04  0.89813977824E+03 0.  0.
        4    1    3    3  502    0  0.30502332498E+03 -0.32913485838E+03 -0.49057053597E+03  0.66485340297E+03  0.12699999809E+01 0. -1.
       -4    1    3    3    0  502 -0.30502332498E+03  0.32913485838E+03 -0.44122598143E+03  0.62932580065E+03  0.12699999809E+01 0.  1.
</event>
<event>
 5   0  0.3943549E-03  0.8987143E+03  0.7818609E-02  0.9427190E-01
        1   -1    0    0  501    0  0.00000000000E+00  0.00000000000E+00  0.11006887339E+04  0.11006887339E+04  0.50400001928E-02 0.  1.
       -1   -1    0    0    0  501  0.00000000000E+00  0.00000000000E+00 -0.18345043708E+03  0.18345043715E+03  0.50400001928E-02 0. -1.
    10030    2    1    2    0    0  0.00000000000E+00  0.00000000000E+00  0.91723829684E+03  0.12841391711E+04  0.89871425800E+03 0.  0.
        3    1    3    3  502    0  0.28282769372E+03 -0.34516170609E+03  0.53414249728E+03  0.69601460135E+03  0.10100000352E+00 0.  1.
       -3    1    3    3    0  502 -0.28282769372E+03  0.34516170609E+03  0.38309579956E+03  0.58812456974E+03  0.10100000352E+00 0. -1.
</event>
<event>
 5   0  0.6609191E-03  0.9025592E+03  0.7818609E-02  0.9422388E-01
        2   -1    0    0  501    0  0.00000000000E+00  0.00000000000E+00  0.45362964152E+03  0.45362964153E+03  0.25500000920E-02 0.  1.
       -2   -1    0    0    0  501  0.00000000000E+00  0.00000000000E+00 -0.44894176428E+03  0.44894176429E+03  0.25500000920E-02 0. -1.
    10030    2    1    2    0    0  0.00000000000E+00  0.00000000000E+00  0.46878772399E+01  0.90257140581E+03  0.90255923152E+03 0.  0.
        2    1    3    3  502    0  0.24245978018E+03  0.37629459298E+03 -0.54831353893E+02  0.45098873942E+03  0.25500000920E-02 0. -1.
       -2    1    3    3    0  502 -0.24245978018E+03 -0.37629459298E+03  0.59519231133E+02  0.45158266639E+03  0.25500000920E-02 0.  1.
</event>
<event>
 5   0  0.6863405E-03  0.8988136E+03  0.7818609E-02  0.9427066E-01
       -2   -1    0    0    0  501  0.00000000000E+00  0.00000000000E+00  0.34167945331E+03  0.34167945332E+03  0.25500000920E-02 0.  1.
        2   -1    0    0  501    0  0.00000000000E+00  0.00000000000E+00 -0.59109921801E+03  0.59109921802E+03  0.25500000920E-02 0. -1.
    10030    2    1    2    0    0  0.00000000000E+00  0.00000000000E+00 -0.24941976470E+03  0.93277867134E+03  0.89881356837E+03 0.  0.
        1    1    3    3  502    0 -0.21161001469E+03  0.37396616942E+03  0.11935671136E+02  0.42985108405E+03  0.50400001928E-02 0.  1.
       -1    1    3    3    0  502  0.21161001469E+03 -0.37396616942E+03 -0.26135543583E+03  0.50292758729E+03  0.50400001928E-02 0. -1.
</event>
<event>
 5   0  0.3998066E-03  0.9103749E+03  0.7818609E-02  0.9412704E-01
        1   -1    0    0  501    0  0.00000000000E+00  0.00000000000E+00  0.46598987882E+03  0.46598987885E+03  0.50400001928E-02 0. -1.
       -1   -1    0    0    0  501  0.00000000000E+00  0.00000000000E+00 -0.44463539800E+03  0.44463539803E+03  0.50400001928E-02 0.  1.
    10030    2    1    2    0    0  0.00000000000E+00  0.00000000000E+00  0.21354480817E+02  0.91062527688E+03  0.91037485743E+03 0.  0.
        4    1    3    3  502    0  0.26454810896E+03  0.24442106591E+03 -0.26772758487E+03  0.44878394804E+03  0.12699999809E+01 0.  1.
       -4    1    3    3    0  502 -0.26454810896E+03 -0.24442106591E+03  0.28908206569E+03  0.46184132884E+03  0.12699999809E+01 0. -1.
</event>
<event>
 5   0  0.6863405E-03  0.8987645E+03  0.7818609E-02  0.9427127E-01
        2   -1    0    0  501    0  0.00000000000E+00  0.00000000000E+00  0.32067297507E+03  0.32067297508E+03  0.25500000920E-02 0.  1.
       -2   -1    0    0    0  501  0.00000000000E+00  0.00000000000E+00 -0.62975183585E+03  0.62975183585E+03  0.25500000920E-02 0. -1.
    10030    2    1    2    0    0  0.00000000000E+00  0.00000000000E+00 -0.30907886077E+03  0.95042481093E+03  0.89876447363E+03 0.  0.
        1    1    3    3  502    0  0.26705003261E+03 -0.28988444499E+03 -0.38280726055E+03  0.54944527490E+03  0.50400001928E-02 0. -1.
       -1    1    3    3    0  502 -0.26705003261E+03  0.28988444499E+03  0.73728399772E+02  0.40097953603E+03  0.50400001928E-02 0.  1.
</event>
<event>
 5   0  0.2560250E-03  0.9089017E+03  0.7818609E-02  0.9414522E-01
        4   -1    0    0  501    0  0.00000000000E+00  0.00000000000E+00  0.78097694102E+03  0.78097797364E+03  0.12699999809E+01 0.  1.
       -4   -1    0    0    0  501  0.00000000000E+00  0.00000000000E+00 -0.26444240946E+03  0.26444545907E+03  0.12699999809E+01 0. -1.
    10030    2    1    2    0    0  0.00000000000E+00  0.00000000000E+00  0.51653453156E+03  0.10454234327E+04  0.90890166209E+03 0.  0.
        5    1    3    3  502    0  0.13617213898E+03 -0.37215424580E+03  0.24614350300E+01  0.39632030324E+03  0.46999998093E+01 0. -1.
       -5    1    3    3    0  502 -0.13617213898E+03  0.37215424580E+03  0.51407309653E+03  0.64910312946E+03  0.46999998093E+01 0.  1.
</event>
<event>
 5   0  0.6534628E-03  0.8944258E+03  0.7818609E-02  0.9432576E-01
        2   -1    0    0  501    0  0.00000000000E+00  0.00000000000E+00  0.23987386175E+04  0.23987386175E+04  0.25500000920E-02 0.  1.
       -2   -1    0    0    0  501  0.00000000000E+00  0.00000000000E+00 -0.83376898842E+02  0.83376898881E+02  0.25500000920E-02 0. -1.
    10030    2    1    2    0    0  0.00000000000E+00  0.00000000000E+00  0.23153617187E+04  0.24821155164E+04  0.89442582054E+03 0.  0.
        4    1    3    3  502    0  0.11848187398E+03  0.36380337638E+03  0.51515871272E+03  0.64170161549E+03  0.12699999809E+01 0. -1.
       -4    1    3    3    0  502 -0.11848187398E+03 -0.36380337638E+03  0.18002030059E+04  0.18404139009E+04  0.12699999809E+01 0.  1.
</event>
<event>
 5   0  0.6524705E-03  0.8994731E+03  0.7818609E-02  0.9426240E-01
        2   -1    0    0  501    0  0.00000000000E+00  0.00000000000E+00  0.76502879195E+03  0.76502879195E+03  0.25500000920E-02 0. -1.
       -2   -1    0    0    0  501  0.00000000000E+00  0.00000000000E+00 -0.26438605966E+03  0.26438605967E+03  0.25500000920E-02 0.  1.
    10030    2    1    2    0    0  0.00000000000E+00  0.00000000000E+00  0.50064273229E+03  0.10294148516E+04  0.89947306316E+03 0.  0.
        3    1    3    3  502    0 -0.85491648080E+02  0.42914388916E+03  0.36920052064E+03  0.57252278045E+03  0.10100000352E+00 0. -1.
       -3    1    3    3    0  502  0.85491648080E+02 -0.42914388916E+03  0.13144221165E+03  0.45689207117E+03  0.10100000352E+00 0.  1.
</event>
<event>
 5   0  0.3927993E-03  0.9017208E+03  0.7818609E-02  0.9423433E-01
       -1   -1    0    0    0  501  0.00000000000E+00  0.00000000000E+00  0.49920715379E+03  0.49920715381E+03  0.50400001928E-02 0. -1.
        1   -1    0    0  501    0  0.00000000000E+00  0.00000000000E+00 -0.40719592571E+03  0.40719592575E+03  0.50400001928E-02 0.  1.
    10030    2    1    2    0    0  0.00000000000E+00  0.00000000000E+00  0.92011228073E+02  0.90640307956E+03  0.90172084180E+03 0.  0.
        2    1    3    3  502    0 -0.15316140981E+03 -0.22650485004E+03  0.40635313281E+03  0.48978131150E+03  0.25500000920E-02 0. -1.
       -2    1    3    3    0  502  0.15316140981E+03  0.22650485004E+03 -0.31434190473E+03  0.41662176806E+03  0.25500000920E-02 0.  1.
</event>
<event>
 5   0  0.3998066E-03  0.8986408E+03  0.7818609E-02  0.9427282E-01
       -1   -1    0    0    0  501  0.00000000000E+00  0.00000000000E+00  0.33022572914E+03  0.33022572918E+03  0.50400001928E-02 0. -1.
        1   -1    0    0  501    0  0.00000000000E+00  0.00000000000E+00 -0.61136608296E+03  0.61136608298E+03  0.50400001928E-02 0.  1.
    10030    2    1    2    0    0  0.00000000000E+00  0.00000000000E+00 -0.28114035381E+03  0.94159181216E+03  0.89864077483E+03 0.  0.
        4    1    3    3  502    0 -0.24076003918E+03  0.15030082229E+03  0.22440495310E+03  0.36182168194E+03  0.12699999809E+01 0. -1.
       -4    1    3    3    0  502  0.24076003918E+03 -0.15030082229E+03 -0.50554530692E+03  0.57977013022E+03  0.12699999809E+01 0.  1.
</event>
<event>
 5   0  0.3943549E-03  0.9013760E+03  0.7818609E-02  0.9423863E-01
        1   -1    0    0  501    0  0.00000000000E+00  0.00000000000E+00  0.12087191762E+04  0.12087191762E+04  0.50400001928E-02 0. -1.
       -1   -1    0    0    0  501  0.00000000000E+00  0.00000000000E+00 -0.16804539108E+03  0.16804539116E+03  0.50400001928E-02 0.  1.
    10030    2    1    2    0    0  0.00000000000E+00  0.00000000000E+00  0.10406737851E+04  0.13767645673E+04  0.90137602970E+03 0.  0.
        3    1    3    3  502    0  0.19168787116E+03  0.28233167529E+03  0.70687825659E+02  0.34849991925E+03  0.10100000352E+00 0.  1.
       -3    1    3    3    0  502 -0.19168787116E+03 -0.28233167529E+03  0.96998595943E+03  0.10282646481E+04  0.10100000352E+00 0. -1.
</event>
<event>
 5   0  0.3943549E-03  0.9029690E+03  0.7818609E-02  0.9421878E-01
       -1   -1    0    0    0  501  0.00000000000E+00  0.00000000000E+00  0.34151895166E+03  0.34151895170E+03  0.50400001928E-02 0. -1.
        1   -1    0    0  501    0  0.00000000000E+00  0.00000000000E+00 -0.59685776542E+03  0.59685776544E+03  0.50400001928E-02 0.  1.
    10030    2    1    2    0    0  0.00000000000E+00  0.00000000000E+00 -0.25533881375E+03  0.93837671714E+03  0.90296896595E+03 0.  0.
        3    1    3    3  502    0  0.39376477507E+03  0.58930114251E+02 -0.34888936076E+03  0.52938384251E+03  0.10100000352E+00 0. -1.
       -3    1    3    3    0  502 -0.39376477507E+03 -0.58930114251E+02  0.93550547012E+02  0.40899287463E+03  0.10100000352E+00 0.  1.
</event>
<event>
 5   0  0.6524705E-03  0.9076933E+03  0.7818609E-02  0.9416015E-01
       -2   -1    0    0    0  501  0.00000000000E+00  0.00000000000E+00  0.10782486572E+03  0.10782486575E+03  0.25500000920E-02 0. -1.
        2   -1    0    0  501    0  0.00000000000E+00  0.00000000000E+00 -0.19102903648E+04  0.19102903648E+04  0.25500000920E-02 0.  1.
    10030    2    1    2    0    0  0.00000000000E+00  0.00000000000E+00 -0.18024654991E+04  0.20181152306E+04  0.90769334493E+03 0.  0.
        3    1    3    3  502    0 -0.16022457809E+03 -0.17428058187E+03 -0.17621328380E+04  0.17779645062E+04  0.10100000352E+00 0.  1.
       -3    1    3    3    0  502  0.16022457809E+03  0.17428058187E+03 -0.40332661139E+02  0.24015072433E+03  0.10100000352E+00 0. -1.
</event>
<event>
 5   0  0.6724773E-03  0.8934607E+03  0.7818609E-02  0.9433793E-01
       -2   -1    0    0    0  501  0.00000000000E+00  0.00000000000E+00  0.36868055716E+03  0.36868055717E+03  0.25500000920E-02 0. -1.
        2   -1    0    0  501    0  0.00000000000E+00  0.00000000000E+00 -0.54130335034E+03  0.54130335035E+03  0.25500000920E-02 0.  1.
    10030    2    1    2    0    0  0.00000000000E+00  0.00000000000E+00 -0.17262279318E+03  0.90998390752E+03  0.89346073402E+03 0.  0.
        5    1    3    3  502    0 -0.81437863243E+02 -0.36600419133E+03 -0.33360768323E+03  0.50190374571E+03  0.46999998093E+01 0.  1.
       -5    1    3    3    0  502  0.81437863243E+02  0.36600419133E+03  0.16098489006E+03  0.40808016182E+03  0.46999998093E+01 0. -1.
</event>
<event>
 5   0  0.6609191E-03  0.9048248E+03  0.7818609E-02  0.9419570E-01
       -2   -1    0    0    0  501  0.00000000000E+00  0.00000000000E+00  0.23348760582E+03  0.23348760584E+03  0.25500000920E-02 0. -1.
        2   -1    0    0  501    0  0.00000000000E+00  0.00000000000E+00 -0.87660747608E+03  0.87660747608E+03  0.25500000920E-02 0.  1.
    10030    2    1    2    0    0  0.00000000000E+00  0.00000000000E+00 -0.64311987025E+03  0.11100950819E+04  0.90482480259E+03 0.  0.
        2    1    3    3  502    0  0.39793927415E+03 -0.10708679043E+03 -0.92515186229E+02  0.42235329558E+03  0.25500000920E-02 0. -1.
       -2    1    3    3    0  502 -0.39793927415E+03  0.10708679043E+03 -0.55060468402E+03  0.68774178634E+03  0.25500000920E-02 0.  1.
</event>
<event>
 5   0  0.3969536E-03  0.8929449E+03  0.7818609E-02  0.9434444E-01
        1   -1    0    0  501    0  0.00000000000E+00  0.00000000000E+00  0.75356411694E+03  0.75356411696E+03  0.50400001928E-02 0.  1.
       -1   -1    0    0    0  501  0.00000000000E+00  0.00000000000E+00 -0.26452646675E+03  0.26452646680E+03  0.50400001928E-02 0. -1.
    10030    2    1    2    0    0  0.00000000000E+00  0.00000000000E+00  0.48903765018E+03  0.10180905838E+04  0.89294491064E+03 0.  0.
        1    1    3    3  502    0  0.93299745761E+02  0.24864287315E+02  0.74151748201E+03  0.74777754144E+03  0.50400001928E-02 0.  1.
       -1    1    3    3    0  502 -0.93299745761E+02 -0.24864287315E+02 -0.25247983182E+03  0.27031304231E+03  0.50400001928E-02 0. -1.
</event>
<event>
 5   0  0.6609191E-03  0.8972788E+03  0.7818609E-02  0.9428989E-01
        2   -1    0    0  501    0  0.00000000000E+00  0.00000000000E+00  0.53789391341E+03  0.53789391342E+03  0.25500000920E-02 0.  1.
       -2   -1    0    0    0  501  0.00000000000E+00  0.00000000000E+00 -0.37419521528E+03  0.37419521529E+03  0.25500000920E-02 0. -1.
    10030    2    1    2    0    0  0.00000000000E+00  0.00000000000E+00  0.16369869814E+03  0.91208912871E+03  0.89727883901E+03 0.  0.
        2    1    3    3  502    0  0.42913012335E+02 -0.35883892113E+03  0.35207633859E+03  0.50454399823E+03  0.25500000920E-02 0.  1.
       -2    1    3    3    0  502 -0.42913012335E+02  0.35883892113E+03 -0.18837764046E+03  0.40754513048E+03  0.25500000920E-02 0. -1.
</event>
<event>
 5   0  0.3969536E-03  0.9057530E+03  0.7818609E-02  0.9418418E-01
        1   -1    0    0  501    0  0.00000000000E+00  0.00000000000E+00  0.17848543177E+04  0.17848543177E+04  0.50400001928E-02 0.  1.
       -1   -1    0    0    0  501  0.00000000000E+00  0.00000000000E+00 -0.11490973110E+03  0.11490973121E+03  0.50400001928E-02 0. -1.
    10030    2    1    2    0    0  0.00000000000E+00  0.00000000000E+00  0.16699445866E+04  0.18997640489E+04  0.90575301227E+03 0.  0.
        1    1    3    3  502    0 -0.37447564936E+03 -0.23916406608E+03  0.65133331773E+03  0.78845833960E+03  0.50400001928E-02 0. -1.
       -1    1    3    3    0  502  0.37447564936E+03  0.23916406608E+03  0.10186112689E+04  0.11113057093E+04  0.50400001928E-02 0.  1.
</event>
<event>
 5   0  0.3794006E-03  0.8926026E+03  0.7818609E-02  0.9434876E-01
        1   -1    0    0  501    0  0.00000000000E+00  0.00000000000E+00  0.23587493477E+04  0.23587493477E+04  0.50400001928E-02 0. -1.
       -1   -1    0    0    0  501  0.00000000000E+00  0.00000000000E+00 -0.84445108686E+02  0.84445108836E+02  0.50400001928E-02 0.  1.
    10030    2    1    2    0    0  0.00000000000E+00  0.00000000000E+00  0.22743042390E+04  0.24431944566E+04  0.89260258844E+03 0.  0.
        5    1    3    3  502    0  0.32578833571E+03 -0.28607172566E+03  0.84763784958E+03  0.95209615374E+03  0.46999998093E+01 0.  1.
       -5    1    3    3    0  502 -0.32578833571E+03  0.28607172566E+03  0.14266663895E+04  0.14910983028E+04  0.46999998093E+01 0. -1.
</event>
<event>
 5   0  0.6534628E-03  0.8952647E+03  0.7818609E-02  0.9431520E-01
        2   -1    0    0  501    0  0.00000000000E+00  0.00000000000E+00  0.16231166833E+04  0.16231166833E+04  0.25500000920E-02 0.  1.
       -2   -1    0    0    0  501  0.00000000000E+00  0.00000000000E+00 -0.12345058473E+03  0.12345058475E+03  0.25500000920E-02 0. -1.
    10030    2    1    2    0    0  0.00000000000E+00  0.00000000000E+00  0.14996660985E+04  0.17465672680E+04  0.89526466177E+03 0.  0.
        4    1    3    3  502    0 -0.25892997646E+03 -0.14174997865E+03  0.93348067531E+02  0.30960178257E+03  0.12699999809E+01 0. -1.
       -4    1    3    3    0  502  0.25892997646E+03  0.14174997865E+03  0.14063180310E+04  0.14369654854E+04  0.12699999809E+01 0.  1.
</event>
<event>
 5   0  0.3943549E-03  0.9026848E+03  0.7818609E-02  0.9422231E-01
        1   -1    0    0  501    0  0.00000000000E+00  0.00000000000E+00  0.62082978942E+03  0.62082978944E+03  0.50400001928E-02 0. -1.
       -1   -1    0    0    0  501  0.00000000000E+00  0.00000000000E+00 -0.32812531051E+03  0.32812531055E+03  0.50400001928E-02 0.  1.
    10030    2    1    2    0    0  0.00000000000E+00  0.00000000000E+00  0.29270447891E+03  0.94895509999E+03  0.90268481201E+03 0.  0.
        3    1    3    3  502    0  0.44016187145E+02 -0.29719841729E+03 -0.20772941083E+03  0.36526133425E+03  0.10100000352E+00 0.  1.
       -3    1    3    3    0  502 -0.44016187145E+02  0.29719841729E+03  0.50043388974E+03  0.58369376575E+03  0.10100000352E+00 0. -1.
</event>
<event>
 5   0  0.2560250E-03  0.8992696E+03  0.7818609E-02  0.9426495E-01
        3   -1    0    0  501    0  0.00000000000E+00  0.00000000000E+00  0.81099682100E+03  0.81099682729E+03  0.10100000352E+00 0. -1.
       -3   -1    0    0    0  501  0.00000000000E+00  0.00000000000E+00 -0.24928757907E+03  0.24928759953E+03  0.10100000352E+00 0.  1.
    10030    2    1    2    0    0  0.00000000000E+00  0.00000000000E+00  0.56170924193E+03  0.10602844268E+04  0.89926958877E+03 0.  0.
        4    1    3    3  502    0 -0.33580380087E+02 -0.42706204728E+03  0.11979352957E+03  0.44481652035E+03  0.12699999809E+01 0.  1.
       -4    1    3    3    0  502  0.33580380087E+02  0.42706204728E+03  0.44191571237E+03  0.61546790647E+03  0.12699999809E+01 0. -1.
</event>
<event>
 5   0  0.3969536E-03  0.8964534E+03  0.7818609E-02  0.9430026E-01
       -1   -1    0    0    0  501  0.00000000000E+00  0.00000000000E+00  0.22490822858E+03  0.22490822864E+03  0.50400001928E-02 0. -1.
        1   -1    0    0  501    0  0.00000000000E+00  0.00000000000E+00 -0.89328516602E+03  0.89328516603E+03  0.50400001928E-02 0.  1.
    10030    2    1    2    0    0  0.00000000000E+00  0.00000000000E+00 -0.66837693744E+03  0.11181933947E+04  0.89645342176E+03 0.  0.
        1    1    3    3  502    0  0.36941089229E+03 -0.17852608415E+03 -0.55930436741E+03  0.69365506233E+03  0.50400001928E-02 0.  1.
       -1    1    3    3    0  502 -0.36941089229E+03  0.17852608415E+03 -0.10907257003E+03  0.42453833234E+03  0.50400001928E-02 0. -1.
</event>
<event>
 5   0  0.3927993E-03  0.8997079E+03  0.7818609E-02  0.9425947E-01
        1   -1    0    0  501    0  0.00000000000E+00  0.00000000000E+00  0.15191417736E+04  0.15191417736E+04  0.50400001928E-02 0. -1.
       -1   -1    0    0    0  501  0.00000000000E+00  0.00000000000E+00 -0.13321242219E+03  0.13321242229E+03  0.50400001928E-02 0.  1.
    10030    2    1    2    0    0  0.00000000000E+00  0.00000000000E+00  0.13859293514E+04  0.16523541959E+04  0.89970785349E+03 0.  0.
        2    1    3    3  502    0 -0.12397238033E+03  0.29000667088E+03  0.10384991923E+03  0.33205093881E+03  0.25500000920E-02 0.  1.
       -2    1    3    3    0  502  0.12397238033E+03 -0.29000667088E+03  0.12820794322E+04  0.13203032571E+04  0.25500000920E-02 0. -1.
</event>
<event>
 5   0  0.3998066E-03  0.8989514E+03  0.7818609E-02  0.9426893E-01
        1   -1    0    0  501    0  0.00000000000E+00  0.00000000000E+00  0.75695604381E+03  0.75695604382E+03  0.50400001928E-02 0. -1.
       -1   -1    0    0    0  501  0.00000000000E+00  0.00000000000E+00 -0.26689583667E+03  0.26689583671E+03  0.50400001928E-02 0.  1.
    10030    2    1    2    0    0  0.00000000000E+00  0.00000000000E+00  0.49006020714E+03  0.10238518805E+04  0.89895142620E+03 0.  0.
        4    1    3    3  502    0  0.15031125074E+03 -0.27912311103E+03  0.60792800367E+03  0.68562471787E+03  0.12699999809E+01 0. -1.
       -4    1    3    3    0  502 -0.15031125074E+03  0.27912311103E+03 -0.11786779653E+03  0.33822716267E+03  0.12699999809E+01 0.  1.
</event>
<event>
 5   0  0.2560250E-03  0.9044698E+03  0.7818609E-02  0.9420011E-01
        3   -1    0    0  501    0  0.00000000000E+00  0.00000000000E+00  0.81941331777E+03  0.81941332400E+03  0.10100000352E+00 0. -1.
       -3   -1    0    0    0  501  0.00000000000E+00  0.00000000000E+00 -0.24958883026E+03  0.24958885070E+03  0.10100000352E+00 0.  1.
    10030    2    1    2    0    0  0.00000000000E+00  0.00000000000E+00  0.56982448751E+03  0.10690021747E+04  0.90446984634E+03 0.  0.
        2    1    3    3  502    0 -0.22208082885E+03  0.20547247196E+03  0.68217756696E+03  0.74626072129E+03  0.25500000920E-02 0. -1.
       -2    1    3    3    0  502  0.22208082885E+03 -0.20547247196E+03 -0.11235307944E+03  0.32274145340E+03  0.25500000920E-02 0.  1.
</event>
<event>
 5   0  0.6863405E-03  0.9037456E+03  0.7818609E-02  0.9420911E-01
       -2   -1    0    0    0  501  0.00000000000E+00  0.00000000000E+00  0.27136387650E+03  0.27136387651E+03  0.25500000920E-02 0. -1.
        2   -1    0    0  501    0  0.00000000000E+00  0.00000000000E+00 -0.75245475375E+03  0.75245475376E+03  0.25500000920E-02 0.  1.
    10030    2    1    2    0    0  0.00000000000E+00  0.00000000000E+00 -0.48109087725E+03  0.10238186303E+04  0.90374562545E+03 0.  0.
        1    1    3    3  502    0  0.18532431335E+03  0.40828540597E+03 -0.30409649538E+03  0.54177186378E+03  0.50400001928E-02 0.  1.
       -1    1    3    3    0  502 -0.18532431335E+03 -0.40828540597E+03 -0.17699438187E+03  0.48204676649E+03  0.50400001928E-02 0. -1.
</event>
<event>
 5   0  0.3927993E-03  0.8963659E+03  0.7818609E-02  0.9430136E-01
        1   -1    0    0  501    0  0.00000000000E+00  0.00000000000E+00  0.43341603772E+03  0.43341603774E+03  0.50400001928E-02 0.  1.
       -1   -1    0    0    0  501  0.00000000000E+00  0.00000000000E+00 -0.46345294143E+03  0.46345294146E+03  0.50400001928E-02 0. -1.
    10030    2    1    2    0    0  0.00000000000E+00  0.00000000000E+00 -0.30036903713E+02  0.89686897920E+03  0.89636585737E+03 0.  0.
        2    1    3    3  502    0  0.31312415223E+02  0.19101734233E+03  0.38943590434E+03  0.43488896976E+03  0.25500000920E-02 0.  1.
       -2    1    3    3    0  502 -0.31312415223E+02 -0.19101734233E+03 -0.41947280806E+03  0.46198000944E+03  0.25500000920E-02 0. -1.
</event>
<event>
 5   0  0.6524705E-03  0.8868341E+03  0.7818609E-02  0.9442191E-01
       -2   -1    0    0    0  501  0.00000000000E+00  0.00000000000E+00  0.15487790556E+03  0.15487790558E+03  0.25500000920E-02 0. -1.
        2   -1    0    0  501    0  0.00000000000E+00  0.00000000000E+00 -0.12695076472E+04  0.12695076472E+04  0.25500000920E-02 0.  1.
    10030    2    1    2    0    0  0.00000000000E+00  0.00000000000E+00 -0.11146297417E+04  0.14243855528E+04  0.88683411190E+03 0.  0.
        3    1    3    3  502    0  0.26023901735E+03  0.27762682893E+03 -0.19169977131E+03  0.42608662830E+03  0.10100000352E+00 0. -1.
       -3    1    3    3    0  502 -0.26023901735E+03 -0.27762682893E+03 -0.92292997037E+03  0.99829892452E+03  0.10100000352E+00 0.  1.
</event>
<event>
 5   0  0.3998066E-03  0.8978589E+03  0.7818609E-02  0.9428262E-01
       -1   -1    0    0    0  501  0.00000000000E+00  0.00000000000E+00  0.12803205140E+03  0.12803205150E+03  0.50400001928E-02 0.  1.
        1   -1    0    0  501    0  0.00000000000E+00  0.00000000000E+00 -0.15741188108E+04  0.15741188108E+04  0.50400001928E-02 0. -1.
    10030    2    1    2    0    0  0.00000000000E+00  0.00000000000E+00 -0.14460867594E+04  0.17021508623E+04  0.89785892119E+03 0.  0.
        4    1    3    3  502    0 -0.39654189592E+02  0.12569462514E+03  0.90522735462E+02  0.15989863063E+03  0.12699999809E+01 0.  1.
       -4    1    3    3    0  502  0.39654189592E+02 -0.12569462514E+03 -0.15366094949E+04  0.15422522317E+04  0.12699999809E+01 0. -1.
</event>
<event>
 5   0  0.6863405E-03  0.8982525E+03  0.7818609E-02  0.9427768E-01
        2   -1    0    0  501    0  0.00000000000E+00  0.00000000000E+00  0.27290851054E+04  0.27290851055E+04  0.25500000920E-02 0.  1.
       -2   -1    0    0    0  501  0.00000000000E+00  0.00000000000E+00 -0.73912832083E+02  0.73912832127E+02  0.25500000920E-02 0. -1.
    10030    2    1    2    0    0  0.00000000000E+00  0.00000000000E+00  0.26551722734E+04  0.28029979376E+04  0.89825254623E+03 0.  0.
        1    1    3    3  502    0 -0.91091855817E+02  0.39481761660E+03  0.19321563828E+04  0.19741851393E+04  0.50400001928E-02 0.  1.
       -1    1    3    3    0  502  0.91091855817E+02 -0.39481761660E+03  0.72301589059E+03  0.82881279831E+03  0.50400001928E-02 0. -1.
</event>
<event>
 5   0  0.3943549E-03  0.8960314E+03  0.7818609E-02  0.9430556E-01
        1   -1    0    0  501    0  0.00000000000E+00  0.00000000000E+00  0.81892876110E+03  0.81892876111E+03  0.50400001928E-02 0.  1.
       -1   -1    0    0    0  501  0.00000000000E+00  0.00000000000E+00 -0.24509832570E+03  0.24509832575E+03  0.50400001928E-02 0. -1.
    10030    2    1    2    0    0  0.00000000000E+00  0.00000000000E+00  0.57383043540E+03  0.10640270869E+04  0.89603140179E+03 0.  0.
        3    1    3    3  502    0 -0.26371614971E+03  0.49041845546E+02  0.71303462817E+03  0.76181999278E+03  0.10100000352E+00 0.  1.
       -3    1    3    3    0  502  0.26371614971E+03 -0.49041845546E+02 -0.13920419277E+03  0.30220709409E+03  0.10100000352E+00 0. -1.
</event>
<event>
 5   0  0.6534628E-03  0.8986841E+03  0.7818609E-02  0.9427228E-01
        2   -1    0    0  501    0  0.00000000000E+00  0.00000000000E+00  0.20097995832E+04  0.20097995832E+04  0.25500000920E-02 0. -1.
       -2   -1    0    0    0  501  0.00000000000E+00  0.00000000000E+00 -0.10046189261E+03  0.10046189264E+03  0.25500000920E-02 0.  1.
    10030    2    1    2    0    0  0.00000000000E+00  0.00000000000E+00  0.19093376906E+04  0.21102614759E+04  0.89868408226E+03 0.  0.
        4    1    3    3  502    0  0.11375980907E+03  0.38856200274E+03  0.14123203589E+04  0.14692079952E+04  0.12699999809E+01 0. -1.
       -4    1    3    3    0  502 -0.11375980907E+03 -0.38856200274E+03  0.49701733175E+03  0.64105348068E+03  0.12699999809E+01 0.  1.
</event>
<event>
 5   0  0.2560250E-03  0.8970034E+03  0.7818609E-02  0.9429335E-01
       -3   -1    0    0    0  501  0.00000000000E+00  0.00000000000E+00  0.53496502900E+03  0.53496503854E+03  0.10100000352E+00 0. -1.
        3   -1    0    0  501    0  0.00000000000E+00  0.00000000000E+00 -0.37601292319E+03  0.37601293676E+03  0.10100000352E+00 0.  1.
    10030    2    1    2    0    0  0.00000000000E+00  0.00000000000E+00  0.15895210581E+03  0.91097797530E+03  0.89700339996E+03 0.  0.
        3    1    3    3  502    0 -0.10390687373E+03 -0.10953214633E+03 -0.34943014217E+03  0.38065123663E+03  0.10100000352E+00 0.  1.
       -3    1    3    3    0  502  0.10390687373E+03  0.10953214633E+03  0.50838224798E+03  0.53032673867E+03  0.10100000352E+00 0. -1.
</event>
<event>
 5   0  0.6534628E-03  0.9017086E+03  0.7818609E-02  0.9423448E-01
        2   -1    0    0  501    0  0.00000000000E+00  0.00000000000E+00  0.92520593674E+03  0.92520593674E+03  0.25500000920E-02 0.  1.
       -2   -1    0    0    0  501  0.00000000000E+00  0.00000000000E+00 -0.21970200970E+03  0.21970200972E+03  0.25500000920E-02 0. -1.
    10030    2    1    2    0    0  0.00000000000E+00  0.00000000000E+00  0.70550392704E+03  0.11449079465E+04  0.90170860859E+03 0.  0.
        4    1    3    3  502    0 -0.19688746715E+03  0.33503949364E+03  0.64299058671E+03  0.75130196627E+03  0.12699999809E+01 0. -1.
       -4    1    3    3    0  502  0.19688746715E+03 -0.33503949364E+03  0.62513340326E+02  0.39360598019E+03  0.12699999809E+01 0.  1.
</event>
<event>
 5   0  0.6724773E-03  0.8968750E+03  0.7818609E-02  0.9429496E-01
       -2   -1    0    0    0  501  0.00000000000E+00  0.00000000000E+00  0.12418255545E+03  0.12418255548E+03  0.25500000920E-02 0. -1.
        2   -1    0    0  501    0  0.00000000000E+00  0.00000000000E+00 -0.16193592624E+04  0.16193592624E+04  0.25500000920E-02 0.  1.
    10030    2    1    2    0    0  0.00000000000E+00  0.00000000000E+00 -0.14951767070E+04  0.17435418179E+04  0.89687495544E+03 0.  0.
        5    1    3    3  502    0  0.21506404386E+03 -0.18035478050E+03 -0.14274217555E+04  0.14547629869E+04  0.46999998093E+01 0.  1.
       -5    1    3    3    0  502 -0.21506404386E+03  0.18035478050E+03 -0.67754951453E+02  0.28877883104E+03  0.46999998093E+01 0. -1.
</event>
<event>
 5   0  0.6609191E-03  0.8960508E+03  0.7818609E-02  0.9430532E-01
        2   -1    0    0  501    0  0.00000000000E+00  0.00000000000E+00  0.11700086523E+04  0.11700086523E+04  0.25500000920E-02 0.  1.
       -2   -1    0    0    0  501  0.00000000000E+00  0.00000000000E+00 -0.17156005868E+03  0.17156005869E+03  0.25500000920E-02 0. -1.
    10030    2    1    2    0    0  0.00000000000E+00  0.00000000000E+00  0.99844859367E+03  0.13415687110E+04  0.89605078664E+03 0.  0.
        2    1    3    3  502    0  0.45670580607E+02 -0.13198668682E+03  0.11365829939E+04  0.11451319529E+04  0.25500000920E-02 0.  1.
       -2    1    3    3    0  502 -0.45670580607E+02  0.13198668682E+03 -0.13813440023E+03  0.19643675818E+03  0.25500000920E-02 0. -1.
</event>
<event>
 5   0  0.6524705E-03  0.9082636E+03  0.7818609E-02  0.9415310E-01
        2   -1    0    0  501    0  0.00000000000E+00  0.00000000000E+00  0.13027973716E+04  0.13027973716E+04  0.25500000920E-02 0. -1.
       -2   -1    0    0    0  501  0.00000000000E+00  0.00000000000E+00 -0.15830218897E+03  0.15830218899E+03  0.25500000920E-02 0.  1.
    10030    2    1    2    0    0  0.00000000000E+00  0.00000000000E+00  0.11444951826E+04  0.14610995606E+04  0.90826356466E+03 0.  0.
        3    1    3    3  502    0 -0.39709182146E+03  0.85162311583E+02  0.24532201902E+03  0.47446542256E+03  0.10100000352E+00 0.  1.
       -3    1    3    3    0  502  0.39709182146E+03 -0.85162311583E+02  0.89917316360E+03  0.98663413803E+03  0.10100000352E+00 0. -1.
</event>
<event>
 5   0  0.6524705E-03  0.8996676E+03  0.7818609E-02  0.9425997E-01
        2   -1    0    0  501    0  0.00000000000E+00  0.00000000000E+00  0.86018848957E+03  0.86018848957E+03  0.25500000920E-02 0. -1.
       -2   -1    0    0    0  501  0.00000000000E+00  0.00000000000E+00 -0.23523967356E+03  0.23523967358E+03  0.25500000920E-02 0.  1.
    10030    2    1    2    0    0  0.00000000000E+00  0.00000000000E+00  0.62494881601E+03  0.10954281631E+04  0.89966762640E+03 0.  0.
        3    1    3    3  502    0 -0.35813006787E+03 -0.56495251630E+02  0.63668693967E+03  0.73267941715E+03  0.10100000352E+00 0. -1.
       -3    1    3    3    0  502  0.35813006787E+03  0.56495251630E+02 -0.11738123667E+02  0.36274874599E+03  0.10100000352E+00 0.  1.
</event>
<event>
 5   0  0.6609191E-03  0.9012597E+03  0.7818609E-02  0.9424008E-01
       -2   -1    0    0    0  501  0.00000000000E+00  0.00000000000E+00  0.18123962068E+03  0.18123962070E+03  0.25500000920E-02 0. -1.
        2   -1    0    0  501    0  0.00000000000E+00  0.00000000000E+00 -0.11204352334E+04  0.11204352334E+04  0.25500000920E-02 0.  1.
    10030    2    1    2    0    0  0.00000000000E+00  0.00000000000E+00 -0.93919561275E+03  0.13016748541E+04  0.90125968891E+03 0.  0.
        2    1    3    3  502    0 -0.18765346870E+03 -0.47624567994E+02 -0.10573083761E+04  0.10748874015E+04  0.25500000920E-02 0.  1.
       -2    1    3    3    0  502  0.18765346870E+03  0.47624567994E+02  0.11811276334E+03  0.22678745261E+03  0.25500000920E-02 0. -1.
</event>
<event>
 5   0  0.2560250E-03  0.8961860E+03  0.7818609E-02  0.9430362E-01
        3   -1    0    0  501    0  0.00000000000E+00  0.00000000000E+00  0.17668878797E+04  0.17668878826E+04  0.10100000352E+00 0. -1.
       -3   -1    0    0    0  501  0.00000000000E+00  0.00000000000E+00 -0.11363895340E+03  0.11363899828E+03  0.10100000352E+00 0.  1.
    10030    2    1    2    0    0  0.00000000000E+00  0.00000000000E+00  0.16532489263E+04  0.18805268809E+04  0.89618599484E+03 0.  0.
        1    1    3    3  502    0 -0.25577089143E+02 -0.11350528855E+03  0.17346372283E+04  0.17385350017E+04  0.50400001928E-02 0. -1.
       -1    1    3    3    0  502  0.25577089143E+02  0.11350528855E+03 -0.81388302060E+02  0.14199187919E+03  0.50400001928E-02 0.  1.
</event>
<event>
 5   0  0.2560250E-03  0.8995373E+03  0.7818609E-02  0.9426160E-01
        4   -1    0    0  501    0  0.00000000000E+00  0.00000000000E+00  0.33806161992E+03  0.33806400543E+03  0.12699999809E+01 0.  1.
       -4   -1    0    0    0  501  0.00000000000E+00  0.00000000000E+00 -0.59838231954E+03  0.59838366726E+03  0.12699999809E+01 0. -1.
    10030    2    1    2    0    0  0.00000000000E+00  0.00000000000E+00 -0.26032069962E+03  0.93644767268E+03  0.89953731275E+03 0.  0.
        4    1    3    3  502    0  0.29707052065E+03  0.17476595587E+03 -0.43097409843E+03  0.55184628293E+03  0.12699999809E+01 0. -1.
       -4    1    3    3    0  502 -0.29707052065E+03 -0.17476595587E+03  0.17065339881E+03  0.38460138975E+03  0.12699999809E+01 0.  1.
</event>
<event>
 5   0  0.6524705E-03  0.9126409E+03  0.7818609E-02  0.9409916E-01
        2   -1    0    0  501    0  0.00000000000E+00  0.00000000000E+00  0.12193451591E+04  0.12193451591E+04  0.25500000920E-02 0. -1.
       -2   -1    0    0    0  501  0.00000000000E+00  0.00000000000E+00 -0.17077065750E+03  0.17077065752E+03  0.25500000920E-02 0.  1.
    10030    2    1    2    0    0  0.00000000000E+00  0.00000000000E+00  0.10485745016E+04  0.13901158166E+04  0.91264094705E+03 0.  0.
        3    1    3    3  502    0  0.24422331510E+03  0.37388908195E+03  0.66709529249E+03  0.80277905597E+03  0.10100000352E+00 0. -1.
       -3    1    3    3    0  502 -0.24422331510E+03 -0.37388908195E+03  0.38147920910E+03  0.58733676065E+03  0.10100000352E+00 0.  1.
</event>
<event>
 5   0  0.3998066E-03  0.8985829E+03  0.7818609E-02  0.9427355E-01
       -1   -1    0    0    0  501  0.00000000000E+00  0.00000000000E+00  0.74811148749E+02  0.74811148919E+02  0.50400001928E-02 0.  1.
        1   -1    0    0  501    0  0.00000000000E+00  0.00000000000E+00 -0.26982982111E+04  0.26982982111E+04  0.50400001928E-02 0. -1.
    10030    2    1    2    0    0  0.00000000000E+00  0.00000000000E+00 -0.26234870624E+04  0.27731093600E+04  0.89858286003E+03 0.  0.
        4    1    3    3  502    0  0.30914650318E+03  0.25487008758E+03 -0.68434130278E+03  0.79300375382E+03  0.12699999809E+01 0.  1.
       -4    1    3    3    0  502 -0.30914650318E+03 -0.25487008758E+03 -0.19391457596E+04  0.19801056062E+04  0.12699999809E+01 0. -1.
</event>
<event>
 5   0  0.6863405E-03  0.9129500E+03  0.7818609E-02  0.9409537E-01
        2   -1    0    0  501    0  0.00000000000E+00  0.00000000000E+00  0.50215599356E+03  0.50215599357E+03  0.25500000920E-02 0.  1.
       -2   -1    0    0    0  501  0.00000000000E+00  0.00000000000E+00 -0.41494958775E+03  0.41494958776E+03  0.25500000920E-02 0. -1.
    10030    2    1    2    0    0  0.00000000000E+00  0.00000000000E+00  0.87206405807E+02  0.91710558133E+03  0.91294999320E+03 0.  0.
        1    1    3    3  502    0 -0.34908018312E+03  0.29018275379E+03 -0.46405765129E+01  0.45396535091E+03  0.50400001928E-02 0.  1.
       -1    1    3    3    0  502  0.34908018312E+03 -0.29018275379E+03  0.91846982320E+02  0.46314023042E+03  0.50400001928E-02 0. -1.
</event>
<event>
 5   0  0.6609191E-03  0.9134545E+03  0.7818609E-02  0.9408917E-01
        2   -1    0    0  501    0  0.00000000000E+00  0.00000000000E+00  0.10064159193E+04  0.10064159193E+04  0.25500000920E-02 0. -1.
       -2   -1    0    0    0  501  0.00000000000E+00  0.00000000000E+00 -0.20726994887E+03  0.20726994889E+03  0.25500000920E-02 0.  1.
    10030    2    1    2    0    0  0.00000000000E+00  0.00000000000E+00  0.79914597045E+03  0.12136858682E+04  0.91345448962E+03 0.  0.
        2    1    3    3  502    0 -0.29670811069E+03  0.59575947167E+02  0.85407911018E+03  0.90611043636E+03  0.25500000920E-02 0. -1.
       -2    1    3    3    0  502  0.29670811069E+03 -0.59575947167E+02 -0.54933139734E+02  0.30757543185E+03  0.25500000920E-02 0.  1.
</event>
<event>
 5   0  0.3927993E-03  0.8956870E+03  0.7818609E-02  0.9430989E-01
       -1   -1    0    0    0  501  0.00000000000E+00  0.00000000000E+00  0.81615717458E+02  0.81615717614E+02  0.50400001928E-02 0.  1.
        1   -1    0    0  501    0  0.00000000000E+00  0.00000000000E+00 -0.24574164554E+04  0.24574164554E+04  0.50400001928E-02 0. -1.
    10030    2    1    2    0    0  0.00000000000E+00  0.00000000000E+00 -0.23758007380E+04  0.25390321731E+04  0.89568701522E+03 0.  0.
        2    1    3    3  502    0  0.60230119449E+02  0.28023404382E+03 -0.21633323371E+04  0.21822386642E+04  0.25500000920E-02 0. -1.
       -2    1    3    3    0  502 -0.60230119449E+02 -0.28023404382E+03 -0.21246840086E+03  0.35679350887E+03  0.25500000920E-02 0.  1.
</event>
<event>
 5   0  0.6724773E-03  0.9015480E+03  0.7818609E-02  0.9423648E-01
       -2   -1    0    0    0  501  0.00000000000E+00  0.00000000000E+00  0.77119446869E+03  0.77119446869E+03  0.25500000920E-02 0.  1.
        2   -1    0    0  501    0  0.00000000000E+00  0.00000000000E+00 -0.26348372837E+03  0.26348372838E+03  0.25500000920E-02 0. -1.
    10030    2    1    2    0    0  0.00000000000E+00  0.00000000000E+00  0.50771074032E+03  0.10346781971E+04  0.90154798855E+03 0.  0.
        5    1    3    3  502    0 -0.22080336273E+03 -0.28520568951E+03 -0.56394662862E+02  0.36510116176E+03  0.46999998093E+01 0. -1.
       -5    1    3    3    0  502  0.22080336273E+03  0.28520568951E+03  0.56410540318E+03  0.66957703531E+03  0.46999998093E+01 0.  1.
</event>
<event>
 5   0  0.3943549E-03  0.1008339E+04  0.7818609E-02  0.9299446E-01
        1   -1    0    0  501    0  0.00000000000E+00  0.00000000000E+00  0.10092129288E+04  0.10092129288E+04  0.50400001928E-02 0. -1.
       -1   -1    0    0    0  501  0.00000000000E+00  0.00000000000E+00 -0.25186634366E+03  0.25186634371E+03  0.50400001928E-02 0.  1.
    10030    2    1    2    0    0  0.00000000000E+00  0.00000000000E+00  0.75734658513E+03  0.12610792725E+04  0.10083387732E+04 0.  0.
        3    1    3    3  502    0 -0.13014423119E+03  0.22232445773E+03 -0.16333768304E+03  0.30503261190E+03  0.10100000352E+00 0.  1.
       -3    1    3    3    0  502  0.13014423119E+03 -0.22232445773E+03  0.92068426817E+03  0.95604666062E+03  0.10100000352E+00 0. -1.
</event>
<event>
 5   0  0.3943549E-03  0.9066267E+03  0.7818609E-02  0.9417335E-01
       -1   -1    0    0    0  501  0.00000000000E+00  0.00000000000E+00  0.14621116005E+03  0.14621116014E+03  0.50400001928E-02 0. -1.
        1   -1    0    0  501    0  0.00000000000E+00  0.00000000000E+00 -0.14054535083E+04  0.14054535083E+04  0.50400001928E-02 0.  1.
    10030    2    1    2    0    0  0.00000000000E+00  0.00000000000E+00 -0.12592423482E+04  0.15516646684E+04  0.90662668816E+03 0.  0.
        3    1    3    3  502    0 -0.31408059802E+03  0.30643525841E+03 -0.82433647002E+03  0.93385213801E+03  0.10100000352E+00 0.  1.
       -3    1    3    3    0  502  0.31408059802E+03 -0.30643525841E+03 -0.43490587821E+03  0.61781253043E+03  0.10100000352E+00 0. -1.
</event>
<event>
 5   0  0.3998066E-03  0.8836569E+03  0.7818609E-02  0.9446245E-01
        1   -1    0    0  501    0  0.00000000000E+00  0.00000000000E+00  0.27821550946E+03  0.27821550950E+03  0.50400001928E-02 0. -1.
       -1   -1    0    0    0  501  0.00000000000E+00  0.00000000000E+00 -0.70165890852E+03  0.70165890854E+03  0.50400001928E-02 0.  1.
    10030    2    1    2    0    0  0.00000000000E+00  0.00000000000E+00 -0.42344339906E+03  0.97987441804E+03  0.88365692603E+03 0.  0.
        4    1    3    3  502    0 -0.11510540042E+02  0.12002720035E+03 -0.68305906188E+03  0.69362116193E+03  0.12699999809E+01 0.  1.
       -4    1    3    3    0  502  0.11510540042E+02 -0.12002720035E+03  0.25961566282E+03  0.28625325611E+03  0.12699999809E+01 0. -1.
</event>
<event>
 5   0  0.6534628E-03  0.9015127E+03  0.7818609E-02  0.9423692E-01
       -2   -1    0    0    0  501  0.00000000000E+00  0.00000000000E+00  0.27979095342E+03  0.27979095343E+03  0.25500000920E-02 0. -1.
        2   -1    0    0  501    0  0.00000000000E+00  0.00000000000E+00 -0.72618959077E+03  0.72618959077E+03  0.25500000920E-02 0.  1.
    10030    2    1    2    0    0  0.00000000000E+00  0.00000000000E+00 -0.44639863735E+03  0.10059805442E+04  0.90151267982E+03 0.  0.
        4    1    3    3  502    0 -0.31969818796E+02  0.36382604695E+03  0.71587968745E+02  0.37217994563E+03  0.12699999809E+01 0. -1.
       -4    1    3    3    0  502  0.31969818796E+02 -0.36382604695E+03 -0.51798660610E+03  0.63380059858E+03  0.12699999809E+01 0.  1.
</event>
<event>
 5   0  0.6609191E-03  0.8959668E+03  0.7818609E-02  0.9430637E-01
        2   -1    0    0  501    0  0.00000000000E+00  0.00000000000E+00  0.18782933941E+04  0.18782933941E+04  0.25500000920E-02 0.  1.
       -2   -1    0    0    0  501  0.00000000000E+00  0.00000000000E+00 -0.10684652043E+03  0.10684652046E+03  0.25500000920E-02 0. -1.
    10030    2    1    2    0    0  0.00000000000E+00  0.00000000000E+00  0.17714468737E+04  0.19851399146E+04  0.89596677069E+03 0.  0.
        2    1    3    3  502    0  0.43978795429E+03 -0.85279245369E+02  0.88963648091E+03  0.99606177650E+03  0.25500000920E-02 0. -1.
       -2    1    3    3    0  502 -0.43978795429E+03  0.85279245369E+02  0.88181039274E+03  0.98907813806E+03  0.25500000920E-02 0.  1.
</event>
<event>
 5   0  0.6534628E-03  0.9013484E+03  0.7818609E-02  0.9423897E-01
       -2   -1    0    0    0  501  0.00000000000E+00  0.00000000000E+00  0.16361161509E+03  0.16361161511E+03  0.25500000920E-02 0.  1.
        2   -1    0    0  501    0  0.00000000000E+00  0.00000000000E+00 -0.12413986848E+04  0.12413986848E+04  0.25500000920E-02 0. -1.
    10030    2    1    2    0    0  0.00000000000E+00  0.00000000000E+00 -0.10777870697E+04  0.14050102999E+04  0.90134842056E+03 0.  0.
        4    1    3    3  502    0  0.36892865389E+02 -0.21247472998E+03 -0.11557460627E+04  0.11756943348E+04  0.12699999809E+01 0. -1.
       -4    1    3    3    0  502 -0.36892865389E+02  0.21247472998E+03  0.77958992986E+02  0.22931596518E+03  0.12699999809E+01 0.  1.
</event>
<event>
 5   0  0.6863405E-03  0.9059536E+03  0.7818609E-02  0.9418170E-01
        2   -1    0    0  501    0  0.00000000000E+00  0.00000000000E+00  0.65708149404E+03  0.65708149404E+03  0.25500000920E-02 0.  1.
       -2   -1    0    0    0  501  0.00000000000E+00  0.00000000000E+00 -0.31227171904E+03  0.31227171905E+03  0.25500000920E-02 0. -1.
    10030    2    1    2    0    0  0.00000000000E+00  0.00000000000E+00  0.34480977500E+03  0.96935321309E+03  0.90595356989E+03 0.  0.
        1    1    3    3  502    0 -0.37595820742E+03  0.18637830706E+03 -0.10140666535E+02  0.41974311217E+03  0.50400001928E-02 0. -1.
       -1    1    3    3    0  502  0.37595820742E+03 -0.18637830706E+03  0.35495044153E+03  0.54961010092E+03  0.50400001928E-02 0.  1.
</event>
<event>
 5   0  0.6524705E-03  0.9076163E+03  0.7818609E-02  0.9416110E-01
        2   -1    0    0  501    0  0.00000000000E+00  0.00000000000E+00  0.49800012904E+03  0.49800012905E+03  0.25500000920E-02 0. -1.
       -2   -1    0    0    0  501  0.00000000000E+00  0.00000000000E+00 -0.41353769817E+03  0.41353769818E+03  0.25500000920E-02 0.  1.
    10030    2    1    2    0    0  0.00000000000E+00  0.00000000000E+00  0.84462430870E+02  0.91153782723E+03  0.90761627809E+03 0.  0.
        3    1    3    3  502    0 -0.32685211551E+03 -0.30832628816E+03  0.10610168168E+03  0.46168710448E+03  0.10100000352E+00 0. -1.
       -3    1    3    3    0  502  0.32685211551E+03  0.30832628816E+03 -0.21639250813E+02  0.44985072275E+03  0.10100000352E+00 0.  1.
</event>
<event>
 5   0  0.3969536E-03  0.8971178E+03  0.7818609E-02  0.9429191E-01
       -1   -1    0    0    0  501  0.00000000000E+00  0.00000000000E+00  0.25392262906E+03  0.25392262911E+03  0.50400001928E-02 0. -1.
        1   -1    0    0  501    0  0.00000000000E+00  0.00000000000E+00 -0.79238743203E+03  0.79238743204E+03  0.50400001928E-02 0.  1.
    10030    2    1    2    0    0  0.00000000000E+00  0.00000000000E+00 -0.53846480297E+03  0.10463100611E+04  0.89711782951E+03 0.  0.
        1    1    3    3  502    0  0.35950318580E+03 -0.16959277566E+03 -0.26818758326E+02  0.39840117467E+03  0.50400001928E-02 0. -1.
       -1    1    3    3    0  502 -0.35950318580E+03  0.16959277566E+03 -0.51164604464E+03  0.64790888648E+03  0.50400001928E-02 0.  1.
</event>
<event>
 5   0  0.6609191E-03  0.8911781E+03  0.7818609E-02  0.9436677E-01
        2   -1    0    0  501    0  0.00000000000E+00  0.00000000000E+00  0.14793718769E+04  0.14793718769E+04  0.25500000920E-02 0. -1.
       -2   -1    0    0    0  501  0.00000000000E+00  0.00000000000E+00 -0.13421208558E+03  0.13421208560E+03  0.25500000920E-02 0.  1.
    10030    2    1    2    0    0  0.00000000000E+00  0.00000000000E+00  0.13451597913E+04  0.16135839625E+04  0.89117806293E+03 0.  0.
        2    1    3    3  502    0  0.37969713119E+03 -0.21158489463E+03  0.49506990573E+03  0.65881127087E+03  0.25500000920E-02 0. -1.
       -2    1    3    3    0  502 -0.37969713119E+03  0.21158489463E+03  0.85008988558E+03  0.95477269161E+03  0.25500000920E-02 0.  1.
</event>
<event>
 5   0  0.3927993E-03  0.8851274E+03  0.7818609E-02  0.9444366E-01
        1   -1    0    0  501    0  0.00000000000E+00  0.00000000000E+00  0.60487994902E+03  0.60487994904E+03  0.50400001928E-02 0. -1.
       -1   -1    0    0    0  501  0.00000000000E+00  0.00000000000E+00 -0.32380412813E+03  0.32380412817E+03  0.50400001928E-02 0.  1.
    10030    2    1    2    0    0  0.00000000000E+00  0.00000000000E+00  0.28107582089E+03  0.92868407721E+03  0.88512739093E+03 0.  0.
        2    1    3    3  502    0 -0.19354589099E+03 -0.39772407926E+03  0.12504050011E+03  0.45965158742E+03  0.25500000920E-02 0.  1.
       -2    1    3    3    0  502  0.19354589099E+03  0.39772407926E+03  0.15603532078E+03  0.46903248979E+03  0.25500000920E-02 0. -1.
</event>
<event>
 5   0  0.6534628E-03  0.8997915E+03  0.7818609E-02  0.9425842E-01
       -2   -1    0    0    0  501  0.00000000000E+00  0.00000000000E+00  0.50383356996E+03  0.50383356997E+03  0.25500000920E-02 0.  1.
        2   -1    0    0  501    0  0.00000000000E+00  0.00000000000E+00 -0.40173220693E+03  0.40173220694E+03  0.25500000920E-02 0. -1.
    10030    2    1    2    0    0  0.00000000000E+00  0.00000000000E+00  0.10210136303E+03  0.90556577691E+03  0.89979146916E+03 0.  0.
        4    1    3    3  502    0 -0.12124169373E+03 -0.54462259621E+02 -0.38152019345E+03  0.40401108516E+03  0.12699999809E+01 0. -1.
       -4    1    3    3    0  502  0.12124169373E+03  0.54462259621E+02  0.48362155648E+03  0.50155469175E+03  0.12699999809E+01 0.  1.
</event>
<event>
 5   0  0.6534628E-03  0.8993870E+03  0.7818609E-02  0.9426348E-01
        2   -1    0    0  501    0  0.00000000000E+00  0.00000000000E+00  0.14465905004E+03  0.14465905006E+03  0.25500000920E-02 0.  1.
       -2   -1    0    0    0  501  0.00000000000E+00  0.00000000000E+00 -0.13979370756E+04  0.13979370756E+04  0.25500000920E-02 0. -1.
    10030    2    1    2    0    0  0.00000000000E+00  0.00000000000E+00 -0.12532780255E+04  0.15425961256E+04  0.89938701211E+03 0.  0.
        4    1    3    3  502    0  0.10676194029E+03  0.13569424634E+03  0.85539490747E+02  0.19269057518E+03  0.12699999809E+01 0.  1.
       -4    1    3    3    0  502 -0.10676194029E+03 -0.13569424634E+03 -0.13388175163E+04  0.13499055505E+04  0.12699999809E+01 0. -1.
</event>
<event>
 5   0  0.3969536E-03  0.9752336E+03  0.7818609E-02  0.9336133E-01
        1   -1    0    0  501    0  0.00000000000E+00  0.00000000000E+00  0.63240249056E+03  0.63240249058E+03  0.50400001928E-02 0. -1.
       -1   -1    0    0    0  501  0.00000000000E+00  0.00000000000E+00 -0.37597915730E+03  0.37597915733E+03  0.50400001928E-02 0.  1.
    10030    2    1    2    0    0  0.00000000000E+00  0.00000000000E+00  0.25642333325E+03  0.10083816479E+04  0.97523362432E+03 0.  0.
        1    1    3    3  502    0 -0.46177767630E+03 -0.36741976834E+02 -0.29218370705E+02  0.46415763314E+03  0.50400001928E-02 0.  1.
       -1    1    3    3    0  502  0.46177767630E+03  0.36741976834E+02  0.28564170396E+03  0.54422401477E+03  0.50400001928E-02 0. -1.
</event>
<event>
 5   0  0.3943549E-03  0.9008551E+03  0.7818609E-02  0.9424513E-01
       -1   -1    0    0    0  501  0.00000000000E+00  0.00000000000E+00  0.32948409426E+03  0.32948409430E+03  0.50400001928E-02 0.  1.
        1   -1    0    0  501    0  0.00000000000E+00  0.00000000000E+00 -0.61576566112E+03  0.61576566114E+03  0.50400001928E-02 0. -1.
    10030    2    1    2    0    0  0.00000000000E+00  0.00000000000E+00 -0.28628156686E+03  0.94524975544E+03  0.90085512966E+03 0.  0.
        3    1    3    3  502    0  0.44566627509E+03  0.42024159097E+02 -0.19561028998E+03  0.48851597154E+03  0.10100000352E+00 0.  1.
       -3    1    3    3    0  502 -0.44566627509E+03 -0.42024159097E+02 -0.90671276885E+02  0.45673378390E+03  0.10100000352E+00 0. -1.
</event>
<event>
 5   0  0.6524705E-03  0.9024976E+03  0.7818609E-02  0.9422465E-01
        2   -1    0    0  501    0  0.00000000000E+00  0.00000000000E+00  0.55021673185E+03  0.55021673186E+03  0.25500000920E-02 0. -1.
       -2   -1    0    0    0  501  0.00000000000E+00  0.00000000000E+00 -0.37008230190E+03  0.37008230190E+03  0.25500000920E-02 0.  1.
    10030    2    1    2    0    0  0.00000000000E+00  0.00000000000E+00  0.18013442996E+03  0.92029903376E+03  0.90249758930E+03 0.  0.
        3    1    3    3  502    0  0.26045356751E+03  0.12561294227E+03  0.44332607827E+03  0.52929452479E+03  0.10100000352E+00 0. -1.
       -3    1    3    3    0  502 -0.26045356751E+03 -0.12561294227E+03 -0.26319164832E+03  0.39100450897E+03  0.10100000352E+00 0.  1.
</event>
<event>
 5   0  0.3794006E-03  0.9041126E+03  0.7818609E-02  0.9420455E-01
       -1   -1    0    0    0  501  0.00000000000E+00  0.00000000000E+00  0.10343455857E+04  0.10343455858E+04  0.50400001928E-02 0. -1.
        1   -1    0    0  501    0  0.00000000000E+00  0.00000000000E+00 -0.19756926597E+03  0.19756926603E+03  0.50400001928E-02 0.  1.
    10030    2    1    2    0    0  0.00000000000E+00  0.00000000000E+00  0.83677631978E+03  0.12319148518E+04  0.90411259958E+03 0.  0.
        5    1    3    3  502    0  0.92102994184E+02 -0.30264740475E+03 -0.21563900326E+02  0.31712064729E+03  0.46999998093E+01 0.  1.
       -5    1    3    3    0  502 -0.92102994184E+02  0.30264740475E+03  0.85834022010E+03  0.91479420450E+03  0.46999998093E+01 0. -1.
</event>
<event>
 5   0  0.3998066E-03  0.9216263E+03  0.7818609E-02  0.9398944E-01
       -1   -1    0    0    0  501  0.00000000000E+00  0.00000000000E+00  0.49829086296E+03  0.49829086299E+03  0.50400001928E-02 0.  1.
        1   -1    0    0  501    0  0.00000000000E+00  0.00000000000E+00 -0.42615427599E+03  0.42615427602E+03  0.50400001928E-02 0. -1.
    10030    2    1    2    0    0  0.00000000000E+00  0.00000000000E+00  0.72136586971E+02  0.92444513901E+03  0.92162634937E+03 0.  0.
        4    1    3    3  502    0 -0.36326074248E+03 -0.13644356498E+03 -0.21323150975E+03  0.44276913070E+03  0.12699999809E+01 0. -1.
       -4    1    3    3    0  502  0.36326074248E+03  0.13644356498E+03  0.28536809672E+03  0.48167600831E+03  0.12699999809E+01 0.  1.
</event>
<event>
 5   0  0.6534628E-03  0.8979161E+03  0.7818609E-02  0.9428190E-01
        2   -1    0    0  501    0  0.00000000000E+00  0.00000000000E+00  0.57208507857E+03  0.57208507857E+03  0.25500000920E-02 0. -1.
       -2   -1    0    0    0  501  0.00000000000E+00  0.00000000000E+00 -0.35233106679E+03  0.35233106680E+03  0.25500000920E-02 0.  1.
    10030    2    1    2    0    0  0.00000000000E+00  0.00000000000E+00  0.21975401177E+03  0.92441614538E+03  0.89791613425E+03 0.  0.
        4    1    3    3  502    0  0.37327414838E+03 -0.24211177782E+03  0.48020245393E+02  0.44750336276E+03  0.12699999809E+01 0. -1.
       -4    1    3    3    0  502 -0.37327414838E+03  0.24211177782E+03  0.17173376638E+03  0.47691278262E+03  0.12699999809E+01 0.  1.
</event>
<event>
 5   0  0.6863405E-03  0.8972020E+03  0.7818609E-02  0.9429086E-01
       -2   -1    0    0    0  501  0.00000000000E+00  0.00000000000E+00  0.17148272451E+03  0.17148272453E+03  0.25500000920E-02 0. -1.
        2   -1    0    0  501    0  0.00000000000E+00  0.00000000000E+00 -0.11735458275E+04  0.11735458275E+04  0.25500000920E-02 0.  1.
    10030    2    1    2    0    0  0.00000000000E+00  0.00000000000E+00 -0.10020631030E+04  0.13450285520E+04  0.89720195241E+03 0.  0.
        1    1    3    3  502    0 -0.37093130486E+03  0.41929609398E+02 -0.12806656519E+03  0.39465069392E+03  0.50400001928E-02 0. -1.
       -1    1    3    3    0  502  0.37093130486E+03 -0.41929609398E+02 -0.87399653782E+03  0.95037785812E+03  0.50400001928E-02 0.  1.
</event>
<event>
 5   0  0.3927993E-03  0.8982055E+03  0.7818609E-02  0.9427827E-01
        1   -1    0    0  501    0  0.00000000000E+00  0.00000000000E+00  0.37462351637E+03  0.37462351641E+03  0.50400001928E-02 0. -1.
       -1   -1    0    0    0  501  0.00000000000E+00  0.00000000000E+00 -0.53838928946E+03  0.53838928949E+03  0.50400001928E-02 0.  1.
    10030    2    1    2    0    0  0.00000000000E+00  0.00000000000E+00 -0.16376577309E+03  0.91301280589E+03  0.89820551951E+03 0.  0.
        2    1    3    3  502    0  0.28713989259E+01 -0.34222516402E+03  0.21371516214E+03  0.40348541282E+03  0.25500000920E-02 0. -1.
       -2    1    3    3    0  502 -0.28713989259E+01  0.34222516402E+03 -0.37748093523E+03  0.50952739307E+03  0.25500000920E-02 0.  1.
</event>
<event>
 5   0  0.6609191E-03  0.8991325E+03  0.7818609E-02  0.9426667E-01
       -2   -1    0    0    0  501  0.00000000000E+00  0.00000000000E+00  0.13452666000E+03  0.13452666002E+03  0.25500000920E-02 0.  1.
        2   -1    0    0  501    0  0.00000000000E+00  0.00000000000E+00 -0.15023772593E+04  0.15023772593E+04  0.25500000920E-02 0. -1.
    10030    2    1    2    0    0  0.00000000000E+00  0.00000000000E+00 -0.13678505993E+04  0.16369039193E+04  0.89913245914E+03 0.  0.
        2    1    3    3  502    0 -0.36441336588E+03 -0.25094214621E+03 -0.82889232848E+03  0.93959116333E+03  0.25500000920E-02 0. -1.
       -2    1    3    3    0  502  0.36441336588E+03  0.25094214621E+03 -0.53895827080E+03  0.69731275598E+03  0.25500000920E-02 0.  1.
</event>
<event>
 5   0  0.6863405E-03  0.9189390E+03  0.7818609E-02  0.9402212E-01
        2   -1    0    0  501    0  0.00000000000E+00  0.00000000000E+00  0.11207694091E+04  0.11207694091E+04  0.25500000920E-02 0. -1.
       -2   -1    0    0    0  501  0.00000000000E+00  0.00000000000E+00 -0.18836363625E+03  0.18836363627E+03  0.25500000920E-02 0.  1.
    10030    2    1    2    0    0  0.00000000000E+00  0.00000000000E+00  0.93240577283E+03  0.13091330454E+04  0.91893895620E+03 0.  0.
        1    1    3    3  502    0  0.15082425348E+03  0.14926467968E+03 -0.11437623599E+03  0.24105979222E+03  0.50400001928E-02 0.  1.
       -1    1    3    3    0  502 -0.15082425348E+03 -0.14926467968E+03  0.10467820088E+04  0.10680732531E+04  0.50400001928E-02 0. -1.
</event>
<event>
 5   0  0.6524705E-03  0.9096079E+03  0.7818609E-02  0.9413650E-01
        2   -1    0    0  501    0  0.00000000000E+00  0.00000000000E+00  0.40823892394E+03  0.40823892395E+03  0.25500000920E-02 0.  1.
       -2   -1    0    0    0  501  0.00000000000E+00  0.00000000000E+00 -0.50668031905E+03  0.50668031905E+03  0.25500000920E-02 0. -1.
    10030    2    1    2    0    0  0.00000000000E+00  0.00000000000E+00 -0.98441395109E+02  0.91491924300E+03  0.90960788966E+03 0.  0.
        3    1    3    3  502    0  0.54386451139E+02  0.32437190337E+02 -0.50222430689E+03  0.50620087122E+03  0.10100000352E+00 0. -1.
       -3    1    3    3    0  502 -0.54386451139E+02 -0.32437190337E+02  0.40378291178E+03  0.40871837178E+03  0.10100000352E+00 0.  1.
</event>
<event>
 5   0  0.6609191E-03  0.8989006E+03  0.7818609E-02  0.9426957E-01
       -2   -1    0    0    0  501  0.00000000000E+00  0.00000000000E+00  0.14544171600E+03  0.14544171603E+03  0.25500000920E-02 0.  1.
        2   -1    0    0  501    0  0.00000000000E+00  0.00000000000E+00 -0.13889108070E+04  0.13889108070E+04  0.25500000920E-02 0. -1.
    10030    2    1    2    0    0  0.00000000000E+00  0.00000000000E+00 -0.12434690910E+04  0.15343525230E+04  0.89890059776E+03 0.  0.
        2    1    3    3  502    0  0.42181059536E+03 -0.14253406648E+03 -0.51699252990E+03  0.68229129735E+03  0.25500000920E-02 0.  1.
       -2    1    3    3    0  502 -0.42181059536E+03  0.14253406648E+03 -0.72647656107E+03  0.85206122565E+03  0.25500000920E-02 0. -1.
</event>
<event>
 5   0  0.3794006E-03  0.9011276E+03  0.7818609E-02  0.9424173E-01
       -1   -1    0    0    0  501  0.00000000000E+00  0.00000000000E+00  0.22432996327E+03  0.22432996333E+03  0.50400001928E-02 0.  1.
        1   -1    0    0  501    0  0.00000000000E+00  0.00000000000E+00 -0.90495156041E+03  0.90495156043E+03  0.50400001928E-02 0. -1.
    10030    2    1    2    0    0  0.00000000000E+00  0.00000000000E+00 -0.68062159714E+03  0.11292815238E+04  0.90112762769E+03 0.  0.
        5    1    3    3  502    0  0.33160637859E+03 -0.21660425516E+03 -0.71224162880E+02  0.40246138330E+03  0.46999998093E+01 0.  1.
       -5    1    3    3    0  502 -0.33160637859E+03  0.21660425516E+03 -0.60939743426E+03  0.72682014045E+03  0.46999998093E+01 0. -1.
</event>
<event>
 5   0  0.6534628E-03  0.8596638E+03  0.7818609E-02  0.9477458E-01
        2   -1    0    0  501    0  0.00000000000E+00  0.00000000000E+00  0.72662107834E+03  0.72662107835E+03  0.25500000920E-02 0. -1.
       -2   -1    0    0    0  501  0.00000000000E+00  0.00000000000E+00 -0.25426656134E+03  0.25426656135E+03  0.25500000920E-02 0.  1.
    10030    2    1    2    0    0  0.00000000000E+00  0.00000000000E+00  0.47235451700E+03  0.98088763970E+03  0.85966375519E+03 0.  0.
        4    1    3    3  502    0  0.10447928757E+03  0.20288699473E+03  0.65178614673E+03  0.69058370103E+03  0.12699999809E+01 0. -1.
       -4    1    3    3    0  502 -0.10447928757E+03 -0.20288699473E+03 -0.17943162973E+03  0.29030393867E+03  0.12699999809E+01 0.  1.
</event>
<event>
 5   0  0.3943549E-03  0.8990898E+03  0.7818609E-02  0.9426720E-01
       -1   -1    0    0    0  501  0.00000000000E+00  0.00000000000E+00  0.63805607703E+03  0.63805607705E+03  0.50400001928E-02 0. -1.
        1   -1    0    0  501    0  0.00000000000E+00  0.00000000000E+00 -0.31672863693E+03  0.31672863697E+03  0.50400001928E-02 0.  1.
    10030    2    1    2    0    0  0.00000000000E+00  0.00000000000E+00  0.32132744010E+03  0.95478471402E+03  0.89908983220E+03 0.  0.
        3    1    3    3  502    0 -0.22345013074E+03  0.29624157907E+03  0.43015868582E+03  0.56808937614E+03  0.10100000352E+00 0. -1.
       -3    1    3    3    0  502  0.22345013074E+03 -0.29624157907E+03 -0.10883124572E+03  0.38669533788E+03  0.10100000352E+00 0.  1.
</event>
<event>
 5   0  0.3943549E-03  0.8959590E+03  0.7818609E-02  0.9430647E-01
        1   -1    0    0  501    0  0.00000000000E+00  0.00000000000E+00  0.92366546812E+03  0.92366546813E+03  0.50400001928E-02 0. -1.
       -1   -1    0    0    0  501  0.00000000000E+00  0.00000000000E+00 -0.21727090150E+03  0.21727090156E+03  0.50400001928E-02 0.  1.
    10030    2    1    2    0    0  0.00000000000E+00  0.00000000000E+00  0.70639456661E+03  0.11409363697E+04  0.89595899234E+03 0.  0.
        3    1    3    3  502    0 -0.32824879141E+03  0.26697697294E+03  0.16577595338E+03  0.45442892740E+03  0.10100000352E+00 0.  1.
       -3    1    3    3    0  502  0.32824879141E+03 -0.26697697294E+03  0.54061861323E+03  0.68650744229E+03  0.10100000352E+00 0. -1.
</event>
<event>
 5   0  0.6524705E-03  0.8983003E+03  0.7818609E-02  0.9427709E-01
       -2   -1    0    0    0  501  0.00000000000E+00  0.00000000000E+00  0.22170615855E+03  0.22170615856E+03  0.25500000920E-02 0.  1.
        2   -1    0    0  501    0  0.00000000000E+00  0.00000000000E+00 -0.90992449326E+03  0.90992449327E+03  0.25500000920E-02 0. -1.
    10030    2    1    2    0    0  0.00000000000E+00  0.00000000000E+00 -0.68821833471E+03  0.11316306518E+04  0.89830031500E+03 0.  0.
        3    1    3    3  502    0  0.19592204424E+03 -0.33417178555E+03 -0.57729075857E+02  0.39164893218E+03  0.10100000352E+00 0.  1.
       -3    1    3    3    0  502 -0.19592204424E+03  0.33417178555E+03 -0.63048925886E+03  0.73998171965E+03  0.10100000352E+00 0. -1.
</event>
<event>
 5   0  0.2560250E-03  0.8075033E+03  0.7818609E-02  0.9549219E-01
       -3   -1    0    0    0  501  0.00000000000E+00  0.00000000000E+00  0.23752822202E+03  0.23752824350E+03  0.10100000352E+00 0.  1.
        3   -1    0    0  501    0  0.00000000000E+00  0.00000000000E+00 -0.68629897271E+03  0.68629898014E+03  0.10100000352E+00 0. -1.
    10030    2    1    2    0    0  0.00000000000E+00  0.00000000000E+00 -0.44877075068E+03  0.92382722364E+03  0.80750328325E+03 0.  0.
        4    1    3    3  502    0 -0.76978741929E+02 -0.19835489686E+03 -0.61695321214E+03  0.65261264981E+03  0.12699999809E+01 0. -1.
       -4    1    3    3    0  502  0.76978741929E+02  0.19835489686E+03  0.16818246146E+03  0.27121457383E+03  0.12699999809E+01 0.  1.
</event>
<event>
 5   0  0.3943549E-03  0.8978960E+03  0.7818609E-02  0.9428215E-01
        1   -1    0    0  501    0  0.00000000000E+00  0.00000000000E+00  0.23535814466E+03  0.23535814471E+03  0.50400001928E-02 0. -1.
       -1   -1    0    0    0  501  0.00000000000E+00  0.00000000000E+00 -0.85637270018E+03  0.85637270020E+03  0.50400001928E-02 0.  1.
    10030    2    1    2    0    0  0.00000000000E+00  0.00000000000E+00 -0.62101455553E+03  0.10917308449E+04  0.89789596254E+03 0.  0.
        3    1    3    3  502    0 -0.24998471950E+03  0.86104910119E+02  0.13065307035E+03  0.29491804035E+03  0.10100000352E+00 0. -1.
       -3    1    3    3    0  502  0.24998471950E+03 -0.86104910119E+02 -0.75166762587E+03  0.79681280456E+03  0.10100000352E+00 0.  1.
</event>
<event>
 5   0  0.3998066E-03  0.8965706E+03  0.7818609E-02  0.9429878E-01
        1   -1    0    0  501    0  0.00000000000E+00  0.00000000000E+00  0.16310031661E+04  0.16310031661E+04  0.50400001928E-02 0.  1.
       -1   -1    0    0    0  501  0.00000000000E+00  0.00000000000E+00 -0.12321234154E+03  0.12321234164E+03  0.50400001928E-02 0. -1.
    10030    2    1    2    0    0  0.00000000000E+00  0.00000000000E+00  0.15077908246E+04  0.17542155078E+04  0.89657062021E+03 0.  0.
        4    1    3    3  502    0  0.25780683928E+03  0.25191752017E+03  0.12753582137E+04  0.13253176938E+04  0.12699999809E+01 0.  1.
       -4    1    3    3    0  502 -0.25780683928E+03 -0.25191752017E+03  0.23243261094E+03  0.42889781403E+03  0.12699999809E+01 0. -1.
</event>
<event>
 5   0  0.3794006E-03  0.8955831E+03  0.7818609E-02  0.9431120E-01
        1   -1    0    0  501    0  0.00000000000E+00  0.00000000000E+00  0.88805990022E+02  0.88805990165E+02  0.50400001928E-02 0. -1.
       -1   -1    0    0    0  501  0.00000000000E+00  0.00000000000E+00 -0.22579249741E+04  0.22579249741E+04  0.50400001928E-02 0.  1.
    10030    2    1    2    0    0  0.00000000000E+00  0.00000000000E+00 -0.21691189840E+04  0.23467309642E+04  0.89558307910E+03 0.  0.
        5    1    3    3  502    0  0.72161729939E+02 -0.34890057479E+03 -0.37389076610E+03  0.51648361186E+03  0.46999998093E+01 0. -1.
       -5    1    3    3    0  502 -0.72161729939E+02  0.34890057479E+03 -0.17952282179E+04  0.18302473524E+04  0.46999998093E+01 0.  1.
</event>
<event>
 5   0  0.3998066E-03  0.8696898E+03  0.7818609E-02  0.9464284E-01
       -1   -1    0    0    0  501  0.00000000000E+00  0.00000000000E+00  0.33757662867E+03  0.33757662870E+03  0.50400001928E-02 0.  1.
        1   -1    0    0  501    0  0.00000000000E+00  0.00000000000E+00 -0.56013976029E+03  0.56013976031E+03  0.50400001928E-02 0. -1.
    10030    2    1    2    0    0  0.00000000000E+00  0.00000000000E+00 -0.22256313163E+03  0.89771638902E+03  0.86968981111E+03 0.  0.
        4    1    3    3  502    0 -0.11950330038E+03 -0.40815376272E+03 -0.17707302271E+02  0.42565912920E+03  0.12699999809E+01 0. -1.
       -4    1    3    3    0  502  0.11950330038E+03  0.40815376272E+03 -0.20485582936E+03  0.47205725981E+03  0.12699999809E+01 0.  1.
</event>
<event>
 5   0  0.6524705E-03  0.9000414E+03  0.7818609E-02  0.9425530E-01
       -2   -1    0    0    0  501  0.00000000000E+00  0.00000000000E+00  0.13040995262E+03  0.13040995265E+03  0.25500000920E-02 0. -1.
        2   -1    0    0  501    0  0.00000000000E+00  0.00000000000E+00 -0.15529385331E+04  0.15529385331E+04  0.25500000920E-02 0.  1.
    10030    2    1    2    0    0  0.00000000000E+00  0.00000000000E+00 -0.14225285805E+04  0.16833484858E+04  0.90004142250E+03 0.  0.
        3    1    3    3  502    0  0.31571924842E+03  0.25910097053E+03 -0.35784826998E+03  0.54301689778E+03  0.10100000352E+00 0.  1.
       -3    1    3    3    0  502 -0.31571924842E+03 -0.25910097053E+03 -0.10646803105E+04  0.11403315880E+04  0.10100000352E+00 0. -1.
</event>
<event>
 5   0  0.3969536E-03  0.8999952E+03  0.7818609E-02  0.9425587E-01
       -1   -1    0    0    0  501  0.00000000000E+00  0.00000000000E+00  0.64545500771E+03  0.64545500773E+03  0.50400001928E-02 0. -1.
        1   -1    0    0  501    0  0.00000000000E+00  0.00000000000E+00 -0.31372883156E+03  0.31372883160E+03  0.50400001928E-02 0.  1.
    10030    2    1    2    0    0  0.00000000000E+00  0.00000000000E+00  0.33172617615E+03  0.95918383933E+03  0.89999521204E+03 0.  0.
        1    1    3    3  502    0  0.58016610221E+02  0.32073043087E+03  0.49653202616E+03  0.59395116750E+03  0.50400001928E-02 0. -1.
       -1    1    3    3    0  502 -0.58016610221E+02 -0.32073043087E+03 -0.16480585001E+03  0.36523267183E+03  0.50400001928E-02 0.  1.
</event>
<event>
 5   0  0.6524705E-03  0.8984055E+03  0.7818609E-02  0.9427577E-01
       -2   -1    0    0    0  501  0.00000000000E+00  0.00000000000E+00  0.49025894227E+03  0.49025894228E+03  0.25500000920E-02 0. -1.
        2   -1    0    0  501    0  0.00000000000E+00  0.00000000000E+00 -0.41158472947E+03  0.41158472947E+03  0.25500000920E-02 0.  1.
    10030    2    1    2    0    0  0.00000000000E+00  0.00000000000E+00  0.78674212808E+02  0.90184367175E+03  0.89840546332E+03 0.  0.
        3    1    3    3  502    0 -0.38772629013E+03 -0.67070633899E+02  0.25685263348E+03  0.46989725634E+03  0.10100000352E+00 0. -1.
       -3    1    3    3    0  502  0.38772629013E+03  0.67070633899E+02 -0.17817842067E+03  0.43194641541E+03  0.10100000352E+00 0.  1.
</event>
<event>
 5   0  0.6534628E-03  0.9126066E+03  0.7818609E-02  0.9409958E-01
       -2   -1    0    0    0  501  0.00000000000E+00  0.00000000000E+00  0.72027654582E+03  0.72027654583E+03  0.25500000920E-02 0.  1.
        2   -1    0    0  501    0  0.00000000000E+00  0.00000000000E+00 -0.28907325510E+03  0.28907325511E+03  0.25500000920E-02 0. -1.
    10030    2    1    2    0    0  0.00000000000E+00  0.00000000000E+00  0.43120329072E+03  0.10093498009E+04  0.91260656514E+03 0.  0.
        4    1    3    3  502    0 -0.28930582473E+03 -0.32502769733E+03  0.63670622135E+02  0.43976860424E+03  0.12699999809E+01 0.  1.
       -4    1    3    3    0  502  0.28930582473E+03  0.32502769733E+03  0.36753266859E+03  0.56958119670E+03  0.12699999809E+01 0. -1.
</event>
<event>
 5   0  0.3998066E-03  0.9014749E+03  0.7818609E-02  0.9423740E-01
       -1   -1    0    0    0  501  0.00000000000E+00  0.00000000000E+00  0.18012892987E+03  0.18012892994E+03  0.50400001928E-02 0. -1.
        1   -1    0    0  501    0  0.00000000000E+00  0.00000000000E+00 -0.11278824801E+04  0.11278824801E+04  0.50400001928E-02 0.  1.
    10030    2    1    2    0    0  0.00000000000E+00  0.00000000000E+00 -0.94775355026E+03  0.13080114101E+04  0.90147493413E+03 0.  0.
        4    1    3    3  502    0  0.24734196894E+03  0.25890483059E+03 -0.87111594858E+03  0.94183563836E+03  0.12699999809E+01 0.  1.
       -4    1    3    3    0  502 -0.24734196894E+03 -0.25890483059E+03 -0.76637601679E+02  0.36617577172E+03  0.12699999809E+01 0. -1.
</event>
<event>
 5   0  0.3969536E-03  0.8997731E+03  0.7818609E-02  0.9425865E-01
       -1   -1    0    0    0  501  0.00000000000E+00  0.00000000000E+00  0.35875884831E+03  0.35875884834E+03  0.50400001928E-02 0.  1.
        1   -1    0    0  501    0  0.00000000000E+00  0.00000000000E+00 -0.56416149024E+03  0.56416149026E+03  0.50400001928E-02 0. -1.
    10030    2    1    2    0    0  0.00000000000E+00  0.00000000000E+00 -0.20540264193E+03  0.92292033860E+03  0.89977314146E+03 0.  0.
        1    1    3    3  502    0  0.30225243232E+03 -0.26268203875E+03 -0.31301144044E+03  0.50826621784E+03  0.50400001928E-02 0. -1.
       -1    1    3    3    0  502 -0.30225243232E+03  0.26268203875E+03  0.10760879851E+03  0.41465412076E+03  0.50400001928E-02 0.  1.
</event>
<event>
 5   0  0.6609191E-03  0.9283468E+03  0.7818609E-02  0.9390824E-01
       -2   -1    0    0    0  501  0.00000000000E+00  0.00000000000E+00  0.44011349240E+03  0.44011349241E+03  0.25500000920E-02 0. -1.
        2   -1    0    0  501    0  0.00000000000E+00  0.00000000000E+00 -0.48954865481E+03  0.48954865482E+03  0.25500000920E-02 0.  1.
    10030    2    1    2    0    0  0.00000000000E+00  0.00000000000E+00 -0.49435162410E+02  0.92966214723E+03  0.92834684935E+03 0.  0.
        2    1    3    3  502    0 -0.41398820110E+03 -0.17667259506E+03 -0.13826929203E+03  0.47086923197E+03  0.25500000920E-02 0.  1.
       -2    1    3    3    0  502  0.41398820110E+03  0.17667259506E+03  0.88834129620E+02  0.45879291525E+03  0.25500000920E-02 0. -1.
</event>
<event>
 5   0  0.6524705E-03  0.9043768E+03  0.7818609E-02  0.9420127E-01
       -2   -1    0    0    0  501  0.00000000000E+00  0.00000000000E+00  0.32187918518E+03  0.32187918519E+03  0.25500000920E-02 0.  1.
        2   -1    0    0  501    0  0.00000000000E+00  0.00000000000E+00 -0.63525183550E+03  0.63525183551E+03  0.25500000920E-02 0. -1.
    10030    2    1    2    0    0  0.00000000000E+00  0.00000000000E+00 -0.31337265032E+03  0.95713102069E+03  0.90437678696E+03 0.  0.
        3    1    3    3  502    0  0.40612560930E+03 -0.15419570186E+02  0.53116001523E+02  0.40987448505E+03  0.10100000352E+00 0.  1.
       -3    1    3    3    0  502 -0.40612560930E+03  0.15419570186E+02 -0.36648865185E+03  0.54725653565E+03  0.10100000352E+00 0. -1.
</event>
<event>
 5   0  0.3998066E-03  0.9065401E+03  0.7818609E-02  0.9417443E-01
       -1   -1    0    0    0  501  0.00000000000E+00  0.00000000000E+00  0.17418965843E+03  0.17418965850E+03  0.50400001928E-02 0.  1.
        1   -1    0    0  501    0  0.00000000000E+00  0.00000000000E+00 -0.11794831027E+04  0.11794831027E+04  0.50400001928E-02 0. -1.
    10030    2    1    2    0    0  0.00000000000E+00  0.00000000000E+00 -0.10052934442E+04  0.13536727612E+04  0.90654014545E+03 0.  0.
        4    1    3    3  502    0  0.22768768136E+03 -0.30307547098E+03 -0.13156867736E+03  0.40125845925E+03  0.12699999809E+01 0.  1.
       -4    1    3    3    0  502 -0.22768768136E+03  0.30307547098E+03 -0.87372476687E+03  0.95241430192E+03  0.12699999809E+01 0. -1.
</event>
<event>
 5   0  0.3927993E-03  0.8953444E+03  0.7818609E-02  0.9431420E-01
       -1   -1    0    0    0  501  0.00000000000E+00  0.00000000000E+00  0.18898405136E+03  0.18898405143E+03  0.50400001928E-02 0.  1.
        1   -1    0    0  501    0  0.00000000000E+00  0.00000000000E+00 -0.10604620678E+04  0.10604620678E+04  0.50400001928E-02 0. -1.
    10030    2    1    2    0    0  0.00000000000E+00  0.00000000000E+00 -0.87147801646E+03  0.12494461193E+04  0.89534444309E+03 0.  0.
        2    1    3    3  502    0  0.41396389175E+03 -0.50780995863E+02 -0.66276119407E+03  0.78306909885E+03  0.25500000920E-02 0. -1.
       -2    1    3    3    0  502 -0.41396389175E+03  0.50780995863E+02 -0.20871682240E+03  0.46637702042E+03  0.25500000920E-02 0.  1.
</event>
<event>
 5   0  0.3969536E-03  0.9012621E+03  0.7818609E-02  0.9424005E-01
        1   -1    0    0  501    0  0.00000000000E+00  0.00000000000E+00  0.76058278127E+03  0.76058278128E+03  0.50400001928E-02 0.  1.
       -1   -1    0    0    0  501  0.00000000000E+00  0.00000000000E+00 -0.26699044770E+03  0.26699044775E+03  0.50400001928E-02 0. -1.
    10030    2    1    2    0    0  0.00000000000E+00  0.00000000000E+00  0.49359233357E+03  0.10275732290E+04  0.90126208689E+03 0.  0.
        1    1    3    3  502    0  0.43246111430E+03 -0.10706520740E+03  0.32397983078E+03  0.55086160221E+03  0.50400001928E-02 0.  1.
       -1    1    3    3    0  502 -0.43246111430E+03  0.10706520740E+03  0.16961250279E+03  0.47671162682E+03  0.50400001928E-02 0. -1.
</event>
<event>
 5   0  0.6609191E-03  0.8954370E+03  0.7818609E-02  0.9431303E-01
        2   -1    0    0  501    0  0.00000000000E+00  0.00000000000E+00  0.78364478991E+03  0.78364478992E+03  0.25500000920E-02 0. -1.
       -2   -1    0    0    0  501  0.00000000000E+00  0.00000000000E+00 -0.25579427972E+03  0.25579427973E+03  0.25500000920E-02 0.  1.
    10030    2    1    2    0    0  0.00000000000E+00  0.00000000000E+00  0.52785051019E+03  0.10394390696E+04  0.89543699856E+03 0.  0.
        2    1    3    3  502    0 -0.51403840320E+02  0.21265300764E+03 -0.18951959515E+03  0.28945005339E+03  0.25500000920E-02 0.  1.
       -2    1    3    3    0  502  0.51403840320E+02 -0.21265300764E+03  0.71737010534E+03  0.74998901625E+03  0.25500000920E-02 0. -1.
</event>
<event>
 5   0  0.3794006E-03  0.8992088E+03  0.7818609E-02  0.9426571E-01
       -1   -1    0    0    0  501  0.00000000000E+00  0.00000000000E+00  0.13250402990E+03  0.13250403000E+03  0.50400001928E-02 0. -1.
        1   -1    0    0  501    0  0.00000000000E+00  0.00000000000E+00 -0.15255695212E+04  0.15255695212E+04  0.50400001928E-02 0.  1.
    10030    2    1    2    0    0  0.00000000000E+00  0.00000000000E+00 -0.13930654913E+04  0.16580735512E+04  0.89920878452E+03 0.  0.
        5    1    3    3  502    0  0.13915673982E+03 -0.19690966707E+03 -0.13962142190E+04  0.14168889337E+04  0.46999998093E+01 0.  1.
       -5    1    3    3    0  502 -0.13915673982E+03  0.19690966707E+03  0.31487276958E+01  0.24118461747E+03  0.46999998093E+01 0. -1.
</event>
<event>
 5   0  0.3943549E-03  0.8837602E+03  0.7818609E-02  0.9446113E-01
       -1   -1    0    0    0  501  0.00000000000E+00  0.00000000000E+00  0.27974013864E+03  0.27974013868E+03  0.50400001928E-02 0. -1.
        1   -1    0    0  501    0  0.00000000000E+00  0.00000000000E+00 -0.69799783824E+03  0.69799783826E+03  0.50400001928E-02 0.  1.
    10030    2    1    2    0    0  0.00000000000E+00  0.00000000000E+00 -0.41825769960E+03  0.97773797694E+03  0.88376017577E+03 0.  0.
        3    1    3    3  502    0  0.18296264792E+01 -0.29088049054E+03 -0.57713104565E+03  0.64629332455E+03  0.10100000352E+00 0.  1.
       -3    1    3    3    0  502 -0.18296264792E+01  0.29088049054E+03  0.15887334605E+03  0.33144465239E+03  0.10100000352E+00 0. -1.
</event>
<event>
 5   0  0.6524705E-03  0.8992829E+03  0.7818609E-02  0.9426478E-01
        2   -1    0    0  501    0  0.00000000000E+00  0.00000000000E+00  0.31578761190E+03  0.31578761192E+03  0.25500000920E-02 0.  1.
       -2   -1    0    0    0  501  0.00000000000E+00  0.00000000000E+00 -0.64023232389E+03  0.64023232390E+03  0.25500000920E-02 0. -1.
    10030    2    1    2    0    0  0.00000000000E+00  0.00000000000E+00 -0.32444471199E+03  0.95601993581E+03  0.89928290684E+03 0.  0.
        3    1    3    3  502    0  0.51188128822E+02 -0.44542912169E+03 -0.12616961338E+03  0.46577474011E+03  0.10100000352E+00 0.  1.
       -3    1    3    3    0  502 -0.51188128822E+02  0.44542912169E+03 -0.19827509860E+03  0.49024519570E+03  0.10100000352E+00 0. -1.
</event>
<event>
 5   0  0.6524705E-03  0.9005705E+03  0.7818609E-02  0.9424869E-01
        2   -1    0    0  501    0  0.00000000000E+00  0.00000000000E+00  0.62951454706E+03  0.62951454706E+03  0.25500000920E-02 0.  1.
       -2   -1    0    0    0  501  0.00000000000E+00  0.00000000000E+00 -0.32208436316E+03  0.32208436317E+03  0.25500000920E-02 0. -1.
    10030    2    1    2    0    0  0.00000000000E+00  0.00000000000E+00  0.30743018390E+03  0.95159891023E+03  0.90057046808E+03 0.  0.
        3    1    3    3  502    0  0.20496161676E+02 -0.23557105074E+02  0.62836912894E+03  0.62914450030E+03  0.10100000352E+00 0.  1.
       -3    1    3    3    0  502 -0.20496161676E+02  0.23557105074E+02 -0.32093894504E+03  0.32245440993E+03  0.10100000352E+00 0. -1.
</event>
<event>
 5   0  0.3969536E-03  0.9027514E+03  0.7818609E-02  0.9422149E-01
        1   -1    0    0  501    0  0.00000000000E+00  0.00000000000E+00  0.43378361275E+03  0.43378361277E+03  0.50400001928E-02 0. -1.
       -1   -1    0    0    0  501  0.00000000000E+00  0.00000000000E+00 -0.46968118490E+03  0.46968118493E+03  0.50400001928E-02 0.  1.
    10030    2    1    2    0    0  0.00000000000E+00  0.00000000000E+00 -0.35897572159E+02  0.90346479771E+03  0.90275135281E+03 0.  0.
        1    1    3    3  502    0  0.23435317006E+03 -0.27542661699E+03  0.25237349537E+03  0.44099162220E+03  0.50400001928E-02 0. -1.
       -1    1    3    3    0  502 -0.23435317006E+03  0.27542661699E+03 -0.28827106753E+03  0.46247317550E+03  0.50400001928E-02 0.  1.
</event>
<event>
 5   0  0.6863405E-03  0.9034690E+03  0.7818609E-02  0.9421255E-01
       -2   -1    0    0    0  501  0.00000000000E+00  0.00000000000E+00  0.22906002594E+03  0.22906002595E+03  0.25500000920E-02 0.  1.
        2   -1    0    0  501    0  0.00000000000E+00  0.00000000000E+00 -0.89087588610E+03  0.89087588611E+03  0.25500000920E-02 0. -1.
    10030    2    1    2    0    0  0.00000000000E+00  0.00000000000E+00 -0.66181586016E+03  0.11199359121E+04  0.90346898915E+03 0.  0.
        1    1    3    3  502    0  0.25976532532E+03  0.30006728218E+03 -0.59834370108E+03  0.71800667317E+03  0.50400001928E-02 0. -1.
       -1    1    3    3    0  502 -0.25976532532E+03 -0.30006728218E+03 -0.63472159089E+02  0.40192923889E+03  0.50400001928E-02 0.  1.
</event>
<event>
 5   0  0.3927993E-03  0.8939186E+03  0.7818609E-02  0.9433216E-01
       -1   -1    0    0    0  501  0.00000000000E+00  0.00000000000E+00  0.25473367950E+03  0.25473367955E+03  0.50400001928E-02 0.  1.
        1   -1    0    0  501    0  0.00000000000E+00  0.00000000000E+00 -0.78424109677E+03  0.78424109679E+03  0.50400001928E-02 0. -1.
    10030    2    1    2    0    0  0.00000000000E+00  0.00000000000E+00 -0.52950741727E+03  0.10389747763E+04  0.89391860979E+03 0.  0.
        2    1    3    3  502    0 -0.22522551809E+03  0.19474377746E+03  0.12268677057E+03  0.32203061428E+03  0.25500000920E-02 0.  1.
       -2    1    3    3    0  502  0.22522551809E+03 -0.19474377746E+03 -0.65219418784E+03  0.71694416206E+03  0.25500000920E-02 0. -1.
</event>
<event>
 5   0  0.3969536E-03  0.8205620E+03  0.7818609E-02  0.9530722E-01
       -1   -1    0    0    0  501  0.00000000000E+00  0.00000000000E+00  0.91899177807E+03  0.91899177808E+03  0.50400001928E-02 0.  1.
        1   -1    0    0  501    0  0.00000000000E+00  0.00000000000E+00 -0.18316867111E+03  0.18316867118E+03  0.50400001928E-02 0. -1.
    10030    2    1    2    0    0  0.00000000000E+00  0.00000000000E+00  0.73582310696E+03  0.11021604493E+04  0.82056200936E+03 0.  0.
        1    1    3    3  502    0  0.12378708741E+01  0.35768749153E+03  0.97974208946E+02  0.37086496136E+03  0.50400001928E-02 0. -1.
       -1    1    3    3    0  502 -0.12378708741E+01 -0.35768749153E+03  0.63784889801E+03  0.73129548791E+03  0.50400001928E-02 0.  1.
</event>
<event>
 5   0  0.2560250E-03  0.8972168E+03  0.7818609E-02  0.9429067E-01
       -4   -1    0    0    0  501  0.00000000000E+00  0.00000000000E+00  0.31099615981E+03  0.31099875292E+03  0.12699999809E+01 0.  1.
        4   -1    0    0  501    0  0.00000000000E+00  0.00000000000E+00 -0.64710651338E+03  0.64710775962E+03  0.12699999809E+01 0. -1.
    10030    2    1    2    0    0  0.00000000000E+00  0.00000000000E+00 -0.33611035357E+03  0.95810651254E+03  0.89721676288E+03 0.  0.
        1    1    3    3  502    0  0.43161048639E+02  0.21870435110E+03 -0.58377579341E+03  0.62489090753E+03  0.50400001928E-02 0.  1.
       -1    1    3    3    0  502 -0.43161048639E+02 -0.21870435110E+03  0.24766543984E+03  0.33321560502E+03  0.50400001928E-02 0. -1.
</event>
<event>
 5   0  0.6524705E-03  0.8935729E+03  0.7818609E-02  0.9433651E-01
        2   -1    0    0  501    0  0.00000000000E+00  0.00000000000E+00  0.67974099319E+03  0.67974099319E+03  0.25500000920E-02 0. -1.
       -2   -1    0    0    0  501  0.00000000000E+00  0.00000000000E+00 -0.29366793116E+03  0.29366793117E+03  0.25500000920E-02 0.  1.
    10030    2    1    2    0    0  0.00000000000E+00  0.00000000000E+00  0.38607306202E+03  0.97340892437E+03  0.89357289843E+03 0.  0.
        3    1    3    3  502    0 -0.12947952326E+03  0.23485527276E+03 -0.19623646658E+03  0.33231116007E+03  0.10100000352E+00 0.  1.
       -3    1    3    3    0  502  0.12947952326E+03 -0.23485527276E+03  0.58230952860E+03  0.64109776430E+03  0.10100000352E+00 0. -1.
</event>
<event>
 5   0  0.3927993E-03  0.9026909E+03  0.7818609E-02  0.9422224E-01
       -1   -1    0    0    0  501  0.00000000000E+00  0.00000000000E+00  0.15508406263E+03  0.15508406271E+03  0.50400001928E-02 0. -1.
        1   -1    0    0  501    0  0.00000000000E+00  0.00000000000E+00 -0.13135631936E+04  0.13135631936E+04  0.50400001928E-02 0.  1.
    10030    2    1    2    0    0  0.00000000000E+00  0.00000000000E+00 -0.11584791310E+04  0.14686472564E+04  0.90269090315E+03 0.  0.
        2    1    3    3  502    0 -0.22283392014E+03  0.34824607121E+03 -0.28466243051E+03  0.50195914318E+03  0.25500000920E-02 0. -1.
       -2    1    3    3    0  502  0.22283392014E+03 -0.34824607121E+03 -0.87381670049E+03  0.96668811317E+03  0.25500000920E-02 0.  1.
</event>
<event>
 5   0  0.3927993E-03  0.8936491E+03  0.7818609E-02  0.9433555E-01
       -1   -1    0    0    0  501  0.00000000000E+00  0.00000000000E+00  0.15671218381E+03  0.15671218389E+03  0.50400001928E-02 0. -1.
        1   -1    0    0  501    0  0.00000000000E+00  0.00000000000E+00 -0.12740054469E+04  0.12740054469E+04  0.50400001928E-02 0.  1.
    10030    2    1    2    0    0  0.00000000000E+00  0.00000000000E+00 -0.11172932631E+04  0.14307176308E+04  0.89364909408E+03 0.  0.
        2    1    3    3  502    0  0.19749812140E+03  0.71086171646E+02  0.72866708060E+02  0.22218980378E+03  0.25500000920E-02 0. -1.
       -2    1    3    3    0  502 -0.19749812140E+03 -0.71086171646E+02 -0.11901599711E+04  0.12085278270E+04  0.25500000920E-02 0.  1.
</event>
<event>
 5   0  0.6609191E-03  0.9047407E+03  0.7818609E-02  0.9419675E-01
        2   -1    0    0  501    0  0.00000000000E+00  0.00000000000E+00  0.49679752342E+03  0.49679752342E+03  0.25500000920E-02 0. -1.
       -2   -1    0    0    0  501  0.00000000000E+00  0.00000000000E+00 -0.41191619259E+03  0.41191619259E+03  0.25500000920E-02 0.  1.
    10030    2    1    2    0    0  0.00000000000E+00  0.00000000000E+00  0.84881330832E+02  0.90871371602E+03  0.90474072383E+03 0.  0.
        2    1    3    3  502    0  0.24023530211E+03 -0.69393443799E+02 -0.33619020398E+03  0.41898962241E+03  0.25500000920E-02 0.  1.
       -2    1    3    3    0  502 -0.24023530211E+03  0.69393443799E+02  0.42107153482E+03  0.48972409361E+03  0.25500000920E-02 0. -1.
</event>
<event>
 5   0  0.2560250E-03  0.8824504E+03  0.7818609E-02  0.9447789E-01
       -3   -1    0    0    0  501  0.00000000000E+00  0.00000000000E+00  0.13989867067E+03  0.13989870713E+03  0.10100000352E+00 0.  1.
        3   -1    0    0  501    0  0.00000000000E+00  0.00000000000E+00 -0.13915760138E+04  0.13915760175E+04  0.10100000352E+00 0. -1.
    10030    2    1    2    0    0  0.00000000000E+00  0.00000000000E+00 -0.12516773432E+04  0.15314747246E+04  0.88245037300E+03 0.  0.
        3    1    3    3  502    0  0.30643894773E+02 -0.23947217544E+03  0.15100289980E+02  0.24189667227E+03  0.10100000352E+00 0.  1.
       -3    1    3    3    0  502 -0.30643894773E+02  0.23947217544E+03 -0.12667776332E+04  0.12895780524E+04  0.10100000352E+00 0. -1.
</event>
<event>
 5   0  0.3943549E-03  0.8998620E+03  0.7818609E-02  0.9425754E-01
       -1   -1    0    0    0  501  0.00000000000E+00  0.00000000000E+00  0.13087880660E+03  0.13087880670E+03  0.50400001928E-02 0.  1.
        1   -1    0    0  501    0  0.00000000000E+00  0.00000000000E+00 -0.15467584960E+04  0.15467584960E+04  0.50400001928E-02 0. -1.
    10030    2    1    2    0    0  0.00000000000E+00  0.00000000000E+00 -0.14158796894E+04  0.16776373027E+04  0.89986200307E+03 0.  0.
        3    1    3    3  502    0  0.11657836494E+03 -0.20088391509E+03 -0.14263545275E+04  0.14451408620E+04  0.10100000352E+00 0. -1.
       -3    1    3    3    0  502 -0.11657836494E+03  0.20088391509E+03  0.10474838141E+02  0.23249644073E+03  0.10100000352E+00 0.  1.
</event>
<event>
 5   0  0.6724773E-03  0.9017927E+03  0.7818609E-02  0.9423343E-01
       -2   -1    0    0    0  501  0.00000000000E+00  0.00000000000E+00  0.10950975198E+03  0.10950975201E+03  0.25500000920E-02 0. -1.
        2   -1    0    0  501    0  0.00000000000E+00  0.00000000000E+00 -0.18565242380E+04  0.18565242380E+04  0.25500000920E-02 0.  1.
    10030    2    1    2    0    0  0.00000000000E+00  0.00000000000E+00 -0.17470144860E+04  0.19660339900E+04  0.90179267877E+03 0.  0.
        5    1    3    3  502    0 -0.71743252835E+02 -0.13581780254E+03 -0.17976700910E+04  0.18042265423E+04  0.46999998093E+01 0.  1.
       -5    1    3    3    0  502  0.71743252835E+02  0.13581780254E+03  0.50655605001E+02  0.16180744770E+03  0.46999998093E+01 0. -1.
</event>
<event>
 5   0  0.3943549E-03  0.9123872E+03  0.7818609E-02  0.9410228E-01
        1   -1    0    0  501    0  0.00000000000E+00  0.00000000000E+00  0.32940402287E+03  0.32940402291E+03  0.50400001928E-02 0.  1.
       -1   -1    0    0    0  501  0.00000000000E+00  0.00000000000E+00 -0.63178521183E+03  0.63178521185E+03  0.50400001928E-02 0. -1.
    10030    2    1    2    0    0  0.00000000000E+00  0.00000000000E+00 -0.30238118896E+03  0.96118923477E+03  0.91238717746E+03 0.  0.
        3    1    3    3  502    0 -0.26237250338E+02  0.66753079611E+02 -0.62580808559E+03  0.62990486356E+03  0.10100000352E+00 0. -1.
       -3    1    3    3    0  502  0.26237250338E+02 -0.66753079611E+02  0.32342689663E+03  0.33128437121E+03  0.10100000352E+00 0.  1.
</event>
<event>
 5   0  0.6609191E-03  0.9002073E+03  0.7818609E-02  0.9425322E-01
        2   -1    0    0  501    0  0.00000000000E+00  0.00000000000E+00  0.51598275080E+03  0.51598275081E+03  0.25500000920E-02 0. -1.
       -2   -1    0    0    0  501  0.00000000000E+00  0.00000000000E+00 -0.39263580312E+03  0.39263580313E+03  0.25500000920E-02 0.  1.
    10030    2    1    2    0    0  0.00000000000E+00  0.00000000000E+00  0.12334694768E+03  0.90861855394E+03  0.90020731338E+03 0.  0.
        2    1    3    3  502    0 -0.40445894186E+03  0.95623043086E+02  0.23609582784E+03  0.47798749142E+03  0.25500000920E-02 0. -1.
       -2    1    3    3    0  502  0.40445894186E+03 -0.95623043086E+02 -0.11274888016E+03  0.43063106252E+03  0.25500000920E-02 0.  1.
</event>
<event>
 5   0  0.6609191E-03  0.8921626E+03  0.7818609E-02  0.9435432E-01
        2   -1    0    0  501    0  0.00000000000E+00  0.00000000000E+00  0.13629735552E+04  0.13629735552E+04  0.25500000920E-02 0.  1.
       -2   -1    0    0    0  501  0.00000000000E+00  0.00000000000E+00 -0.14599589186E+03  0.14599589188E+03  0.25500000920E-02 0. -1.
    10030    2    1    2    0    0  0.00000000000E+00  0.00000000000E+00  0.12169776633E+04  0.15089694471E+04  0.89216263043E+03 0.  0.
        2    1    3    3  502    0 -0.91345677785E+02 -0.12119290285E+03  0.13179676436E+04  0.13266764722E+04  0.25500000920E-02 0.  1.
       -2    1    3    3    0  502  0.91345677785E+02  0.12119290285E+03 -0.10098998023E+03  0.18229297481E+03  0.25500000920E-02 0. -1.
</event>
<event>
 5   0  0.3969536E-03  0.9067869E+03  0.7818609E-02  0.9417137E-01
       -1   -1    0    0    0  501  0.00000000000E+00  0.00000000000E+00  0.22558209824E+03  0.22558209830E+03  0.50400001928E-02 0.  1.
        1   -1    0    0  501    0  0.00000000000E+00  0.00000000000E+00 -0.91126743040E+03  0.91126743042E+03  0.50400001928E-02 0. -1.
    10030    2    1    2    0    0  0.00000000000E+00  0.00000000000E+00 -0.68568533216E+03  0.11368495287E+04  0.90678689679E+03 0.  0.
        1    1    3    3  502    0  0.13978511782E+03  0.40899391677E+02 -0.88114074619E+03  0.89309666555E+03  0.50400001928E-02 0. -1.
       -1    1    3    3    0  502 -0.13978511782E+03 -0.40899391677E+02  0.19545541402E+03  0.24375286316E+03  0.50400001928E-02 0.  1.
</event>
<event>
 5   0  0.6524705E-03  0.9031628E+03  0.7818609E-02  0.9421636E-01
       -2   -1    0    0    0  501  0.00000000000E+00  0.00000000000E+00  0.21126651500E+03  0.21126651501E+03  0.25500000920E-02 0. -1.
        2   -1    0    0  501    0  0.00000000000E+00  0.00000000000E+00 -0.96525356106E+03  0.96525356106E+03  0.25500000920E-02 0.  1.
    10030    2    1    2    0    0  0.00000000000E+00  0.00000000000E+00 -0.75398704606E+03  0.11765200761E+04  0.90316278919E+03 0.  0.
        3    1    3    3  502    0 -0.28798726584E+03  0.30189366618E+03 -0.60205457459E+03  0.73249312075E+03  0.10100000352E+00 0.  1.
       -3    1    3    3    0  502  0.28798726584E+03 -0.30189366618E+03 -0.15193247147E+03  0.44402695532E+03  0.10100000352E+00 0. -1.
</event>
<event>
 5   0  0.6609191E-03  0.9057400E+03  0.7818609E-02  0.9418434E-01
        2   -1    0    0  501    0  0.00000000000E+00  0.00000000000E+00  0.77653892326E+03  0.77653892327E+03  0.25500000920E-02 0.  1.
       -2   -1    0    0    0  501  0.00000000000E+00  0.00000000000E+00 -0.26410942287E+03  0.26410942288E+03  0.25500000920E-02 0. -1.
    10030    2    1    2    0    0  0.00000000000E+00  0.00000000000E+00  0.51242950039E+03  0.10406483462E+04  0.90574002201E+03 0.  0.
        2    1    3    3  502    0  0.16853534695E+03 -0.25609703242E+03  0.63918072790E+03  0.70890186634E+03  0.25500000920E-02 0.  1.
       -2    1    3    3    0  502 -0.16853534695E+03  0.25609703242E+03 -0.12675122750E+03  0.33174647981E+03  0.25500000920E-02 0. -1.
</event>
<event>
 5   0  0.3943549E-03  0.9049795E+03  0.7818609E-02  0.9419378E-01
        1   -1    0    0  501    0  0.00000000000E+00  0.00000000000E+00  0.50327875272E+03  0.50327875274E+03  0.50400001928E-02 0. -1.
       -1   -1    0    0    0  501  0.00000000000E+00  0.00000000000E+00 -0.40682616384E+03  0.40682616387E+03  0.50400001928E-02 0.  1.
    10030    2    1    2    0    0  0.00000000000E+00  0.00000000000E+00  0.96452588878E+02  0.91010491661E+03  0.90497947896E+03 0.  0.
        3    1    3    3  502    0 -0.33184708202E+03 -0.88273045680E+02 -0.24811588855E+03  0.42364622126E+03  0.10100000352E+00 0.  1.
       -3    1    3    3    0  502  0.33184708202E+03  0.88273045680E+02  0.34456847743E+03  0.48645869535E+03  0.10100000352E+00 0. -1.
</event>
<event>
 5   0  0.3943549E-03  0.9180560E+03  0.7818609E-02  0.9403288E-01
       -1   -1    0    0    0  501  0.00000000000E+00  0.00000000000E+00  0.25863288970E+03  0.25863288975E+03  0.50400001928E-02 0.  1.
        1   -1    0    0  501    0  0.00000000000E+00  0.00000000000E+00 -0.81469418482E+03  0.81469418484E+03  0.50400001928E-02 0. -1.
    10030    2    1    2    0    0  0.00000000000E+00  0.00000000000E+00 -0.55606129512E+03  0.10733270746E+04  0.91805601414E+03 0.  0.
        3    1    3    3  502    0 -0.45645202343E+03  0.32942038637E+02 -0.31974539689E+03  0.55827480387E+03  0.10100000352E+00 0.  1.
       -3    1    3    3    0  502  0.45645202343E+03 -0.32942038637E+02 -0.23631589824E+03  0.51505227071E+03  0.10100000352E+00 0. -1.
</event>
<event>
 5   0  0.3998066E-03  0.8994938E+03  0.7818609E-02  0.9426214E-01
        1   -1    0    0  501    0  0.00000000000E+00  0.00000000000E+00  0.86244041697E+03  0.86244041698E+03  0.50400001928E-02 0.  1.
       -1   -1    0    0    0  501  0.00000000000E+00  0.00000000000E+00 -0.23453479086E+03  0.23453479092E+03  0.50400001928E-02 0. -1.
    10030    2    1    2    0    0  0.00000000000E+00  0.00000000000E+00  0.62790562610E+03  0.10969752079E+04  0.89949381957E+03 0.  0.
        4    1    3    3  502    0  0.83924213980E+02  0.28190217624E+03 -0.10097752064E+03  0.31098260922E+03  0.12699999809E+01 0. -1.
       -4    1    3    3    0  502 -0.83924213980E+02 -0.28190217624E+03  0.72888314675E+03  0.78599259868E+03  0.12699999809E+01 0.  1.
</event>
<event>
 5   0  0.6524705E-03  0.9030805E+03  0.7818609E-02  0.9421739E-01
        2   -1    0    0  501    0  0.00000000000E+00  0.00000000000E+00  0.33280106978E+03  0.33280106979E+03  0.25500000920E-02 0.  1.
       -2   -1    0    0    0  501  0.00000000000E+00  0.00000000000E+00 -0.61264408894E+03  0.61264408895E+03  0.25500000920E-02 0. -1.
    10030    2    1    2    0    0  0.00000000000E+00  0.00000000000E+00 -0.27984301916E+03  0.94544515874E+03  0.90308052399E+03 0.  0.
        3    1    3    3  502    0  0.14431318020E+03  0.11200505951E+03  0.29238714006E+03  0.34476321905E+03  0.10100000352E+00 0.  1.
       -3    1    3    3    0  502 -0.14431318020E+03 -0.11200505951E+03 -0.57223015923E+03  0.60068193969E+03  0.10100000352E+00 0. -1.
</event>
<event>
 5   0  0.6609191E-03  0.8907674E+03  0.7818609E-02  0.9437197E-01
        2   -1    0    0  501    0  0.00000000000E+00  0.00000000000E+00  0.80139398120E+03  0.80139398120E+03  0.25500000920E-02 0.  1.
       -2   -1    0    0    0  501  0.00000000000E+00  0.00000000000E+00 -0.24752698400E+03  0.24752698401E+03  0.25500000920E-02 0. -1.
    10030    2    1    2    0    0  0.00000000000E+00  0.00000000000E+00  0.55386699720E+03  0.10489209652E+04  0.89076738865E+03 0.  0.
        2    1    3    3  502    0  0.40161262636E+03 -0.19740616258E+02  0.51396275272E+02  0.40536893159E+03  0.25500000920E-02 0. -1.
       -2    1    3    3    0  502 -0.40161262636E+03  0.19740616258E+02  0.50247072193E+03  0.64355203362E+03  0.25500000920E-02 0.  1.
</event>
<event>
 5   0  0.6534628E-03  0.9006317E+03  0.7818609E-02  0.9424792E-01
       -2   -1    0    0    0  501  0.00000000000E+00  0.00000000000E+00  0.71277890175E+02  0.71277890220E+02  0.25500000920E-02 0. -1.
        2   -1    0    0  501    0  0.00000000000E+00  0.00000000000E+00 -0.28449827880E+04  0.28449827880E+04  0.25500000920E-02 0.  1.
    10030    2    1    2    0    0  0.00000000000E+00  0.00000000000E+00 -0.27737048979E+04  0.29162606783E+04  0.90063171337E+03 0.  0.
        4    1    3    3  502    0 -0.21494729786E+02 -0.41004839447E+03 -0.78820408780E+03  0.88874574887E+03  0.12699999809E+01 0.  1.
       -4    1    3    3    0  502  0.21494729786E+02  0.41004839447E+03 -0.19855008101E+04  0.20275149294E+04  0.12699999809E+01 0. -1.
</event>
<event>
 5   0  0.3927993E-03  0.9081178E+03  0.7818609E-02  0.9415490E-01
        1   -1    0    0  501    0  0.00000000000E+00  0.00000000000E+00  0.12376483001E+04  0.12376483001E+04  0.50400001928E-02 0. -1.
       -1   -1    0    0    0  501  0.00000000000E+00  0.00000000000E+00 -0.16658165547E+03  0.16658165555E+03  0.50400001928E-02 0.  1.
    10030    2    1    2    0    0  0.00000000000E+00  0.00000000000E+00  0.10710666446E+04  0.14042299557E+04  0.90811783991E+03 0.  0.
        2    1    3    3  502    0 -0.18229963181E+03 -0.25834778712E+03  0.10394323221E+04  0.10864604398E+04  0.25500000920E-02 0. -1.
       -2    1    3    3    0  502  0.18229963181E+03  0.25834778712E+03  0.31634322492E+02  0.31776951590E+03  0.25500000920E-02 0.  1.
</event>
<event>
 5   0  0.2560250E-03  0.8980375E+03  0.7818609E-02  0.9428038E-01
       -3   -1    0    0    0  501  0.00000000000E+00  0.00000000000E+00  0.15628138623E+03  0.15628141886E+03  0.10100000352E+00 0.  1.
        3   -1    0    0  501    0  0.00000000000E+00  0.00000000000E+00 -0.12900948262E+04  0.12900948302E+04  0.10100000352E+00 0. -1.
    10030    2    1    2    0    0  0.00000000000E+00  0.00000000000E+00 -0.11338134400E+04  0.14463762491E+04  0.89803749202E+03 0.  0.
        1    1    3    3  502    0 -0.42669615103E+02  0.14234541767E+03  0.11552826037E+03  0.18822776882E+03  0.50400001928E-02 0.  1.
       -1    1    3    3    0  502  0.42669615103E+02 -0.14234541767E+03 -0.12493417004E+04  0.12581484802E+04  0.50400001928E-02 0. -1.
</event>
<event>
 5   0  0.6524705E-03  0.9001773E+03  0.7818609E-02  0.9425360E-01
        2   -1    0    0  501    0  0.00000000000E+00  0.00000000000E+00  0.11013684528E+04  0.11013684529E+04  0.25500000920E-02 0. -1.
       -2   -1    0    0    0  501  0.00000000000E+00  0.00000000000E+00 -0.18393461019E+03  0.18393461020E+03  0.25500000920E-02 0.  1.
    10030    2    1    2    0    0  0.00000000000E+00  0.00000000000E+00  0.91743384266E+03  0.12853030631E+04  0.90017726489E+03 0.  0.
        3    1    3    3  502    0 -0.42317734737E+02 -0.30656298720E+03  0.92535440304E+03  0.97573174450E+03  0.10100000352E+00 0. -1.
       -3    1    3    3    0  502  0.42317734737E+02  0.30656298720E+03 -0.79205603736E+01  0.30957131856E+03  0.10100000352E+00 0.  1.
</event>
<event>
 5   0  0.6609191E-03  0.8911929E+03  0.7818609E-02  0.9436658E-01
       -2   -1    0    0    0  501  0.00000000000E+00  0.00000000000E+00  0.22226113217E+03  0.22226113218E+03  0.25500000920E-02 0.  1.
        2   -1    0    0  501    0  0.00000000000E+00  0.00000000000E+00 -0.89334649883E+03  0.89334649884E+03  0.25500000920E-02 0. -1.
    10030    2    1    2    0    0  0.00000000000E+00  0.00000000000E+00 -0.67108536666E+03  0.11156076310E+04  0.89119291797E+03 0.  0.
        2    1    3    3  502    0  0.78479390396E+02 -0.16495381678E+03  0.17323522444E+03  0.25175229767E+03  0.25500000920E-02 0.  1.
       -2    1    3    3    0  502 -0.78479390396E+02  0.16495381678E+03 -0.84432059111E+03  0.86385533335E+03  0.25500000920E-02 0. -1.
</event>
<event>
 5   0  0.3969536E-03  0.8969854E+03  0.7818609E-02  0.9429358E-01
       -1   -1    0    0    0  501  0.00000000000E+00  0.00000000000E+00  0.27653773093E+03  0.27653773097E+03  0.50400001928E-02 0.  1.
        1   -1    0    0  501    0  0.00000000000E+00  0.00000000000E+00 -0.72737160755E+03  0.72737160756E+03  0.50400001928E-02 0. -1.
    10030    2    1    2    0    0  0.00000000000E+00  0.00000000000E+00 -0.45083387662E+03  0.10039093385E+04  0.89698538209E+03 0.  0.
        1    1    3    3  502    0  0.18938323552E+03 -0.18386920675E+02  0.22912529026E+03  0.29782962816E+03  0.50400001928E-02 0.  1.
       -1    1    3    3    0  502 -0.18938323552E+03  0.18386920675E+02 -0.67995916688E+03  0.70607971037E+03  0.50400001928E-02 0. -1.
</event>
<event>
 5   0  0.3943549E-03  0.8765885E+03  0.7818609E-02  0.9455330E-01
       -1   -1    0    0    0  501  0.00000000000E+00  0.00000000000E+00  0.49686630728E+03  0.49686630731E+03  0.50400001928E-02 0. -1.
        1   -1    0    0  501    0  0.00000000000E+00  0.00000000000E+00 -0.38662683372E+03  0.38662683375E+03  0.50400001928E-02 0.  1.
    10030    2    1    2    0    0  0.00000000000E+00  0.00000000000E+00  0.11023947357E+03  0.88349314106E+03  0.87658849455E+03 0.  0.
        3    1    3    3  502    0  0.19588438239E+03 -0.32119139227E+03  0.28176258579E+03  0.47002634680E+03  0.10100000352E+00 0. -1.
       -3    1    3    3    0  502 -0.19588438239E+03  0.32119139227E+03 -0.17152311223E+03  0.41346679426E+03  0.10100000352E+00 0.  1.
</event>
<event>
 5   0  0.3998066E-03  0.8946624E+03  0.7818609E-02  0.9432278E-01
        1   -1    0    0  501    0  0.00000000000E+00  0.00000000000E+00  0.12849254254E+04  0.12849254254E+04  0.50400001928E-02 0. -1.
       -1   -1    0    0    0  501  0.00000000000E+00  0.00000000000E+00 -0.15573292770E+03  0.15573292778E+03  0.50400001928E-02 0.  1.
    10030    2    1    2    0    0  0.00000000000E+00  0.00000000000E+00  0.11291924977E+04  0.14406583532E+04  0.89466239094E+03 0.  0.
        4    1    3    3  502    0 -0.38339587241E+03 -0.22177669189E+03  0.66549667014E+03  0.79941524061E+03  0.12699999809E+01 0.  1.
       -4    1    3    3    0  502  0.38339587241E+03  0.22177669189E+03  0.46369582758E+03  0.64124311260E+03  0.12699999809E+01 0. -1.
</event>
<event>
 5   0  0.2560250E-03  0.8963195E+03  0.7818609E-02  0.9430194E-01
        3   -1    0    0  501    0  0.00000000000E+00  0.00000000000E+00  0.49330805300E+03  0.49330806334E+03  0.10100000352E+00 0.  1.
       -3   -1    0    0    0  501  0.00000000000E+00  0.00000000000E+00 -0.40714349187E+03  0.40714350440E+03  0.10100000352E+00 0. -1.
    10030    2    1    2    0    0  0.00000000000E+00  0.00000000000E+00  0.86164561122E+02  0.90045156774E+03  0.89631952687E+03 0.  0.
        3    1    3    3  502    0 -0.12295929794E+02  0.18962686005E+03 -0.36466765784E+03  0.41120803350E+03  0.10100000352E+00 0. -1.
       -3    1    3    3    0  502  0.12295929794E+02 -0.18962686005E+03  0.45083221896E+03  0.48924353424E+03  0.10100000352E+00 0.  1.
</event>
<event>
 5   0  0.3943549E-03  0.9328112E+03  0.7818609E-02  0.9385470E-01
       -1   -1    0    0    0  501  0.00000000000E+00  0.00000000000E+00  0.93723239696E+03  0.93723239697E+03  0.50400001928E-02 0. -1.
        1   -1    0    0  501    0  0.00000000000E+00  0.00000000000E+00 -0.23210271732E+03  0.23210271738E+03  0.50400001928E-02 0.  1.
    10030    2    1    2    0    0  0.00000000000E+00  0.00000000000E+00  0.70512967964E+03  0.11693351144E+04  0.93281120520E+03 0.  0.
        3    1    3    3  502    0 -0.19293698968E+03 -0.39746278498E+03  0.53989905387E+03  0.69763338940E+03  0.10100000352E+00 0. -1.
       -3    1    3    3    0  502  0.19293698968E+03  0.39746278498E+03  0.16523062577E+03  0.47170172495E+03  0.10100000352E+00 0.  1.
</event>
<event>
 5   0  0.6524705E-03  0.9370334E+03  0.7818609E-02  0.9380436E-01
        2   -1    0    0  501    0  0.00000000000E+00  0.00000000000E+00  0.32586453848E+03  0.32586453849E+03  0.25500000920E-02 0. -1.
       -2   -1    0    0    0  501  0.00000000000E+00  0.00000000000E+00 -0.67361707557E+03  0.67361707558E+03  0.25500000920E-02 0.  1.
    10030    2    1    2    0    0  0.00000000000E+00  0.00000000000E+00 -0.34775253709E+03  0.99948161407E+03  0.93703344113E+03 0.  0.
        3    1    3    3  502    0 -0.71445317913E+02  0.28733833425E+03 -0.56117276858E+03  0.63449400169E+03  0.10100000352E+00 0.  1.
       -3    1    3    3    0  502  0.71445317913E+02 -0.28733833425E+03  0.21342023149E+03  0.36498761238E+03  0.10100000352E+00 0. -1.
</event>
<event>
 5   0  0.3927993E-03  0.9012484E+03  0.7818609E-02  0.9424022E-01
        1   -1    0    0  501    0  0.00000000000E+00  0.00000000000E+00  0.48142961793E+03  0.48142961796E+03  0.50400001928E-02 0.  1.
       -1   -1    0    0    0  501  0.00000000000E+00  0.00000000000E+00 -0.42178996321E+03  0.42178996324E+03  0.50400001928E-02 0. -1.
    10030    2    1    2    0    0  0.00000000000E+00  0.00000000000E+00  0.59639654720E+02  0.90321958121E+03  0.90124842494E+03 0.  0.
        2    1    3    3  502    0  0.14731417564E+03 -0.22915904858E+03 -0.32991767893E+03  0.42785629687E+03  0.25500000920E-02 0. -1.
       -2    1    3    3    0  502 -0.14731417564E+03  0.22915904858E+03  0.38955733365E+03  0.47536328434E+03  0.25500000920E-02 0.  1.
</event>
<event>
 5   0  0.6863405E-03  0.8920820E+03  0.7818609E-02  0.9435534E-01
        2   -1    0    0  501    0  0.00000000000E+00  0.00000000000E+00  0.73633343951E+03  0.73633343951E+03  0.25500000920E-02 0. -1.
       -2   -1    0    0    0  501  0.00000000000E+00  0.00000000000E+00 -0.27019356774E+03  0.27019356775E+03  0.25500000920E-02 0.  1.
    10030    2    1    2    0    0  0.00000000000E+00  0.00000000000E+00  0.46613987177E+03  0.10065270073E+04  0.89208196726E+03 0.  0.
        1    1    3    3  502    0  0.18291825001E+02 -0.64862534036E+02  0.73055596363E+03  0.73365779162E+03  0.50400001928E-02 0. -1.
       -1    1    3    3    0  502 -0.18291825001E+02  0.64862534036E+02 -0.26441609187E+03  0.27286921564E+03  0.50400001928E-02 0.  1.
</event>
<event>
 5   0  0.3927993E-03  0.9005180E+03  0.7818609E-02  0.9424934E-01
       -1   -1    0    0    0  501  0.00000000000E+00  0.00000000000E+00  0.67116761204E+03  0.67116761206E+03  0.50400001928E-02 0.  1.
        1   -1    0    0  501    0  0.00000000000E+00  0.00000000000E+00 -0.30206038575E+03  0.30206038579E+03  0.50400001928E-02 0. -1.
    10030    2    1    2    0    0  0.00000000000E+00  0.00000000000E+00  0.36910722630E+03  0.97322799785E+03  0.90051795723E+03 0.  0.
        2    1    3    3  502    0 -0.44479014881E+03 -0.44206458680E+01  0.10909232905E+03  0.45799449216E+03  0.25500000920E-02 0. -1.
       -2    1    3    3    0  502  0.44479014881E+03  0.44206458680E+01  0.26001489725E+03  0.51523350569E+03  0.25500000920E-02 0.  1.
</event>
<event>
 5   0  0.3943549E-03  0.9114284E+03  0.7818609E-02  0.9411407E-01
       -1   -1    0    0    0  501  0.00000000000E+00  0.00000000000E+00  0.53801721295E+03  0.53801721297E+03  0.50400001928E-02 0.  1.
        1   -1    0    0  501    0  0.00000000000E+00  0.00000000000E+00 -0.38600150437E+03  0.38600150440E+03  0.50400001928E-02 0. -1.
    10030    2    1    2    0    0  0.00000000000E+00  0.00000000000E+00  0.15201570858E+03  0.92401871737E+03  0.91142844721E+03 0.  0.
        3    1    3    3  502    0 -0.19230660840E+03  0.28441345596E+03  0.37981825617E+03  0.51199097989E+03  0.10100000352E+00 0.  1.
       -3    1    3    3    0  502  0.19230660840E+03 -0.28441345596E+03 -0.22780254759E+03  0.41202773748E+03  0.10100000352E+00 0. -1.
</event>
<event>
 5   0  0.6534628E-03  0.8921981E+03  0.7818609E-02  0.9435387E-01
       -2   -1    0    0    0  501  0.00000000000E+00  0.00000000000E+00  0.27167021094E+03  0.27167021095E+03  0.25500000920E-02 0. -1.
        2   -1    0    0  501    0  0.00000000000E+00  0.00000000000E+00 -0.73252182442E+03  0.73252182443E+03  0.25500000920E-02 0.  1.
    10030    2    1    2    0    0  0.00000000000E+00  0.00000000000E+00 -0.46085161348E+03  0.10041920354E+04  0.89219809138E+03 0.  0.
        4    1    3    3  502    0  0.18826525376E+03 -0.32366997082E+03  0.42492030573E+02  0.37684644266E+03  0.12699999809E+01 0. -1.
       -4    1    3    3    0  502 -0.18826525376E+03  0.32366997082E+03 -0.50334364406E+03  0.62734559271E+03  0.12699999809E+01 0.  1.
</event>
<event>
 5   0  0.3998066E-03  0.9082174E+03  0.7818609E-02  0.9415367E-01
        1   -1    0    0  501    0  0.00000000000E+00  0.00000000000E+00  0.98370647599E+03  0.98370647600E+03  0.50400001928E-02 0. -1.
       -1   -1    0    0    0  501  0.00000000000E+00  0.00000000000E+00 -0.20963032706E+03  0.20963032712E+03  0.50400001928E-02 0.  1.
    10030    2    1    2    0    0  0.00000000000E+00  0.00000000000E+00  0.77407614893E+03  0.11933368031E+04  0.90821739762E+03 0.  0.
        4    1    3    3  502    0 -0.36579461910E+02  0.40632569105E+03  0.12499334091E+03  0.42668908167E+03  0.12699999809E+01 0.  1.
       -4    1    3    3    0  502  0.36579461910E+02 -0.40632569105E+03  0.64908280801E+03  0.76664772145E+03  0.12699999809E+01 0. -1.
</event>
<event>
 5   0  0.6609191E-03  0.8948393E+03  0.7818609E-02  0.9432056E-01
        2   -1    0    0  501    0  0.00000000000E+00  0.00000000000E+00  0.65786503739E+03  0.65786503740E+03  0.25500000920E-02 0. -1.
       -2   -1    0    0    0  501  0.00000000000E+00  0.00000000000E+00 -0.30429390459E+03  0.30429390460E+03  0.25500000920E-02 0.  1.
    10030    2    1    2    0    0  0.00000000000E+00  0.00000000000E+00  0.35357113280E+03  0.96215894200E+03  0.89483925021E+03 0.  0.
        2    1    3    3  502    0 -0.94443847240E+01  0.41269648451E+03  0.36232675816E+03  0.54926156285E+03  0.25500000920E-02 0.  1.
       -2    1    3    3    0  502  0.94443847240E+01 -0.41269648451E+03 -0.87556253598E+01  0.41289737916E+03  0.25500000920E-02 0. -1.
</event>
<event>
 5   0  0.3794006E-03  0.8994895E+03  0.7818609E-02  0.9426220E-01
       -1   -1    0    0    0  501  0.00000000000E+00  0.00000000000E+00  0.14685422011E+03  0.14685422020E+03  0.50400001928E-02 0. -1.
        1   -1    0    0  501    0  0.00000000000E+00  0.00000000000E+00 -0.13773546888E+04  0.13773546888E+04  0.50400001928E-02 0.  1.
    10030    2    1    2    0    0  0.00000000000E+00  0.00000000000E+00 -0.12305004687E+04  0.15242089090E+04  0.89948951903E+03 0.  0.
        5    1    3    3  502    0  0.24076667326E+03  0.30338846874E+03 -0.22796617328E+03  0.44944835084E+03  0.46999998093E+01 0. -1.
       -5    1    3    3    0  502 -0.24076667326E+03 -0.30338846874E+03 -0.10025342954E+04  0.10747605582E+04  0.46999998093E+01 0.  1.
</event>
<event>
 5   0  0.6524705E-03  0.8720708E+03  0.7818609E-02  0.9461184E-01
        2   -1    0    0  501    0  0.00000000000E+00  0.00000000000E+00  0.60677303662E+03  0.60677303662E+03  0.25500000920E-02 0. -1.
       -2   -1    0    0    0  501  0.00000000000E+00  0.00000000000E+00 -0.31334097327E+03  0.31334097328E+03  0.25500000920E-02 0.  1.
    10030    2    1    2    0    0  0.00000000000E+00  0.00000000000E+00  0.29343206334E+03  0.92011400991E+03  0.87207076286E+03 0.  0.
        3    1    3    3  502    0  0.23187991780E+03 -0.53043078781E+02  0.53228644345E+03  0.58301863827E+03  0.10100000352E+00 0. -1.
       -3    1    3    3    0  502 -0.23187991780E+03  0.53043078781E+02 -0.23885438010E+03  0.33709537164E+03  0.10100000352E+00 0.  1.
</event>
<event>
 5   0  0.3927993E-03  0.9083014E+03  0.7818609E-02  0.9415263E-01
        1   -1    0    0  501    0  0.00000000000E+00  0.00000000000E+00  0.49280563594E+03  0.49280563597E+03  0.50400001928E-02 0.  1.
       -1   -1    0    0    0  501  0.00000000000E+00  0.00000000000E+00 -0.41852783815E+03  0.41852783818E+03  0.50400001928E-02 0. -1.
    10030    2    1    2    0    0  0.00000000000E+00  0.00000000000E+00  0.74277797787E+02  0.91133347415E+03  0.90830144218E+03 0.  0.
        2    1    3    3  502    0  0.28782181299E+03 -0.34959422707E+03  0.71828258487E+02  0.45849407669E+03  0.25500000920E-02 0. -1.
       -2    1    3    3    0  502 -0.28782181299E+03  0.34959422707E+03  0.24495393002E+01  0.45283939746E+03  0.25500000920E-02 0.  1.
</event>
<event>
 5   0  0.6609191E-03  0.9016672E+03  0.7818609E-02  0.9423500E-01
        2   -1    0    0  501    0  0.00000000000E+00  0.00000000000E+00  0.13813854315E+04  0.13813854315E+04  0.25500000920E-02 0. -1.
       -2   -1    0    0    0  501  0.00000000000E+00  0.00000000000E+00 -0.14713557640E+03  0.14713557642E+03  0.25500000920E-02 0.  1.
    10030    2    1    2    0    0  0.00000000000E+00  0.00000000000E+00  0.12342498551E+04  0.15285210080E+04  0.90166721515E+03 0.  0.
        2    1    3    3  502    0 -0.39224916182E+03  0.11080195130E+03  0.94371030195E+03  0.10279716005E+04  0.25500000920E-02 0. -1.
       -2    1    3    3    0  502  0.39224916182E+03 -0.11080195130E+03  0.29053955318E+03  0.50054940748E+03  0.25500000920E-02 0.  1.
</event>
<event>
 5   0  0.6863405E-03  0.8926919E+03  0.7818609E-02  0.9434763E-01
       -2   -1    0    0    0  501  0.00000000000E+00  0.00000000000E+00  0.97143973342E+03  0.97143973342E+03  0.25500000920E-02 0. -1.
        2   -1    0    0  501    0  0.00000000000E+00  0.00000000000E+00 -0.20508189301E+03  0.20508189302E+03  0.25500000920E-02 0.  1.
    10030    2    1    2    0    0  0.00000000000E+00  0.00000000000E+00  0.76635784041E+03  0.11765216264E+04  0.89269188298E+03 0.  0.
        1    1    3    3  502    0  0.10726790924E+03 -0.30049468394E+03 -0.28184012400E+02  0.32030891028E+03  0.50400001928E-02 0.  1.
       -1    1    3    3    0  502 -0.10726790924E+03  0.30049468394E+03  0.79454185281E+03  0.85621271616E+03  0.50400001928E-02 0. -1.
</event>
<event>
 5   0  0.3943549E-03  0.9043442E+03  0.7818609E-02  0.9420167E-01
        1   -1    0    0  501    0  0.00000000000E+00  0.00000000000E+00  0.85798210525E+03  0.85798210526E+03  0.50400001928E-02 0. -1.
       -1   -1    0    0    0  501  0.00000000000E+00  0.00000000000E+00 -0.23830287203E+03  0.23830287208E+03  0.50400001928E-02 0.  1.
    10030    2    1    2    0    0  0.00000000000E+00  0.00000000000E+00  0.61967923322E+03  0.10962849773E+04  0.90434418197E+03 0.  0.
        3    1    3    3  502    0 -0.40290092690E+03 -0.66230035526E+02  0.54535200836E+03  0.68126675959E+03  0.10100000352E+00 0. -1.
       -3    1    3    3    0  502  0.40290092690E+03  0.66230035526E+02  0.74327224863E+02  0.41501821775E+03  0.10100000352E+00 0.  1.
</event>
<event>
 5   0  0.3998066E-03  0.9008697E+03  0.7818609E-02  0.9424495E-01
        1   -1    0    0  501    0  0.00000000000E+00  0.00000000000E+00  0.85074764616E+03  0.85074764617E+03  0.50400001928E-02 0.  1.
       -1   -1    0    0    0  501  0.00000000000E+00  0.00000000000E+00 -0.23848617595E+03  0.23848617601E+03  0.50400001928E-02 0. -1.
    10030    2    1    2    0    0  0.00000000000E+00  0.00000000000E+00  0.61226147021E+03  0.10892338222E+04  0.90086969728E+03 0.  0.
        4    1    3    3  502    0  0.59367152106E+02 -0.82298865890E+02 -0.22448324388E+03  0.24635726448E+03  0.12699999809E+01 0. -1.
       -4    1    3    3    0  502 -0.59367152106E+02  0.82298865890E+02  0.83674471409E+03  0.84287655771E+03  0.12699999809E+01 0.  1.
</event>
<event>
 5   0  0.6609191E-03  0.8951554E+03  0.7818609E-02  0.9431658E-01
       -2   -1    0    0    0  501  0.00000000000E+00  0.00000000000E+00  0.83050156405E+02  0.83050156444E+02  0.25500000920E-02 0. -1.
        2   -1    0    0  501    0  0.00000000000E+00  0.00000000000E+00 -0.24121062549E+04  0.24121062549E+04  0.25500000920E-02 0.  1.
    10030    2    1    2    0    0  0.00000000000E+00  0.00000000000E+00 -0.23290560985E+04  0.24951564114E+04  0.89515540949E+03 0.  0.
        2    1    3    3  502    0  0.20372342528E+03  0.35892450312E+03 -0.16472858870E+04  0.16981992894E+04  0.25500000920E-02 0.  1.
       -2    1    3    3    0  502 -0.20372342528E+03 -0.35892450312E+03 -0.68177021147E+03  0.79695712194E+03  0.25500000920E-02 0. -1.
</event>
<event>
 5   0  0.6534628E-03  0.8928806E+03  0.7818609E-02  0.9434525E-01
       -2   -1    0    0    0  501  0.00000000000E+00  0.00000000000E+00  0.23204353799E+03  0.23204353800E+03  0.25500000920E-02 0. -1.
        2   -1    0    0  501    0  0.00000000000E+00  0.00000000000E+00 -0.85892907147E+03  0.85892907147E+03  0.25500000920E-02 0.  1.
    10030    2    1    2    0    0  0.00000000000E+00  0.00000000000E+00 -0.62688553348E+03  0.10909726095E+04  0.89288059814E+03 0.  0.
        4    1    3    3  502    0  0.10528288705E+03  0.15914346966E+03  0.17970370964E+03  0.26211861132E+03  0.12699999809E+01 0. -1.
       -4    1    3    3    0  502 -0.10528288705E+03 -0.15914346966E+03 -0.80658924312E+03  0.82885399816E+03  0.12699999809E+01 0.  1.
</event>
<event>
 5   0  0.6524705E-03  0.9009542E+03  0.7818609E-02  0.9424389E-01
        2   -1    0    0  501    0  0.00000000000E+00  0.00000000000E+00  0.11527425335E+04  0.11527425335E+04  0.25500000920E-02 0. -1.
       -2   -1    0    0    0  501  0.00000000000E+00  0.00000000000E+00 -0.17604069374E+03  0.17604069375E+03  0.25500000920E-02 0.  1.
    10030    2    1    2    0    0  0.00000000000E+00  0.00000000000E+00  0.97670183979E+03  0.13287832273E+04  0.90095415047E+03 0.  0.
        3    1    3    3  502    0 -0.40311835483E+03 -0.19687434571E+03  0.54854389561E+03  0.70863554216E+03  0.10100000352E+00 0. -1.
       -3    1    3    3    0  502  0.40311835483E+03  0.19687434571E+03  0.42815794418E+03  0.62014768512E+03  0.10100000352E+00 0.  1.
</event>
<event>
 5   0  0.6724773E-03  0.8965637E+03  0.7818609E-02  0.9429887E-01
       -2   -1    0    0    0  501  0.00000000000E+00  0.00000000000E+00  0.13344047718E+03  0.13344047720E+03  0.25500000920E-02 0.  1.
        2   -1    0    0  501    0  0.00000000000E+00  0.00000000000E+00 -0.15059645029E+04  0.15059645029E+04  0.25500000920E-02 0. -1.
    10030    2    1    2    0    0  0.00000000000E+00  0.00000000000E+00 -0.13725240257E+04  0.16394049801E+04  0.89656371084E+03 0.  0.
        5    1    3    3  502    0 -0.39772204771E+03  0.20260993308E+03 -0.76167514821E+03  0.88283901908E+03  0.46999998093E+01 0. -1.
       -5    1    3    3    0  502  0.39772204771E+03 -0.20260993308E+03 -0.61084887750E+03  0.75656596101E+03  0.46999998093E+01 0.  1.
</event>
<event>
 5   0  0.3998066E-03  0.8997196E+03  0.7818609E-02  0.9425932E-01
       -1   -1    0    0    0  501  0.00000000000E+00  0.00000000000E+00  0.44349967980E+03  0.44349967983E+03  0.50400001928E-02 0. -1.
        1   -1    0    0  501    0  0.00000000000E+00  0.00000000000E+00 -0.45631114033E+03  0.45631114035E+03  0.50400001928E-02 0.  1.
    10030    2    1    2    0    0  0.00000000000E+00  0.00000000000E+00 -0.12811460523E+02  0.89981082019E+03  0.89971961110E+03 0.  0.
        4    1    3    3  502    0 -0.97296758707E+02 -0.29277989283E+03 -0.33383089701E+03  0.45456727290E+03  0.12699999809E+01 0.  1.
       -4    1    3    3    0  502  0.97296758707E+02  0.29277989283E+03  0.32101943648E+03  0.44524354728E+03  0.12699999809E+01 0. -1.
</event>
<event>
 5   0  0.3794006E-03  0.8682114E+03  0.7818609E-02  0.9466215E-01
       -1   -1    0    0    0  501  0.00000000000E+00  0.00000000000E+00  0.18409002064E+03  0.18409002071E+03  0.50400001928E-02 0. -1.
        1   -1    0    0  501    0  0.00000000000E+00  0.00000000000E+00 -0.10236717520E+04  0.10236717521E+04  0.50400001928E-02 0.  1.
    10030    2    1    2    0    0  0.00000000000E+00  0.00000000000E+00 -0.83958173141E+03  0.12077617728E+04  0.86821138903E+03 0.  0.
        5    1    3    3  502    0 -0.59975994743E+02  0.12068037045E+03  0.15421750721E+03  0.20485605016E+03  0.46999998093E+01 0. -1.
       -5    1    3    3    0  502  0.59975994743E+02 -0.12068037045E+03 -0.99379923862E+03  0.10029057226E+04  0.46999998093E+01 0.  1.
</event>
<event>
 5   0  0.3969536E-03  0.9103308E+03  0.7818609E-02  0.9412759E-01
        1   -1    0    0  501    0  0.00000000000E+00  0.00000000000E+00  0.79023439920E+03  0.79023439922E+03  0.50400001928E-02 0.  1.
       -1   -1    0    0    0  501  0.00000000000E+00  0.00000000000E+00 -0.26216970845E+03  0.26216970850E+03  0.50400001928E-02 0. -1.
    10030    2    1    2    0    0  0.00000000000E+00  0.00000000000E+00  0.52806469075E+03  0.10524041077E+04  0.91033075765E+03 0.  0.
        1    1    3    3  502    0 -0.19676711106E+03 -0.15557853959E+03 -0.17505059500E+03  0.30588345626E+03  0.50400001928E-02 0. -1.
       -1    1    3    3    0  502  0.19676711106E+03  0.15557853959E+03  0.70311528575E+03  0.74652065146E+03  0.50400001928E-02 0.  1.
</event>
<event>
 5   0  0.6534628E-03  0.9033590E+03  0.7818609E-02  0.9421392E-01
       -2   -1    0    0    0  501  0.00000000000E+00  0.00000000000E+00  0.27995344174E+03  0.27995344175E+03  0.25500000920E-02 0. -1.
        2   -1    0    0  501    0  0.00000000000E+00  0.00000000000E+00 -0.72874388052E+03  0.72874388053E+03  0.25500000920E-02 0.  1.
    10030    2    1    2    0    0  0.00000000000E+00  0.00000000000E+00 -0.44879043878E+03  0.10086973223E+04  0.90335897075E+03 0.  0.
        4    1    3    3  502    0  0.22806205795E+03  0.34581742106E+03 -0.42541790513E+03  0.59378783912E+03  0.12699999809E+01 0.  1.
       -4    1    3    3    0  502 -0.22806205795E+03 -0.34581742106E+03 -0.23372533656E+02  0.41490948316E+03  0.12699999809E+01 0. -1.
</event>
<event>
 5   0  0.6534628E-03  0.8976826E+03  0.7818609E-02  0.9428483E-01
       -2   -1    0    0    0  501  0.00000000000E+00  0.00000000000E+00  0.32260164875E+03  0.32260164876E+03  0.25500000920E-02 0. -1.
        2   -1    0    0  501    0  0.00000000000E+00  0.00000000000E+00 -0.62448078050E+03  0.62448078050E+03  0.25500000920E-02 0.  1.
    10030    2    1    2    0    0  0.00000000000E+00  0.00000000000E+00 -0.30187913175E+03  0.94708242926E+03  0.89768263748E+03 0.  0.
        4    1    3    3  502    0 -0.10487646560E+03  0.42687604149E+03 -0.24667849077E+03  0.50405765399E+03  0.12699999809E+01 0. -1.
       -4    1    3    3    0  502  0.10487646560E+03 -0.42687604149E+03 -0.55200640974E+02  0.44302477527E+03  0.12699999809E+01 0.  1.
</event>
<event>
 5   0  0.2560250E-03  0.8482611E+03  0.7818609E-02  0.9492674E-01
        3   -1    0    0  501    0  0.00000000000E+00  0.00000000000E+00  0.66975876783E+03  0.66975877544E+03  0.10100000352E+00 0. -1.
       -3   -1    0    0    0  501  0.00000000000E+00  0.00000000000E+00 -0.26858436001E+03  0.26858437900E+03  0.10100000352E+00 0.  1.
    10030    2    1    2    0    0  0.00000000000E+00  0.00000000000E+00  0.40117440781E+03  0.93834315445E+03  0.84826114494E+03 0.  0.
        2    1    3    3  502    0 -0.22638174699E+02  0.33140775948E+03 -0.91128159835E+02  0.34445309045E+03  0.25500000920E-02 0. -1.
       -2    1    3    3    0  502  0.22638174699E+02 -0.33140775948E+03  0.49230256765E+03  0.59389006400E+03  0.25500000920E-02 0.  1.
</event>
<event>
 5   0  0.6609191E-03  0.8779315E+03  0.7818609E-02  0.9453597E-01
       -2   -1    0    0    0  501  0.00000000000E+00  0.00000000000E+00  0.27627472038E+03  0.27627472039E+03  0.25500000920E-02 0. -1.
        2   -1    0    0  501    0  0.00000000000E+00  0.00000000000E+00 -0.69746127754E+03  0.69746127754E+03  0.25500000920E-02 0.  1.
    10030    2    1    2    0    0  0.00000000000E+00  0.00000000000E+00 -0.42118655716E+03  0.97373599793E+03  0.87793147668E+03 0.  0.
        2    1    3    3  502    0  0.13742409533E+03  0.11941117062E+03 -0.65361422400E+03  0.67849536732E+03  0.25500000920E-02 0.  1.
       -2    1    3    3    0  502 -0.13742409533E+03 -0.11941117062E+03  0.23242766684E+03  0.29524063062E+03  0.25500000920E-02 0. -1.
</event>
<event>
 5   0  0.3927993E-03  0.8981936E+03  0.7818609E-02  0.9427842E-01
       -1   -1    0    0    0  501  0.00000000000E+00  0.00000000000E+00  0.22585095670E+03  0.22585095676E+03  0.50400001928E-02 0. -1.
        1   -1    0    0  501    0  0.00000000000E+00  0.00000000000E+00 -0.89301348907E+03  0.89301348908E+03  0.50400001928E-02 0.  1.
    10030    2    1    2    0    0  0.00000000000E+00  0.00000000000E+00 -0.66716253236E+03  0.11188644458E+04  0.89819363368E+03 0.  0.
        2    1    3    3  502    0 -0.82834790357E+02  0.31107332502E+03 -0.72366052461E+03  0.79203078912E+03  0.25500000920E-02 0. -1.
       -2    1    3    3    0  502  0.82834790357E+02 -0.31107332502E+03  0.56497992245E+02  0.32683365672E+03  0.25500000920E-02 0.  1.
</event>
<event>
 5   0  0.3943549E-03  0.8952006E+03  0.7818609E-02  0.9431601E-01
        1   -1    0    0  501    0  0.00000000000E+00  0.00000000000E+00  0.15249648791E+04  0.15249648791E+04  0.50400001928E-02 0.  1.
       -1   -1    0    0    0  501  0.00000000000E+00  0.00000000000E+00 -0.13137746578E+03  0.13137746587E+03  0.50400001928E-02 0. -1.
    10030    2    1    2    0    0  0.00000000000E+00  0.00000000000E+00  0.13935874133E+04  0.16563423450E+04  0.89520058380E+03 0.  0.
        3    1    3    3  502    0 -0.39312635604E+02  0.14576539972E+03  0.14764330126E+04  0.14841318964E+04  0.10100000352E+00 0.  1.
       -3    1    3    3    0  502  0.39312635604E+02 -0.14576539972E+03 -0.82845599279E+02  0.17221044856E+03  0.10100000352E+00 0. -1.
</event>
<event>
 5   0  0.6724773E-03  0.9138308E+03  0.7818609E-02  0.9408455E-01
       -2   -1    0    0    0  501  0.00000000000E+00  0.00000000000E+00  0.59970466691E+03  0.59970466692E+03  0.25500000920E-02 0.  1.
        2   -1    0    0  501    0  0.00000000000E+00  0.00000000000E+00 -0.34812418072E+03  0.34812418073E+03  0.25500000920E-02 0. -1.
    10030    2    1    2    0    0  0.00000000000E+00  0.00000000000E+00  0.25158048619E+03  0.94782884765E+03  0.91383082866E+03 0.  0.
        5    1    3    3  502    0  0.22657009654E+03  0.13700947408E+03  0.51199236814E+03  0.57642335107E+03  0.46999998093E+01 0.  1.
       -5    1    3    3    0  502 -0.22657009654E+03 -0.13700947408E+03 -0.26041188195E+03  0.37140549658E+03  0.46999998093E+01 0. -1.
</event>
<event>
 5   0  0.6863405E-03  0.8985231E+03  0.7818609E-02  0.9427429E-01
        2   -1    0    0  501    0  0.00000000000E+00  0.00000000000E+00  0.13187288763E+04  0.13187288763E+04  0.25500000920E-02 0. -1.
       -2   -1    0    0    0  501  0.00000000000E+00  0.00000000000E+00 -0.15305341573E+03  0.15305341575E+03  0.25500000920E-02 0.  1.
    10030    2    1    2    0    0  0.00000000000E+00  0.00000000000E+00  0.11656754606E+04  0.14717822920E+04  0.89852314151E+03 0.  0.
        1    1    3    3  502    0  0.20522725455E+03 -0.18628728847E+03  0.36824965479E+01  0.27719080191E+03  0.50400001928E-02 0.  1.
       -1    1    3    3    0  502 -0.20522725455E+03  0.18628728847E+03  0.11619929640E+04  0.11945914901E+04  0.50400001928E-02 0. -1.
</event>
<event>
 5   0  0.3998066E-03  0.8981444E+03  0.7818609E-02  0.9427904E-01
       -1   -1    0    0    0  501  0.00000000000E+00  0.00000000000E+00  0.17146930689E+03  0.17146930696E+03  0.50400001928E-02 0. -1.
        1   -1    0    0  501    0  0.00000000000E+00  0.00000000000E+00 -0.11761046352E+04  0.11761046352E+04  0.50400001928E-02 0.  1.
    10030    2    1    2    0    0  0.00000000000E+00  0.00000000000E+00 -0.10046353283E+04  0.13475739422E+04  0.89814441307E+03 0.  0.
        4    1    3    3  502    0  0.32685062204E+03  0.30764381570E+03 -0.52290032908E+03  0.68913163730E+03  0.12699999809E+01 0.  1.
       -4    1    3    3    0  502 -0.32685062204E+03 -0.30764381570E+03 -0.48173499925E+03  0.65844230489E+03  0.12699999809E+01 0. -1.
</event>
<event>
 5   0  0.3998066E-03  0.9007978E+03  0.7818609E-02  0.9424585E-01
       -1   -1    0    0    0  501  0.00000000000E+00  0.00000000000E+00  0.11433589577E+04  0.11433589577E+04  0.50400001928E-02 0. -1.
        1   -1    0    0  501    0  0.00000000000E+00  0.00000000000E+00 -0.17742386728E+03  0.17742386735E+03  0.50400001928E-02 0.  1.
    10030    2    1    2    0    0  0.00000000000E+00  0.00000000000E+00  0.96593509037E+03  0.13207828250E+04  0.90079779754E+03 0.  0.
        4    1    3    3  502    0  0.84310123166E+02  0.44241019362E+03  0.48993468944E+03  0.66548673097E+03  0.12699999809E+01 0.  1.
       -4    1    3    3    0  502 -0.84310123166E+02 -0.44241019362E+03  0.47600040093E+03  0.65529609404E+03  0.12699999809E+01 0. -1.
</event>
<event>
 5   0  0.3794006E-03  0.8158699E+03  0.7818609E-02  0.9537326E-01
       -1   -1    0    0    0  501  0.00000000000E+00  0.00000000000E+00  0.93867098711E+02  0.93867098846E+02  0.50400001928E-02 0. -1.
        1   -1    0    0  501    0  0.00000000000E+00  0.00000000000E+00 -0.17728354089E+04  0.17728354089E+04  0.50400001928E-02 0.  1.
    10030    2    1    2    0    0  0.00000000000E+00  0.00000000000E+00 -0.16789683101E+04  0.18667025077E+04  0.81586988290E+03 0.  0.
        5    1    3    3  502    0  0.16650927852E+03  0.24247739824E+03 -0.14860922718E+04  0.15149300178E+04  0.46999998093E+01 0.  1.
       -5    1    3    3    0  502 -0.16650927852E+03 -0.24247739824E+03 -0.19287603831E+03  0.35177248989E+03  0.46999998093E+01 0. -1.
</event>
<event>
 5   0  0.6534628E-03  0.8920603E+03  0.7818609E-02  0.9435561E-01
        2   -1    0    0  501    0  0.00000000000E+00  0.00000000000E+00  0.49484895432E+03  0.49484895433E+03  0.25500000920E-02 0. -1.
       -2   -1    0    0    0  501  0.00000000000E+00  0.00000000000E+00 -0.40202750886E+03  0.40202750887E+03  0.25500000920E-02 0.  1.
    10030    2    1    2    0    0  0.00000000000E+00  0.00000000000E+00  0.92821445461E+02  0.89687646320E+03  0.89206029477E+03 0.  0.
        4    1    3    3  502    0 -0.12567986391E+03  0.15569733990E+03 -0.35436932378E+03  0.40695985107E+03  0.12699999809E+01 0.  1.
       -4    1    3    3    0  502  0.12567986391E+03 -0.15569733990E+03  0.44719076924E+03  0.48991661213E+03  0.12699999809E+01 0. -1.
</event>
<event>
 5   0  0.3794006E-03  0.9086846E+03  0.7818609E-02  0.9414790E-01
        1   -1    0    0  501    0  0.00000000000E+00  0.00000000000E+00  0.34822220006E+03  0.34822220009E+03  0.50400001928E-02 0.  1.
       -1   -1    0    0    0  501  0.00000000000E+00  0.00000000000E+00 -0.59280225046E+03  0.59280225048E+03  0.50400001928E-02 0. -1.
    10030    2    1    2    0    0  0.00000000000E+00  0.00000000000E+00 -0.24458005040E+03  0.94102445057E+03  0.90868455226E+03 0.  0.
        5    1    3    3  502    0 -0.15328771393E+02 -0.39185233297E+03  0.11526802573E+03  0.40876891985E+03  0.46999998093E+01 0.  1.
       -5    1    3    3    0  502  0.15328771393E+02  0.39185233297E+03 -0.35984807613E+03  0.53225553072E+03  0.46999998093E+01 0. -1.
</event>
<event>
 5   0  0.6524705E-03  0.8975893E+03  0.7818609E-02  0.9428600E-01
       -2   -1    0    0    0  501  0.00000000000E+00  0.00000000000E+00  0.26980756712E+03  0.26980756713E+03  0.25500000920E-02 0. -1.
        2   -1    0    0  501    0  0.00000000000E+00  0.00000000000E+00 -0.74651956230E+03  0.74651956231E+03  0.25500000920E-02 0.  1.
    10030    2    1    2    0    0  0.00000000000E+00  0.00000000000E+00 -0.47671199519E+03  0.10163271294E+04  0.89758927560E+03 0.  0.
        3    1    3    3  502    0 -0.12701913685E+03  0.27427845897E+03  0.13727285395E+03  0.33197346403E+03  0.10100000352E+00 0. -1.
       -3    1    3    3    0  502  0.12701913685E+03 -0.27427845897E+03 -0.61398484914E+03  0.68435366541E+03  0.10100000352E+00 0.  1.
</event>
<event>
 5   0  0.6524705E-03  0.8911466E+03  0.7818609E-02  0.9436717E-01
        2   -1    0    0  501    0  0.00000000000E+00  0.00000000000E+00  0.43295956734E+03  0.43295956735E+03  0.25500000920E-02 0. -1.
       -2   -1    0    0    0  501  0.00000000000E+00  0.00000000000E+00 -0.45855452453E+03  0.45855452454E+03  0.25500000920E-02 0.  1.
    10030    2    1    2    0    0  0.00000000000E+00  0.00000000000E+00 -0.25594957192E+02  0.89151409189E+03  0.89114660646E+03 0.  0.
        3    1    3    3  502    0 -0.72574597170E+02  0.42535605560E+03 -0.12393204670E+03  0.44894766799E+03  0.10100000352E+00 0.  1.
       -3    1    3    3    0  502  0.72574597170E+02 -0.42535605560E+03  0.98337089511E+02  0.44256642390E+03  0.10100000352E+00 0. -1.
</event>
<event>
 5   0  0.2560250E-03  0.9164307E+03  0.7818609E-02  0.9405272E-01
       -3   -1    0    0    0  501  0.00000000000E+00  0.00000000000E+00  0.76724977458E+03  0.76724978123E+03  0.10100000352E+00 0.  1.
        3   -1    0    0  501    0  0.00000000000E+00  0.00000000000E+00 -0.27365441777E+03  0.27365443641E+03  0.10100000352E+00 0. -1.
    10030    2    1    2    0    0  0.00000000000E+00  0.00000000000E+00  0.49359535681E+03  0.10409042176E+04  0.91643069244E+03 0.  0.
        4    1    3    3  502    0  0.35750858433E+02  0.45653820337E+03  0.26491525371E+03  0.52904343826E+03  0.12699999809E+01 0.  1.
       -4    1    3    3    0  502 -0.35750858433E+02 -0.45653820337E+03  0.22868010309E+03  0.51186077938E+03  0.12699999809E+01 0. -1.
</event>
<event>
 5   0  0.3794006E-03  0.9002869E+03  0.7818609E-02  0.9425223E-01
       -1   -1    0    0    0  501  0.00000000000E+00  0.00000000000E+00  0.19142696071E+03  0.19142696077E+03  0.50400001928E-02 0.  1.
        1   -1    0    0  501    0  0.00000000000E+00  0.00000000000E+00 -0.10585191865E+04  0.10585191866E+04  0.50400001928E-02 0. -1.
    10030    2    1    2    0    0  0.00000000000E+00  0.00000000000E+00 -0.86709222584E+03  0.12499461473E+04  0.90028686712E+03 0.  0.
        5    1    3    3  502    0  0.24191586573E+02  0.15154945551E+03  0.15394739065E+03  0.21742667595E+03  0.46999998093E+01 0.  1.
       -5    1    3    3    0  502 -0.24191586573E+02 -0.15154945551E+03 -0.10210396165E+04  0.10325194714E+04  0.46999998093E+01 0. -1.
</event>
<event>
 5   0  0.6524705E-03  0.9033446E+03  0.7818609E-02  0.9421410E-01
       -2   -1    0    0    0  501  0.00000000000E+00  0.00000000000E+00  0.91743695852E+02  0.91743695887E+02  0.25500000920E-02 0.  1.
        2   -1    0    0  501    0  0.00000000000E+00  0.00000000000E+00 -0.22236717091E+04  0.22236717091E+04  0.25500000920E-02 0. -1.
    10030    2    1    2    0    0  0.00000000000E+00  0.00000000000E+00 -0.21319280132E+04  0.23154154050E+04  0.90334458762E+03 0.  0.
        3    1    3    3  502    0  0.37610109467E+03 -0.15030587154E+03 -0.15783647395E+04  0.16295027307E+04  0.10100000352E+00 0. -1.
       -3    1    3    3    0  502 -0.37610109467E+03  0.15030587154E+03 -0.55356327376E+03  0.68591267425E+03  0.10100000352E+00 0.  1.
</event>
<event>
 5   0  0.2560250E-03  0.9002711E+03  0.7818609E-02  0.9425243E-01
       -3   -1    0    0    0  501  0.00000000000E+00  0.00000000000E+00  0.52227250778E+03  0.52227251755E+03  0.10100000352E+00 0. -1.
        3   -1    0    0  501    0  0.00000000000E+00  0.00000000000E+00 -0.38796225283E+03  0.38796226597E+03  0.10100000352E+00 0.  1.
    10030    2    1    2    0    0  0.00000000000E+00  0.00000000000E+00  0.13431025495E+03  0.91023478352E+03  0.90027113501E+03 0.  0.
        1    1    3    3  502    0  0.14257698115E+03  0.26133550650E+03 -0.27421689906E+03  0.40474603181E+03  0.50400001928E-02 0.  1.
       -1    1    3    3    0  502 -0.14257698115E+03 -0.26133550650E+03  0.40852715402E+03  0.50548875171E+03  0.50400001928E-02 0. -1.
</event>
<event>
 5   0  0.6609191E-03  0.8914192E+03  0.7818609E-02  0.9436372E-01
       -2   -1    0    0    0  501  0.00000000000E+00  0.00000000000E+00  0.85517953850E+03  0.85517953850E+03  0.25500000920E-02 0. -1.
        2   -1    0    0  501    0  0.00000000000E+00  0.00000000000E+00 -0.23229866169E+03  0.23229866171E+03  0.25500000920E-02 0.  1.
    10030    2    1    2    0    0  0.00000000000E+00  0.00000000000E+00  0.62288087681E+03  0.10874782002E+04  0.89141923316E+03 0.  0.
        2    1    3    3  502    0 -0.46587774433E+01 -0.29705256967E+03 -0.93894010205E+02  0.31157345605E+03  0.25500000920E-02 0.  1.
       -2    1    3    3    0  502  0.46587774433E+01  0.29705256967E+03  0.71677488701E+03  0.77590474416E+03  0.25500000920E-02 0. -1.
</event>
<event>
 5   0  0.6863405E-03  0.8976574E+03  0.7818609E-02  0.9428514E-01
        2   -1    0    0  501    0  0.00000000000E+00  0.00000000000E+00  0.69678850048E+03  0.69678850049E+03  0.25500000920E-02 0. -1.
       -2   -1    0    0    0  501  0.00000000000E+00  0.00000000000E+00 -0.28910813172E+03  0.28910813173E+03  0.25500000920E-02 0.  1.
    10030    2    1    2    0    0  0.00000000000E+00  0.00000000000E+00  0.40768036876E+03  0.98589663222E+03  0.89765744377E+03 0.  0.
        1    1    3    3  502    0 -0.22034972331E+03 -0.19331502939E+03  0.57713681866E+03  0.64731106018E+03  0.50400001928E-02 0. -1.
       -1    1    3    3    0  502  0.22034972331E+03  0.19331502939E+03 -0.16945644990E+03  0.33858557204E+03  0.50400001928E-02 0.  1.
</event>
<event>
 5   0  0.3969536E-03  0.8964229E+03  0.7818609E-02  0.9430064E-01
       -1   -1    0    0    0  501  0.00000000000E+00  0.00000000000E+00  0.52955482158E+03  0.52955482160E+03  0.50400001928E-02 0.  1.
        1   -1    0    0  501    0  0.00000000000E+00  0.00000000000E+00 -0.37936302492E+03  0.37936302496E+03  0.50400001928E-02 0. -1.
    10030    2    1    2    0    0  0.00000000000E+00  0.00000000000E+00  0.15019179666E+03  0.90891784656E+03  0.89642293367E+03 0.  0.
        1    1    3    3  502    0  0.17700059388E+03  0.15598352581E+02 -0.34212599025E+03  0.38551616317E+03  0.50400001928E-02 0. -1.
       -1    1    3    3    0  502 -0.17700059388E+03 -0.15598352581E+02  0.49231778691E+03  0.52340168338E+03  0.50400001928E-02 0.  1.
</event>
<event>
 5   0  0.6534628E-03  0.8989068E+03  0.7818609E-02  0.9426949E-01
       -2   -1    0    0    0  501  0.00000000000E+00  0.00000000000E+00  0.20083463511E+03  0.20083463513E+03  0.25500000920E-02 0. -1.
        2   -1    0    0  501    0  0.00000000000E+00  0.00000000000E+00 -0.10058441238E+04  0.10058441238E+04  0.25500000920E-02 0.  1.
    10030    2    1    2    0    0  0.00000000000E+00  0.00000000000E+00 -0.80500948869E+03  0.12066787589E+04  0.89890675289E+03 0.  0.
        4    1    3    3  502    0 -0.43299150961E+03 -0.11416353202E+03 -0.35065731016E+03  0.56875049143E+03  0.12699999809E+01 0. -1.
       -4    1    3    3    0  502  0.43299150961E+03  0.11416353202E+03 -0.45435217853E+03  0.63792826750E+03  0.12699999809E+01 0.  1.
</event>
<event>
 5   0  0.6534628E-03  0.9289268E+03  0.7818609E-02  0.9390127E-01
       -2   -1    0    0    0  501  0.00000000000E+00  0.00000000000E+00  0.23428430564E+03  0.23428430565E+03  0.25500000920E-02 0. -1.
        2   -1    0    0  501    0  0.00000000000E+00  0.00000000000E+00 -0.92078821466E+03  0.92078821467E+03  0.25500000920E-02 0.  1.
    10030    2    1    2    0    0  0.00000000000E+00  0.00000000000E+00 -0.68650390903E+03  0.11550725203E+04  0.92892675173E+03 0.  0.
        4    1    3    3  502    0  0.26890023116E+03 -0.11626090332E+03 -0.79141237455E+03  0.84389518985E+03  0.12699999809E+01 0.  1.
       -4    1    3    3    0  502 -0.26890023116E+03  0.11626090332E+03  0.10490846552E+03  0.31117733047E+03  0.12699999809E+01 0. -1.
</event>
<event>
 5   0  0.6724773E-03  0.9044269E+03  0.7818609E-02  0.9420064E-01
       -2   -1    0    0    0  501  0.00000000000E+00  0.00000000000E+00  0.79470667731E+03  0.79470667731E+03  0.25500000920E-02 0. -1.
        2   -1    0    0  501    0  0.00000000000E+00  0.00000000000E+00 -0.25732385980E+03  0.25732385981E+03  0.25500000920E-02 0.  1.
    10030    2    1    2    0    0  0.00000000000E+00  0.00000000000E+00  0.53738281751E+03  0.10520305371E+04  0.90442686741E+03 0.  0.
        5    1    3    3  502    0 -0.13753695574E+03 -0.10801312352E+03 -0.21636724362E+03  0.27824471812E+03  0.46999998093E+01 0.  1.
       -5    1    3    3    0  502  0.13753695574E+03  0.10801312352E+03  0.75375006113E+03  0.77378581901E+03  0.46999998093E+01 0. -1.
</event>
<event>
 5   0  0.3998066E-03  0.9237509E+03  0.7818609E-02  0.9396369E-01
        1   -1    0    0  501    0  0.00000000000E+00  0.00000000000E+00  0.16768888287E+04  0.16768888287E+04  0.50400001928E-02 0.  1.
       -1   -1    0    0    0  501  0.00000000000E+00  0.00000000000E+00 -0.12721709224E+03  0.12721709234E+03  0.50400001928E-02 0. -1.
    10030    2    1    2    0    0  0.00000000000E+00  0.00000000000E+00  0.15496717364E+04  0.18041059210E+04  0.92375087744E+03 0.  0.
        4    1    3    3  502    0  0.73397698689E+02 -0.36493259683E+03  0.13088518589E+04  0.13607563426E+04  0.12699999809E+01 0.  1.
       -4    1    3    3    0  502 -0.73397698689E+02  0.36493259683E+03  0.24081987754E+03  0.44334957846E+03  0.12699999809E+01 0. -1.
</event>
<event>
 5   0  0.3927993E-03  0.8629378E+03  0.7818609E-02  0.9473135E-01
       -1   -1    0    0    0  501  0.00000000000E+00  0.00000000000E+00  0.10518587393E+03  0.10518587405E+03  0.50400001928E-02 0. -1.
        1   -1    0    0  501    0  0.00000000000E+00  0.00000000000E+00 -0.17698706768E+04  0.17698706768E+04  0.50400001928E-02 0.  1.
    10030    2    1    2    0    0  0.00000000000E+00  0.00000000000E+00 -0.16646848029E+04  0.18750565509E+04  0.86293775907E+03 0.  0.
        2    1    3    3  502    0 -0.24292270847E+03  0.28176824139E+03 -0.35747776378E+03  0.51594101965E+03  0.25500000920E-02 0. -1.
       -2    1    3    3    0  502  0.24292270847E+03 -0.28176824139E+03 -0.13072070391E+04  0.13591155312E+04  0.25500000920E-02 0.  1.
</event>
<event>
 5   0  0.6524705E-03  0.8969655E+03  0.7818609E-02  0.9429383E-01
        2   -1    0    0  501    0  0.00000000000E+00  0.00000000000E+00  0.10208743605E+04  0.10208743605E+04  0.25500000920E-02 0.  1.
       -2   -1    0    0    0  501  0.00000000000E+00  0.00000000000E+00 -0.19702403943E+03  0.19702403944E+03  0.25500000920E-02 0. -1.
    10030    2    1    2    0    0  0.00000000000E+00  0.00000000000E+00  0.82385032108E+03  0.12178984000E+04  0.89696552947E+03 0.  0.
        3    1    3    3  502    0 -0.14958309470E+03  0.87623328837E+02  0.97354157010E+03  0.98885597985E+03  0.10100000352E+00 0.  1.
       -3    1    3    3    0  502  0.14958309470E+03 -0.87623328837E+02 -0.14969124901E+03  0.22904242011E+03  0.10100000352E+00 0. -1.
</event>
<event>
 5   0  0.6534628E-03  0.8983385E+03  0.7818609E-02  0.9427661E-01
       -2   -1    0    0    0  501  0.00000000000E+00  0.00000000000E+00  0.20157836732E+03  0.20157836733E+03  0.25500000920E-02 0.  1.
        2   -1    0    0  501    0  0.00000000000E+00  0.00000000000E+00 -0.10008664600E+04  0.10008664600E+04  0.25500000920E-02 0. -1.
    10030    2    1    2    0    0  0.00000000000E+00  0.00000000000E+00 -0.79928809266E+03  0.12024448273E+04  0.89833852621E+03 0.  0.
        4    1    3    3  502    0  0.41217663667E+03 -0.87612204604E+02 -0.19147958784E+03  0.46285151364E+03  0.12699999809E+01 0.  1.
       -4    1    3    3    0  502 -0.41217663667E+03  0.87612204604E+02 -0.60780850482E+03  0.73959331368E+03  0.12699999809E+01 0. -1.
</event>
<event>
 5   0  0.6534628E-03  0.8897548E+03  0.7818609E-02  0.9438480E-01
       -2   -1    0    0    0  501  0.00000000000E+00  0.00000000000E+00  0.21080727720E+03  0.21080727722E+03  0.25500000920E-02 0. -1.
        2   -1    0    0  501    0  0.00000000000E+00  0.00000000000E+00 -0.93884748548E+03  0.93884748549E+03  0.25500000920E-02 0.  1.
    10030    2    1    2    0    0  0.00000000000E+00  0.00000000000E+00 -0.72804020828E+03  0.11496547627E+04  0.88975475753E+03 0.  0.
        4    1    3    3  502    0 -0.29444546811E+03  0.32540833754E+03 -0.45831307799E+03  0.63454015648E+03  0.12699999809E+01 0.  1.
       -4    1    3    3    0  502  0.29444546811E+03 -0.32540833754E+03 -0.26972713029E+03  0.51511460623E+03  0.12699999809E+01 0. -1.
</event>
<event>
 5   0  0.3943549E-03  0.9019824E+03  0.7818609E-02  0.9423107E-01
       -1   -1    0    0    0  501  0.00000000000E+00  0.00000000000E+00  0.30994990771E+03  0.30994990775E+03  0.50400001928E-02 0. -1.
        1   -1    0    0  501    0  0.00000000000E+00  0.00000000000E+00 -0.65621261716E+03  0.65621261718E+03  0.50400001928E-02 0.  1.
    10030    2    1    2    0    0  0.00000000000E+00  0.00000000000E+00 -0.34626270945E+03  0.96616252493E+03  0.90198235050E+03 0.  0.
        3    1    3    3  502    0  0.94232843275E+02  0.23858729311E+03  0.22419235961E+03  0.34068453075E+03  0.10100000352E+00 0. -1.
       -3    1    3    3    0  502 -0.94232843275E+02 -0.23858729311E+03 -0.57045506905E+03  0.62547799417E+03  0.10100000352E+00 0.  1.
</event>
<event>
 5   0  0.3969536E-03  0.8989127E+03  0.7818609E-02  0.9426942E-01
        1   -1    0    0  501    0  0.00000000000E+00  0.00000000000E+00  0.14638041467E+04  0.14638041467E+04  0.50400001928E-02 0.  1.
       -1   -1    0    0    0  501  0.00000000000E+00  0.00000000000E+00 -0.13800413554E+03  0.13800413564E+03  0.50400001928E-02 0. -1.
    10030    2    1    2    0    0  0.00000000000E+00  0.00000000000E+00  0.13258000111E+04  0.16018082823E+04  0.89891273425E+03 0.  0.
        1    1    3    3  502    0 -0.68074323319E+02  0.23057210142E+03 -0.13799466861E+02  0.24080704466E+03  0.50400001928E-02 0. -1.
       -1    1    3    3    0  502  0.68074323319E+02 -0.23057210142E+03  0.13395994780E+04  0.13610012377E+04  0.50400001928E-02 0.  1.
</event>
<event>
 5   0  0.3927993E-03  0.9087858E+03  0.7818609E-02  0.9414665E-01
       -1   -1    0    0    0  501  0.00000000000E+00  0.00000000000E+00  0.49107002498E+03  0.49107002500E+03  0.50400001928E-02 0. -1.
        1   -1    0    0  501    0  0.00000000000E+00  0.00000000000E+00 -0.42045511546E+03  0.42045511549E+03  0.50400001928E-02 0.  1.
    10030    2    1    2    0    0  0.00000000000E+00  0.00000000000E+00  0.70614909517E+02  0.91152514050E+03  0.90878579231E+03 0.  0.
        2    1    3    3  502    0 -0.54830581922E+02  0.29720318325E+03 -0.30503345920E+03  0.42939671178E+03  0.25500000920E-02 0.  1.
       -2    1    3    3    0  502  0.54830581922E+02 -0.29720318325E+03  0.37564836872E+03  0.48212842872E+03  0.25500000920E-02 0. -1.
</event>
<event>
 5   0  0.6863405E-03  0.8980374E+03  0.7818609E-02  0.9428038E-01
        2   -1    0    0  501    0  0.00000000000E+00  0.00000000000E+00  0.10533334401E+04  0.10533334401E+04  0.25500000920E-02 0.  1.
       -2   -1    0    0    0  501  0.00000000000E+00  0.00000000000E+00 -0.19140925664E+03  0.19140925665E+03  0.25500000920E-02 0. -1.
    10030    2    1    2    0    0  0.00000000000E+00  0.00000000000E+00  0.86192418344E+03  0.12447426967E+04  0.89803735060E+03 0.  0.
        1    1    3    3  502    0  0.11114434256E+03  0.12435899043E+03  0.10088046271E+04  0.10224993883E+04  0.50400001928E-02 0.  1.
       -1    1    3    3    0  502 -0.11114434256E+03 -0.12435899043E+03 -0.14688044367E+03  0.22224330843E+03  0.50400001928E-02 0. -1.
</event>
<event>
 5   0  0.6534628E-03  0.8910901E+03  0.7818609E-02  0.9436788E-01
       -2   -1    0    0    0  501  0.00000000000E+00  0.00000000000E+00  0.16947560846E+03  0.16947560848E+03  0.25500000920E-02 0. -1.
        2   -1    0    0  501    0  0.00000000000E+00  0.00000000000E+00 -0.11713212093E+04  0.11713212093E+04  0.25500000920E-02 0.  1.
    10030    2    1    2    0    0  0.00000000000E+00  0.00000000000E+00 -0.10018456009E+04  0.13407968178E+04  0.89109006205E+03 0.  0.
        4    1    3    3  502    0  0.83245652309E+02  0.20826318796E+03 -0.10801825297E+04  0.11032222371E+04  0.12699999809E+01 0.  1.
       -4    1    3    3    0  502 -0.83245652309E+02 -0.20826318796E+03  0.78336928817E+02  0.23757458072E+03  0.12699999809E+01 0. -1.
</event>
<event>
 5   0  0.3794006E-03  0.8964960E+03  0.7818609E-02  0.9429972E-01
       -1   -1    0    0    0  501  0.00000000000E+00  0.00000000000E+00  0.36259793414E+03  0.36259793418E+03  0.50400001928E-02 0.  1.
        1   -1    0    0  501    0  0.00000000000E+00  0.00000000000E+00 -0.55412959975E+03  0.55412959977E+03  0.50400001928E-02 0. -1.
    10030    2    1    2    0    0  0.00000000000E+00  0.00000000000E+00 -0.19153166561E+03  0.91672753395E+03  0.89649595235E+03 0.  0.
        5    1    3    3  502    0  0.24538607379E+03 -0.19607514942E+03  0.23120697854E+03  0.39004941528E+03  0.46999998093E+01 0. -1.
       -5    1    3    3    0  502 -0.24538607379E+03  0.19607514942E+03 -0.42273864415E+03  0.52667811867E+03  0.46999998093E+01 0.  1.
</event>
<event>
 5   0  0.6863405E-03  0.9085421E+03  0.7818609E-02  0.9414966E-01
        2   -1    0    0  501    0  0.00000000000E+00  0.00000000000E+00  0.19133626836E+04  0.19133626836E+04  0.25500000920E-02 0.  1.
       -2   -1    0    0    0  501  0.00000000000E+00  0.00000000000E+00 -0.10785314188E+03  0.10785314191E+03  0.25500000920E-02 0. -1.
    10030    2    1    2    0    0  0.00000000000E+00  0.00000000000E+00  0.18055095417E+04  0.20212158255E+04  0.90854207833E+03 0.  0.
        1    1    3    3  502    0  0.10065966113E+03  0.14899152286E+03 -0.25316589088E+02  0.18158130678E+03  0.50400001928E-02 0. -1.
       -1    1    3    3    0  502 -0.10065966113E+03 -0.14899152286E+03  0.18308261308E+04  0.18396345188E+04  0.50400001928E-02 0.  1.
</event>
<event>
 5   0  0.3943549E-03  0.8956533E+03  0.7818609E-02  0.9431031E-01
        1   -1    0    0  501    0  0.00000000000E+00  0.00000000000E+00  0.10392680375E+04  0.10392680375E+04  0.50400001928E-02 0.  1.
       -1   -1    0    0    0  501  0.00000000000E+00  0.00000000000E+00 -0.19297110801E+03  0.19297110808E+03  0.50400001928E-02 0. -1.
    10030    2    1    2    0    0  0.00000000000E+00  0.00000000000E+00  0.84629692945E+03  0.12322391455E+04  0.89565329176E+03 0.  0.
        3    1    3    3  502    0 -0.27943900893E+03 -0.60350785411E+02 -0.51093989238E+02  0.29041174727E+03  0.10100000352E+00 0. -1.
       -3    1    3    3    0  502  0.27943900893E+03  0.60350785411E+02  0.89739091868E+03  0.94182739828E+03  0.10100000352E+00 0.  1.
</event>
<event>
 5   0  0.2560250E-03  0.8986994E+03  0.7818609E-02  0.9427209E-01
        3   -1    0    0  501    0  0.00000000000E+00  0.00000000000E+00  0.11981198824E+04  0.11981198867E+04  0.10100000352E+00 0. -1.
       -3   -1    0    0    0  501  0.00000000000E+00  0.00000000000E+00 -0.16852664729E+03  0.16852667755E+03  0.10100000352E+00 0.  1.
    10030    2    1    2    0    0  0.00000000000E+00  0.00000000000E+00  0.10295932351E+04  0.13666465642E+04  0.89869939450E+03 0.  0.
        2    1    3    3  502    0  0.10222908610E+03  0.15727103933E+03 -0.10614229997E+03  0.21552529714E+03  0.25500000920E-02 0.  1.
       -2    1    3    3    0  502 -0.10222908610E+03 -0.15727103933E+03  0.11357355351E+04  0.11511212671E+04  0.25500000920E-02 0. -1.
</event>
<event>
 5   0  0.3794006E-03  0.9011157E+03  0.7818609E-02  0.9424188E-01
        1   -1    0    0  501    0  0.00000000000E+00  0.00000000000E+00  0.85958759587E+03  0.85958759588E+03  0.50400001928E-02 0. -1.
       -1   -1    0    0    0  501  0.00000000000E+00  0.00000000000E+00 -0.23616250340E+03  0.23616250345E+03  0.50400001928E-02 0.  1.
    10030    2    1    2    0    0  0.00000000000E+00  0.00000000000E+00  0.62342509247E+03  0.10957500993E+04  0.90111566087E+03 0.  0.
        5    1    3    3  502    0  0.13986072304E+03 -0.11795014403E+03  0.81235170159E+03  0.83271281688E+03  0.46999998093E+01 0. -1.
       -5    1    3    3    0  502 -0.13986072304E+03  0.11795014403E+03 -0.18892660912E+03  0.26303728245E+03  0.46999998093E+01 0.  1.
</event>
<event>
 5   0  0.2560250E-03  0.9074096E+03  0.7818609E-02  0.9416366E-01
       -4   -1    0    0    0  501  0.00000000000E+00  0.00000000000E+00  0.58901238856E+03  0.58901375771E+03  0.12699999809E+01 0. -1.
        4   -1    0    0  501    0  0.00000000000E+00  0.00000000000E+00 -0.34947705202E+03  0.34947935961E+03  0.12699999809E+01 0.  1.
    10030    2    1    2    0    0  0.00000000000E+00  0.00000000000E+00  0.23953533653E+03  0.93849311732E+03  0.90740958437E+03 0.  0.
        4    1    3    3  502    0 -0.69615191427E+02 -0.81177774767E+02 -0.33625600332E+03  0.35285382053E+03  0.12699999809E+01 0.  1.
       -4    1    3    3    0  502  0.69615191427E+02  0.81177774767E+02  0.57579133985E+03  0.58563929679E+03  0.12699999809E+01 0. -1.
</event>
<event>
 5   0  0.6724773E-03  0.8954773E+03  0.7818609E-02  0.9431253E-01
       -2   -1    0    0    0  501  0.00000000000E+00  0.00000000000E+00  0.14746748932E+03  0.14746748935E+03  0.25500000920E-02 0.  1.
        2   -1    0    0  501    0  0.00000000000E+00  0.00000000000E+00 -0.13594177299E+04  0.13594177299E+04  0.25500000920E-02 0. -1.
    10030    2    1    2    0    0  0.00000000000E+00  0.00000000000E+00 -0.12119502406E+04  0.15068852193E+04  0.89547734665E+03 0.  0.
        5    1    3    3  502    0  0.38609556257E+03  0.14374648761E+03 -0.31105745797E+03  0.51624768115E+03  0.46999998093E+01 0.  1.
       -5    1    3    3    0  502 -0.38609556257E+03 -0.14374648761E+03 -0.90089278263E+03  0.99063753811E+03  0.46999998093E+01 0. -1.
</event>
<event>
 5   0  0.6534628E-03  0.8936338E+03  0.7818609E-02  0.9433575E-01
       -2   -1    0    0    0  501  0.00000000000E+00  0.00000000000E+00  0.68669586804E+02  0.68669586852E+02  0.25500000920E-02 0. -1.
        2   -1    0    0  501    0  0.00000000000E+00  0.00000000000E+00 -0.29073326930E+04  0.29073326930E+04  0.25500000920E-02 0.  1.
    10030    2    1    2    0    0  0.00000000000E+00  0.00000000000E+00 -0.28386631061E+04  0.29760022798E+04  0.89363378360E+03 0.  0.
        4    1    3    3  502    0 -0.61979931058E+01 -0.24653776768E+03 -0.26601454231E+04  0.26715528389E+04  0.12699999809E+01 0. -1.
       -4    1    3    3    0  502  0.61979931058E+01  0.24653776768E+03 -0.17851768302E+03  0.30444944089E+03  0.12699999809E+01 0.  1.
</event>
<event>
 5   0  0.3969536E-03  0.8962636E+03  0.7818609E-02  0.9430264E-01
       -1   -1    0    0    0  501  0.00000000000E+00  0.00000000000E+00  0.13741631509E+03  0.13741631518E+03  0.50400001928E-02 0. -1.
        1   -1    0    0  501    0  0.00000000000E+00  0.00000000000E+00 -0.14614138200E+04  0.14614138200E+04  0.50400001928E-02 0.  1.
    10030    2    1    2    0    0  0.00000000000E+00  0.00000000000E+00 -0.13239975049E+04  0.15988301352E+04  0.89626358186E+03 0.  0.
        1    1    3    3  502    0 -0.47889710135E+01 -0.70101431483E+02 -0.14515259921E+04  0.14532256709E+04  0.50400001928E-02 0.  1.
       -1    1    3    3    0  502  0.47889710135E+01  0.70101431483E+02  0.12752848719E+03  0.14560446425E+03  0.50400001928E-02 0. -1.
</event>
<event>
 5   0  0.6724773E-03  0.9004652E+03  0.7818609E-02  0.9425000E-01
        2   -1    0    0  501    0  0.00000000000E+00  0.00000000000E+00  0.67519321989E+03  0.67519321990E+03  0.25500000920E-02 0.  1.
       -2   -1    0    0    0  501  0.00000000000E+00  0.00000000000E+00 -0.30022429411E+03  0.30022429412E+03  0.25500000920E-02 0. -1.
    10030    2    1    2    0    0  0.00000000000E+00  0.00000000000E+00  0.37496892578E+03  0.97541751402E+03  0.90046523051E+03 0.  0.
        5    1    3    3  502    0  0.81223966488E+02  0.38039997196E+03  0.43303752738E+03  0.58210399545E+03  0.46999998093E+01 0.  1.
       -5    1    3    3    0  502 -0.81223966488E+02 -0.38039997196E+03 -0.58068601605E+02  0.39331351857E+03  0.46999998093E+01 0. -1.
</event>
<event>
 5   0  0.3794006E-03  0.8995471E+03  0.7818609E-02  0.9426148E-01
        1   -1    0    0  501    0  0.00000000000E+00  0.00000000000E+00  0.34982519588E+03  0.34982519592E+03  0.50400001928E-02 0. -1.
       -1   -1    0    0    0  501  0.00000000000E+00  0.00000000000E+00 -0.57827803522E+03  0.57827803525E+03  0.50400001928E-02 0.  1.
    10030    2    1    2    0    0  0.00000000000E+00  0.00000000000E+00 -0.22845283934E+03  0.92810323116E+03  0.89954705707E+03 0.  0.
        5    1    3    3  502    0 -0.12694259419E+03 -0.13225617848E+03 -0.53795598583E+03  0.56835275284E+03  0.46999998093E+01 0.  1.
       -5    1    3    3    0  502  0.12694259419E+03  0.13225617848E+03  0.30950314649E+03  0.35975047832E+03  0.46999998093E+01 0. -1.
</event>
<event>
 5   0  0.6524705E-03  0.8864736E+03  0.7818609E-02  0.9442650E-01
       -2   -1    0    0    0  501  0.00000000000E+00  0.00000000000E+00  0.49551635022E+03  0.49551635023E+03  0.25500000920E-02 0. -1.
        2   -1    0    0  501    0  0.00000000000E+00  0.00000000000E+00 -0.39647298034E+03  0.39647298035E+03  0.25500000920E-02 0.  1.
    10030    2    1    2    0    0  0.00000000000E+00  0.00000000000E+00  0.99043369880E+02  0.89198933057E+03  0.88647356235E+03 0.  0.
        3    1    3    3  502    0  0.26826046632E+03  0.24212081089E+03 -0.20873198526E+03  0.41731908263E+03  0.10100000352E+00 0.  1.
       -3    1    3    3    0  502 -0.26826046632E+03 -0.24212081089E+03  0.30777535514E+03  0.47467024795E+03  0.10100000352E+00 0. -1.
</event>
<event>
 5   0  0.6724773E-03  0.9046830E+03  0.7818609E-02  0.9419746E-01
       -2   -1    0    0    0  501  0.00000000000E+00  0.00000000000E+00  0.40933994323E+03  0.40933994323E+03  0.25500000920E-02 0.  1.
        2   -1    0    0  501    0  0.00000000000E+00  0.00000000000E+00 -0.49986040855E+03  0.49986040855E+03  0.25500000920E-02 0. -1.
    10030    2    1    2    0    0  0.00000000000E+00  0.00000000000E+00 -0.90520465321E+02  0.90920035179E+03  0.90468299699E+03 0.  0.
        5    1    3    3  502    0 -0.40697830038E+03 -0.27893401559E+02 -0.24163644432E+03  0.47415149483E+03  0.46999998093E+01 0. -1.
       -5    1    3    3    0  502  0.40697830038E+03  0.27893401559E+02  0.15111597900E+03  0.43504885695E+03  0.46999998093E+01 0.  1.
</event>
<event>
 5   0  0.3998066E-03  0.9036592E+03  0.7818609E-02  0.9421019E-01
        1   -1    0    0  501    0  0.00000000000E+00  0.00000000000E+00  0.17135219351E+04  0.17135219351E+04  0.50400001928E-02 0. -1.
       -1   -1    0    0    0  501  0.00000000000E+00  0.00000000000E+00 -0.11914058332E+03  0.11914058343E+03  0.50400001928E-02 0.  1.
    10030    2    1    2    0    0  0.00000000000E+00  0.00000000000E+00  0.15943813517E+04  0.18326625185E+04  0.90365923442E+03 0.  0.
        4    1    3    3  502    0 -0.50392638913E+02  0.44060610679E+03  0.62184699998E+03  0.76378561369E+03  0.12699999809E+01 0.  1.
       -4    1    3    3    0  502  0.50392638913E+02 -0.44060610679E+03  0.97253435176E+03  0.10688769048E+04  0.12699999809E+01 0. -1.
</event>
<event>
 5   0  0.6524705E-03  0.9062640E+03  0.7818609E-02  0.9417785E-01
        2   -1    0    0  501    0  0.00000000000E+00  0.00000000000E+00  0.90315455928E+03  0.90315455928E+03  0.25500000920E-02 0. -1.
       -2   -1    0    0    0  501  0.00000000000E+00  0.00000000000E+00 -0.22734605070E+03  0.22734605072E+03  0.25500000920E-02 0.  1.
    10030    2    1    2    0    0  0.00000000000E+00  0.00000000000E+00  0.67580850858E+03  0.11305006100E+04  0.90626402828E+03 0.  0.
        3    1    3    3  502    0  0.88185895392E+02  0.28721945600E+03  0.76103276306E+03  0.81819474742E+03  0.10100000352E+00 0. -1.
       -3    1    3    3    0  502 -0.88185895392E+02 -0.28721945600E+03 -0.85224254480E+02  0.31230586259E+03  0.10100000352E+00 0.  1.
</event>
<event>
 5   0  0.6609191E-03  0.9030182E+03  0.7818609E-02  0.9421816E-01
       -2   -1    0    0    0  501  0.00000000000E+00  0.00000000000E+00  0.87424003841E+02  0.87424003878E+02  0.25500000920E-02 0.  1.
        2   -1    0    0  501    0  0.00000000000E+00  0.00000000000E+00 -0.23318592945E+04  0.23318592945E+04  0.25500000920E-02 0. -1.
    10030    2    1    2    0    0  0.00000000000E+00  0.00000000000E+00 -0.22444352907E+04  0.24192832984E+04  0.90301821901E+03 0.  0.
        2    1    3    3  502    0 -0.13204457702E+03 -0.28993223475E+03 -0.19793814999E+04  0.20048560031E+04  0.25500000920E-02 0. -1.
       -2    1    3    3    0  502  0.13204457702E+03  0.28993223475E+03 -0.26505379079E+03  0.41442729529E+03  0.25500000920E-02 0.  1.
</event>
<event>
 5   0  0.6534628E-03  0.8996838E+03  0.7818609E-02  0.9425977E-01
       -2   -1    0    0    0  501  0.00000000000E+00  0.00000000000E+00  0.51187787437E+03  0.51187787438E+03  0.25500000920E-02 0. -1.
        2   -1    0    0  501    0  0.00000000000E+00  0.00000000000E+00 -0.39532425814E+03  0.39532425815E+03  0.25500000920E-02 0.  1.
    10030    2    1    2    0    0  0.00000000000E+00  0.00000000000E+00  0.11655361623E+03  0.90720213253E+03  0.89968381324E+03 0.  0.
        4    1    3    3  502    0 -0.23306298658E+03 -0.21591142644E+03 -0.26284959819E+03  0.41234406016E+03  0.12699999809E+01 0.  1.
       -4    1    3    3    0  502  0.23306298658E+03  0.21591142644E+03  0.37940321441E+03  0.49485807237E+03  0.12699999809E+01 0. -1.
</event>
<event>
 5   0  0.6724773E-03  0.8947357E+03  0.7818609E-02  0.9432186E-01
        2   -1    0    0  501    0  0.00000000000E+00  0.00000000000E+00  0.72460930504E+03  0.72460930505E+03  0.25500000920E-02 0.  1.
       -2   -1    0    0    0  501  0.00000000000E+00  0.00000000000E+00 -0.27620125930E+03  0.27620125931E+03  0.25500000920E-02 0. -1.
    10030    2    1    2    0    0  0.00000000000E+00  0.00000000000E+00  0.44840804574E+03  0.10008105644E+04  0.89473572090E+03 0.  0.
        5    1    3    3  502    0  0.22122419619E+03 -0.37703008662E+03  0.33046128125E+03  0.54801330239E+03  0.46999998093E+01 0.  1.
       -5    1    3    3    0  502 -0.22122419619E+03  0.37703008662E+03  0.11794676449E+03  0.45279726197E+03  0.46999998093E+01 0. -1.
</event>
<event>
 5   0  0.6863405E-03  0.8714047E+03  0.7818609E-02  0.9462050E-01
        2   -1    0    0  501    0  0.00000000000E+00  0.00000000000E+00  0.11180553419E+04  0.11180553419E+04  0.25500000920E-02 0. -1.
       -2   -1    0    0    0  501  0.00000000000E+00  0.00000000000E+00 -0.16979172584E+03  0.16979172586E+03  0.25500000920E-02 0.  1.
    10030    2    1    2    0    0  0.00000000000E+00  0.00000000000E+00  0.94826361605E+03  0.12878470678E+04  0.87140471906E+03 0.  0.
        1    1    3    3  502    0 -0.41596292224E+03  0.11102932970E+03  0.37516912945E+03  0.57105563691E+03  0.50400001928E-02 0.  1.
       -1    1    3    3    0  502  0.41596292224E+03 -0.11102932970E+03  0.57309448660E+03  0.71679143084E+03  0.50400001928E-02 0. -1.
</event>
<event>
 5   0  0.6863405E-03  0.8925165E+03  0.7818609E-02  0.9434985E-01
        2   -1    0    0  501    0  0.00000000000E+00  0.00000000000E+00  0.78306719067E+03  0.78306719068E+03  0.25500000920E-02 0. -1.
       -2   -1    0    0    0  501  0.00000000000E+00  0.00000000000E+00 -0.25431586410E+03  0.25431586412E+03  0.25500000920E-02 0.  1.
    10030    2    1    2    0    0  0.00000000000E+00  0.00000000000E+00  0.52875132657E+03  0.10373830548E+04  0.89251646317E+03 0.  0.
        1    1    3    3  502    0 -0.29965328584E+03  0.54616008513E+02  0.64345958965E+03  0.71190957547E+03  0.50400001928E-02 0. -1.
       -1    1    3    3    0  502  0.29965328584E+03 -0.54616008513E+02 -0.11470826309E+03  0.32547347933E+03  0.50400001928E-02 0.  1.
</event>
<event>
 5   0  0.3969536E-03  0.8971867E+03  0.7818609E-02  0.9429105E-01
       -1   -1    0    0    0  501  0.00000000000E+00  0.00000000000E+00  0.11785402457E+03  0.11785402468E+03  0.50400001928E-02 0. -1.
        1   -1    0    0  501    0  0.00000000000E+00  0.00000000000E+00 -0.17075022116E+04  0.17075022116E+04  0.50400001928E-02 0.  1.
    10030    2    1    2    0    0  0.00000000000E+00  0.00000000000E+00 -0.15896481870E+04  0.18253562363E+04  0.89718673132E+03 0.  0.
        1    1    3    3  502    0 -0.59560401007E+02 -0.18901774245E+02 -0.16986041810E+04  0.16997531827E+04  0.50400001928E-02 0.  1.
       -1    1    3    3    0  502  0.59560401007E+02  0.18901774245E+02  0.10895599393E+03  0.12560305361E+03  0.50400001928E-02 0. -1.
</event>
<event>
 5   0  0.3927993E-03  0.9016253E+03  0.7818609E-02  0.9423552E-01
        1   -1    0    0  501    0  0.00000000000E+00  0.00000000000E+00  0.63417730097E+03  0.63417730099E+03  0.50400001928E-02 0. -1.
       -1   -1    0    0    0  501  0.00000000000E+00  0.00000000000E+00 -0.32046564950E+03  0.32046564954E+03  0.50400001928E-02 0.  1.
    10030    2    1    2    0    0  0.00000000000E+00  0.00000000000E+00  0.31371165147E+03  0.95464295053E+03  0.90162528953E+03 0.  0.
        2    1    3    3  502    0  0.22660112326E+03  0.35548950759E+03  0.32597006347E+03  0.53289524426E+03  0.25500000920E-02 0.  1.
       -2    1    3    3    0  502 -0.22660112326E+03 -0.35548950759E+03 -0.12258412000E+02  0.42174770627E+03  0.25500000920E-02 0. -1.
</event>
<event>
 5   0  0.6863405E-03  0.9011448E+03  0.7818609E-02  0.9424151E-01
        2   -1    0    0  501    0  0.00000000000E+00  0.00000000000E+00  0.59394080687E+03  0.59394080687E+03  0.25500000920E-02 0. -1.
       -2   -1    0    0    0  501  0.00000000000E+00  0.00000000000E+00 -0.34181100785E+03  0.34181100786E+03  0.25500000920E-02 0.  1.
    10030    2    1    2    0    0  0.00000000000E+00  0.00000000000E+00  0.25212979902E+03  0.93575181473E+03  0.90114484031E+03 0.  0.
        1    1    3    3  502    0  0.79879175135E+02  0.14569478026E+03 -0.30883628995E+03  0.35069574510E+03  0.50400001928E-02 0.  1.
       -1    1    3    3    0  502 -0.79879175135E+02 -0.14569478026E+03  0.56096608897E+03  0.58505606963E+03  0.50400001928E-02 0. -1.
</event>
<event>
 5   0  0.3794006E-03  0.8820116E+03  0.7818609E-02  0.9448351E-01
       -1   -1    0    0    0  501  0.00000000000E+00  0.00000000000E+00  0.31138913293E+03  0.31138913297E+03  0.50400001928E-02 0. -1.
        1   -1    0    0  501    0  0.00000000000E+00  0.00000000000E+00 -0.62457579985E+03  0.62457579987E+03  0.50400001928E-02 0.  1.
    10030    2    1    2    0    0  0.00000000000E+00  0.00000000000E+00 -0.31318666692E+03  0.93596493283E+03  0.88201160262E+03 0.  0.
        5    1    3    3  502    0 -0.55950836647E+02  0.87955426009E+02  0.29809992135E+03  0.31583588491E+03  0.46999998093E+01 0. -1.
       -5    1    3    3    0  502  0.55950836647E+02 -0.87955426009E+02 -0.61128658827E+03  0.62012904793E+03  0.46999998093E+01 0.  1.
</event>
<event>
 5   0  0.6724773E-03  0.9266589E+03  0.7818609E-02  0.9392857E-01
       -2   -1    0    0    0  501  0.00000000000E+00  0.00000000000E+00  0.23566447482E+03  0.23566447483E+03  0.25500000920E-02 0.  1.
        2   -1    0    0  501    0  0.00000000000E+00  0.00000000000E+00 -0.91093140556E+03  0.91093140556E+03  0.25500000920E-02 0. -1.
    10030    2    1    2    0    0  0.00000000000E+00  0.00000000000E+00 -0.67526693074E+03  0.11465958804E+04  0.92665888286E+03 0.  0.
        5    1    3    3  502    0 -0.39432592279E+03  0.11341122370E+03 -0.60386966606E+03  0.73009294109E+03  0.46999998093E+01 0. -1.
       -5    1    3    3    0  502  0.39432592279E+03 -0.11341122370E+03 -0.71397264673E+02  0.41650293930E+03  0.46999998093E+01 0.  1.
</event>
<event>
 5   0  0.3943549E-03  0.9011452E+03  0.7818609E-02  0.9424151E-01
       -1   -1    0    0    0  501  0.00000000000E+00  0.00000000000E+00  0.19101373675E+03  0.19101373682E+03  0.50400001928E-02 0.  1.
        1   -1    0    0  501    0  0.00000000000E+00  0.00000000000E+00 -0.10628329034E+04  0.10628329035E+04  0.50400001928E-02 0. -1.
    10030    2    1    2    0    0  0.00000000000E+00  0.00000000000E+00 -0.87181916670E+03  0.12538466403E+04  0.90114523686E+03 0.  0.
        3    1    3    3  502    0 -0.14149519099E+02  0.44650158906E+03 -0.51765665645E+03  0.68376333778E+03  0.10100000352E+00 0. -1.
       -3    1    3    3    0  502  0.14149519099E+02 -0.44650158906E+03 -0.35416251025E+03  0.57008330250E+03  0.10100000352E+00 0.  1.
</event>
<event>
 5   0  0.6609191E-03  0.9913281E+03  0.7818609E-02  0.9318107E-01
        2   -1    0    0  501    0  0.00000000000E+00  0.00000000000E+00  0.35647057538E+03  0.35647057539E+03  0.25500000920E-02 0.  1.
       -2   -1    0    0    0  501  0.00000000000E+00  0.00000000000E+00 -0.68920937379E+03  0.68920937380E+03  0.25500000920E-02 0. -1.
    10030    2    1    2    0    0  0.00000000000E+00  0.00000000000E+00 -0.33273879841E+03  0.10456799492E+04  0.99132812336E+03 0.  0.
        2    1    3    3  502    0 -0.28087902516E+03  0.32395505543E+03  0.95947625748E+02  0.43936983466E+03  0.25500000920E-02 0.  1.
       -2    1    3    3    0  502  0.28087902516E+03 -0.32395505543E+03 -0.42868642416E+03  0.60631011453E+03  0.25500000920E-02 0. -1.
</event>
<event>
 5   0  0.3998066E-03  0.8897478E+03  0.7818609E-02  0.9438489E-01
       -1   -1    0    0    0  501  0.00000000000E+00  0.00000000000E+00  0.20778516303E+03  0.20778516309E+03  0.50400001928E-02 0. -1.
        1   -1    0    0  501    0  0.00000000000E+00  0.00000000000E+00 -0.95248750294E+03  0.95248750295E+03  0.50400001928E-02 0.  1.
    10030    2    1    2    0    0  0.00000000000E+00  0.00000000000E+00 -0.74470233992E+03  0.11602726660E+04  0.88974776453E+03 0.  0.
        4    1    3    3  502    0  0.31344217423E+03  0.15579150426E+02 -0.78353439625E+03  0.84404767017E+03  0.12699999809E+01 0.  1.
       -4    1    3    3    0  502 -0.31344217423E+03 -0.15579150426E+02  0.38832056332E+02  0.31622499587E+03  0.12699999809E+01 0. -1.
</event>
<event>
 5   0  0.3794006E-03  0.8913366E+03  0.7818609E-02  0.9436476E-01
       -1   -1    0    0    0  501  0.00000000000E+00  0.00000000000E+00  0.18945559131E+03  0.18945559138E+03  0.50400001928E-02 0.  1.
        1   -1    0    0  501    0  0.00000000000E+00  0.00000000000E+00 -0.10483735538E+04  0.10483735538E+04  0.50400001928E-02 0. -1.
    10030    2    1    2    0    0  0.00000000000E+00  0.00000000000E+00 -0.85891796247E+03  0.12378291452E+04  0.89133659545E+03 0.  0.
        5    1    3    3  502    0 -0.21851486730E+03  0.21669334136E+02 -0.96799377495E+03  0.99259878380E+03  0.46999998093E+01 0. -1.
       -5    1    3    3    0  502  0.21851486730E+03 -0.21669334136E+02  0.10907581248E+03  0.24523036137E+03  0.46999998093E+01 0.  1.
</event>
<event>
 5   0  0.3969536E-03  0.8870437E+03  0.7818609E-02  0.9441924E-01
        1   -1    0    0  501    0  0.00000000000E+00  0.00000000000E+00  0.57838871196E+03  0.57838871198E+03  0.50400001928E-02 0.  1.
       -1   -1    0    0    0  501  0.00000000000E+00  0.00000000000E+00 -0.34010278100E+03  0.34010278104E+03  0.50400001928E-02 0. -1.
    10030    2    1    2    0    0  0.00000000000E+00  0.00000000000E+00  0.23828593095E+03  0.91849149302E+03  0.88704365048E+03 0.  0.
        1    1    3    3  502    0 -0.15964577715E+03  0.36673600929E+03 -0.79300983334E+02  0.40776306927E+03  0.50400001928E-02 0. -1.
       -1    1    3    3    0  502  0.15964577715E+03 -0.36673600929E+03  0.31758691429E+03  0.51072842375E+03  0.50400001928E-02 0.  1.
</event>
<event>
 5   0  0.3927993E-03  0.9025359E+03  0.7818609E-02  0.9422417E-01
       -1   -1    0    0    0  501  0.00000000000E+00  0.00000000000E+00  0.90934852211E+03  0.90934852212E+03  0.50400001928E-02 0. -1.
        1   -1    0    0  501    0  0.00000000000E+00  0.00000000000E+00 -0.22394357512E+03  0.22394357517E+03  0.50400001928E-02 0.  1.
    10030    2    1    2    0    0  0.00000000000E+00  0.00000000000E+00  0.68540494699E+03  0.11332920973E+04  0.90253589205E+03 0.  0.
        2    1    3    3  502    0 -0.34647878244E+01 -0.36165121917E+03  0.38116469704E+01  0.36168790101E+03  0.25500000920E-02 0.  1.
       -2    1    3    3    0  502  0.34647878244E+01  0.36165121917E+03  0.68159330002E+03  0.77160419628E+03  0.25500000920E-02 0. -1.
</event>
<event>
 5   0  0.6524705E-03  0.8875840E+03  0.7818609E-02  0.9441236E-01
        2   -1    0    0  501    0  0.00000000000E+00  0.00000000000E+00  0.77920057909E+03  0.77920057909E+03  0.25500000920E-02 0.  1.
       -2   -1    0    0    0  501  0.00000000000E+00  0.00000000000E+00 -0.25276078048E+03  0.25276078050E+03  0.25500000920E-02 0. -1.
    10030    2    1    2    0    0  0.00000000000E+00  0.00000000000E+00  0.52643979861E+03  0.10319613596E+04  0.88758401638E+03 0.  0.
        3    1    3    3  502    0 -0.24778126520E+03  0.33921319697E+03  0.96791692363E+02  0.43107979573E+03  0.10100000352E+00 0. -1.
       -3    1    3    3    0  502  0.24778126520E+03 -0.33921319697E+03  0.42964810624E+03  0.60088156385E+03  0.10100000352E+00 0.  1.
</event>
<event>
 5   0  0.6863405E-03  0.8442142E+03  0.7818609E-02  0.9498136E-01
       -2   -1    0    0    0  501  0.00000000000E+00  0.00000000000E+00  0.86933748183E+02  0.86933748220E+02  0.25500000920E-02 0.  1.
        2   -1    0    0  501    0  0.00000000000E+00  0.00000000000E+00 -0.20495422571E+04  0.20495422571E+04  0.25500000920E-02 0. -1.
    10030    2    1    2    0    0  0.00000000000E+00  0.00000000000E+00 -0.19626085089E+04  0.21364760054E+04  0.84421416836E+03 0.  0.
        1    1    3    3  502    0  0.31043628457E+01 -0.41377389668E+03 -0.77023618265E+03  0.87434675715E+03  0.50400001928E-02 0.  1.
       -1    1    3    3    0  502 -0.31043628457E+01  0.41377389668E+03 -0.11923723263E+04  0.12621292482E+04  0.50400001928E-02 0. -1.
</event>
<event>
 5   0  0.3927993E-03  0.9263813E+03  0.7818609E-02  0.9393191E-01
       -1   -1    0    0    0  501  0.00000000000E+00  0.00000000000E+00  0.17067568789E+03  0.17067568797E+03  0.50400001928E-02 0.  1.
        1   -1    0    0  501    0  0.00000000000E+00  0.00000000000E+00 -0.12570366738E+04  0.12570366738E+04  0.50400001928E-02 0. -1.
    10030    2    1    2    0    0  0.00000000000E+00  0.00000000000E+00 -0.10863609859E+04  0.14277123618E+04  0.92638134495E+03 0.  0.
        2    1    3    3  502    0 -0.26134868334E+03  0.16951593737E+03 -0.10714827188E+04  0.11158467655E+04  0.25500000920E-02 0. -1.
       -2    1    3    3    0  502  0.26134868334E+03 -0.16951593737E+03 -0.14878267077E+02  0.31186559628E+03  0.25500000920E-02 0.  1.
</event>
<event>
 5   0  0.3998066E-03  0.8998287E+03  0.7818609E-02  0.9425796E-01
        1   -1    0    0  501    0  0.00000000000E+00  0.00000000000E+00  0.76075356713E+03  0.76075356715E+03  0.50400001928E-02 0.  1.
       -1   -1    0    0    0  501  0.00000000000E+00  0.00000000000E+00 -0.26608210150E+03  0.26608210155E+03  0.50400001928E-02 0. -1.
    10030    2    1    2    0    0  0.00000000000E+00  0.00000000000E+00  0.49467146563E+03  0.10268356687E+04  0.89982866792E+03 0.  0.
        4    1    3    3  502    0 -0.40986541626E+03 -0.17159676747E+03  0.16675609472E+03  0.47459911302E+03  0.12699999809E+01 0. -1.
       -4    1    3    3    0  502  0.40986541626E+03  0.17159676747E+03  0.32791537091E+03  0.55223655568E+03  0.12699999809E+01 0.  1.
</event>
<event>
 5   0  0.3943549E-03  0.9017833E+03  0.7818609E-02  0.9423355E-01
        1   -1    0    0  501    0  0.00000000000E+00  0.00000000000E+00  0.72683067860E+03  0.72683067862E+03  0.50400001928E-02 0. -1.
       -1   -1    0    0    0  501  0.00000000000E+00  0.00000000000E+00 -0.27971203424E+03  0.27971203428E+03  0.50400001928E-02 0.  1.
    10030    2    1    2    0    0  0.00000000000E+00  0.00000000000E+00  0.44711864436E+03  0.10065427129E+04  0.90178331697E+03 0.  0.
        3    1    3    3  502    0  0.29150641914E+02 -0.43998285487E+03  0.32867262154E+03  0.54996397596E+03  0.10100000352E+00 0. -1.
       -3    1    3    3    0  502 -0.29150641914E+02  0.43998285487E+03  0.11844602282E+03  0.45657873694E+03  0.10100000352E+00 0.  1.
</event>
<event>
 5   0  0.3998066E-03  0.9003485E+03  0.7818609E-02  0.9425146E-01
       -1   -1    0    0    0  501  0.00000000000E+00  0.00000000000E+00  0.22132280840E+03  0.22132280846E+03  0.50400001928E-02 0.  1.
        1   -1    0    0  501    0  0.00000000000E+00  0.00000000000E+00 -0.91566181058E+03  0.91566181059E+03  0.50400001928E-02 0. -1.
    10030    2    1    2    0    0  0.00000000000E+00  0.00000000000E+00 -0.69433900218E+03  0.11369846190E+04  0.90034847365E+03 0.  0.
        4    1    3    3  502    0  0.10068864531E+03 -0.42586394796E+03 -0.21378166832E+03  0.48703441365E+03  0.12699999809E+01 0. -1.
       -4    1    3    3    0  502 -0.10068864531E+03  0.42586394796E+03 -0.48055733386E+03  0.64995020540E+03  0.12699999809E+01 0.  1.
</event>
<event>
 5   0  0.6609191E-03  0.9073101E+03  0.7818609E-02  0.9416489E-01
        2   -1    0    0  501    0  0.00000000000E+00  0.00000000000E+00  0.98797104777E+03  0.98797104777E+03  0.25500000920E-02 0. -1.
       -2   -1    0    0    0  501  0.00000000000E+00  0.00000000000E+00 -0.20830865251E+03  0.20830865253E+03  0.25500000920E-02 0.  1.
    10030    2    1    2    0    0  0.00000000000E+00  0.00000000000E+00  0.77966239526E+03  0.11962797003E+04  0.90731012933E+03 0.  0.
        2    1    3    3  502    0 -0.19637994878E+03  0.25581641426E+03 -0.30839144143E+02  0.32397249097E+03  0.25500000920E-02 0.  1.
       -2    1    3    3    0  502  0.19637994878E+03 -0.25581641426E+03  0.81050153940E+03  0.87230720934E+03  0.25500000920E-02 0. -1.
</event>
<event>
 5   0  0.6863405E-03  0.8982223E+03  0.7818609E-02  0.9427806E-01
       -2   -1    0    0    0  501  0.00000000000E+00  0.00000000000E+00  0.47576422188E+03  0.47576422188E+03  0.25500000920E-02 0.  1.
        2   -1    0    0  501    0  0.00000000000E+00  0.00000000000E+00 -0.42395118105E+03  0.42395118106E+03  0.25500000920E-02 0. -1.
    10030    2    1    2    0    0  0.00000000000E+00  0.00000000000E+00  0.51813040827E+02  0.89971540294E+03  0.89822225261E+03 0.  0.
        1    1    3    3  502    0 -0.24568548498E+03  0.35793029863E+03  0.14109920301E+03  0.45649144715E+03  0.50400001928E-02 0.  1.
       -1    1    3    3    0  502  0.24568548498E+03 -0.35793029863E+03 -0.89286162178E+02  0.44322395579E+03  0.50400001928E-02 0. -1.
</event>
<event>
 5   0  0.2560250E-03  0.8846522E+03  0.7818609E-02  0.9444973E-01
       -3   -1    0    0    0  501  0.00000000000E+00  0.00000000000E+00  0.31018669065E+03  0.31018670709E+03  0.10100000352E+00 0.  1.
        3   -1    0    0  501    0  0.00000000000E+00  0.00000000000E+00 -0.63075683456E+03  0.63075684265E+03  0.10100000352E+00 0. -1.
    10030    2    1    2    0    0  0.00000000000E+00  0.00000000000E+00 -0.32057014391E+03  0.94094354974E+03  0.88465221789E+03 0.  0.
        5    1    3    3  502    0 -0.33650540121E+03  0.27595797138E+03 -0.76254116668E+02  0.44184326104E+03  0.46999998093E+01 0.  1.
       -5    1    3    3    0  502  0.33650540121E+03 -0.27595797138E+03 -0.24431602724E+03  0.49910028870E+03  0.46999998093E+01 0. -1.
</event>
<event>
 5   0  0.3969536E-03  0.9086857E+03  0.7818609E-02  0.9414789E-01
        1   -1    0    0  501    0  0.00000000000E+00  0.00000000000E+00  0.92503651307E+03  0.92503651308E+03  0.50400001928E-02 0.  1.
       -1   -1    0    0    0  501  0.00000000000E+00  0.00000000000E+00 -0.22315595719E+03  0.22315595724E+03  0.50400001928E-02 0. -1.
    10030    2    1    2    0    0  0.00000000000E+00  0.00000000000E+00  0.70188055588E+03  0.11481924703E+04  0.90868566302E+03 0.  0.
        1    1    3    3  502    0 -0.25146546153E+03 -0.37827419036E+03  0.36364954865E+03  0.58186530718E+03  0.50400001928E-02 0. -1.
       -1    1    3    3    0  502  0.25146546153E+03  0.37827419036E+03  0.33823100723E+03  0.56632716314E+03  0.50400001928E-02 0.  1.
</event>
<event>
 5   0  0.6609191E-03  0.9012841E+03  0.7818609E-02  0.9423978E-01
       -2   -1    0    0    0  501  0.00000000000E+00  0.00000000000E+00  0.14978748141E+03  0.14978748143E+03  0.25500000920E-02 0. -1.
        2   -1    0    0  501    0  0.00000000000E+00  0.00000000000E+00 -0.13557757981E+04  0.13557757981E+04  0.25500000920E-02 0.  1.
    10030    2    1    2    0    0  0.00000000000E+00  0.00000000000E+00 -0.12059883167E+04  0.15055632795E+04  0.90128406657E+03 0.  0.
        2    1    3    3  502    0  0.69285376359E+02 -0.97964032588E+02  0.12261241115E+03  0.17155529264E+03  0.25500000920E-02 0. -1.
       -2    1    3    3    0  502 -0.69285376359E+02  0.97964032588E+02 -0.13286007278E+04  0.13340079869E+04  0.25500000920E-02 0.  1.
</event>
<event>
 5   0  0.3943549E-03  0.8979463E+03  0.7818609E-02  0.9428152E-01
       -1   -1    0    0    0  501  0.00000000000E+00  0.00000000000E+00  0.21254778915E+03  0.21254778921E+03  0.50400001928E-02 0.  1.
        1   -1    0    0  501    0  0.00000000000E+00  0.00000000000E+00 -0.94838379465E+03  0.94838379466E+03  0.50400001928E-02 0. -1.
    10030    2    1    2    0    0  0.00000000000E+00  0.00000000000E+00 -0.73583600550E+03  0.11609315839E+04  0.89794627648E+03 0.  0.
        3    1    3    3  502    0 -0.29465758660E+03 -0.32837806611E+03 -0.47548032771E+03  0.64864227420E+03  0.10100000352E+00 0. -1.
       -3    1    3    3    0  502  0.29465758660E+03  0.32837806611E+03 -0.26035567779E+03  0.51228930967E+03  0.10100000352E+00 0.  1.
</event>
<event>
 5   0  0.6863405E-03  0.8996348E+03  0.7818609E-02  0.9426038E-01
        2   -1    0    0  501    0  0.00000000000E+00  0.00000000000E+00  0.19410722525E+04  0.19410722525E+04  0.25500000920E-02 0. -1.
       -2   -1    0    0    0  501  0.00000000000E+00  0.00000000000E+00 -0.10423914675E+03  0.10423914678E+03  0.25500000920E-02 0.  1.
    10030    2    1    2    0    0  0.00000000000E+00  0.00000000000E+00  0.18368331057E+04  0.20453113993E+04  0.89963484908E+03 0.  0.
        1    1    3    3  502    0 -0.41883440450E+02  0.39226564794E+03  0.14097701846E+04  0.14639257271E+04  0.50400001928E-02 0. -1.
       -1    1    3    3    0  502  0.41883440450E+02 -0.39226564794E+03  0.42706292112E+03  0.58138567213E+03  0.50400001928E-02 0.  1.
</event>
<event>
 5   0  0.3943549E-03  0.8981266E+03  0.7818609E-02  0.9427926E-01
        1   -1    0    0  501    0  0.00000000000E+00  0.00000000000E+00  0.10959118773E+04  0.10959118773E+04  0.50400001928E-02 0. -1.
       -1   -1    0    0    0  501  0.00000000000E+00  0.00000000000E+00 -0.18400917681E+03  0.18400917688E+03  0.50400001928E-02 0.  1.
    10030    2    1    2    0    0  0.00000000000E+00  0.00000000000E+00  0.91190270045E+03  0.12799210542E+04  0.89812658895E+03 0.  0.
        3    1    3    3  502    0 -0.20842641443E+03  0.35975214119E+03  0.21412612633E+03  0.46766781106E+03  0.10100000352E+00 0. -1.
       -3    1    3    3    0  502  0.20842641443E+03 -0.35975214119E+03  0.69777657412E+03  0.81225324309E+03  0.10100000352E+00 0.  1.
</event>
<event>
 5   0  0.6724773E-03  0.9000512E+03  0.7818609E-02  0.9425517E-01
       -2   -1    0    0    0  501  0.00000000000E+00  0.00000000000E+00  0.31032461822E+03  0.31032461823E+03  0.25500000920E-02 0. -1.
        2   -1    0    0  501    0  0.00000000000E+00  0.00000000000E+00 -0.65261678193E+03  0.65261678194E+03  0.25500000920E-02 0.  1.
    10030    2    1    2    0    0  0.00000000000E+00  0.00000000000E+00 -0.34229216372E+03  0.96294140017E+03  0.90005122899E+03 0.  0.
        5    1    3    3  502    0  0.37663058868E+03 -0.18902980828E+03 -0.34003068122E+03  0.54150329908E+03  0.46999998093E+01 0.  1.
       -5    1    3    3    0  502 -0.37663058868E+03  0.18902980828E+03 -0.22614824954E+01  0.42143810109E+03  0.46999998093E+01 0. -1.
</event>
<event>
 5   0  0.6863405E-03  0.9015178E+03  0.7818609E-02  0.9423686E-01
        2   -1    0    0  501    0  0.00000000000E+00  0.00000000000E+00  0.13463782293E+03  0.13463782295E+03  0.25500000920E-02 0.  1.
       -2   -1    0    0    0  501  0.00000000000E+00  0.00000000000E+00 -0.15091121386E+04  0.15091121386E+04  0.25500000920E-02 0. -1.
    10030    2    1    2    0    0  0.00000000000E+00  0.00000000000E+00 -0.13744743157E+04  0.16437499616E+04  0.90151777114E+03 0.  0.
        1    1    3    3  502    0  0.78962892785E+02 -0.21774353823E+03  0.17836701234E+02  0.23230483166E+03  0.50400001928E-02 0.  1.
       -1    1    3    3    0  502 -0.78962892785E+02  0.21774353823E+03 -0.13923110169E+04  0.14114451299E+04  0.50400001928E-02 0. -1.
</event>
<event>
 5   0  0.3927993E-03  0.8904974E+03  0.7818609E-02  0.9437539E-01
        1   -1    0    0  501    0  0.00000000000E+00  0.00000000000E+00  0.99979468236E+03  0.99979468237E+03  0.50400001928E-02 0. -1.
       -1   -1    0    0    0  501  0.00000000000E+00  0.00000000000E+00 -0.19828713485E+03  0.19828713492E+03  0.50400001928E-02 0.  1.
    10030    2    1    2    0    0  0.00000000000E+00  0.00000000000E+00  0.80150754751E+03  0.11980818173E+04  0.89049744088E+03 0.  0.
        2    1    3    3  502    0 -0.19728423896E+03  0.17847284412E+03  0.88110904110E+03  0.92039489859E+03  0.25500000920E-02 0. -1.
       -2    1    3    3    0  502  0.19728423896E+03 -0.17847284412E+03 -0.79601493589E+02  0.27768691871E+03  0.25500000920E-02 0.  1.
</event>
<event>
 5   0  0.6609191E-03  0.9033442E+03  0.7818609E-02  0.9421411E-01
       -2   -1    0    0    0  501  0.00000000000E+00  0.00000000000E+00  0.27092963475E+03  0.27092963476E+03  0.25500000920E-02 0. -1.
        2   -1    0    0  501    0  0.00000000000E+00  0.00000000000E+00 -0.75299144660E+03  0.75299144661E+03  0.25500000920E-02 0.  1.
    10030    2    1    2    0    0  0.00000000000E+00  0.00000000000E+00 -0.48206181185E+03  0.10239210814E+04  0.90334422588E+03 0.  0.
        2    1    3    3  502    0  0.51187377264E+02  0.29789315432E+03  0.13939794745E+03  0.33285472318E+03  0.25500000920E-02 0. -1.
       -2    1    3    3    0  502 -0.51187377264E+02 -0.29789315432E+03 -0.62145975931E+03  0.69106635819E+03  0.25500000920E-02 0.  1.
</event>
<event>
 5   0  0.6863405E-03  0.8501832E+03  0.7818609E-02  0.9490091E-01
        2   -1    0    0  501    0  0.00000000000E+00  0.00000000000E+00  0.16622259799E+04  0.16622259799E+04  0.25500000920E-02 0.  1.
       -2   -1    0    0    0  501  0.00000000000E+00  0.00000000000E+00 -0.10871137678E+03  0.10871137681E+03  0.25500000920E-02 0. -1.
    10030    2    1    2    0    0  0.00000000000E+00  0.00000000000E+00  0.15535146031E+04  0.17709373567E+04  0.85018321514E+03 0.  0.
        1    1    3    3  502    0  0.35577891999E+03 -0.84838678168E+02  0.12279898020E+04  0.12813021482E+04  0.50400001928E-02 0.  1.
       -1    1    3    3    0  502 -0.35577891999E+03  0.84838678168E+02  0.32552480114E+03  0.48963520851E+03  0.50400001928E-02 0. -1.
</event>
<event>
 5   0  0.3927993E-03  0.9318103E+03  0.7818609E-02  0.9386668E-01
       -1   -1    0    0    0  501  0.00000000000E+00  0.00000000000E+00  0.62636428106E+03  0.62636428108E+03  0.50400001928E-02 0.  1.
        1   -1    0    0  501    0  0.00000000000E+00  0.00000000000E+00 -0.34655168814E+03  0.34655168817E+03  0.50400001928E-02 0. -1.
    10030    2    1    2    0    0  0.00000000000E+00  0.00000000000E+00  0.27981259292E+03  0.97291596925E+03  0.93181027901E+03 0.  0.
        2    1    3    3  502    0 -0.25605267258E+03 -0.19632007720E+03 -0.21102011048E+03  0.38553084297E+03  0.25500000920E-02 0. -1.
       -2    1    3    3    0  502  0.25605267258E+03  0.19632007720E+03  0.49083270340E+03  0.58738512628E+03  0.25500000920E-02 0.  1.
</event>
<event>
 5   0  0.3998066E-03  0.8996094E+03  0.7818609E-02  0.9426070E-01
       -1   -1    0    0    0  501  0.00000000000E+00  0.00000000000E+00  0.21417851217E+03  0.21417851223E+03  0.50400001928E-02 0. -1.
        1   -1    0    0  501    0  0.00000000000E+00  0.00000000000E+00 -0.94465243065E+03  0.94465243066E+03  0.50400001928E-02 0.  1.
    10030    2    1    2    0    0  0.00000000000E+00  0.00000000000E+00 -0.73047391848E+03  0.11588309429E+04  0.89960936446E+03 0.  0.
        4    1    3    3  502    0  0.16252009310E+03  0.26563953859E+03 -0.78333111592E+03  0.84296286703E+03  0.12699999809E+01 0.  1.
       -4    1    3    3    0  502 -0.16252009310E+03 -0.26563953859E+03  0.52857197442E+02  0.31586807586E+03  0.12699999809E+01 0. -1.
</event>
<event>
 5   0  0.6724773E-03  0.9015512E+03  0.7818609E-02  0.9423644E-01
        2   -1    0    0  501    0  0.00000000000E+00  0.00000000000E+00  0.12138697354E+04  0.12138697354E+04  0.25500000920E-02 0.  1.
       -2   -1    0    0    0  501  0.00000000000E+00  0.00000000000E+00 -0.16739739491E+03  0.16739739492E+03  0.25500000920E-02 0. -1.
    10030    2    1    2    0    0  0.00000000000E+00  0.00000000000E+00  0.10464723405E+04  0.13812671303E+04  0.90155117764E+03 0.  0.
        5    1    3    3  502    0 -0.44977606947E+01  0.39840859367E+02 -0.16462244593E+03  0.16949974521E+03  0.46999998093E+01 0. -1.
       -5    1    3    3    0  502  0.44977606947E+01 -0.39840859367E+02  0.12110947864E+04  0.12117673851E+04  0.46999998093E+01 0.  1.
</event>
<event>
 5   0  0.3794006E-03  0.8886960E+03  0.7818609E-02  0.9439823E-01
       -1   -1    0    0    0  501  0.00000000000E+00  0.00000000000E+00  0.26628967237E+03  0.26628967242E+03  0.50400001928E-02 0. -1.
        1   -1    0    0  501    0  0.00000000000E+00  0.00000000000E+00 -0.74146757297E+03  0.74146757298E+03  0.50400001928E-02 0.  1.
    10030    2    1    2    0    0  0.00000000000E+00  0.00000000000E+00 -0.47517790059E+03  0.10077572454E+04  0.88869602703E+03 0.  0.
        5    1    3    3  502    0 -0.42153772030E+03 -0.21266039736E+02 -0.80147218696E+02  0.42964166551E+03  0.46999998093E+01 0.  1.
       -5    1    3    3    0  502  0.42153772030E+03  0.21266039736E+02 -0.39503068190E+03  0.57811557989E+03  0.46999998093E+01 0. -1.
</event>
<event>
 5   0  0.3943549E-03  0.8620582E+03  0.7818609E-02  0.9474294E-01
        1   -1    0    0  501    0  0.00000000000E+00  0.00000000000E+00  0.34174986267E+03  0.34174986271E+03  0.50400001928E-02 0. -1.
       -1   -1    0    0    0  501  0.00000000000E+00  0.00000000000E+00 -0.54363173200E+03  0.54363173203E+03  0.50400001928E-02 0.  1.
    10030    2    1    2    0    0  0.00000000000E+00  0.00000000000E+00 -0.20188186933E+03  0.88538159473E+03  0.86205816459E+03 0.  0.
        3    1    3    3  502    0 -0.36952424814E+03  0.17737063888E+03 -0.23788077803E+03  0.47391538090E+03  0.10100000352E+00 0.  1.
       -3    1    3    3    0  502  0.36952424814E+03 -0.17737063888E+03  0.35998908697E+02  0.41146621383E+03  0.10100000352E+00 0. -1.
</event>
<event>
 5   0  0.6524705E-03  0.9001725E+03  0.7818609E-02  0.9425366E-01
       -2   -1    0    0    0  501  0.00000000000E+00  0.00000000000E+00  0.27518622877E+03  0.27518622879E+03  0.25500000920E-02 0. -1.
        2   -1    0    0  501    0  0.00000000000E+00  0.00000000000E+00 -0.73614737196E+03  0.73614737196E+03  0.25500000920E-02 0.  1.
    10030    2    1    2    0    0  0.00000000000E+00  0.00000000000E+00 -0.46096114318E+03  0.10113336007E+04  0.90017247040E+03 0.  0.
        3    1    3    3  502    0 -0.41498459029E+03  0.82789276632E+02 -0.40274965738E+03  0.58418624703E+03  0.10100000352E+00 0. -1.
       -3    1    3    3    0  502  0.41498459029E+03 -0.82789276632E+02 -0.58211485804E+02  0.42714735371E+03  0.10100000352E+00 0.  1.
</event>
<event>
 5   0  0.6724773E-03  0.8959126E+03  0.7818609E-02  0.9430705E-01
        2   -1    0    0  501    0  0.00000000000E+00  0.00000000000E+00  0.54202043906E+03  0.54202043906E+03  0.25500000920E-02 0. -1.
       -2   -1    0    0    0  501  0.00000000000E+00  0.00000000000E+00 -0.37021637810E+03  0.37021637811E+03  0.25500000920E-02 0.  1.
    10030    2    1    2    0    0  0.00000000000E+00  0.00000000000E+00  0.17180406096E+03  0.91223681717E+03  0.89591259352E+03 0.  0.
        5    1    3    3  502    0 -0.13980423274E+03 -0.17465009276E+03  0.48103844203E+03  0.53053553236E+03  0.46999998093E+01 0. -1.
       -5    1    3    3    0  502  0.13980423274E+03  0.17465009276E+03 -0.30923438106E+03  0.38170128481E+03  0.46999998093E+01 0.  1.
</event>
<event>
 5   0  0.3794006E-03  0.8942636E+03  0.7818609E-02  0.9432781E-01
        1   -1    0    0  501    0  0.00000000000E+00  0.00000000000E+00  0.35973914095E+03  0.35973914099E+03  0.50400001928E-02 0. -1.
       -1   -1    0    0    0  501  0.00000000000E+00  0.00000000000E+00 -0.55575508360E+03  0.55575508363E+03  0.50400001928E-02 0.  1.
    10030    2    1    2    0    0  0.00000000000E+00  0.00000000000E+00 -0.19601594265E+03  0.91549422461E+03  0.89426362194E+03 0.  0.
        5    1    3    3  502    0 -0.21772048340E+03  0.74871559584E+02 -0.49037835815E+03  0.54175731049E+03  0.46999998093E+01 0.  1.
       -5    1    3    3    0  502  0.21772048340E+03 -0.74871559584E+02  0.29436241549E+03  0.37373691413E+03  0.46999998093E+01 0. -1.
</event>
<event>
 5   0  0.3927993E-03  0.8872248E+03  0.7818609E-02  0.9441694E-01
       -1   -1    0    0    0  501  0.00000000000E+00  0.00000000000E+00  0.27647883868E+03  0.27647883872E+03  0.50400001928E-02 0. -1.
        1   -1    0    0  501    0  0.00000000000E+00  0.00000000000E+00 -0.71177940589E+03  0.71177940590E+03  0.50400001928E-02 0.  1.
    10030    2    1    2    0    0  0.00000000000E+00  0.00000000000E+00 -0.43530056721E+03  0.98825824463E+03  0.88722475972E+03 0.  0.
        2    1    3    3  502    0 -0.28887950155E+03  0.48573010314E+02  0.15342461642E+03  0.33068083809E+03  0.25500000920E-02 0. -1.
       -2    1    3    3    0  502  0.28887950155E+03 -0.48573010314E+02 -0.58872518363E+03  0.65757740654E+03  0.25500000920E-02 0.  1.
</event>
<event>
 5   0  0.6534628E-03  0.8869190E+03  0.7818609E-02  0.9442083E-01
       -2   -1    0    0    0  501  0.00000000000E+00  0.00000000000E+00  0.34106546546E+03  0.34106546547E+03  0.25500000920E-02 0. -1.
        2   -1    0    0  501    0  0.00000000000E+00  0.00000000000E+00 -0.57659412740E+03  0.57659412740E+03  0.25500000920E-02 0.  1.
    10030    2    1    2    0    0  0.00000000000E+00  0.00000000000E+00 -0.23552866193E+03  0.91765959288E+03  0.88691903678E+03 0.  0.
        4    1    3    3  502    0  0.24997481506E+03 -0.36581685413E+03 -0.13699210508E+03  0.46376484201E+03  0.12699999809E+01 0.  1.
       -4    1    3    3    0  502 -0.24997481506E+03  0.36581685413E+03 -0.98536556851E+02  0.45389475087E+03  0.12699999809E+01 0. -1.
</event>
<event>
 5   0  0.6724773E-03  0.9080937E+03  0.7818609E-02  0.9415520E-01
       -2   -1    0    0    0  501  0.00000000000E+00  0.00000000000E+00  0.76091570594E+03  0.76091570595E+03  0.25500000920E-02 0.  1.
        2   -1    0    0  501    0  0.00000000000E+00  0.00000000000E+00 -0.27093478700E+03  0.27093478701E+03  0.25500000920E-02 0. -1.
    10030    2    1    2    0    0  0.00000000000E+00  0.00000000000E+00  0.48998091895E+03  0.10318504930E+04  0.90809368398E+03 0.  0.
        5    1    3    3  502    0 -0.64229201704E+02 -0.28879947801E+03 -0.14633607481E+03  0.33010129603E+03  0.46999998093E+01 0. -1.
       -5    1    3    3    0  502  0.64229201704E+02  0.28879947801E+03  0.63631699375E+03  0.70174919693E+03  0.46999998093E+01 0.  1.
</event>
<event>
 5   0  0.3969536E-03  0.8898230E+03  0.7818609E-02  0.9438393E-01
        1   -1    0    0  501    0  0.00000000000E+00  0.00000000000E+00  0.64549528666E+03  0.64549528668E+03  0.50400001928E-02 0.  1.
       -1   -1    0    0    0  501  0.00000000000E+00  0.00000000000E+00 -0.30665791216E+03  0.30665791220E+03  0.50400001928E-02 0. -1.
    10030    2    1    2    0    0  0.00000000000E+00  0.00000000000E+00  0.33883737450E+03  0.95215319888E+03  0.88982298677E+03 0.  0.
        1    1    3    3  502    0  0.24280138130E+03 -0.50670807590E+02  0.56465068185E+03  0.61672557434E+03  0.50400001928E-02 0.  1.
       -1    1    3    3    0  502 -0.24280138130E+03  0.50670807590E+02 -0.22581330736E+03  0.33542762454E+03  0.50400001928E-02 0. -1.
</event>
<event>
 5   0  0.6609191E-03  0.8953903E+03  0.7818609E-02  0.9431362E-01
        2   -1    0    0  501    0  0.00000000000E+00  0.00000000000E+00  0.86014671060E+03  0.86014671060E+03  0.25500000920E-02 0. -1.
       -2   -1    0    0    0  501  0.00000000000E+00  0.00000000000E+00 -0.23301946621E+03  0.23301946623E+03  0.25500000920E-02 0.  1.
    10030    2    1    2    0    0  0.00000000000E+00  0.00000000000E+00  0.62712724439E+03  0.10931661768E+04  0.89539025543E+03 0.  0.
        2    1    3    3  502    0 -0.89890993720E+02 -0.13894399402E+03 -0.19430745322E+03  0.25522776223E+03  0.25500000920E-02 0.  1.
       -2    1    3    3    0  502  0.89890993720E+02  0.13894399402E+03  0.82143469761E+03  0.83793841460E+03  0.25500000920E-02 0. -1.
</event>
<event>
 5   0  0.3927993E-03  0.8910602E+03  0.7818609E-02  0.9436826E-01
       -1   -1    0    0    0  501  0.00000000000E+00  0.00000000000E+00  0.32614933429E+03  0.32614933433E+03  0.50400001928E-02 0.  1.
        1   -1    0    0  501    0  0.00000000000E+00  0.00000000000E+00 -0.60860786228E+03  0.60860786230E+03  0.50400001928E-02 0. -1.
    10030    2    1    2    0    0  0.00000000000E+00  0.00000000000E+00 -0.28245852799E+03  0.93475719664E+03  0.89106015321E+03 0.  0.
        2    1    3    3  502    0  0.18380207180E+03  0.19776709023E+03  0.23055423974E+03  0.35503560532E+03  0.25500000920E-02 0.  1.
       -2    1    3    3    0  502 -0.18380207180E+03 -0.19776709023E+03 -0.51301276773E+03  0.57972159132E+03  0.25500000920E-02 0. -1.
</event>
<event>
 5   0  0.6863405E-03  0.9177580E+03  0.7818609E-02  0.9403651E-01
       -2   -1    0    0    0  501  0.00000000000E+00  0.00000000000E+00  0.18183071715E+03  0.18183071717E+03  0.25500000920E-02 0.  1.
        2   -1    0    0  501    0  0.00000000000E+00  0.00000000000E+00 -0.11580547328E+04  0.11580547328E+04  0.25500000920E-02 0. -1.
    10030    2    1    2    0    0  0.00000000000E+00  0.00000000000E+00 -0.97622401563E+03  0.13398854500E+04  0.91775796935E+03 0.  0.
        1    1    3    3  502    0 -0.39440182269E+02  0.56552289874E+02  0.17422545385E+03  0.18737181822E+03  0.50400001928E-02 0.  1.
       -1    1    3    3    0  502  0.39440182269E+02 -0.56552289874E+02 -0.11504494695E+04  0.11525136317E+04  0.50400001928E-02 0. -1.
</event>
<event>
 5   0  0.3943549E-03  0.8858165E+03  0.7818609E-02  0.9443487E-01
        1   -1    0    0  501    0  0.00000000000E+00  0.00000000000E+00  0.63619433295E+03  0.63619433297E+03  0.50400001928E-02 0.  1.
       -1   -1    0    0    0  501  0.00000000000E+00  0.00000000000E+00 -0.30834557974E+03  0.30834557978E+03  0.50400001928E-02 0. -1.
    10030    2    1    2    0    0  0.00000000000E+00  0.00000000000E+00  0.32784875322E+03  0.94453991275E+03  0.88581648314E+03 0.  0.
        3    1    3    3  502    0  0.24522744623E+03 -0.27863302515E+03  0.42159433236E+03  0.56170691144E+03  0.10100000352E+00 0.  1.
       -3    1    3    3    0  502 -0.24522744623E+03  0.27863302515E+03 -0.93745579139E+02  0.38283300131E+03  0.10100000352E+00 0. -1.
</event>
<event>
 5   0  0.3943549E-03  0.9418405E+03  0.7818609E-02  0.9374739E-01
        1   -1    0    0  501    0  0.00000000000E+00  0.00000000000E+00  0.83560305510E+03  0.83560305512E+03  0.50400001928E-02 0. -1.
       -1   -1    0    0    0  501  0.00000000000E+00  0.00000000000E+00 -0.26539620402E+03  0.26539620407E+03  0.50400001928E-02 0.  1.
    10030    2    1    2    0    0  0.00000000000E+00  0.00000000000E+00  0.57020685108E+03  0.11009992592E+04  0.94184049377E+03 0.  0.
        3    1    3    3  502    0 -0.10927520913E+03  0.41249392169E+03  0.52261991693E+02  0.42991119169E+03  0.10100000352E+00 0.  1.
       -3    1    3    3    0  502  0.10927520913E+03 -0.41249392169E+03  0.51794485939E+03  0.67108806749E+03  0.10100000352E+00 0. -1.
</event>
<event>
 5   0  0.6534628E-03  0.9049745E+03  0.7818609E-02  0.9419384E-01
        2   -1    0    0  501    0  0.00000000000E+00  0.00000000000E+00  0.16563101070E+04  0.16563101070E+04  0.25500000920E-02 0.  1.
       -2   -1    0    0    0  501  0.00000000000E+00  0.00000000000E+00 -0.12361495893E+03  0.12361495895E+03  0.25500000920E-02 0. -1.
    10030    2    1    2    0    0  0.00000000000E+00  0.00000000000E+00  0.15326951481E+04  0.17799250660E+04  0.90497448775E+03 0.  0.
        4    1    3    3  502    0 -0.72174247805E+02 -0.44163342761E+03  0.89819645091E+03  0.10034977248E+04  0.12699999809E+01 0.  1.
       -4    1    3    3    0  502  0.72174247805E+02  0.44163342761E+03  0.63449869717E+03  0.77642734112E+03  0.12699999809E+01 0. -1.
</event>
<event>
 5   0  0.6863405E-03  0.9055407E+03  0.7818609E-02  0.9418682E-01
       -2   -1    0    0    0  501  0.00000000000E+00  0.00000000000E+00  0.12611230134E+03  0.12611230137E+03  0.25500000920E-02 0.  1.
        2   -1    0    0  501    0  0.00000000000E+00  0.00000000000E+00 -0.16255431565E+04  0.16255431565E+04  0.25500000920E-02 0. -1.
    10030    2    1    2    0    0  0.00000000000E+00  0.00000000000E+00 -0.14994308552E+04  0.17516554579E+04  0.90554069687E+03 0.  0.
        1    1    3    3  502    0  0.18081931633E+03  0.30422378709E+03 -0.20343591903E+03  0.40820817112E+03  0.50400001928E-02 0.  1.
       -1    1    3    3    0  502 -0.18081931633E+03 -0.30422378709E+03 -0.12959949361E+04  0.13434472868E+04  0.50400001928E-02 0. -1.
</event>
<event>
 5   0  0.2560250E-03  0.8988838E+03  0.7818609E-02  0.9426978E-01
       -4   -1    0    0    0  501  0.00000000000E+00  0.00000000000E+00  0.14362185540E+04  0.14362191155E+04  0.12699999809E+01 0.  1.
        4   -1    0    0  501    0  0.00000000000E+00  0.00000000000E+00 -0.14064228496E+03  0.14064801890E+03  0.12699999809E+01 0. -1.
    10030    2    1    2    0    0  0.00000000000E+00  0.00000000000E+00  0.12955762691E+04  0.15768671344E+04  0.89888380267E+03 0.  0.
        1    1    3    3  502    0  0.24978599721E+03 -0.37347764071E+03  0.66695929974E+03  0.80418486684E+03  0.50400001928E-02 0.  1.
       -1    1    3    3    0  502 -0.24978599721E+03  0.37347764071E+03  0.62861696932E+03  0.77268226760E+03  0.50400001928E-02 0. -1.
</event>
<event>
 5   0  0.3998066E-03  0.9136190E+03  0.7818609E-02  0.9408715E-01
       -1   -1    0    0    0  501  0.00000000000E+00  0.00000000000E+00  0.26608442902E+03  0.26608442907E+03  0.50400001928E-02 0. -1.
        1   -1    0    0  501    0  0.00000000000E+00  0.00000000000E+00 -0.78424326302E+03  0.78424326303E+03  0.50400001928E-02 0.  1.
    10030    2    1    2    0    0  0.00000000000E+00  0.00000000000E+00 -0.51815883400E+03  0.10503276921E+04  0.91361900349E+03 0.  0.
        4    1    3    3  502    0  0.42297757087E+03 -0.15225369244E+03 -0.16580945785E+03  0.47915091728E+03  0.12699999809E+01 0. -1.
       -4    1    3    3    0  502 -0.42297757087E+03  0.15225369244E+03 -0.35234937615E+03  0.57117677482E+03  0.12699999809E+01 0.  1.
</event>
<event>
 5   0  0.3794006E-03  0.9050726E+03  0.7818609E-02  0.9419263E-01
       -1   -1    0    0    0  501  0.00000000000E+00  0.00000000000E+00  0.43001569102E+03  0.43001569105E+03  0.50400001928E-02 0.  1.
        1   -1    0    0  501    0  0.00000000000E+00  0.00000000000E+00 -0.47623631383E+03  0.47623631386E+03  0.50400001928E-02 0. -1.
    10030    2    1    2    0    0  0.00000000000E+00  0.00000000000E+00 -0.46220622806E+02  0.90625200491E+03  0.90507256639E+03 0.  0.
        5    1    3    3  502    0  0.29884025898E+03 -0.24852809107E+03 -0.25513471007E+03  0.46495970009E+03  0.46999998093E+01 0. -1.
       -5    1    3    3    0  502 -0.29884025898E+03  0.24852809107E+03  0.20891408726E+03  0.44129230481E+03  0.46999998093E+01 0.  1.
</event>
<event>
 5   0  0.6609191E-03  0.8765812E+03  0.7818609E-02  0.9455339E-01
       -2   -1    0    0    0  501  0.00000000000E+00  0.00000000000E+00  0.33182548237E+03  0.33182548238E+03  0.25500000920E-02 0.  1.
        2   -1    0    0  501    0  0.00000000000E+00  0.00000000000E+00 -0.57891468834E+03  0.57891468834E+03  0.25500000920E-02 0. -1.
    10030    2    1    2    0    0  0.00000000000E+00  0.00000000000E+00 -0.24708920597E+03  0.91074017072E+03  0.87658119011E+03 0.  0.
        2    1    3    3  502    0 -0.21967760060E+03 -0.25396822926E+02 -0.51670238589E+03  0.56203612198E+03  0.25500000920E-02 0. -1.
       -2    1    3    3    0  502  0.21967760060E+03  0.25396822926E+02  0.26961317991E+03  0.34870404874E+03  0.25500000920E-02 0.  1.
</event>
<event>
 5   0  0.3998066E-03  0.8985250E+03  0.7818609E-02  0.9427427E-01
       -1   -1    0    0    0  501  0.00000000000E+00  0.00000000000E+00  0.18497359497E+03  0.18497359504E+03  0.50400001928E-02 0. -1.
        1   -1    0    0  501    0  0.00000000000E+00  0.00000000000E+00 -0.10911655060E+04  0.10911655060E+04  0.50400001928E-02 0.  1.
    10030    2    1    2    0    0  0.00000000000E+00  0.00000000000E+00 -0.90619191106E+03  0.12761391011E+04  0.89852502782E+03 0.  0.
        4    1    3    3  502    0  0.28775413354E+03 -0.97849583179E+02  0.16789508618E+02  0.30440184427E+03  0.12699999809E+01 0. -1.
       -4    1    3    3    0  502 -0.28775413354E+03  0.97849583179E+02 -0.92298141968E+03  0.97173725681E+03  0.12699999809E+01 0.  1.
</event>
<event>
 5   0  0.6724773E-03  0.9167431E+03  0.7818609E-02  0.9404890E-01
        2   -1    0    0  501    0  0.00000000000E+00  0.00000000000E+00  0.71832370173E+03  0.71832370173E+03  0.25500000920E-02 0.  1.
       -2   -1    0    0    0  501  0.00000000000E+00  0.00000000000E+00 -0.29249277970E+03  0.29249277971E+03  0.25500000920E-02 0. -1.
    10030    2    1    2    0    0  0.00000000000E+00  0.00000000000E+00  0.42583092203E+03  0.10108164814E+04  0.91674314015E+03 0.  0.
        5    1    3    3  502    0 -0.22293272068E+03 -0.50359125222E+02 -0.22515434088E+03  0.32086072782E+03  0.46999998093E+01 0. -1.
       -5    1    3    3    0  502  0.22293272068E+03  0.50359125222E+02  0.65098526290E+03  0.68995575363E+03  0.46999998093E+01 0.  1.
</event>
<event>
 5   0  0.3794006E-03  0.8996476E+03  0.7818609E-02  0.9426022E-01
        1   -1    0    0  501    0  0.00000000000E+00  0.00000000000E+00  0.18220739825E+04  0.18220739825E+04  0.50400001928E-02 0. -1.
       -1   -1    0    0    0  501  0.00000000000E+00  0.00000000000E+00 -0.11105006357E+03  0.11105006369E+03  0.50400001928E-02 0.  1.
    10030    2    1    2    0    0  0.00000000000E+00  0.00000000000E+00  0.17110239189E+04  0.19331240462E+04  0.89964755702E+03 0.  0.
        5    1    3    3  502    0 -0.19524213477E+03 -0.10507501910E+03  0.16964397557E+04  0.17108740999E+04  0.46999998093E+01 0. -1.
       -5    1    3    3    0  502  0.19524213477E+03  0.10507501910E+03  0.14584163210E+02  0.22224994633E+03  0.46999998093E+01 0.  1.
</event>
<event>
 5   0  0.3969536E-03  0.8997514E+03  0.7818609E-02  0.9425892E-01
       -1   -1    0    0    0  501  0.00000000000E+00  0.00000000000E+00  0.12719739307E+03  0.12719739317E+03  0.50400001928E-02 0.  1.
        1   -1    0    0  501    0  0.00000000000E+00  0.00000000000E+00 -0.15911342212E+04  0.15911342212E+04  0.50400001928E-02 0. -1.
    10030    2    1    2    0    0  0.00000000000E+00  0.00000000000E+00 -0.14639368281E+04  0.17183316144E+04  0.89975135466E+03 0.  0.
        1    1    3    3  502    0 -0.42129894162E+03  0.61918072525E+02 -0.45480946551E+03  0.62303956203E+03  0.50400001928E-02 0. -1.
       -1    1    3    3    0  502  0.42129894162E+03 -0.61918072525E+02 -0.10091273626E+04  0.10952920523E+04  0.50400001928E-02 0.  1.
</event>
<event>
 5   0  0.6609191E-03  0.9000575E+03  0.7818609E-02  0.9425510E-01
       -2   -1    0    0    0  501  0.00000000000E+00  0.00000000000E+00  0.10217341728E+04  0.10217341728E+04  0.25500000920E-02 0. -1.
        2   -1    0    0  501    0  0.00000000000E+00  0.00000000000E+00 -0.19821776029E+03  0.19821776031E+03  0.25500000920E-02 0.  1.
    10030    2    1    2    0    0  0.00000000000E+00  0.00000000000E+00  0.82351641249E+03  0.12199519331E+04  0.90005746339E+03 0.  0.
        2    1    3    3  502    0 -0.23461303378E+03  0.11564762707E+03  0.90812207982E+03  0.94504146000E+03  0.25500000920E-02 0. -1.
       -2    1    3    3    0  502  0.23461303378E+03 -0.11564762707E+03 -0.84605667322E+02  0.27491047309E+03  0.25500000920E-02 0.  1.
</event>
<event>
 5   0  0.3794006E-03  0.8808306E+03  0.7818609E-02  0.9449867E-01
        1   -1    0    0  501    0  0.00000000000E+00  0.00000000000E+00  0.27842528867E+03  0.27842528871E+03  0.50400001928E-02 0. -1.
       -1   -1    0    0    0  501  0.00000000000E+00  0.00000000000E+00 -0.69665229452E+03  0.69665229454E+03  0.50400001928E-02 0.  1.
    10030    2    1    2    0    0  0.00000000000E+00  0.00000000000E+00 -0.41822700585E+03  0.97507758325E+03  0.88083055404E+03 0.  0.
        5    1    3    3  502    0  0.87094512020E+02 -0.17015206802E+03 -0.64830904165E+03  0.67591706870E+03  0.46999998093E+01 0.  1.
       -5    1    3    3    0  502 -0.87094512020E+02  0.17015206802E+03  0.23008203579E+03  0.29916051456E+03  0.46999998093E+01 0. -1.
</event>
<event>
 5   0  0.6863405E-03  0.8934863E+03  0.7818609E-02  0.9433761E-01
        2   -1    0    0  501    0  0.00000000000E+00  0.00000000000E+00  0.70263759482E+03  0.70263759482E+03  0.25500000920E-02 0. -1.
       -2   -1    0    0    0  501  0.00000000000E+00  0.00000000000E+00 -0.28404318880E+03  0.28404318881E+03  0.25500000920E-02 0.  1.
    10030    2    1    2    0    0  0.00000000000E+00  0.00000000000E+00  0.41859440602E+03  0.98668078363E+03  0.89348625733E+03 0.  0.
        1    1    3    3  502    0  0.38392031318E+03  0.18388717245E+03  0.35897067597E+03  0.55683861692E+03  0.50400001928E-02 0. -1.
       -1    1    3    3    0  502 -0.38392031318E+03 -0.18388717245E+03  0.59623730053E+02  0.42984216671E+03  0.50400001928E-02 0.  1.
</event>
<event>
 5   0  0.3969536E-03  0.9153247E+03  0.7818609E-02  0.9406625E-01
        1   -1    0    0  501    0  0.00000000000E+00  0.00000000000E+00  0.66084744197E+03  0.66084744199E+03  0.50400001928E-02 0.  1.
       -1   -1    0    0    0  501  0.00000000000E+00  0.00000000000E+00 -0.31694880652E+03  0.31694880656E+03  0.50400001928E-02 0. -1.
    10030    2    1    2    0    0  0.00000000000E+00  0.00000000000E+00  0.34389863544E+03  0.97779624855E+03  0.91532465946E+03 0.  0.
        1    1    3    3  502    0  0.57590488357E+01  0.64009904620E+02 -0.31210428536E+03  0.31865266278E+03  0.50400001928E-02 0. -1.
       -1    1    3    3    0  502 -0.57590488357E+01 -0.64009904620E+02  0.65600292080E+03  0.65914358577E+03  0.50400001928E-02 0.  1.
</event>
<event>
 5   0  0.3927993E-03  0.8948215E+03  0.7818609E-02  0.9432078E-01
       -1   -1    0    0    0  501  0.00000000000E+00  0.00000000000E+00  0.79365289611E+03  0.79365289612E+03  0.50400001928E-02 0. -1.
        1   -1    0    0  501    0  0.00000000000E+00  0.00000000000E+00 -0.25222157859E+03  0.25222157864E+03  0.50400001928E-02 0.  1.
    10030    2    1    2    0    0  0.00000000000E+00  0.00000000000E+00  0.54143131751E+03  0.10458744748E+04  0.89482151594E+03 0.  0.
        2    1    3    3  502    0 -0.34413701930E+03  0.24719966030E+03  0.43862754275E+03  0.60986234625E+03  0.25500000920E-02 0.  1.
       -2    1    3    3    0  502  0.34413701930E+03 -0.24719966030E+03  0.10280377477E+03  0.43601212852E+03  0.25500000920E-02 0. -1.
</event>
<event>
 5   0  0.6534628E-03  0.8984488E+03  0.7818609E-02  0.9427523E-01
        2   -1    0    0  501    0  0.00000000000E+00  0.00000000000E+00  0.15116696167E+04  0.15116696167E+04  0.25500000920E-02 0. -1.
       -2   -1    0    0    0  501  0.00000000000E+00  0.00000000000E+00 -0.13349648350E+03  0.13349648353E+03  0.25500000920E-02 0.  1.
    10030    2    1    2    0    0  0.00000000000E+00  0.00000000000E+00  0.13781731332E+04  0.16451661002E+04  0.89844883675E+03 0.  0.
        4    1    3    3  502    0 -0.29162331779E+03 -0.86008618834E+02  0.83544514705E+02  0.31531403525E+03  0.12699999809E+01 0.  1.
       -4    1    3    3    0  502  0.29162331779E+03  0.86008618834E+02  0.12946286185E+04  0.13298520650E+04  0.12699999809E+01 0. -1.
</event>
<event>
 5   0  0.6609191E-03  0.8961888E+03  0.7818609E-02  0.9430358E-01
        2   -1    0    0  501    0  0.00000000000E+00  0.00000000000E+00  0.40709439246E+03  0.40709439247E+03  0.25500000920E-02 0.  1.
       -2   -1    0    0    0  501  0.00000000000E+00  0.00000000000E+00 -0.49322367493E+03  0.49322367493E+03  0.25500000920E-02 0. -1.
    10030    2    1    2    0    0  0.00000000000E+00  0.00000000000E+00 -0.86129282467E+02  0.90031806740E+03  0.89618880220E+03 0.  0.
        2    1    3    3  502    0 -0.28142654144E+03  0.34394519348E+03 -0.10068217443E+03  0.45567103770E+03  0.25500000920E-02 0. -1.
       -2    1    3    3    0  502  0.28142654144E+03 -0.34394519348E+03  0.14552891965E+02  0.44464702970E+03  0.25500000920E-02 0.  1.
</event>
<event>
 5   0  0.6534628E-03  0.9011141E+03  0.7818609E-02  0.9424190E-01
       -2   -1    0    0    0  501  0.00000000000E+00  0.00000000000E+00  0.18582466850E+03  0.18582466852E+03  0.25500000920E-02 0.  1.
        2   -1    0    0  501    0  0.00000000000E+00  0.00000000000E+00 -0.10924364442E+04  0.10924364442E+04  0.25500000920E-02 0. -1.
    10030    2    1    2    0    0  0.00000000000E+00  0.00000000000E+00 -0.90661177567E+03  0.12782611127E+04  0.90111406627E+03 0.  0.
        4    1    3    3  502    0  0.26987916570E+03 -0.28431154597E+03 -0.13823731570E+03  0.41566691906E+03  0.12699999809E+01 0.  1.
       -4    1    3    3    0  502 -0.26987916570E+03  0.28431154597E+03 -0.76837445998E+03  0.86259419364E+03  0.12699999809E+01 0. -1.
</event>
<event>
 5   0  0.3927993E-03  0.9012878E+03  0.7818609E-02  0.9423973E-01
        1   -1    0    0  501    0  0.00000000000E+00  0.00000000000E+00  0.10732256653E+04  0.10732256653E+04  0.50400001928E-02 0. -1.
       -1   -1    0    0    0  501  0.00000000000E+00  0.00000000000E+00 -0.18922385950E+03  0.18922385957E+03  0.50400001928E-02 0.  1.
    10030    2    1    2    0    0  0.00000000000E+00  0.00000000000E+00  0.88400180579E+03  0.12624495249E+04  0.90128775107E+03 0.  0.
        2    1    3    3  502    0 -0.83617430072E+02  0.21904847656E+03  0.98106024519E+03  0.10086889086E+04  0.25500000920E-02 0. -1.
       -2    1    3    3    0  502  0.83617430072E+02 -0.21904847656E+03 -0.97058439395E+02  0.25376061625E+03  0.25500000920E-02 0.  1.
</event>
<event>
 5   0  0.6863405E-03  0.9046530E+03  0.7818609E-02  0.9419784E-01
        2   -1    0    0  501    0  0.00000000000E+00  0.00000000000E+00  0.20141667607E+04  0.20141667607E+04  0.25500000920E-02 0.  1.
       -2   -1    0    0    0  501  0.00000000000E+00  0.00000000000E+00 -0.10158009512E+03  0.10158009515E+03  0.25500000920E-02 0. -1.
    10030    2    1    2    0    0  0.00000000000E+00  0.00000000000E+00  0.19125866655E+04  0.21157468558E+04  0.90465297474E+03 0.  0.
        1    1    3    3  502    0  0.12085718499E+03 -0.30992132175E+03  0.23947255211E+03  0.40988387145E+03  0.50400001928E-02 0. -1.
       -1    1    3    3    0  502 -0.12085718499E+03  0.30992132175E+03  0.16731141134E+04  0.17058629844E+04  0.50400001928E-02 0.  1.
</event>
<event>
 5   0  0.3998066E-03  0.8991925E+03  0.7818609E-02  0.9426591E-01
        1   -1    0    0  501    0  0.00000000000E+00  0.00000000000E+00  0.15157135991E+03  0.15157135999E+03  0.50400001928E-02 0.  1.
       -1   -1    0    0    0  501  0.00000000000E+00  0.00000000000E+00 -0.13336081094E+04  0.13336081094E+04  0.50400001928E-02 0. -1.
    10030    2    1    2    0    0  0.00000000000E+00  0.00000000000E+00 -0.11820367495E+04  0.14851794694E+04  0.89919251506E+03 0.  0.
        4    1    3    3  502    0 -0.10110113935E+03 -0.24969468051E+03 -0.11855463511E+04  0.12157675096E+04  0.12699999809E+01 0. -1.
       -4    1    3    3    0  502  0.10110113935E+03  0.24969468051E+03  0.35096016669E+01  0.26941195975E+03  0.12699999809E+01 0.  1.
</event>
<event>
 5   0  0.3927993E-03  0.9170065E+03  0.7818609E-02  0.9404569E-01
        1   -1    0    0  501    0  0.00000000000E+00  0.00000000000E+00  0.20388015123E+04  0.20388015123E+04  0.50400001928E-02 0.  1.
       -1   -1    0    0    0  501  0.00000000000E+00  0.00000000000E+00 -0.10311216614E+03  0.10311216626E+03  0.50400001928E-02 0. -1.
    10030    2    1    2    0    0  0.00000000000E+00  0.00000000000E+00  0.19356893461E+04  0.21419136785E+04  0.91700652209E+03 0.  0.
        2    1    3    3  502    0  0.13887228684E+03 -0.37036726068E+03  0.15094597636E+04  0.15604250055E+04  0.25500000920E-02 0.  1.
       -2    1    3    3    0  502 -0.13887228684E+03  0.37036726068E+03  0.42622958251E+03  0.58148867302E+03  0.25500000920E-02 0. -1.
</event>
<event>
 5   0  0.3969536E-03  0.8975419E+03  0.7818609E-02  0.9428659E-01
        1   -1    0    0  501    0  0.00000000000E+00  0.00000000000E+00  0.18577427477E+04  0.18577427477E+04  0.50400001928E-02 0.  1.
       -1   -1    0    0    0  501  0.00000000000E+00  0.00000000000E+00 -0.10840864012E+03  0.10840864024E+03  0.50400001928E-02 0. -1.
    10030    2    1    2    0    0  0.00000000000E+00  0.00000000000E+00  0.17493341076E+04  0.19661513880E+04  0.89754189898E+03 0.  0.
        1    1    3    3  502    0 -0.21687072428E+03  0.38591945259E+03  0.10360684732E+04  0.11266785771E+04  0.50400001928E-02 0.  1.
       -1    1    3    3    0  502  0.21687072428E+03 -0.38591945259E+03  0.71326563441E+03  0.83947281087E+03  0.50400001928E-02 0. -1.
</event>
<event>
 5   0  0.6863405E-03  0.8453853E+03  0.7818609E-02  0.9496552E-01
       -2   -1    0    0    0  501  0.00000000000E+00  0.00000000000E+00  0.99988579873E+03  0.99988579873E+03  0.25500000920E-02 0.  1.
        2   -1    0    0  501    0  0.00000000000E+00  0.00000000000E+00 -0.17868946963E+03  0.17868946965E+03  0.25500000920E-02 0. -1.
    10030    2    1    2    0    0  0.00000000000E+00  0.00000000000E+00  0.82119632909E+03  0.11785752684E+04  0.84538526857E+03 0.  0.
        1    1    3    3  502    0  0.35434078840E+01 -0.11646425073E+03 -0.15585816308E+03  0.19459764763E+03  0.50400001928E-02 0. -1.
       -1    1    3    3    0  502 -0.35434078840E+01  0.11646425073E+03  0.97705449217E+03  0.98397762075E+03  0.50400001928E-02 0.  1.
</event>
<event>
 5   0  0.3943549E-03  0.8970144E+03  0.7818609E-02  0.9429321E-01
        1   -1    0    0  501    0  0.00000000000E+00  0.00000000000E+00  0.48480398214E+03  0.48480398217E+03  0.50400001928E-02 0.  1.
       -1   -1    0    0    0  501  0.00000000000E+00  0.00000000000E+00 -0.41492792261E+03  0.41492792264E+03  0.50400001928E-02 0. -1.
    10030    2    1    2    0    0  0.00000000000E+00  0.00000000000E+00  0.69876059533E+02  0.89973190481E+03  0.89701440169E+03 0.  0.
        3    1    3    3  502    0 -0.37503699689E+03 -0.17492752065E+03  0.20839635093E+03  0.46333728082E+03  0.10100000352E+00 0.  1.
       -3    1    3    3    0  502  0.37503699689E+03  0.17492752065E+03 -0.13852029140E+03  0.43639462399E+03  0.10100000352E+00 0. -1.
</event>
<event>
 5   0  0.3794006E-03  0.8874475E+03  0.7818609E-02  0.9441410E-01
        1   -1    0    0  501    0  0.00000000000E+00  0.00000000000E+00  0.30409248792E+03  0.30409248796E+03  0.50400001928E-02 0.  1.
       -1   -1    0    0    0  501  0.00000000000E+00  0.00000000000E+00 -0.64746995218E+03  0.64746995220E+03  0.50400001928E-02 0. -1.
    10030    2    1    2    0    0  0.00000000000E+00  0.00000000000E+00 -0.34337746426E+03  0.95156244016E+03  0.88744746017E+03 0.  0.
        5    1    3    3  502    0 -0.18336875896E+01 -0.31130652695E+03  0.16730661390E+03  0.35345255577E+03  0.46999998093E+01 0.  1.
       -5    1    3    3    0  502  0.18336875896E+01  0.31130652695E+03 -0.51068407815E+03  0.59810988439E+03  0.46999998093E+01 0. -1.
</event>
<event>
 5   0  0.3943549E-03  0.9014306E+03  0.7818609E-02  0.9423795E-01
       -1   -1    0    0    0  501  0.00000000000E+00  0.00000000000E+00  0.13605276301E+03  0.13605276311E+03  0.50400001928E-02 0.  1.
        1   -1    0    0  501    0  0.00000000000E+00  0.00000000000E+00 -0.14931288077E+04  0.14931288077E+04  0.50400001928E-02 0. -1.
    10030    2    1    2    0    0  0.00000000000E+00  0.00000000000E+00 -0.13570760447E+04  0.16291815708E+04  0.90143064049E+03 0.  0.
        3    1    3    3  502    0 -0.77992968095E+02 -0.17809330779E+02  0.12311818117E+03  0.14682701410E+03  0.10100000352E+00 0.  1.
       -3    1    3    3    0  502  0.77992968095E+02  0.17809330779E+02 -0.14801942259E+04  0.14823545567E+04  0.10100000352E+00 0. -1.
</event>
<event>
 5   0  0.6609191E-03  0.8994305E+03  0.7818609E-02  0.9426294E-01
        2   -1    0    0  501    0  0.00000000000E+00  0.00000000000E+00  0.98339766107E+03  0.98339766107E+03  0.25500000920E-02 0. -1.
       -2   -1    0    0    0  501  0.00000000000E+00  0.00000000000E+00 -0.20565819328E+03  0.20565819329E+03  0.25500000920E-02 0.  1.
    10030    2    1    2    0    0  0.00000000000E+00  0.00000000000E+00  0.77773946779E+03  0.11890558544E+04  0.89943045592E+03 0.  0.
        2    1    3    3  502    0  0.27311352424E+03  0.25667411569E+03  0.60299935481E+02  0.37961649202E+03  0.25500000920E-02 0.  1.
       -2    1    3    3    0  502 -0.27311352424E+03 -0.25667411569E+03  0.71743953231E+03  0.80943936234E+03  0.25500000920E-02 0. -1.
</event>
<event>
 5   0  0.6609191E-03  0.8818989E+03  0.7818609E-02  0.9448496E-01
        2   -1    0    0  501    0  0.00000000000E+00  0.00000000000E+00  0.17672880036E+04  0.17672880036E+04  0.25500000920E-02 0. -1.
       -2   -1    0    0    0  501  0.00000000000E+00  0.00000000000E+00 -0.11001965440E+03  0.11001965443E+03  0.25500000920E-02 0.  1.
    10030    2    1    2    0    0  0.00000000000E+00  0.00000000000E+00  0.16572683492E+04  0.18773076581E+04  0.88189889536E+03 0.  0.
        2    1    3    3  502    0 -0.25333275168E+03 -0.36089101612E+03  0.83730898185E+03  0.94631186175E+03  0.25500000920E-02 0. -1.
       -2    1    3    3    0  502  0.25333275168E+03  0.36089101612E+03  0.81995936738E+03  0.93099579631E+03  0.25500000920E-02 0.  1.
</event>
<event>
 5   0  0.6534628E-03  0.9070187E+03  0.7818609E-02  0.9416850E-01
       -2   -1    0    0    0  501  0.00000000000E+00  0.00000000000E+00  0.18705737028E+03  0.18705737030E+03  0.25500000920E-02 0. -1.
        2   -1    0    0  501    0  0.00000000000E+00  0.00000000000E+00 -0.10995061831E+04  0.10995061831E+04  0.25500000920E-02 0.  1.
    10030    2    1    2    0    0  0.00000000000E+00  0.00000000000E+00 -0.91244881281E+03  0.12865635534E+04  0.90701871034E+03 0.  0.
        4    1    3    3  502    0  0.31006514519E+03 -0.19192110526E+03 -0.73780874071E+02  0.37204749050E+03  0.12699999809E+01 0. -1.
       -4    1    3    3    0  502 -0.31006514519E+03  0.19192110526E+03 -0.83866793874E+03  0.91451606289E+03  0.12699999809E+01 0.  1.
</event>
<event>
 5   0  0.2560250E-03  0.8846310E+03  0.7818609E-02  0.9445000E-01
       -3   -1    0    0    0  501  0.00000000000E+00  0.00000000000E+00  0.26704129981E+03  0.26704131891E+03  0.10100000352E+00 0.  1.
        3   -1    0    0  501    0  0.00000000000E+00  0.00000000000E+00 -0.73263200193E+03  0.73263200889E+03  0.10100000352E+00 0. -1.
    10030    2    1    2    0    0  0.00000000000E+00  0.00000000000E+00 -0.46559070211E+03  0.99967332780E+03  0.88463103067E+03 0.  0.
        4    1    3    3  502    0 -0.14076102902E+02  0.33418860266E+03  0.94257164116E+02  0.34751429425E+03  0.12699999809E+01 0.  1.
       -4    1    3    3    0  502  0.14076102902E+02 -0.33418860266E+03 -0.55984786623E+03  0.65215903355E+03  0.12699999809E+01 0. -1.
</event>
<event>
 5   0  0.3943549E-03  0.9019646E+03  0.7818609E-02  0.9423129E-01
        1   -1    0    0  501    0  0.00000000000E+00  0.00000000000E+00  0.94907810451E+03  0.94907810452E+03  0.50400001928E-02 0. -1.
       -1   -1    0    0    0  501  0.00000000000E+00  0.00000000000E+00 -0.21429749001E+03  0.21429749007E+03  0.50400001928E-02 0.  1.
    10030    2    1    2    0    0  0.00000000000E+00  0.00000000000E+00  0.73478061450E+03  0.11633755946E+04  0.90196464600E+03 0.  0.
        3    1    3    3  502    0 -0.35087772366E+03 -0.20824727323E+03  0.11961334316E+03  0.42519344519E+03  0.10100000352E+00 0.  1.
       -3    1    3    3    0  502  0.35087772366E+03  0.20824727323E+03  0.61516727134E+03  0.73818214940E+03  0.10100000352E+00 0. -1.
</event>
<event>
 5   0  0.3998066E-03  0.9730649E+03  0.7818609E-02  0.9338590E-01
       -1   -1    0    0    0  501  0.00000000000E+00  0.00000000000E+00  0.25882976105E+03  0.25882976110E+03  0.50400001928E-02 0. -1.
        1   -1    0    0  501    0  0.00000000000E+00  0.00000000000E+00 -0.91455408840E+03  0.91455408842E+03  0.50400001928E-02 0.  1.
    10030    2    1    2    0    0  0.00000000000E+00  0.00000000000E+00 -0.65572432735E+03  0.11733838495E+04  0.97306488212E+03 0.  0.
        4    1    3    3  502    0  0.34908225519E+03 -0.22465937549E+03 -0.21891096221E+02  0.41570553145E+03  0.12699999809E+01 0. -1.
       -4    1    3    3    0  502 -0.34908225519E+03  0.22465937549E+03 -0.63383323113E+03  0.75767831807E+03  0.12699999809E+01 0.  1.
</event>
<event>
 5   0  0.6724773E-03  0.9030351E+03  0.7818609E-02  0.9421795E-01
        2   -1    0    0  501    0  0.00000000000E+00  0.00000000000E+00  0.44146563718E+03  0.44146563719E+03  0.25500000920E-02 0.  1.
       -2   -1    0    0    0  501  0.00000000000E+00  0.00000000000E+00 -0.46179829108E+03  0.46179829109E+03  0.25500000920E-02 0. -1.
    10030    2    1    2    0    0  0.00000000000E+00  0.00000000000E+00 -0.20332653903E+02  0.90326392827E+03  0.90303505320E+03 0.  0.
        5    1    3    3  502    0 -0.21342554167E+03  0.88674062971E+02  0.37778818030E+03  0.44289902963E+03  0.46999998093E+01 0. -1.
       -5    1    3    3    0  502  0.21342554167E+03 -0.88674062971E+02 -0.39812083420E+03  0.46036489864E+03  0.46999998093E+01 0.  1.
</event>
<event>
 5   0  0.3794006E-03  0.8997185E+03  0.7818609E-02  0.9425933E-01
        1   -1    0    0  501    0  0.00000000000E+00  0.00000000000E+00  0.63658239833E+03  0.63658239835E+03  0.50400001928E-02 0. -1.
       -1   -1    0    0    0  501  0.00000000000E+00  0.00000000000E+00 -0.31790600428E+03  0.31790600432E+03  0.50400001928E-02 0.  1.
    10030    2    1    2    0    0  0.00000000000E+00  0.00000000000E+00  0.31867639406E+03  0.95448840267E+03  0.89971854860E+03 0.  0.
        5    1    3    3  502    0  0.47749729343E+01  0.17880258563E+03 -0.27853200416E+03  0.33105185747E+03  0.46999998093E+01 0.  1.
       -5    1    3    3    0  502 -0.47749729343E+01 -0.17880258563E+03  0.59720839822E+03  0.62343654520E+03  0.46999998093E+01 0. -1.
</event>
<event>
 5   0  0.3927993E-03  0.9011800E+03  0.7818609E-02  0.9424108E-01
        1   -1    0    0  501    0  0.00000000000E+00  0.00000000000E+00  0.19168163910E+04  0.19168163910E+04  0.50400001928E-02 0.  1.
       -1   -1    0    0    0  501  0.00000000000E+00  0.00000000000E+00 -0.10592112546E+03  0.10592112558E+03  0.50400001928E-02 0. -1.
    10030    2    1    2    0    0  0.00000000000E+00  0.00000000000E+00  0.18108952655E+04  0.20227375166E+04  0.90118000323E+03 0.  0.
        2    1    3    3  502    0  0.37498335831E+03  0.18307735156E+03  0.52386528191E+03  0.66974970643E+03  0.25500000920E-02 0. -1.
       -2    1    3    3    0  502 -0.37498335831E+03 -0.18307735156E+03  0.12870299836E+04  0.13529878101E+04  0.25500000920E-02 0.  1.
</event>
<event>
 5   0  0.6524705E-03  0.9021724E+03  0.7818609E-02  0.9422870E-01
        2   -1    0    0  501    0  0.00000000000E+00  0.00000000000E+00  0.21603835540E+04  0.21603835540E+04  0.25500000920E-02 0.  1.
       -2   -1    0    0    0  501  0.00000000000E+00  0.00000000000E+00 -0.94186398755E+02  0.94186398789E+02  0.25500000920E-02 0. -1.
    10030    2    1    2    0    0  0.00000000000E+00  0.00000000000E+00  0.20661971553E+04  0.22545699528E+04  0.90217237139E+03 0.  0.
        3    1    3    3  502    0 -0.12964193037E+03 -0.12569756921E+03  0.20661202294E+04  0.20739960756E+04  0.10100000352E+00 0.  1.
       -3    1    3    3    0  502  0.12964193037E+03  0.12569756921E+03  0.76925865042E-01  0.18057387722E+03  0.10100000352E+00 0. -1.
</event>
<event>
 5   0  0.3943549E-03  0.9000302E+03  0.7818609E-02  0.9425544E-01
        1   -1    0    0  501    0  0.00000000000E+00  0.00000000000E+00  0.74152724756E+03  0.74152724758E+03  0.50400001928E-02 0.  1.
       -1   -1    0    0    0  501  0.00000000000E+00  0.00000000000E+00 -0.27310335234E+03  0.27310335239E+03  0.50400001928E-02 0. -1.
    10030    2    1    2    0    0  0.00000000000E+00  0.00000000000E+00  0.46842389522E+03  0.10146306000E+04  0.90003017103E+03 0.  0.
        3    1    3    3  502    0 -0.11258522907E+03 -0.18480043011E+03  0.67902443519E+03  0.71267161201E+03  0.10100000352E+00 0.  1.
       -3    1    3    3    0  502  0.11258522907E+03  0.18480043011E+03 -0.21060053996E+03  0.30195898796E+03  0.10100000352E+00 0. -1.
</event>
<event>
 5   0  0.3943549E-03  0.9058941E+03  0.7818609E-02  0.9418243E-01
       -1   -1    0    0    0  501  0.00000000000E+00  0.00000000000E+00  0.54172728430E+03  0.54172728432E+03  0.50400001928E-02 0. -1.
        1   -1    0    0  501    0  0.00000000000E+00  0.00000000000E+00 -0.37871645977E+03  0.37871645980E+03  0.50400001928E-02 0.  1.
    10030    2    1    2    0    0  0.00000000000E+00  0.00000000000E+00  0.16301082453E+03  0.92044374413E+03  0.90589412030E+03 0.  0.
        3    1    3    3  502    0  0.34428713513E+03 -0.45321317969E+02  0.37699123097E+03  0.51255248678E+03  0.10100000352E+00 0. -1.
       -3    1    3    3    0  502 -0.34428713513E+03  0.45321317969E+02 -0.21398040644E+03  0.40789125734E+03  0.10100000352E+00 0.  1.
</event>
<event>
 5   0  0.3943549E-03  0.9031753E+03  0.7818609E-02  0.9421621E-01
        1   -1    0    0  501    0  0.00000000000E+00  0.00000000000E+00  0.12035734076E+04  0.12035734076E+04  0.50400001928E-02 0.  1.
       -1   -1    0    0    0  501  0.00000000000E+00  0.00000000000E+00 -0.16943827823E+03  0.16943827831E+03  0.50400001928E-02 0. -1.
    10030    2    1    2    0    0  0.00000000000E+00  0.00000000000E+00  0.10341351294E+04  0.13730116859E+04  0.90317530075E+03 0.  0.
        3    1    3    3  502    0 -0.57637289668E+02  0.31482001544E+02 -0.16213962265E+03  0.17493553388E+03  0.10100000352E+00 0. -1.
       -3    1    3    3    0  502  0.57637289668E+02 -0.31482001544E+02  0.11962747520E+04  0.11980761520E+04  0.10100000352E+00 0.  1.
</event>
<event>
 5   0  0.2560250E-03  0.9032585E+03  0.7818609E-02  0.9421517E-01
       -4   -1    0    0    0  501  0.00000000000E+00  0.00000000000E+00  0.76481039146E+03  0.76481144590E+03  0.12699999809E+01 0.  1.
        4   -1    0    0  501    0  0.00000000000E+00  0.00000000000E+00 -0.26668949279E+03  0.26669251670E+03  0.12699999809E+01 0. -1.
    10030    2    1    2    0    0  0.00000000000E+00  0.00000000000E+00  0.49812089866E+03  0.10315039626E+04  0.90325854282E+03 0.  0.
        3    1    3    3  502    0  0.26357605784E+03 -0.29881968815E+03  0.49185815955E+03  0.63300079274E+03  0.10100000352E+00 0.  1.
       -3    1    3    3    0  502 -0.26357605784E+03  0.29881968815E+03  0.62627391154E+01  0.39850316986E+03  0.10100000352E+00 0. -1.
</event>
<event>
 5   0  0.3998066E-03  0.9024012E+03  0.7818609E-02  0.9422585E-01
       -1   -1    0    0    0  501  0.00000000000E+00  0.00000000000E+00  0.37799154584E+03  0.37799154587E+03  0.50400001928E-02 0. -1.
        1   -1    0    0  501    0  0.00000000000E+00  0.00000000000E+00 -0.53858871006E+03  0.53858871009E+03  0.50400001928E-02 0.  1.
    10030    2    1    2    0    0  0.00000000000E+00  0.00000000000E+00 -0.16059716422E+03  0.91658025596E+03  0.90240119485E+03 0.  0.
        4    1    3    3  502    0 -0.98402295505E+02 -0.40515200601E+03  0.94891101861E+02  0.42759454375E+03  0.12699999809E+01 0.  1.
       -4    1    3    3    0  502  0.98402295505E+02  0.40515200601E+03 -0.25548826608E+03  0.48898571221E+03  0.12699999809E+01 0. -1.
</event>
<event>
 5   0  0.3998066E-03  0.8989871E+03  0.7818609E-02  0.9426849E-01
        1   -1    0    0  501    0  0.00000000000E+00  0.00000000000E+00  0.28803092784E+03  0.28803092788E+03  0.50400001928E-02 0.  1.
       -1   -1    0    0    0  501  0.00000000000E+00  0.00000000000E+00 -0.70146783341E+03  0.70146783342E+03  0.50400001928E-02 0. -1.
    10030    2    1    2    0    0  0.00000000000E+00  0.00000000000E+00 -0.41343690557E+03  0.98949876130E+03  0.89898705427E+03 0.  0.
        4    1    3    3  502    0  0.17469903672E+03  0.25946582700E+03  0.14858286735E+03  0.34629575536E+03  0.12699999809E+01 0.  1.
       -4    1    3    3    0  502 -0.17469903672E+03 -0.25946582700E+03 -0.56201977292E+03  0.64320300595E+03  0.12699999809E+01 0. -1.
</event>
<event>
 5   0  0.6524705E-03  0.8931885E+03  0.7818609E-02  0.9434136E-01
       -2   -1    0    0    0  501  0.00000000000E+00  0.00000000000E+00  0.18003233413E+03  0.18003233415E+03  0.25500000920E-02 0. -1.
        2   -1    0    0  501    0  0.00000000000E+00  0.00000000000E+00 -0.11078367989E+04  0.11078367989E+04  0.25500000920E-02 0.  1.
    10030    2    1    2    0    0  0.00000000000E+00  0.00000000000E+00 -0.92780446475E+03  0.12878691330E+04  0.89318854616E+03 0.  0.
        3    1    3    3  502    0  0.12098644330E+03 -0.34265142007E+03 -0.89572424290E+02  0.37426053029E+03  0.10100000352E+00 0. -1.
       -3    1    3    3    0  502 -0.12098644330E+03  0.34265142007E+03 -0.83823204046E+03  0.91360860274E+03  0.10100000352E+00 0.  1.
</event>
<event>
 5   0  0.6534628E-03  0.8933637E+03  0.7818609E-02  0.9433915E-01
        2   -1    0    0  501    0  0.00000000000E+00  0.00000000000E+00  0.65011529268E+03  0.65011529268E+03  0.25500000920E-02 0. -1.
       -2   -1    0    0    0  501  0.00000000000E+00  0.00000000000E+00 -0.30690659535E+03  0.30690659537E+03  0.25500000920E-02 0.  1.
    10030    2    1    2    0    0  0.00000000000E+00  0.00000000000E+00  0.34320869732E+03  0.95702188805E+03  0.89336369094E+03 0.  0.
        4    1    3    3  502    0 -0.20616488177E+02  0.13069827651E+03  0.62863816102E+03  0.64241312989E+03  0.12699999809E+01 0. -1.
       -4    1    3    3    0  502  0.20616488177E+02 -0.13069827651E+03 -0.28542946369E+03  0.31460875816E+03  0.12699999809E+01 0.  1.
</event>
<event>
 5   0  0.6534628E-03  0.8863748E+03  0.7818609E-02  0.9442776E-01
        2   -1    0    0  501    0  0.00000000000E+00  0.00000000000E+00  0.41060721747E+03  0.41060721747E+03  0.25500000920E-02 0. -1.
       -2   -1    0    0    0  501  0.00000000000E+00  0.00000000000E+00 -0.47835264738E+03  0.47835264739E+03  0.25500000920E-02 0.  1.
    10030    2    1    2    0    0  0.00000000000E+00  0.00000000000E+00 -0.67745429916E+02  0.88895986486E+03  0.88637475035E+03 0.  0.
        4    1    3    3  502    0  0.69203754375E+02  0.13423478869E+03  0.38400216571E+03  0.41263472258E+03  0.12699999809E+01 0. -1.
       -4    1    3    3    0  502 -0.69203754375E+02 -0.13423478869E+03 -0.45174759562E+03  0.47632514228E+03  0.12699999809E+01 0.  1.
</event>
<event>
 5   0  0.3794006E-03  0.8897982E+03  0.7818609E-02  0.9438425E-01
       -1   -1    0    0    0  501  0.00000000000E+00  0.00000000000E+00  0.14602962375E+03  0.14602962383E+03  0.50400001928E-02 0. -1.
        1   -1    0    0  501    0  0.00000000000E+00  0.00000000000E+00 -0.13554454450E+04  0.13554454450E+04  0.50400001928E-02 0.  1.
    10030    2    1    2    0    0  0.00000000000E+00  0.00000000000E+00 -0.12094158212E+04  0.15014750688E+04  0.88979815332E+03 0.  0.
        5    1    3    3  502    0 -0.15097445789E+03 -0.38569773380E+02 -0.13078478049E+04  0.13171062543E+04  0.46999998093E+01 0.  1.
       -5    1    3    3    0  502  0.15097445789E+03  0.38569773380E+02  0.98431983677E+02  0.18436881451E+03  0.46999998093E+01 0. -1.
</event>
<event>
 5   0  0.3943549E-03  0.9139775E+03  0.7818609E-02  0.9408276E-01
       -1   -1    0    0    0  501  0.00000000000E+00  0.00000000000E+00  0.40020491272E+03  0.40020491275E+03  0.50400001928E-02 0.  1.
        1   -1    0    0  501    0  0.00000000000E+00  0.00000000000E+00 -0.52182943485E+03  0.52182943488E+03  0.50400001928E-02 0. -1.
    10030    2    1    2    0    0  0.00000000000E+00  0.00000000000E+00 -0.12162452213E+03  0.92203434763E+03  0.91397746899E+03 0.  0.
        3    1    3    3  502    0  0.44905340484E+03 -0.83615140050E+02 -0.46608329244E+02  0.45914354902E+03  0.10100000352E+00 0.  1.
       -3    1    3    3    0  502 -0.44905340484E+03  0.83615140050E+02 -0.75016192890E+02  0.46289079862E+03  0.10100000352E+00 0. -1.
</event>
<event>
 5   0  0.6534628E-03  0.9002963E+03  0.7818609E-02  0.9425211E-01
        2   -1    0    0  501    0  0.00000000000E+00  0.00000000000E+00  0.97468056229E+03  0.97468056229E+03  0.25500000920E-02 0. -1.
       -2   -1    0    0    0  501  0.00000000000E+00  0.00000000000E+00 -0.20789720246E+03  0.20789720247E+03  0.25500000920E-02 0.  1.
    10030    2    1    2    0    0  0.00000000000E+00  0.00000000000E+00  0.76678335983E+03  0.11825777648E+04  0.90029631166E+03 0.  0.
        4    1    3    3  502    0  0.38073124379E+03 -0.18676864828E+03  0.18508176678E+03  0.46270474524E+03  0.12699999809E+01 0.  1.
       -4    1    3    3    0  502 -0.38073124379E+03  0.18676864828E+03  0.58170159306E+03  0.71987301952E+03  0.12699999809E+01 0. -1.
</event>
<event>
 5   0  0.6724773E-03  0.8850775E+03  0.7818609E-02  0.9444430E-01
        2   -1    0    0  501    0  0.00000000000E+00  0.00000000000E+00  0.76659203115E+03  0.76659203115E+03  0.25500000920E-02 0. -1.
       -2   -1    0    0    0  501  0.00000000000E+00  0.00000000000E+00 -0.25546908205E+03  0.25546908207E+03  0.25500000920E-02 0.  1.
    10030    2    1    2    0    0  0.00000000000E+00  0.00000000000E+00  0.51112294910E+03  0.10220611132E+04  0.88507753901E+03 0.  0.
        5    1    3    3  502    0 -0.53542285118E+02 -0.33028087012E+03  0.58997908506E+03  0.67826959262E+03  0.46999998093E+01 0. -1.
       -5    1    3    3    0  502  0.53542285118E+02  0.33028087012E+03 -0.78856135964E+02  0.34379152060E+03  0.46999998093E+01 0.  1.
</event>
<event>
 5   0  0.3794006E-03  0.8975669E+03  0.7818609E-02  0.9428628E-01
       -1   -1    0    0    0  501  0.00000000000E+00  0.00000000000E+00  0.60189437384E+03  0.60189437386E+03  0.50400001928E-02 0. -1.
        1   -1    0    0  501    0  0.00000000000E+00  0.00000000000E+00 -0.33462116744E+03  0.33462116748E+03  0.50400001928E-02 0.  1.
    10030    2    1    2    0    0  0.00000000000E+00  0.00000000000E+00  0.26727320640E+03  0.93651554134E+03  0.89756692916E+03 0.  0.
        5    1    3    3  502    0 -0.22758357122E+03  0.37014492240E+03  0.25067802783E+03  0.50166035233E+03  0.46999998093E+01 0.  1.
       -5    1    3    3    0  502  0.22758357122E+03 -0.37014492240E+03  0.16595178566E+02  0.43485518902E+03  0.46999998093E+01 0. -1.
</event>
<event>
 5   0  0.3943549E-03  0.9037589E+03  0.7818609E-02  0.9420895E-01
       -1   -1    0    0    0  501  0.00000000000E+00  0.00000000000E+00  0.14811771239E+03  0.14811771248E+03  0.50400001928E-02 0.  1.
        1   -1    0    0  501    0  0.00000000000E+00  0.00000000000E+00 -0.13785997512E+04  0.13785997512E+04  0.50400001928E-02 0. -1.
    10030    2    1    2    0    0  0.00000000000E+00  0.00000000000E+00 -0.12304820388E+04  0.15267174637E+04  0.90375890928E+03 0.  0.
        3    1    3    3  502    0  0.68098791665E+02  0.14403695108E+03  0.99095951887E+02  0.18762757416E+03  0.10100000352E+00 0.  1.
       -3    1    3    3    0  502 -0.68098791665E+02 -0.14403695108E+03 -0.13295779907E+04  0.13390898895E+04  0.10100000352E+00 0. -1.
</event>
<event>
 5   0  0.6609191E-03  0.8998708E+03  0.7818609E-02  0.9425743E-01
       -2   -1    0    0    0  501  0.00000000000E+00  0.00000000000E+00  0.40811048396E+03  0.40811048397E+03  0.25500000920E-02 0.  1.
        2   -1    0    0  501    0  0.00000000000E+00  0.00000000000E+00 -0.49604665846E+03  0.49604665847E+03  0.25500000920E-02 0. -1.
    10030    2    1    2    0    0  0.00000000000E+00  0.00000000000E+00 -0.87936174503E+02  0.90415714244E+03  0.89987075041E+03 0.  0.
        2    1    3    3  502    0 -0.29684520616E+03  0.16135670482E+03 -0.34251771754E+03  0.48111479861E+03  0.25500000920E-02 0. -1.
       -2    1    3    3    0  502  0.29684520616E+03 -0.16135670482E+03  0.25458154303E+03  0.42304234383E+03  0.25500000920E-02 0.  1.
</event>
<event>
 5   0  0.6724773E-03  0.9021740E+03  0.7818609E-02  0.9422868E-01
        2   -1    0    0  501    0  0.00000000000E+00  0.00000000000E+00  0.10325625026E+04  0.10325625026E+04  0.25500000920E-02 0. -1.
       -2   -1    0    0    0  501  0.00000000000E+00  0.00000000000E+00 -0.19706261078E+03  0.19706261080E+03  0.25500000920E-02 0.  1.
    10030    2    1    2    0    0  0.00000000000E+00  0.00000000000E+00  0.83549989179E+03  0.12296251134E+04  0.90217395786E+03 0.  0.
        5    1    3    3  502    0 -0.43672385662E+03 -0.96990401519E+02  0.33918742117E+03  0.56143126169E+03  0.46999998093E+01 0.  1.
       -5    1    3    3    0  502  0.43672385662E+03  0.96990401519E+02  0.49631247062E+03  0.66819385168E+03  0.46999998093E+01 0. -1.
</event>
<event>
 5   0  0.6863405E-03  0.8992542E+03  0.7818609E-02  0.9426514E-01
        2   -1    0    0  501    0  0.00000000000E+00  0.00000000000E+00  0.13995106764E+04  0.13995106764E+04  0.25500000920E-02 0.  1.
       -2   -1    0    0    0  501  0.00000000000E+00  0.00000000000E+00 -0.14445373473E+03  0.14445373475E+03  0.25500000920E-02 0. -1.
    10030    2    1    2    0    0  0.00000000000E+00  0.00000000000E+00  0.12550569417E+04  0.15439644112E+04  0.89925423329E+03 0.  0.
        1    1    3    3  502    0 -0.15347894400E+03 -0.10849103813E+03 -0.73769965958E+02  0.20191111785E+03  0.50400001928E-02 0. -1.
       -1    1    3    3    0  502  0.15347894400E+03  0.10849103813E+03  0.13288269077E+04  0.13420532933E+04  0.50400001928E-02 0.  1.
</event>
<event>
 5   0  0.6534628E-03  0.9005746E+03  0.7818609E-02  0.9424863E-01
       -2   -1    0    0    0  501  0.00000000000E+00  0.00000000000E+00  0.81093790860E+03  0.81093790861E+03  0.25500000920E-02 0. -1.
        2   -1    0    0  501    0  0.00000000000E+00  0.00000000000E+00 -0.25002982112E+03  0.25002982114E+03  0.25500000920E-02 0.  1.
    10030    2    1    2    0    0  0.00000000000E+00  0.00000000000E+00  0.56090808748E+03  0.10609677297E+04  0.90057461710E+03 0.  0.
        4    1    3    3  502    0  0.43288818452E+03 -0.12081557164E+03  0.31311240819E+03  0.54774955565E+03  0.12699999809E+01 0. -1.
       -4    1    3    3    0  502 -0.43288818452E+03  0.12081557164E+03  0.24779567928E+03  0.51321817409E+03  0.12699999809E+01 0.  1.
</event>
<event>
 5   0  0.6724773E-03  0.9014289E+03  0.7818609E-02  0.9423797E-01
        2   -1    0    0  501    0  0.00000000000E+00  0.00000000000E+00  0.12216116539E+04  0.12216116539E+04  0.25500000920E-02 0.  1.
       -2   -1    0    0    0  501  0.00000000000E+00  0.00000000000E+00 -0.16629139117E+03  0.16629139119E+03  0.25500000920E-02 0. -1.
    10030    2    1    2    0    0  0.00000000000E+00  0.00000000000E+00  0.10553202628E+04  0.13879030451E+04  0.90142886889E+03 0.  0.
        5    1    3    3  502    0 -0.15873223806E+03 -0.34359052589E+03  0.90439521148E+03  0.98040969060E+03  0.46999998093E+01 0.  1.
       -5    1    3    3    0  502  0.15873223806E+03  0.34359052589E+03  0.15092505129E+03  0.40749335453E+03  0.46999998093E+01 0. -1.
</event>
<event>
 5   0  0.6524705E-03  0.8965771E+03  0.7818609E-02  0.9429870E-01
       -2   -1    0    0    0  501  0.00000000000E+00  0.00000000000E+00  0.25805888859E+03  0.25805888860E+03  0.25500000920E-02 0.  1.
        2   -1    0    0  501    0  0.00000000000E+00  0.00000000000E+00 -0.77874716243E+03  0.77874716244E+03  0.25500000920E-02 0. -1.
    10030    2    1    2    0    0  0.00000000000E+00  0.00000000000E+00 -0.52068827384E+03  0.10368060510E+04  0.89657710709E+03 0.  0.
        3    1    3    3  502    0  0.93947779085E+02  0.43562350500E+03 -0.31662427652E+03  0.54666714368E+03  0.10100000352E+00 0.  1.
       -3    1    3    3    0  502 -0.93947779085E+02 -0.43562350500E+03 -0.20406399732E+03  0.49013890736E+03  0.10100000352E+00 0. -1.
</event>
<event>
 5   0  0.3927993E-03  0.8995001E+03  0.7818609E-02  0.9426207E-01
       -1   -1    0    0    0  501  0.00000000000E+00  0.00000000000E+00  0.63947120651E+03  0.63947120653E+03  0.50400001928E-02 0. -1.
        1   -1    0    0  501    0  0.00000000000E+00  0.00000000000E+00 -0.31631619064E+03  0.31631619068E+03  0.50400001928E-02 0.  1.
    10030    2    1    2    0    0  0.00000000000E+00  0.00000000000E+00  0.32315501587E+03  0.95578739721E+03  0.89950007470E+03 0.  0.
        2    1    3    3  502    0 -0.34603774721E+03  0.25711807441E+03  0.29775016276E+03  0.52393414292E+03  0.25500000920E-02 0. -1.
       -2    1    3    3    0  502  0.34603774721E+03 -0.25711807441E+03  0.25404853110E+02  0.43185325430E+03  0.25500000920E-02 0.  1.
</event>
<event>
 5   0  0.6724773E-03  0.8978372E+03  0.7818609E-02  0.9428289E-01
       -2   -1    0    0    0  501  0.00000000000E+00  0.00000000000E+00  0.31223533993E+03  0.31223533994E+03  0.25500000920E-02 0. -1.
        2   -1    0    0  501    0  0.00000000000E+00  0.00000000000E+00 -0.64543587505E+03  0.64543587506E+03  0.25500000920E-02 0.  1.
    10030    2    1    2    0    0  0.00000000000E+00  0.00000000000E+00 -0.33320053512E+03  0.95767121500E+03  0.89783715642E+03 0.  0.
        5    1    3    3  502    0 -0.24924495466E+03 -0.22107206427E+03  0.15429764322E+03  0.36718627116E+03  0.46999998093E+01 0. -1.
       -5    1    3    3    0  502  0.24924495466E+03  0.22107206427E+03 -0.48749817834E+03  0.59048494385E+03  0.46999998093E+01 0.  1.
</event>
<event>
 5   0  0.3794006E-03  0.9067704E+03  0.7818609E-02  0.9417157E-01
        1   -1    0    0  501    0  0.00000000000E+00  0.00000000000E+00  0.20036397293E+04  0.20036397293E+04  0.50400001928E-02 0. -1.
       -1   -1    0    0    0  501  0.00000000000E+00  0.00000000000E+00 -0.10259237600E+03  0.10259237613E+03  0.50400001928E-02 0.  1.
    10030    2    1    2    0    0  0.00000000000E+00  0.00000000000E+00  0.19010473533E+04  0.21062321054E+04  0.90677044640E+03 0.  0.
        5    1    3    3  502    0 -0.98189994438E+02 -0.28466854620E+03  0.17377337772E+04  0.17636377822E+04  0.46999998093E+01 0. -1.
       -5    1    3    3    0  502  0.98189994438E+02  0.28466854620E+03  0.16331357609E+03  0.34259432327E+03  0.46999998093E+01 0.  1.
</event>
<event>
 5   0  0.3794006E-03  0.8988114E+03  0.7818609E-02  0.9427068E-01
       -1   -1    0    0    0  501  0.00000000000E+00  0.00000000000E+00  0.24342472879E+03  0.24342472884E+03  0.50400001928E-02 0.  1.
        1   -1    0    0  501    0  0.00000000000E+00  0.00000000000E+00 -0.82968358332E+03  0.82968358333E+03  0.50400001928E-02 0. -1.
    10030    2    1    2    0    0  0.00000000000E+00  0.00000000000E+00 -0.58625885453E+03  0.10731083122E+04  0.89881144026E+03 0.  0.
        5    1    3    3  502    0  0.35873940459E+03  0.13373576120E+03 -0.57405383257E+03  0.69002833777E+03  0.46999998093E+01 0.  1.
       -5    1    3    3    0  502 -0.35873940459E+03 -0.13373576120E+03 -0.12205021958E+02  0.38307997441E+03  0.46999998093E+01 0. -1.
</event>
<event>
 5   0  0.3794006E-03  0.8991319E+03  0.7818609E-02  0.9426667E-01
        1   -1    0    0  501    0  0.00000000000E+00  0.00000000000E+00  0.57344463962E+03  0.57344463965E+03  0.50400001928E-02 0. -1.
       -1   -1    0    0    0  501  0.00000000000E+00  0.00000000000E+00 -0.35244818807E+03  0.35244818811E+03  0.50400001928E-02 0.  1.
    10030    2    1    2    0    0  0.00000000000E+00  0.00000000000E+00  0.22099645155E+03  0.92589282776E+03  0.89913185734E+03 0.  0.
        5    1    3    3  502    0  0.34071893150E+03  0.26605268840E+03  0.23751444944E+03  0.49326324308E+03  0.46999998093E+01 0. -1.
       -5    1    3    3    0  502 -0.34071893150E+03 -0.26605268840E+03 -0.16517997887E+02  0.43262958468E+03  0.46999998093E+01 0.  1.
</event>
<event>
 5   0  0.3969536E-03  0.9067967E+03  0.7818609E-02  0.9417125E-01
       -1   -1    0    0    0  501  0.00000000000E+00  0.00000000000E+00  0.24354989217E+03  0.24354989222E+03  0.50400001928E-02 0.  1.
        1   -1    0    0  501    0  0.00000000000E+00  0.00000000000E+00 -0.84405736356E+03  0.84405736357E+03  0.50400001928E-02 0. -1.
    10030    2    1    2    0    0  0.00000000000E+00  0.00000000000E+00 -0.60050747139E+03  0.10876072558E+04  0.90679673558E+03 0.  0.
        1    1    3    3  502    0  0.99449681439E+02  0.46127534733E+02  0.22741465889E+03  0.25245874059E+03  0.50400001928E-02 0.  1.
       -1    1    3    3    0  502 -0.99449681439E+02 -0.46127534733E+02 -0.82792213028E+03  0.83514851520E+03  0.50400001928E-02 0. -1.
</event>
<event>
 5   0  0.6524705E-03  0.9809164E+03  0.7818609E-02  0.9329727E-01
       -2   -1    0    0    0  501  0.00000000000E+00  0.00000000000E+00  0.46607110498E+03  0.46607110499E+03  0.25500000920E-02 0.  1.
        2   -1    0    0  501    0  0.00000000000E+00  0.00000000000E+00 -0.51612129964E+03  0.51612129964E+03  0.25500000920E-02 0. -1.
    10030    2    1    2    0    0  0.00000000000E+00  0.00000000000E+00 -0.50050194656E+02  0.98219240463E+03  0.98091635613E+03 0.  0.
        3    1    3    3  502    0  0.16966203970E+03  0.42167040007E+03  0.15949180718E+03  0.48169365864E+03  0.10100000352E+00 0.  1.
       -3    1    3    3    0  502 -0.16966203970E+03 -0.42167040007E+03 -0.20954200183E+03  0.50049874600E+03  0.10100000352E+00 0. -1.
</event>
<event>
 5   0  0.2560250E-03  0.8972176E+03  0.7818609E-02  0.9429066E-01
        4   -1    0    0  501    0  0.00000000000E+00  0.00000000000E+00  0.71300344912E+03  0.71300458018E+03  0.12699999809E+01 0. -1.
       -4   -1    0    0    0  501  0.00000000000E+00  0.00000000000E+00 -0.28225369963E+03  0.28225655680E+03  0.12699999809E+01 0.  1.
    10030    2    1    2    0    0  0.00000000000E+00  0.00000000000E+00  0.43074974949E+03  0.99526113698E+03  0.89721757902E+03 0.  0.
        1    1    3    3  502    0 -0.22435764117E+03  0.31612815023E+03  0.46582671413E+03  0.60602630813E+03  0.50400001928E-02 0. -1.
       -1    1    3    3    0  502  0.22435764117E+03 -0.31612815023E+03 -0.35076964640E+02  0.38923482885E+03  0.50400001928E-02 0.  1.
</event>
<event>
 5   0  0.3998066E-03  0.8992756E+03  0.7818609E-02  0.9426487E-01
       -1   -1    0    0    0  501  0.00000000000E+00  0.00000000000E+00  0.44940781802E+03  0.44940781805E+03  0.50400001928E-02 0. -1.
        1   -1    0    0  501    0  0.00000000000E+00  0.00000000000E+00 -0.44986791620E+03  0.44986791623E+03  0.50400001928E-02 0.  1.
    10030    2    1    2    0    0  0.00000000000E+00  0.00000000000E+00 -0.46009818435E+00  0.89927573428E+03  0.89927561658E+03 0.  0.
        4    1    3    3  502    0 -0.25593112244E+03 -0.23295696046E+03 -0.28728907168E+03  0.44978473570E+03  0.12699999809E+01 0.  1.
       -4    1    3    3    0  502  0.25593112244E+03  0.23295696046E+03  0.28682897350E+03  0.44949099858E+03  0.12699999809E+01 0. -1.
</event>
<event>
 5   0  0.6609191E-03  0.8842735E+03  0.7818609E-02  0.9445457E-01
        2   -1    0    0  501    0  0.00000000000E+00  0.00000000000E+00  0.63209338042E+03  0.63209338042E+03  0.25500000920E-02 0. -1.
       -2   -1    0    0    0  501  0.00000000000E+00  0.00000000000E+00 -0.30926585220E+03  0.30926585221E+03  0.25500000920E-02 0.  1.
    10030    2    1    2    0    0  0.00000000000E+00  0.00000000000E+00  0.32282752821E+03  0.94135923264E+03  0.88427348253E+03 0.  0.
        2    1    3    3  502    0  0.42972635835E+03  0.34266198280E+02  0.26596809355E+03  0.50653523293E+03  0.25500000920E-02 0. -1.
       -2    1    3    3    0  502 -0.42972635835E+03 -0.34266198280E+02  0.56859434662E+02  0.43482399971E+03  0.25500000920E-02 0.  1.
</event>
<event>
 5   0  0.6609191E-03  0.8910060E+03  0.7818609E-02  0.9436895E-01
       -2   -1    0    0    0  501  0.00000000000E+00  0.00000000000E+00  0.33474931352E+03  0.33474931353E+03  0.25500000920E-02 0.  1.
        2   -1    0    0  501    0  0.00000000000E+00  0.00000000000E+00 -0.59290020182E+03  0.59290020182E+03  0.25500000920E-02 0. -1.
    10030    2    1    2    0    0  0.00000000000E+00  0.00000000000E+00 -0.25815088829E+03  0.92764951536E+03  0.89100602816E+03 0.  0.
        2    1    3    3  502    0 -0.31456109128E+03  0.35650554263E+02 -0.45542035009E+03  0.55464162974E+03  0.25500000920E-02 0. -1.
       -2    1    3    3    0  502  0.31456109128E+03 -0.35650554263E+02  0.19726946180E+03  0.37300788561E+03  0.25500000920E-02 0.  1.
</event>
<event>
 5   0  0.3969536E-03  0.8959264E+03  0.7818609E-02  0.9430688E-01
       -1   -1    0    0    0  501  0.00000000000E+00  0.00000000000E+00  0.22540130204E+03  0.22540130210E+03  0.50400001928E-02 0.  1.
        1   -1    0    0  501    0  0.00000000000E+00  0.00000000000E+00 -0.89028341031E+03  0.89028341032E+03  0.50400001928E-02 0. -1.
    10030    2    1    2    0    0  0.00000000000E+00  0.00000000000E+00 -0.66488210826E+03  0.11156847124E+04  0.89592642535E+03 0.  0.
        1    1    3    3  502    0  0.95958761972E+02 -0.40849880611E+03 -0.13715858985E+03  0.44146555628E+03  0.50400001928E-02 0.  1.
       -1    1    3    3    0  502 -0.95958761972E+02  0.40849880611E+03 -0.52772351842E+03  0.67421915614E+03  0.50400001928E-02 0. -1.
</event>
<event>
 5   0  0.6724773E-03  0.9036509E+03  0.7818609E-02  0.9421029E-01
       -2   -1    0    0    0  501  0.00000000000E+00  0.00000000000E+00  0.19684885643E+03  0.19684885645E+03  0.25500000920E-02 0.  1.
        2   -1    0    0  501    0  0.00000000000E+00  0.00000000000E+00 -0.10370709560E+04  0.10370709560E+04  0.25500000920E-02 0. -1.
    10030    2    1    2    0    0  0.00000000000E+00  0.00000000000E+00 -0.84022209954E+03  0.12339198124E+04  0.90365088775E+03 0.  0.
        5    1    3    3  502    0  0.26019279142E+02  0.43880580681E+03 -0.56264942938E+03  0.71401961412E+03  0.46999998093E+01 0. -1.
       -5    1    3    3    0  502 -0.26019279142E+02 -0.43880580681E+03 -0.27757267016E+03  0.51990019830E+03  0.46999998093E+01 0.  1.
</event>
<event>
 5   0  0.3943549E-03  0.8356803E+03  0.7818609E-02  0.9509760E-01
        1   -1    0    0  501    0  0.00000000000E+00  0.00000000000E+00  0.22201766186E+03  0.22201766192E+03  0.50400001928E-02 0.  1.
       -1   -1    0    0    0  501  0.00000000000E+00  0.00000000000E+00 -0.78638065909E+03  0.78638065911E+03  0.50400001928E-02 0. -1.
    10030    2    1    2    0    0  0.00000000000E+00  0.00000000000E+00 -0.56436299723E+03  0.10083983210E+04  0.83568031041E+03 0.  0.
        3    1    3    3  502    0 -0.14866813361E+03 -0.17394783320E+03 -0.70405419901E+03  0.74030560444E+03  0.10100000352E+00 0. -1.
       -3    1    3    3    0  502  0.14866813361E+03  0.17394783320E+03  0.13969120178E+03  0.26809271658E+03  0.10100000352E+00 0.  1.
</event>
<event>
 5   0  0.6534628E-03  0.9014088E+03  0.7818609E-02  0.9423822E-01
        2   -1    0    0  501    0  0.00000000000E+00  0.00000000000E+00  0.12477373821E+04  0.12477373821E+04  0.25500000920E-02 0.  1.
       -2   -1    0    0    0  501  0.00000000000E+00  0.00000000000E+00 -0.16280224374E+03  0.16280224376E+03  0.25500000920E-02 0. -1.
    10030    2    1    2    0    0  0.00000000000E+00  0.00000000000E+00  0.10849351384E+04  0.14105396259E+04  0.90140877614E+03 0.  0.
        4    1    3    3  502    0 -0.16803888471E+03 -0.25429428121E+03  0.22933806768E+02  0.30566357425E+03  0.12699999809E+01 0. -1.
       -4    1    3    3    0  502  0.16803888471E+03  0.25429428121E+03  0.10620013316E+04  0.11048760516E+04  0.12699999809E+01 0.  1.
</event>
<event>
 5   0  0.2560250E-03  0.9055743E+03  0.7818609E-02  0.9418640E-01
       -3   -1    0    0    0  501  0.00000000000E+00  0.00000000000E+00  0.42148289288E+03  0.42148290498E+03  0.10100000352E+00 0. -1.
        3   -1    0    0  501    0  0.00000000000E+00  0.00000000000E+00 -0.48641639631E+03  0.48641640679E+03  0.10100000352E+00 0.  1.
    10030    2    1    2    0    0  0.00000000000E+00  0.00000000000E+00 -0.64933503429E+02  0.90789931177E+03  0.90557429317E+03 0.  0.
        3    1    3    3  502    0 -0.31288822733E+03 -0.64063615772E+02  0.28931367213E+03  0.43093572693E+03  0.10100000352E+00 0. -1.
       -3    1    3    3    0  502  0.31288822733E+03  0.64063615772E+02 -0.35424717556E+03  0.47696358484E+03  0.10100000352E+00 0.  1.
</event>
<event>
 5   0  0.2560250E-03  0.8990011E+03  0.7818609E-02  0.9426831E-01
        4   -1    0    0  501    0  0.00000000000E+00  0.00000000000E+00  0.50583286862E+03  0.50583446292E+03  0.12699999809E+01 0.  1.
       -4   -1    0    0    0  501  0.00000000000E+00  0.00000000000E+00 -0.39943848651E+03  0.39944050546E+03  0.12699999809E+01 0. -1.
    10030    2    1    2    0    0  0.00000000000E+00  0.00000000000E+00  0.10639438211E+03  0.90527496838E+03  0.89900111448E+03 0.  0.
        1    1    3    3  502    0 -0.41072649860E+03  0.85428411108E+02 -0.10934951082E+03  0.43353383445E+03  0.50400001928E-02 0. -1.
       -1    1    3    3    0  502  0.41072649860E+03 -0.85428411108E+02  0.21574389293E+03  0.47174113393E+03  0.50400001928E-02 0.  1.
</event>
<event>
 5   0  0.3969536E-03  0.9024926E+03  0.7818609E-02  0.9422471E-01
       -1   -1    0    0    0  501  0.00000000000E+00  0.00000000000E+00  0.62563108661E+03  0.62563108663E+03  0.50400001928E-02 0. -1.
        1   -1    0    0  501    0  0.00000000000E+00  0.00000000000E+00 -0.32546852067E+03  0.32546852071E+03  0.50400001928E-02 0.  1.
    10030    2    1    2    0    0  0.00000000000E+00  0.00000000000E+00  0.30016256594E+03  0.95109960734E+03  0.90249260224E+03 0.  0.
        1    1    3    3  502    0 -0.38784665034E+03 -0.18031559208E+03 -0.14857441262E+01  0.42771596228E+03  0.50400001928E-02 0.  1.
       -1    1    3    3    0  502  0.38784665034E+03  0.18031559208E+03  0.30164831007E+03  0.52338364506E+03  0.50400001928E-02 0. -1.
</event>
<event>
 5   0  0.3969536E-03  0.8830065E+03  0.7818609E-02  0.9447077E-01
       -1   -1    0    0    0  501  0.00000000000E+00  0.00000000000E+00  0.21642719827E+03  0.21642719833E+03  0.50400001928E-02 0.  1.
        1   -1    0    0  501    0  0.00000000000E+00  0.00000000000E+00 -0.90064979021E+03  0.90064979022E+03  0.50400001928E-02 0. -1.
    10030    2    1    2    0    0  0.00000000000E+00  0.00000000000E+00 -0.68422259194E+03  0.11170769886E+04  0.88300647961E+03 0.  0.
        1    1    3    3  502    0  0.13430861354E+03 -0.10785880076E+03 -0.85638416144E+03  0.87353657998E+03  0.50400001928E-02 0. -1.
       -1    1    3    3    0  502 -0.13430861354E+03  0.10785880076E+03  0.17216156950E+03  0.24354040858E+03  0.50400001928E-02 0.  1.
</event>
<event>
 5   0  0.3943549E-03  0.8970946E+03  0.7818609E-02  0.9429221E-01
        1   -1    0    0  501    0  0.00000000000E+00  0.00000000000E+00  0.78990877335E+03  0.78990877337E+03  0.50400001928E-02 0.  1.
       -1   -1    0    0    0  501  0.00000000000E+00  0.00000000000E+00 -0.25470624007E+03  0.25470624012E+03  0.50400001928E-02 0. -1.
    10030    2    1    2    0    0  0.00000000000E+00  0.00000000000E+00  0.53520253328E+03  0.10446150135E+04  0.89709462977E+03 0.  0.
        3    1    3    3  502    0  0.43424274148E+03  0.10991183289E+03  0.24035943735E+03  0.50835031116E+03  0.10100000352E+00 0.  1.
       -3    1    3    3    0  502 -0.43424274148E+03 -0.10991183289E+03  0.29484309593E+03  0.53626470232E+03  0.10100000352E+00 0. -1.
</event>
<event>
 5   0  0.6534628E-03  0.9077830E+03  0.7818609E-02  0.9415904E-01
       -2   -1    0    0    0  501  0.00000000000E+00  0.00000000000E+00  0.41979366714E+03  0.41979366715E+03  0.25500000920E-02 0. -1.
        2   -1    0    0  501    0  0.00000000000E+00  0.00000000000E+00 -0.49075891252E+03  0.49075891252E+03  0.25500000920E-02 0.  1.
    10030    2    1    2    0    0  0.00000000000E+00  0.00000000000E+00 -0.70965245372E+02  0.91055257968E+03  0.90778297754E+03 0.  0.
        4    1    3    3  502    0 -0.29051267422E+02 -0.21297486658E+03  0.36550398000E+03  0.42402481322E+03  0.12699999809E+01 0. -1.
       -4    1    3    3    0  502  0.29051267422E+02  0.21297486658E+03 -0.43646922537E+03  0.48652776645E+03  0.12699999809E+01 0.  1.
</event>
<event>
 5   0  0.6863405E-03  0.9006045E+03  0.7818609E-02  0.9424826E-01
       -2   -1    0    0    0  501  0.00000000000E+00  0.00000000000E+00  0.19378988934E+03  0.19378988935E+03  0.25500000920E-02 0.  1.
        2   -1    0    0  501    0  0.00000000000E+00  0.00000000000E+00 -0.10463503663E+04  0.10463503663E+04  0.25500000920E-02 0. -1.
    10030    2    1    2    0    0  0.00000000000E+00  0.00000000000E+00 -0.85256047696E+03  0.12401402557E+04  0.90060451188E+03 0.  0.
        1    1    3    3  502    0  0.17534281550E+03 -0.51675164715E+02  0.14039974569E+03  0.23049406545E+03  0.50400001928E-02 0.  1.
       -1    1    3    3    0  502 -0.17534281550E+03  0.51675164715E+02 -0.99296022265E+03  0.10096461902E+04  0.50400001928E-02 0. -1.
</event>
<event>
 5   0  0.2560250E-03  0.9035489E+03  0.7818609E-02  0.9421156E-01
        4   -1    0    0  501    0  0.00000000000E+00  0.00000000000E+00  0.33199857837E+03  0.33200100744E+03  0.12699999809E+01 0.  1.
       -4   -1    0    0    0  501  0.00000000000E+00  0.00000000000E+00 -0.61475679137E+03  0.61475810318E+03  0.12699999809E+01 0. -1.
    10030    2    1    2    0    0  0.00000000000E+00  0.00000000000E+00 -0.28275821300E+03  0.94675911062E+03  0.90354889548E+03 0.  0.
        1    1    3    3  502    0 -0.23352140481E+03  0.13821978472E+03 -0.51984943810E+03  0.58641315957E+03  0.50400001928E-02 0. -1.
       -1    1    3    3    0  502  0.23352140481E+03 -0.13821978472E+03  0.23709122510E+03  0.36034595105E+03  0.50400001928E-02 0.  1.
</event>
<event>
 5   0  0.3927993E-03  0.9045771E+03  0.7818609E-02  0.9419878E-01
       -1   -1    0    0    0  501  0.00000000000E+00  0.00000000000E+00  0.54407042344E+03  0.54407042347E+03  0.50400001928E-02 0.  1.
        1   -1    0    0  501    0  0.00000000000E+00  0.00000000000E+00 -0.37598980997E+03  0.37598981000E+03  0.50400001928E-02 0. -1.
    10030    2    1    2    0    0  0.00000000000E+00  0.00000000000E+00  0.16808061348E+03  0.92006023347E+03  0.90457710594E+03 0.  0.
        2    1    3    3  502    0 -0.31094683560E+03  0.12065982683E+02  0.41788297707E+03  0.52101795078E+03  0.25500000920E-02 0.  1.
       -2    1    3    3    0  502  0.31094683560E+03 -0.12065982683E+02 -0.24980236359E+03  0.39904228269E+03  0.25500000920E-02 0. -1.
</event>
<event>
 5   0  0.2560250E-03  0.8947866E+03  0.7818609E-02  0.9432122E-01
        3   -1    0    0  501    0  0.00000000000E+00  0.00000000000E+00  0.60793710508E+03  0.60793711347E+03  0.10100000352E+00 0.  1.
       -3   -1    0    0    0  501  0.00000000000E+00  0.00000000000E+00 -0.32924580102E+03  0.32924581652E+03  0.10100000352E+00 0. -1.
    10030    2    1    2    0    0  0.00000000000E+00  0.00000000000E+00  0.27869130406E+03  0.93718292999E+03  0.89478656746E+03 0.  0.
        2    1    3    3  502    0 -0.26034396533E+03 -0.31546020402E+03 -0.50535780641E+02  0.41212617695E+03  0.25500000920E-02 0. -1.
       -2    1    3    3    0  502  0.26034396533E+03  0.31546020402E+03  0.32922708470E+03  0.52505675303E+03  0.25500000920E-02 0.  1.
</event>
<event>
 5   0  0.6534628E-03  0.9255844E+03  0.7818609E-02  0.9394153E-01
       -2   -1    0    0    0  501  0.00000000000E+00  0.00000000000E+00  0.26542137028E+03  0.26542137030E+03  0.25500000920E-02 0. -1.
        2   -1    0    0  501    0  0.00000000000E+00  0.00000000000E+00 -0.80693062930E+03  0.80693062930E+03  0.25500000920E-02 0.  1.
    10030    2    1    2    0    0  0.00000000000E+00  0.00000000000E+00 -0.54150925901E+03  0.10723519996E+04  0.92558442805E+03 0.  0.
        4    1    3    3  502    0  0.45166169643E+03 -0.60004714316E+02 -0.17680226093E+03  0.48873255072E+03  0.12699999809E+01 0. -1.
       -4    1    3    3    0  502 -0.45166169643E+03  0.60004714316E+02 -0.36470699808E+03  0.58361944888E+03  0.12699999809E+01 0.  1.
</event>
<event>
 5   0  0.3943549E-03  0.8960834E+03  0.7818609E-02  0.9430491E-01
       -1   -1    0    0    0  501  0.00000000000E+00  0.00000000000E+00  0.26942751280E+03  0.26942751285E+03  0.50400001928E-02 0. -1.
        1   -1    0    0  501    0  0.00000000000E+00  0.00000000000E+00 -0.74506634452E+03  0.74506634454E+03  0.50400001928E-02 0.  1.
    10030    2    1    2    0    0  0.00000000000E+00  0.00000000000E+00 -0.47563883172E+03  0.10144938574E+04  0.89608341600E+03 0.  0.
        3    1    3    3  502    0 -0.16461535463E+03 -0.35488793263E+03  0.94382190869E+01  0.39132179838E+03  0.10100000352E+00 0. -1.
       -3    1    3    3    0  502  0.16461535463E+03  0.35488793263E+03 -0.48507705081E+03  0.62317205901E+03  0.10100000352E+00 0.  1.
</event>
<event>
 5   0  0.6534628E-03  0.9008280E+03  0.7818609E-02  0.9424547E-01
       -2   -1    0    0    0  501  0.00000000000E+00  0.00000000000E+00  0.82858412254E+03  0.82858412254E+03  0.25500000920E-02 0.  1.
        2   -1    0    0  501    0  0.00000000000E+00  0.00000000000E+00 -0.24484269388E+03  0.24484269389E+03  0.25500000920E-02 0. -1.
    10030    2    1    2    0    0  0.00000000000E+00  0.00000000000E+00  0.58374142866E+03  0.10734268164E+04  0.90082799396E+03 0.  0.
        4    1    3    3  502    0  0.40146609788E+03  0.74938692346E+02  0.51821303258E+03  0.65980087557E+03  0.12699999809E+01 0.  1.
       -4    1    3    3    0  502 -0.40146609788E+03 -0.74938692346E+02  0.65528396074E+02  0.41362594086E+03  0.12699999809E+01 0. -1.
</event>
<event>
 5   0  0.3943549E-03  0.9143128E+03  0.7818609E-02  0.9407864E-01
       -1   -1    0    0    0  501  0.00000000000E+00  0.00000000000E+00  0.18715846144E+03  0.18715846151E+03  0.50400001928E-02 0.  1.
        1   -1    0    0  501    0  0.00000000000E+00  0.00000000000E+00 -0.11166580097E+04  0.11166580097E+04  0.50400001928E-02 0. -1.
    10030    2    1    2    0    0  0.00000000000E+00  0.00000000000E+00 -0.92949954823E+03  0.13038164712E+04  0.91431284602E+03 0.  0.
        3    1    3    3  502    0 -0.34743443850E+03  0.29666009329E+03 -0.48835804561E+03  0.66873873143E+03  0.10100000352E+00 0. -1.
       -3    1    3    3    0  502  0.34743443850E+03 -0.29666009329E+03 -0.44114150262E+03  0.63507773976E+03  0.10100000352E+00 0.  1.
</event>
<event>
 5   0  0.3943549E-03  0.9049185E+03  0.7818609E-02  0.9419454E-01
       -1   -1    0    0    0  501  0.00000000000E+00  0.00000000000E+00  0.29890168063E+03  0.29890168067E+03  0.50400001928E-02 0.  1.
        1   -1    0    0  501    0  0.00000000000E+00  0.00000000000E+00 -0.68490539991E+03  0.68490539993E+03  0.50400001928E-02 0. -1.
    10030    2    1    2    0    0  0.00000000000E+00  0.00000000000E+00 -0.38600371928E+03  0.98380708060E+03  0.90491850492E+03 0.  0.
        3    1    3    3  502    0  0.10467155459E+02 -0.38493489856E+03  0.65268436305E+02  0.39056934910E+03  0.10100000352E+00 0.  1.
       -3    1    3    3    0  502 -0.10467155459E+02  0.38493489856E+03 -0.45127215558E+03  0.59323773150E+03  0.10100000352E+00 0. -1.
</event>
<event>
 5   0  0.6534628E-03  0.8895531E+03  0.7818609E-02  0.9438736E-01
        2   -1    0    0  501    0  0.00000000000E+00  0.00000000000E+00  0.13473913489E+04  0.13473913489E+04  0.25500000920E-02 0. -1.
       -2   -1    0    0    0  501  0.00000000000E+00  0.00000000000E+00 -0.14682160282E+03  0.14682160285E+03  0.25500000920E-02 0.  1.
    10030    2    1    2    0    0  0.00000000000E+00  0.00000000000E+00  0.12005697461E+04  0.14942129517E+04  0.88955305068E+03 0.  0.
        4    1    3    3  502    0 -0.57938873300E+00  0.25614876212E+03 -0.10482901112E+02  0.25636697943E+03  0.12699999809E+01 0.  1.
       -4    1    3    3    0  502  0.57938873300E+00 -0.25614876212E+03  0.12110526472E+04  0.12378459723E+04  0.12699999809E+01 0. -1.
</event>
<event>
 5   0  0.6863405E-03  0.8995556E+03  0.7818609E-02  0.9426137E-01
        2   -1    0    0  501    0  0.00000000000E+00  0.00000000000E+00  0.24396539480E+04  0.24396539481E+04  0.25500000920E-02 0. -1.
       -2   -1    0    0    0  501  0.00000000000E+00  0.00000000000E+00 -0.82921624110E+02  0.82921624149E+02  0.25500000920E-02 0.  1.
    10030    2    1    2    0    0  0.00000000000E+00  0.00000000000E+00  0.23567323239E+04  0.25225755722E+04  0.89955559626E+03 0.  0.
        1    1    3    3  502    0 -0.44024735033E+02  0.21523663451E+03  0.22789572645E+04  0.22895220461E+04  0.50400001928E-02 0. -1.
       -1    1    3    3    0  502  0.44024735033E+02 -0.21523663451E+03  0.77775059436E+02  0.23305352610E+03  0.50400001928E-02 0.  1.
</event>
<event>
 5   0  0.6609191E-03  0.8926034E+03  0.7818609E-02  0.9434875E-01
       -2   -1    0    0    0  501  0.00000000000E+00  0.00000000000E+00  0.32623090134E+03  0.32623090135E+03  0.25500000920E-02 0.  1.
        2   -1    0    0  501    0  0.00000000000E+00  0.00000000000E+00 -0.61056510072E+03  0.61056510072E+03  0.25500000920E-02 0. -1.
    10030    2    1    2    0    0  0.00000000000E+00  0.00000000000E+00 -0.28433419937E+03  0.93679600208E+03  0.89260339041E+03 0.  0.
        2    1    3    3  502    0 -0.40955750896E+03 -0.18006531433E+00  0.43948061281E+02  0.41190874920E+03  0.25500000920E-02 0.  1.
       -2    1    3    3    0  502  0.40955750896E+03  0.18006531433E+00 -0.32828226065E+03  0.52488725288E+03  0.25500000920E-02 0. -1.
</event>
<event>
 5   0  0.6534628E-03  0.9036056E+03  0.7818609E-02  0.9421085E-01
       -2   -1    0    0    0  501  0.00000000000E+00  0.00000000000E+00  0.68289979208E+03  0.68289979208E+03  0.25500000920E-02 0.  1.
        2   -1    0    0  501    0  0.00000000000E+00  0.00000000000E+00 -0.29891029569E+03  0.29891029570E+03  0.25500000920E-02 0. -1.
    10030    2    1    2    0    0  0.00000000000E+00  0.00000000000E+00  0.38398949639E+03  0.98181008778E+03  0.90360561924E+03 0.  0.
        4    1    3    3  502    0  0.39347167333E+03  0.45372326832E+02  0.42816710750E+03  0.58327291262E+03  0.12699999809E+01 0.  1.
       -4    1    3    3    0  502 -0.39347167333E+03 -0.45372326832E+02 -0.44177611109E+02  0.39853717515E+03  0.12699999809E+01 0. -1.
</event>
<event>
 5   0  0.3969536E-03  0.9180503E+03  0.7818609E-02  0.9403295E-01
        1   -1    0    0  501    0  0.00000000000E+00  0.00000000000E+00  0.31630881890E+03  0.31630881894E+03  0.50400001928E-02 0.  1.
       -1   -1    0    0    0  501  0.00000000000E+00  0.00000000000E+00 -0.66613405574E+03  0.66613405576E+03  0.50400001928E-02 0. -1.
    10030    2    1    2    0    0  0.00000000000E+00  0.00000000000E+00 -0.34982523684E+03  0.98244287470E+03  0.91805027407E+03 0.  0.
        1    1    3    3  502    0  0.11313333203E+03  0.58890417427E+02  0.29696581027E+03  0.32319641795E+03  0.50400001928E-02 0.  1.
       -1    1    3    3    0  502 -0.11313333203E+03 -0.58890417427E+02 -0.64679104712E+03  0.65924645675E+03  0.50400001928E-02 0. -1.
</event>
<event>
 5   0  0.3943549E-03  0.9027454E+03  0.7818609E-02  0.9422156E-01
        1   -1    0    0  501    0  0.00000000000E+00  0.00000000000E+00  0.75578538478E+03  0.75578538480E+03  0.50400001928E-02 0.  1.
       -1   -1    0    0    0  501  0.00000000000E+00  0.00000000000E+00 -0.26957030420E+03  0.26957030425E+03  0.50400001928E-02 0. -1.
    10030    2    1    2    0    0  0.00000000000E+00  0.00000000000E+00  0.48621508058E+03  0.10253556890E+04  0.90274535971E+03 0.  0.
        3    1    3    3  502    0  0.11108496341E+03 -0.76658202962E+02 -0.24611419627E+03  0.28069299419E+03  0.10100000352E+00 0. -1.
       -3    1    3    3    0  502 -0.11108496341E+03  0.76658202962E+02  0.73232927686E+03  0.74466269486E+03  0.10100000352E+00 0.  1.
</event>
<event>
 5   0  0.6609191E-03  0.8986740E+03  0.7818609E-02  0.9427240E-01
        2   -1    0    0  501    0  0.00000000000E+00  0.00000000000E+00  0.34693365595E+03  0.34693365596E+03  0.25500000920E-02 0.  1.
       -2   -1    0    0    0  501  0.00000000000E+00  0.00000000000E+00 -0.58196646020E+03  0.58196646021E+03  0.25500000920E-02 0. -1.
    10030    2    1    2    0    0  0.00000000000E+00  0.00000000000E+00 -0.23503280425E+03  0.92890011617E+03  0.89867402697E+03 0.  0.
        2    1    3    3  502    0 -0.42541267583E+03  0.42770846313E+01 -0.26698115587E+03  0.50226803183E+03  0.25500000920E-02 0. -1.
       -2    1    3    3    0  502  0.42541267583E+03 -0.42770846313E+01  0.31948351624E+02  0.42663208433E+03  0.25500000920E-02 0.  1.
</event>
<event>
 5   0  0.3927993E-03  0.8576366E+03  0.7818609E-02  0.9480144E-01
        1   -1    0    0  501    0  0.00000000000E+00  0.00000000000E+00  0.33870821655E+03  0.33870821658E+03  0.50400001928E-02 0. -1.
       -1   -1    0    0    0  501  0.00000000000E+00  0.00000000000E+00 -0.54290131872E+03  0.54290131874E+03  0.50400001928E-02 0.  1.
    10030    2    1    2    0    0  0.00000000000E+00  0.00000000000E+00 -0.20419310217E+03  0.88160953533E+03  0.85763660708E+03 0.  0.
        2    1    3    3  502    0 -0.27831465047E+03 -0.31730941076E+03 -0.17998271881E+03  0.45884429374E+03  0.25500000920E-02 0.  1.
       -2    1    3    3    0  502  0.27831465047E+03  0.31730941076E+03 -0.24210383369E+02  0.42276524159E+03  0.25500000920E-02 0. -1.
</event>
<event>
 5   0  0.3998066E-03  0.9030575E+03  0.7818609E-02  0.9421767E-01
       -1   -1    0    0    0  501  0.00000000000E+00  0.00000000000E+00  0.11146750182E+03  0.11146750193E+03  0.50400001928E-02 0.  1.
        1   -1    0    0  501    0  0.00000000000E+00  0.00000000000E+00 -0.18290373986E+04  0.18290373986E+04  0.50400001928E-02 0. -1.
    10030    2    1    2    0    0  0.00000000000E+00  0.00000000000E+00 -0.17175698968E+04  0.19405049006E+04  0.90305753898E+03 0.  0.
        4    1    3    3  502    0 -0.11742915736E+03 -0.33045076193E+03 -0.14699308023E+04  0.15111867818E+04  0.12699999809E+01 0. -1.
       -4    1    3    3    0  502  0.11742915736E+03  0.33045076193E+03 -0.24763909448E+03  0.42931811873E+03  0.12699999809E+01 0.  1.
</event>
<event>
 5   0  0.3998066E-03  0.8985242E+03  0.7818609E-02  0.9427428E-01
       -1   -1    0    0    0  501  0.00000000000E+00  0.00000000000E+00  0.26158927919E+03  0.26158927924E+03  0.50400001928E-02 0. -1.
        1   -1    0    0  501    0  0.00000000000E+00  0.00000000000E+00 -0.77157758209E+03  0.77157758210E+03  0.50400001928E-02 0.  1.
    10030    2    1    2    0    0  0.00000000000E+00  0.00000000000E+00 -0.50998830289E+03  0.10331668613E+04  0.89852417568E+03 0.  0.
        4    1    3    3  502    0 -0.34776315523E+03  0.40735577255E+01 -0.58200231905E+03  0.67800008723E+03  0.12699999809E+01 0.  1.
       -4    1    3    3    0  502  0.34776315523E+03 -0.40735577255E+01  0.72014016152E+02  0.35516677411E+03  0.12699999809E+01 0. -1.
</event>
<event>
 5   0  0.6609191E-03  0.9043048E+03  0.7818609E-02  0.9420216E-01
        2   -1    0    0  501    0  0.00000000000E+00  0.00000000000E+00  0.50411650829E+03  0.50411650829E+03  0.25500000920E-02 0.  1.
       -2   -1    0    0    0  501  0.00000000000E+00  0.00000000000E+00 -0.40554471526E+03  0.40554471526E+03  0.25500000920E-02 0. -1.
    10030    2    1    2    0    0  0.00000000000E+00  0.00000000000E+00  0.98571793032E+02  0.90966122356E+03  0.90430478450E+03 0.  0.
        2    1    3    3  502    0  0.30053785042E+02  0.42360728815E+03  0.20543234661E+03  0.47175079609E+03  0.25500000920E-02 0.  1.
       -2    1    3    3    0  502 -0.30053785042E+02 -0.42360728815E+03 -0.10686055358E+03  0.43791042747E+03  0.25500000920E-02 0. -1.
</event>
<event>
 5   0  0.3969536E-03  0.9179612E+03  0.7818609E-02  0.9403403E-01
       -1   -1    0    0    0  501  0.00000000000E+00  0.00000000000E+00  0.47325474677E+03  0.47325474679E+03  0.50400001928E-02 0. -1.
        1   -1    0    0  501    0  0.00000000000E+00  0.00000000000E+00 -0.44513699940E+03  0.44513699943E+03  0.50400001928E-02 0.  1.
    10030    2    1    2    0    0  0.00000000000E+00  0.00000000000E+00  0.28117747364E+02  0.91839174623E+03  0.91796121477E+03 0.  0.
        1    1    3    3  502    0 -0.24640923671E+03 -0.80782204813E+01  0.40138438492E+03  0.47105434301E+03  0.50400001928E-02 0. -1.
       -1    1    3    3    0  502  0.24640923671E+03  0.80782204813E+01 -0.37326663756E+03  0.44733740322E+03  0.50400001928E-02 0.  1.
</event>
<event>
 5   0  0.6609191E-03  0.9055787E+03  0.7818609E-02  0.9418635E-01
       -2   -1    0    0    0  501  0.00000000000E+00  0.00000000000E+00  0.39866552383E+03  0.39866552384E+03  0.25500000920E-02 0.  1.
        2   -1    0    0  501    0  0.00000000000E+00  0.00000000000E+00 -0.51426111116E+03  0.51426111117E+03  0.25500000920E-02 0. -1.
    10030    2    1    2    0    0  0.00000000000E+00  0.00000000000E+00 -0.11559558733E+03  0.91292663501E+03  0.90557865539E+03 0.  0.
        2    1    3    3  502    0  0.31919516944E+03 -0.62768127834E+02 -0.37530218336E+03  0.49666600740E+03  0.25500000920E-02 0. -1.
       -2    1    3    3    0  502 -0.31919516944E+03  0.62768127834E+02  0.25970659603E+03  0.41626062761E+03  0.25500000920E-02 0.  1.
</event>
<event>
 5   0  0.6609191E-03  0.9007680E+03  0.7818609E-02  0.9424622E-01
       -2   -1    0    0    0  501  0.00000000000E+00  0.00000000000E+00  0.53535224124E+03  0.53535224125E+03  0.25500000920E-02 0.  1.
        2   -1    0    0  501    0  0.00000000000E+00  0.00000000000E+00 -0.37890146344E+03  0.37890146345E+03  0.25500000920E-02 0. -1.
    10030    2    1    2    0    0  0.00000000000E+00  0.00000000000E+00  0.15645077781E+03  0.91425370469E+03  0.90076800047E+03 0.  0.
        2    1    3    3  502    0 -0.88516149322E+02  0.35760230428E+02 -0.36851404173E+03  0.38067900090E+03  0.25500000920E-02 0. -1.
       -2    1    3    3    0  502  0.88516149322E+02 -0.35760230428E+02  0.52496481953E+03  0.53357470379E+03  0.25500000920E-02 0.  1.
</event>
<event>
 5   0  0.6609191E-03  0.8216162E+03  0.7818609E-02  0.9529245E-01
       -2   -1    0    0    0  501  0.00000000000E+00  0.00000000000E+00  0.24961344308E+03  0.24961344309E+03  0.25500000920E-02 0.  1.
        2   -1    0    0  501    0  0.00000000000E+00  0.00000000000E+00 -0.67609860460E+03  0.67609860460E+03  0.25500000920E-02 0. -1.
    10030    2    1    2    0    0  0.00000000000E+00  0.00000000000E+00 -0.42648516152E+03  0.92571204770E+03  0.82161621348E+03 0.  0.
        2    1    3    3  502    0  0.24897561816E+03  0.80098950713E+02  0.14368837313E+03  0.29841422372E+03  0.25500000920E-02 0.  1.
       -2    1    3    3    0  502 -0.24897561816E+03 -0.80098950713E+02 -0.57017353465E+03  0.62729782397E+03  0.25500000920E-02 0. -1.
</event>
<event>
 5   0  0.6863405E-03  0.9421814E+03  0.7818609E-02  0.9374336E-01
       -2   -1    0    0    0  501  0.00000000000E+00  0.00000000000E+00  0.12190898562E+03  0.12190898565E+03  0.25500000920E-02 0. -1.
        2   -1    0    0  501    0  0.00000000000E+00  0.00000000000E+00 -0.18204274177E+04  0.18204274177E+04  0.25500000920E-02 0.  1.
    10030    2    1    2    0    0  0.00000000000E+00  0.00000000000E+00 -0.16985184321E+04  0.19423364033E+04  0.94218142608E+03 0.  0.
        1    1    3    3  502    0 -0.16330033442E+02  0.35874834559E+03 -0.14778045418E+04  0.15208133709E+04  0.50400001928E-02 0.  1.
       -1    1    3    3    0  502  0.16330033442E+02 -0.35874834559E+03 -0.22071389027E+03  0.42152303239E+03  0.50400001928E-02 0. -1.
</event>
<event>
 5   0  0.3927993E-03  0.9008595E+03  0.7818609E-02  0.9424508E-01
       -1   -1    0    0    0  501  0.00000000000E+00  0.00000000000E+00  0.11895393136E+03  0.11895393147E+03  0.50400001928E-02 0. -1.
        1   -1    0    0  501    0  0.00000000000E+00  0.00000000000E+00 -0.17055925426E+04  0.17055925427E+04  0.50400001928E-02 0.  1.
    10030    2    1    2    0    0  0.00000000000E+00  0.00000000000E+00 -0.15866386113E+04  0.18245464741E+04  0.90085945265E+03 0.  0.
        2    1    3    3  502    0 -0.27357600070E+03 -0.32851793885E+03 -0.50604162581E+03  0.66245452022E+03  0.25500000920E-02 0. -1.
       -2    1    3    3    0  502  0.27357600070E+03  0.32851793885E+03 -0.10805969855E+04  0.11620919539E+04  0.25500000920E-02 0.  1.
</event>
<event>
 5   0  0.6534628E-03  0.8855911E+03  0.7818609E-02  0.9443775E-01
        2   -1    0    0  501    0  0.00000000000E+00  0.00000000000E+00  0.57824519315E+03  0.57824519315E+03  0.25500000920E-02 0.  1.
       -2   -1    0    0    0  501  0.00000000000E+00  0.00000000000E+00 -0.33907401434E+03  0.33907401435E+03  0.25500000920E-02 0. -1.
    10030    2    1    2    0    0  0.00000000000E+00  0.00000000000E+00  0.23917117881E+03  0.91731920750E+03  0.88559114476E+03 0.  0.
        4    1    3    3  502    0  0.20809493963E+03 -0.32836369905E+03 -0.10000016318E+03  0.40140735953E+03  0.12699999809E+01 0. -1.
       -4    1    3    3    0  502 -0.20809493963E+03  0.32836369905E+03  0.33917134198E+03  0.51591184797E+03  0.12699999809E+01 0.  1.
</event>
<event>
 5   0  0.6724773E-03  0.8795604E+03  0.7818609E-02  0.9451499E-01
        2   -1    0    0  501    0  0.00000000000E+00  0.00000000000E+00  0.88192504769E+03  0.88192504769E+03  0.25500000920E-02 0. -1.
       -2   -1    0    0    0  501  0.00000000000E+00  0.00000000000E+00 -0.21930053835E+03  0.21930053837E+03  0.25500000920E-02 0.  1.
    10030    2    1    2    0    0  0.00000000000E+00  0.00000000000E+00  0.66262450934E+03  0.11012255861E+04  0.87956043056E+03 0.  0.
        5    1    3    3  502    0  0.33902014781E+03 -0.26692788006E+03  0.43754504294E+03  0.61453470884E+03  0.46999998093E+01 0.  1.
       -5    1    3    3    0  502 -0.33902014781E+03  0.26692788006E+03  0.22507946639E+03  0.48669087721E+03  0.46999998093E+01 0. -1.
</event>
<event>
 5   0  0.3943549E-03  0.9028560E+03  0.7818609E-02  0.9422018E-01
       -1   -1    0    0    0  501  0.00000000000E+00  0.00000000000E+00  0.33427812855E+03  0.33427812859E+03  0.50400001928E-02 0.  1.
        1   -1    0    0  501    0  0.00000000000E+00  0.00000000000E+00 -0.60963383317E+03  0.60963383319E+03  0.50400001928E-02 0. -1.
    10030    2    1    2    0    0  0.00000000000E+00  0.00000000000E+00 -0.27535570462E+03  0.94391196177E+03  0.90285603919E+03 0.  0.
        3    1    3    3  502    0 -0.64094956275E+02  0.43918243054E+03 -0.51479373772E+02  0.44681037011E+03  0.10100000352E+00 0.  1.
       -3    1    3    3    0  502  0.64094956275E+02 -0.43918243054E+03 -0.22387633085E+03  0.49710159166E+03  0.10100000352E+00 0. -1.
</event>
<event>
 5   0  0.6724773E-03  0.8974169E+03  0.7818609E-02  0.9428816E-01
       -2   -1    0    0    0  501  0.00000000000E+00  0.00000000000E+00  0.17903344293E+03  0.17903344295E+03  0.25500000920E-02 0.  1.
        2   -1    0    0  501    0  0.00000000000E+00  0.00000000000E+00 -0.11245902593E+04  0.11245902593E+04  0.25500000920E-02 0. -1.
    10030    2    1    2    0    0  0.00000000000E+00  0.00000000000E+00 -0.94555681633E+03  0.13036237022E+04  0.89741688421E+03 0.  0.
        5    1    3    3  502    0 -0.14651327410E+03 -0.42352618067E+03 -0.50449160038E+03  0.67481436710E+03  0.46999998093E+01 0.  1.
       -5    1    3    3    0  502  0.14651327410E+03  0.42352618067E+03 -0.44106521595E+03  0.62880933511E+03  0.46999998093E+01 0. -1.
</event>
<event>
 5   0  0.3794006E-03  0.9373261E+03  0.7818609E-02  0.9380088E-01
       -1   -1    0    0    0  501  0.00000000000E+00  0.00000000000E+00  0.10232154118E+04  0.10232154118E+04  0.50400001928E-02 0.  1.
        1   -1    0    0  501    0  0.00000000000E+00  0.00000000000E+00 -0.21466159425E+03  0.21466159431E+03  0.50400001928E-02 0. -1.
    10030    2    1    2    0    0  0.00000000000E+00  0.00000000000E+00  0.80855381756E+03  0.12378770061E+04  0.93732609397E+03 0.  0.
        5    1    3    3  502    0 -0.61714309799E+02 -0.38401801718E+03  0.59023104788E+02  0.39342637233E+03  0.46999998093E+01 0. -1.
       -5    1    3    3    0  502  0.61714309799E+02  0.38401801718E+03  0.74953071277E+03  0.84445063380E+03  0.46999998093E+01 0.  1.
</event>
<event>
 5   0  0.6724773E-03  0.9004058E+03  0.7818609E-02  0.9425074E-01
        2   -1    0    0  501    0  0.00000000000E+00  0.00000000000E+00  0.78962779543E+03  0.78962779544E+03  0.25500000920E-02 0. -1.
       -2   -1    0    0    0  501  0.00000000000E+00  0.00000000000E+00 -0.25668123059E+03  0.25668123060E+03  0.25500000920E-02 0.  1.
    10030    2    1    2    0    0  0.00000000000E+00  0.00000000000E+00  0.53294656484E+03  0.10463090260E+04  0.90040576241E+03 0.  0.
        5    1    3    3  502    0 -0.34833440124E+03 -0.22372890737E+03  0.47195782353E+03  0.62781984380E+03  0.46999998093E+01 0. -1.
       -5    1    3    3    0  502  0.34833440124E+03  0.22372890737E+03  0.60988741318E+02  0.41848918224E+03  0.46999998093E+01 0.  1.
</event>
<event>
 5   0  0.6609191E-03  0.9015522E+03  0.7818609E-02  0.9423643E-01
        2   -1    0    0  501    0  0.00000000000E+00  0.00000000000E+00  0.18952920347E+04  0.18952920347E+04  0.25500000920E-02 0. -1.
       -2   -1    0    0    0  501  0.00000000000E+00  0.00000000000E+00 -0.10721255243E+03  0.10721255246E+03  0.25500000920E-02 0.  1.
    10030    2    1    2    0    0  0.00000000000E+00  0.00000000000E+00  0.17880794823E+04  0.20025045872E+04  0.90155220964E+03 0.  0.
        2    1    3    3  502    0 -0.42854821747E+03 -0.13038134732E+03  0.78195896428E+03  0.90117295357E+03  0.25500000920E-02 0.  1.
       -2    1    3    3    0  502  0.42854821747E+03  0.13038134732E+03  0.10061205180E+04  0.11013316336E+04  0.25500000920E-02 0. -1.
</event>
<event>
 5   0  0.3969536E-03  0.8532911E+03  0.7818609E-02  0.9485930E-01
        1   -1    0    0  501    0  0.00000000000E+00  0.00000000000E+00  0.52881917396E+03  0.52881917398E+03  0.50400001928E-02 0. -1.
       -1   -1    0    0    0  501  0.00000000000E+00  0.00000000000E+00 -0.34421301461E+03  0.34421301465E+03  0.50400001928E-02 0.  1.
    10030    2    1    2    0    0  0.00000000000E+00  0.00000000000E+00  0.18460615935E+03  0.87303218863E+03  0.85329113924E+03 0.  0.
        1    1    3    3  502    0 -0.38435844205E+03 -0.15436401717E+03 -0.12371101979E+02  0.41438231860E+03  0.50400001928E-02 0.  1.
       -1    1    3    3    0  502  0.38435844205E+03  0.15436401717E+03  0.19697726133E+03  0.45864987003E+03  0.50400001928E-02 0. -1.
</event>
<event>
 5   0  0.3943549E-03  0.8748449E+03  0.7818609E-02  0.9457585E-01
       -1   -1    0    0    0  501  0.00000000000E+00  0.00000000000E+00  0.48261294886E+03  0.48261294889E+03  0.50400001928E-02 0. -1.
        1   -1    0    0  501    0  0.00000000000E+00  0.00000000000E+00 -0.39646346854E+03  0.39646346857E+03  0.50400001928E-02 0.  1.
    10030    2    1    2    0    0  0.00000000000E+00  0.00000000000E+00  0.86149480322E+02  0.87907641747E+03  0.87484490899E+03 0.  0.
        3    1    3    3  502    0  0.17286676138E+03 -0.99100567235E+02 -0.34821156647E+03  0.40119215451E+03  0.10100000352E+00 0.  1.
       -3    1    3    3    0  502 -0.17286676138E+03  0.99100567235E+02  0.43436104679E+03  0.47788426296E+03  0.10100000352E+00 0. -1.
</event>
<event>
 5   0  0.6534628E-03  0.9121467E+03  0.7818609E-02  0.9410524E-01
       -2   -1    0    0    0  501  0.00000000000E+00  0.00000000000E+00  0.16374572622E+03  0.16374572624E+03  0.25500000920E-02 0. -1.
        2   -1    0    0  501    0  0.00000000000E+00  0.00000000000E+00 -0.12702798714E+04  0.12702798714E+04  0.25500000920E-02 0.  1.
    10030    2    1    2    0    0  0.00000000000E+00  0.00000000000E+00 -0.11065341452E+04  0.14340255977E+04  0.91214669888E+03 0.  0.
        4    1    3    3  502    0  0.24854106467E+03 -0.10861251334E+03  0.23158791560E+02  0.27222652591E+03  0.12699999809E+01 0. -1.
       -4    1    3    3    0  502 -0.24854106467E+03  0.10861251334E+03 -0.11296929368E+04  0.11617990718E+04  0.12699999809E+01 0.  1.
</event>
<event>
 5   0  0.6534628E-03  0.8970674E+03  0.7818609E-02  0.9429255E-01
        2   -1    0    0  501    0  0.00000000000E+00  0.00000000000E+00  0.87941294467E+03  0.87941294467E+03  0.25500000920E-02 0. -1.
       -2   -1    0    0    0  501  0.00000000000E+00  0.00000000000E+00 -0.22876907954E+03  0.22876907955E+03  0.25500000920E-02 0.  1.
    10030    2    1    2    0    0  0.00000000000E+00  0.00000000000E+00  0.65064386513E+03  0.11081820242E+04  0.89706742198E+03 0.  0.
        4    1    3    3  502    0  0.23561309800E+03 -0.10584075319E+03 -0.12767031898E+03  0.28812691689E+03  0.12699999809E+01 0.  1.
       -4    1    3    3    0  502 -0.23561309800E+03  0.10584075319E+03  0.77831418411E+03  0.82005510734E+03  0.12699999809E+01 0. -1.
</event>
<event>
 5   0  0.6863405E-03  0.9024417E+03  0.7818609E-02  0.9422534E-01
        2   -1    0    0  501    0  0.00000000000E+00  0.00000000000E+00  0.58881955561E+03  0.58881955561E+03  0.25500000920E-02 0.  1.
       -2   -1    0    0    0  501  0.00000000000E+00  0.00000000000E+00 -0.34577698040E+03  0.34577698041E+03  0.25500000920E-02 0. -1.
    10030    2    1    2    0    0  0.00000000000E+00  0.00000000000E+00  0.24304257521E+03  0.93459653602E+03  0.90244168331E+03 0.  0.
        1    1    3    3  502    0 -0.83533507880E+02 -0.44326151074E+03  0.13384634334E+03  0.47050340859E+03  0.50400001928E-02 0.  1.
       -1    1    3    3    0  502  0.83533507880E+02  0.44326151074E+03  0.10919623187E+03  0.46409312743E+03  0.50400001928E-02 0. -1.
</event>
<event>
 5   0  0.2560250E-03  0.9054245E+03  0.7818609E-02  0.9418826E-01
        4   -1    0    0  501    0  0.00000000000E+00  0.00000000000E+00  0.41309306510E+03  0.41309501732E+03  0.12699999809E+01 0. -1.
       -4   -1    0    0    0  501  0.00000000000E+00  0.00000000000E+00 -0.49612727768E+03  0.49612890317E+03  0.12699999809E+01 0.  1.
    10030    2    1    2    0    0  0.00000000000E+00  0.00000000000E+00 -0.83034212579E+02  0.90922392049E+03  0.90542446242E+03 0.  0.
        4    1    3    3  502    0 -0.20539853573E+03  0.38402771526E+03 -0.16565180450E+03  0.46594847119E+03  0.12699999809E+01 0.  1.
       -4    1    3    3    0  502  0.20539853573E+03 -0.38402771526E+03  0.82617591924E+02  0.44327544931E+03  0.12699999809E+01 0. -1.
</event>
<event>
 5   0  0.3943549E-03  0.9146793E+03  0.7818609E-02  0.9407415E-01
       -1   -1    0    0    0  501  0.00000000000E+00  0.00000000000E+00  0.49539932217E+03  0.49539932220E+03  0.50400001928E-02 0.  1.
        1   -1    0    0  501    0  0.00000000000E+00  0.00000000000E+00 -0.42220392742E+03  0.42220392745E+03  0.50400001928E-02 0. -1.
    10030    2    1    2    0    0  0.00000000000E+00  0.00000000000E+00  0.73195394757E+02  0.91760324965E+03  0.91467926507E+03 0.  0.
        3    1    3    3  502    0 -0.15660433336E+03  0.33195628287E+03  0.31030616672E+03  0.48063480760E+03  0.10100000352E+00 0.  1.
       -3    1    3    3    0  502  0.15660433336E+03 -0.33195628287E+03 -0.23711077196E+03  0.43696844205E+03  0.10100000352E+00 0. -1.
</event>
<event>
 5   0  0.3969536E-03  0.9198428E+03  0.7818609E-02  0.9401111E-01
       -1   -1    0    0    0  501  0.00000000000E+00  0.00000000000E+00  0.19698470476E+03  0.19698470483E+03  0.50400001928E-02 0. -1.
        1   -1    0    0  501    0  0.00000000000E+00  0.00000000000E+00 -0.10738279890E+04  0.10738279890E+04  0.50400001928E-02 0.  1.
    10030    2    1    2    0    0  0.00000000000E+00  0.00000000000E+00 -0.87684328422E+03  0.12708126938E+04  0.91984278966E+03 0.  0.
        1    1    3    3  502    0 -0.35559692210E+03 -0.26776925592E+03 -0.27862565512E+03  0.52514931318E+03  0.50400001928E-02 0. -1.
       -1    1    3    3    0  502  0.35559692210E+03  0.26776925592E+03 -0.59821762910E+03  0.74566338063E+03  0.50400001928E-02 0.  1.
</event>
<event>
 5   0  0.6609191E-03  0.9146239E+03  0.7818609E-02  0.9407483E-01
       -2   -1    0    0    0  501  0.00000000000E+00  0.00000000000E+00  0.33514986979E+03  0.33514986980E+03  0.25500000920E-02 0. -1.
        2   -1    0    0  501    0  0.00000000000E+00  0.00000000000E+00 -0.62400214245E+03  0.62400214245E+03  0.25500000920E-02 0.  1.
    10030    2    1    2    0    0  0.00000000000E+00  0.00000000000E+00 -0.28885227266E+03  0.95915201225E+03  0.91462393757E+03 0.  0.
        2    1    3    3  502    0  0.31765628846E+03 -0.93201511248E+02  0.18643708264E+03  0.37993529066E+03  0.25500000920E-02 0. -1.
       -2    1    3    3    0  502 -0.31765628846E+03  0.93201511248E+02 -0.47528935530E+03  0.57921672159E+03  0.25500000920E-02 0.  1.
</event>
<event>
 5   0  0.3794006E-03  0.8930043E+03  0.7818609E-02  0.9434369E-01
       -1   -1    0    0    0  501  0.00000000000E+00  0.00000000000E+00  0.40528016483E+03  0.40528016486E+03  0.50400001928E-02 0. -1.
        1   -1    0    0  501    0  0.00000000000E+00  0.00000000000E+00 -0.49191693551E+03  0.49191693554E+03  0.50400001928E-02 0.  1.
    10030    2    1    2    0    0  0.00000000000E+00  0.00000000000E+00 -0.86636770682E+02  0.89719710040E+03  0.89300431518E+03 0.  0.
        5    1    3    3  502    0 -0.89036234133E+02  0.14096827869E+03 -0.45943999792E+03  0.48878083869E+03  0.46999998093E+01 0.  1.
       -5    1    3    3    0  502  0.89036234133E+02 -0.14096827869E+03  0.37280322724E+03  0.40841626170E+03  0.46999998093E+01 0. -1.
</event>
<event>
 5   0  0.3943549E-03  0.8988259E+03  0.7818609E-02  0.9427050E-01
       -1   -1    0    0    0  501  0.00000000000E+00  0.00000000000E+00  0.12869884109E+03  0.12869884119E+03  0.50400001928E-02 0.  1.
        1   -1    0    0  501    0  0.00000000000E+00  0.00000000000E+00 -0.15693382358E+04  0.15693382358E+04  0.50400001928E-02 0. -1.
    10030    2    1    2    0    0  0.00000000000E+00  0.00000000000E+00 -0.14406393947E+04  0.16980370770E+04  0.89882592823E+03 0.  0.
        3    1    3    3  502    0  0.11648049580E+03 -0.43000589955E+03 -0.83207222639E+03  0.94383101225E+03  0.10100000352E+00 0.  1.
       -3    1    3    3    0  502 -0.11648049580E+03  0.43000589955E+03 -0.60856716830E+03  0.75420606474E+03  0.10100000352E+00 0. -1.
</event>
<event>
 5   0  0.3927993E-03  0.8997118E+03  0.7818609E-02  0.9425942E-01
       -1   -1    0    0    0  501  0.00000000000E+00  0.00000000000E+00  0.18106592775E+03  0.18106592782E+03  0.50400001928E-02 0. -1.
        1   -1    0    0  501    0  0.00000000000E+00  0.00000000000E+00 -0.11176609544E+04  0.11176609544E+04  0.50400001928E-02 0.  1.
    10030    2    1    2    0    0  0.00000000000E+00  0.00000000000E+00 -0.93659502661E+03  0.12987268822E+04  0.89971177088E+03 0.  0.
        2    1    3    3  502    0 -0.49639621937E+02  0.29739183962E+03  0.13630711154E+02  0.30181417235E+03  0.25500000920E-02 0. -1.
       -2    1    3    3    0  502  0.49639621937E+02 -0.29739183962E+03 -0.95022573776E+03  0.99691270985E+03  0.25500000920E-02 0.  1.
</event>
<event>
 5   0  0.6609191E-03  0.8724786E+03  0.7818609E-02  0.9460654E-01
       -2   -1    0    0    0  501  0.00000000000E+00  0.00000000000E+00  0.19683898008E+03  0.19683898009E+03  0.25500000920E-02 0. -1.
        2   -1    0    0  501    0  0.00000000000E+00  0.00000000000E+00 -0.96680408858E+03  0.96680408859E+03  0.25500000920E-02 0.  1.
    10030    2    1    2    0    0  0.00000000000E+00  0.00000000000E+00 -0.76996510851E+03  0.11636430687E+04  0.87247860889E+03 0.  0.
        2    1    3    3  502    0  0.17766045837E+03  0.46121939294E+02  0.14283113409E+03  0.23257515909E+03  0.25500000920E-02 0. -1.
       -2    1    3    3    0  502 -0.17766045837E+03 -0.46121939294E+02 -0.91279624260E+03  0.93106790959E+03  0.25500000920E-02 0.  1.
</event>
<event>
 5   0  0.6524705E-03  0.9040285E+03  0.7818609E-02  0.9420560E-01
        2   -1    0    0  501    0  0.00000000000E+00  0.00000000000E+00  0.93164679510E+03  0.93164679511E+03  0.25500000920E-02 0. -1.
       -2   -1    0    0    0  501  0.00000000000E+00  0.00000000000E+00 -0.21930723235E+03  0.21930723237E+03  0.25500000920E-02 0.  1.
    10030    2    1    2    0    0  0.00000000000E+00  0.00000000000E+00  0.71233956275E+03  0.11509540275E+04  0.90402849551E+03 0.  0.
        3    1    3    3  502    0  0.30509475393E+03 -0.18738133755E+03  0.70743228703E+03  0.79287768632E+03  0.10100000352E+00 0. -1.
       -3    1    3    3    0  502 -0.30509475393E+03  0.18738133755E+03  0.49072757251E+01  0.35807634115E+03  0.10100000352E+00 0.  1.
</event>
<event>
 5   0  0.3794006E-03  0.9029502E+03  0.7818609E-02  0.9421901E-01
        1   -1    0    0  501    0  0.00000000000E+00  0.00000000000E+00  0.42549120733E+03  0.42549120736E+03  0.50400001928E-02 0. -1.
       -1   -1    0    0    0  501  0.00000000000E+00  0.00000000000E+00 -0.47904574422E+03  0.47904574425E+03  0.50400001928E-02 0.  1.
    10030    2    1    2    0    0  0.00000000000E+00  0.00000000000E+00 -0.53554536888E+02  0.90453695161E+03  0.90295016939E+03 0.  0.
        5    1    3    3  502    0  0.16282396052E+03  0.35821201475E+03 -0.24848083736E+03  0.46539478528E+03  0.46999998093E+01 0.  1.
       -5    1    3    3    0  502 -0.16282396052E+03 -0.35821201475E+03  0.19492630047E+03  0.43914216633E+03  0.46999998093E+01 0. -1.
</event>
<event>
 5   0  0.3969536E-03  0.9002056E+03  0.7818609E-02  0.9425324E-01
       -1   -1    0    0    0  501  0.00000000000E+00  0.00000000000E+00  0.20385356485E+03  0.20385356492E+03  0.50400001928E-02 0. -1.
        1   -1    0    0  501    0  0.00000000000E+00  0.00000000000E+00 -0.99381402124E+03  0.99381402125E+03  0.50400001928E-02 0.  1.
    10030    2    1    2    0    0  0.00000000000E+00  0.00000000000E+00 -0.78996045638E+03  0.11976675862E+04  0.90020560113E+03 0.  0.
        1    1    3    3  502    0 -0.11542394699E+02 -0.14120682837E+03  0.17341410413E+03  0.22393089736E+03  0.50400001928E-02 0. -1.
       -1    1    3    3    0  502  0.11542394699E+02  0.14120682837E+03 -0.96337456052E+03  0.97373668881E+03  0.50400001928E-02 0.  1.
</event>
<event>
 5   0  0.3794006E-03  0.9018874E+03  0.7818609E-02  0.9423225E-01
       -1   -1    0    0    0  501  0.00000000000E+00  0.00000000000E+00  0.22184207609E+03  0.22184207615E+03  0.50400001928E-02 0.  1.
        1   -1    0    0  501    0  0.00000000000E+00  0.00000000000E+00 -0.91664407229E+03  0.91664407230E+03  0.50400001928E-02 0. -1.
    10030    2    1    2    0    0  0.00000000000E+00  0.00000000000E+00 -0.69480199620E+03  0.11384861484E+04  0.90188740776E+03 0.  0.
        5    1    3    3  502    0 -0.12243311620E+03 -0.35695625903E+03 -0.65897207866E+03  0.75939049852E+03  0.46999998093E+01 0. -1.
       -5    1    3    3    0  502  0.12243311620E+03  0.35695625903E+03 -0.35829917538E+02  0.37909564992E+03  0.46999998093E+01 0.  1.
</event>
<event>
 5   0  0.6724773E-03  0.8972287E+03  0.7818609E-02  0.9429052E-01
        2   -1    0    0  501    0  0.00000000000E+00  0.00000000000E+00  0.11373851679E+04  0.11373851679E+04  0.25500000920E-02 0.  1.
       -2   -1    0    0    0  501  0.00000000000E+00  0.00000000000E+00 -0.17694518621E+03  0.17694518623E+03  0.25500000920E-02 0. -1.
    10030    2    1    2    0    0  0.00000000000E+00  0.00000000000E+00  0.96043998171E+03  0.13143303542E+04  0.89722868957E+03 0.  0.
        5    1    3    3  502    0 -0.36462563126E+03 -0.70545493899E+02  0.11165190590E+03  0.38783599081E+03  0.46999998093E+01 0. -1.
       -5    1    3    3    0  502  0.36462563126E+03  0.70545493899E+02  0.84878807581E+03  0.92649436334E+03  0.46999998093E+01 0.  1.
</event>
<event>
 5   0  0.2560250E-03  0.9327366E+03  0.7818609E-02  0.9385560E-01
        3   -1    0    0  501    0  0.00000000000E+00  0.00000000000E+00  0.94582360451E+03  0.94582360990E+03  0.10100000352E+00 0. -1.
       -3   -1    0    0    0  501  0.00000000000E+00  0.00000000000E+00 -0.22995765907E+03  0.22995768125E+03  0.10100000352E+00 0.  1.
    10030    2    1    2    0    0  0.00000000000E+00  0.00000000000E+00  0.71586594544E+03  0.11757812912E+04  0.93273661491E+03 0.  0.
        4    1    3    3  502    0  0.39767779968E+03 -0.13180019410E+03  0.61620825769E+03  0.74513968709E+03  0.12699999809E+01 0. -1.
       -4    1    3    3    0  502 -0.39767779968E+03  0.13180019410E+03  0.99657687750E+02  0.43064160407E+03  0.12699999809E+01 0.  1.
</event>
<event>
 5   0  0.6609191E-03  0.9051181E+03  0.7818609E-02  0.9419206E-01
        2   -1    0    0  501    0  0.00000000000E+00  0.00000000000E+00  0.23298931940E+03  0.23298931942E+03  0.25500000920E-02 0. -1.
       -2   -1    0    0    0  501  0.00000000000E+00  0.00000000000E+00 -0.87905184233E+03  0.87905184233E+03  0.25500000920E-02 0.  1.
    10030    2    1    2    0    0  0.00000000000E+00  0.00000000000E+00 -0.64606252293E+03  0.11120411617E+04  0.90511809279E+03 0.  0.
        2    1    3    3  502    0 -0.16059169226E+03 -0.12568743165E+03  0.17333911322E+03  0.26764429805E+03  0.25500000920E-02 0. -1.
       -2    1    3    3    0  502  0.16059169226E+03  0.12568743165E+03 -0.81940163615E+03  0.84439686370E+03  0.25500000920E-02 0.  1.
</event>
<event>
 5   0  0.6609191E-03  0.8931244E+03  0.7818609E-02  0.9434217E-01
       -2   -1    0    0    0  501  0.00000000000E+00  0.00000000000E+00  0.65134395774E+03  0.65134395775E+03  0.25500000920E-02 0. -1.
        2   -1    0    0  501    0  0.00000000000E+00  0.00000000000E+00 -0.30616355168E+03  0.30616355169E+03  0.25500000920E-02 0.  1.
    10030    2    1    2    0    0  0.00000000000E+00  0.00000000000E+00  0.34518040607E+03  0.95750750944E+03  0.89312435746E+03 0.  0.
        2    1    3    3  502    0  0.43432421805E+01  0.42822408473E+03  0.30829738587E+03  0.52767604516E+03  0.25500000920E-02 0. -1.
       -2    1    3    3    0  502 -0.43432421805E+01 -0.42822408473E+03  0.36883020192E+02  0.42983146427E+03  0.25500000920E-02 0.  1.
</event>
<event>
 5   0  0.6724773E-03  0.9009159E+03  0.7818609E-02  0.9424437E-01
        2   -1    0    0  501    0  0.00000000000E+00  0.00000000000E+00  0.11374891303E+04  0.11374891303E+04  0.25500000920E-02 0.  1.
       -2   -1    0    0    0  501  0.00000000000E+00  0.00000000000E+00 -0.17838619789E+03  0.17838619791E+03  0.25500000920E-02 0. -1.
    10030    2    1    2    0    0  0.00000000000E+00  0.00000000000E+00  0.95910293241E+03  0.13158753282E+04  0.90091589199E+03 0.  0.
        5    1    3    3  502    0  0.16224626304E+03  0.58642234789E+02  0.10872854710E+04  0.11008971555E+04  0.46999998093E+01 0.  1.
       -5    1    3    3    0  502 -0.16224626304E+03 -0.58642234789E+02 -0.12818253854E+03  0.21497817275E+03  0.46999998093E+01 0. -1.
</event>
<event>
 5   0  0.6863405E-03  0.9002653E+03  0.7818609E-02  0.9425250E-01
       -2   -1    0    0    0  501  0.00000000000E+00  0.00000000000E+00  0.22592317495E+03  0.22592317497E+03  0.25500000920E-02 0.  1.
        2   -1    0    0  501    0  0.00000000000E+00  0.00000000000E+00 -0.89685095349E+03  0.89685095350E+03  0.25500000920E-02 0. -1.
    10030    2    1    2    0    0  0.00000000000E+00  0.00000000000E+00 -0.67092777854E+03  0.11227741285E+04  0.90026532730E+03 0.  0.
        1    1    3    3  502    0  0.63221078099E+02  0.29692828135E+03  0.79028668134E+02  0.31370183199E+03  0.50400001928E-02 0.  1.
       -1    1    3    3    0  502 -0.63221078099E+02 -0.29692828135E+03 -0.74995644667E+03  0.80907229647E+03  0.50400001928E-02 0. -1.
</event>
<event>
 5   0  0.6609191E-03  0.9101773E+03  0.7818609E-02  0.9412948E-01
       -2   -1    0    0    0  501  0.00000000000E+00  0.00000000000E+00  0.59727937230E+03  0.59727937230E+03  0.25500000920E-02 0. -1.
        2   -1    0    0  501    0  0.00000000000E+00  0.00000000000E+00 -0.34674844490E+03  0.34674844491E+03  0.25500000920E-02 0.  1.
    10030    2    1    2    0    0  0.00000000000E+00  0.00000000000E+00  0.25053092740E+03  0.94402781722E+03  0.91017733113E+03 0.  0.
        2    1    3    3  502    0 -0.20827032434E+03 -0.23885588296E+03  0.46402711434E+03  0.56191620699E+03  0.25500000920E-02 0. -1.
       -2    1    3    3    0  502  0.20827032434E+03  0.23885588296E+03 -0.21349618694E+03  0.38211161023E+03  0.25500000920E-02 0.  1.
</event>
<event>
 5   0  0.6863405E-03  0.9055206E+03  0.7818609E-02  0.9418707E-01
        2   -1    0    0  501    0  0.00000000000E+00  0.00000000000E+00  0.62890378827E+03  0.62890378828E+03  0.25500000920E-02 0.  1.
       -2   -1    0    0    0  501  0.00000000000E+00  0.00000000000E+00 -0.32595113937E+03  0.32595113938E+03  0.25500000920E-02 0. -1.
    10030    2    1    2    0    0  0.00000000000E+00  0.00000000000E+00  0.30295264891E+03  0.95485492766E+03  0.90552063775E+03 0.  0.
        1    1    3    3  502    0 -0.37673105456E+03 -0.25013202550E+03  0.17504555096E+03  0.48490541613E+03  0.50400001928E-02 0.  1.
       -1    1    3    3    0  502  0.37673105456E+03  0.25013202550E+03  0.12790709794E+03  0.46994951153E+03  0.50400001928E-02 0. -1.
</event>
<event>
 5   0  0.3998066E-03  0.9028191E+03  0.7818609E-02  0.9422064E-01
       -1   -1    0    0    0  501  0.00000000000E+00  0.00000000000E+00  0.20079582611E+03  0.20079582617E+03  0.50400001928E-02 0.  1.
        1   -1    0    0  501    0  0.00000000000E+00  0.00000000000E+00 -0.10148147843E+04  0.10148147843E+04  0.50400001928E-02 0. -1.
    10030    2    1    2    0    0  0.00000000000E+00  0.00000000000E+00 -0.81401895820E+03  0.12156106105E+04  0.90281908045E+03 0.  0.
        4    1    3    3  502    0 -0.94463668067E+02  0.36206034870E+03 -0.67023752137E+02  0.38013797092E+03  0.12699999809E+01 0.  1.
       -4    1    3    3    0  502  0.94463668067E+02 -0.36206034870E+03 -0.74699520606E+03  0.83547263957E+03  0.12699999809E+01 0. -1.
</event>
<event>
 5   0  0.3998066E-03  0.8979164E+03  0.7818609E-02  0.9428190E-01
       -1   -1    0    0    0  501  0.00000000000E+00  0.00000000000E+00  0.29949699044E+03  0.29949699048E+03  0.50400001928E-02 0.  1.
        1   -1    0    0  501    0  0.00000000000E+00  0.00000000000E+00 -0.67300670398E+03  0.67300670400E+03  0.50400001928E-02 0. -1.
    10030    2    1    2    0    0  0.00000000000E+00  0.00000000000E+00 -0.37350971354E+03  0.97250369448E+03  0.89791643802E+03 0.  0.
        4    1    3    3  502    0  0.13735114484E+03  0.42294082738E+03 -0.11983578218E+03  0.46055022315E+03  0.12699999809E+01 0. -1.
       -4    1    3    3    0  502 -0.13735114484E+03 -0.42294082738E+03 -0.25367393136E+03  0.51195347133E+03  0.12699999809E+01 0.  1.
</event>
<event>
 5   0  0.3998066E-03  0.9290549E+03  0.7818609E-02  0.9389973E-01
       -1   -1    0    0    0  501  0.00000000000E+00  0.00000000000E+00  0.13522030145E+03  0.13522030155E+03  0.50400001928E-02 0. -1.
        1   -1    0    0  501    0  0.00000000000E+00  0.00000000000E+00 -0.15958087813E+04  0.15958087813E+04  0.50400001928E-02 0.  1.
    10030    2    1    2    0    0  0.00000000000E+00  0.00000000000E+00 -0.14605884799E+04  0.17310290829E+04  0.92905488441E+03 0.  0.
        4    1    3    3  502    0 -0.17229211329E+03  0.32999513150E+03 -0.12479957624E+04  0.13023349780E+04  0.12699999809E+01 0.  1.
       -4    1    3    3    0  502  0.17229211329E+03 -0.32999513150E+03 -0.21259271746E+03  0.42869410485E+03  0.12699999809E+01 0. -1.
</event>
<event>
 5   0  0.6534628E-03  0.9204044E+03  0.7818609E-02  0.9400428E-01
        2   -1    0    0  501    0  0.00000000000E+00  0.00000000000E+00  0.51339187880E+03  0.51339187880E+03  0.25500000920E-02 0. -1.
       -2   -1    0    0    0  501  0.00000000000E+00  0.00000000000E+00 -0.41252322085E+03  0.41252322086E+03  0.25500000920E-02 0.  1.
    10030    2    1    2    0    0  0.00000000000E+00  0.00000000000E+00  0.10086865794E+03  0.92591509966E+03  0.92040441417E+03 0.  0.
        4    1    3    3  502    0 -0.18298686109E+03  0.12356618296E+03 -0.35575495009E+03  0.41870752360E+03  0.12699999809E+01 0.  1.
       -4    1    3    3    0  502  0.18298686109E+03 -0.12356618296E+03  0.45662360804E+03  0.50720757607E+03  0.12699999809E+01 0. -1.
</event>
<event>
 5   0  0.3794006E-03  0.8990356E+03  0.7818609E-02  0.9426788E-01
       -1   -1    0    0    0  501  0.00000000000E+00  0.00000000000E+00  0.19214001154E+03  0.19214001161E+03  0.50400001928E-02 0.  1.
        1   -1    0    0  501    0  0.00000000000E+00  0.00000000000E+00 -0.10516614891E+04  0.10516614891E+04  0.50400001928E-02 0. -1.
    10030    2    1    2    0    0  0.00000000000E+00  0.00000000000E+00 -0.85952147758E+03  0.12438015007E+04  0.89903559598E+03 0.  0.
        5    1    3    3  502    0  0.13830577070E+03 -0.18872239514E+03 -0.96073671590E+03  0.98882847648E+03  0.46999998093E+01 0. -1.
       -5    1    3    3    0  502 -0.13830577070E+03  0.18872239514E+03  0.10121523832E+03  0.25497302426E+03  0.46999998093E+01 0.  1.
</event>
<event>
 5   0  0.3927993E-03  0.8942653E+03  0.7818609E-02  0.9432779E-01
        1   -1    0    0  501    0  0.00000000000E+00  0.00000000000E+00  0.50432045119E+03  0.50432045121E+03  0.50400001928E-02 0. -1.
       -1   -1    0    0    0  501  0.00000000000E+00  0.00000000000E+00 -0.39642973578E+03  0.39642973582E+03  0.50400001928E-02 0.  1.
    10030    2    1    2    0    0  0.00000000000E+00  0.00000000000E+00  0.10789071540E+03  0.90075018703E+03  0.89426533700E+03 0.  0.
        2    1    3    3  502    0 -0.13258638386E+03 -0.30517146928E+03 -0.24691590256E+03  0.41433831320E+03  0.25500000920E-02 0.  1.
       -2    1    3    3    0  502  0.13258638386E+03  0.30517146928E+03  0.35480661796E+03  0.48641187383E+03  0.25500000920E-02 0. -1.
</event>
<event>
 5   0  0.3998066E-03  0.8994265E+03  0.7818609E-02  0.9426299E-01
       -1   -1    0    0    0  501  0.00000000000E+00  0.00000000000E+00  0.23312674165E+03  0.23312674171E+03  0.50400001928E-02 0. -1.
        1   -1    0    0  501    0  0.00000000000E+00  0.00000000000E+00 -0.86751952890E+03  0.86751952891E+03  0.50400001928E-02 0.  1.
    10030    2    1    2    0    0  0.00000000000E+00  0.00000000000E+00 -0.63439278724E+03  0.11006462706E+04  0.89942648644E+03 0.  0.
        4    1    3    3  502    0 -0.20074413128E+03  0.39803802240E+03 -0.38967446135E+03  0.59209819477E+03  0.12699999809E+01 0. -1.
       -4    1    3    3    0  502  0.20074413128E+03 -0.39803802240E+03 -0.24471832589E+03  0.50854807585E+03  0.12699999809E+01 0.  1.
</event>
<event>
 5   0  0.3998066E-03  0.8857099E+03  0.7818609E-02  0.9443623E-01
       -1   -1    0    0    0  501  0.00000000000E+00  0.00000000000E+00  0.47988222086E+03  0.47988222089E+03  0.50400001928E-02 0. -1.
        1   -1    0    0  501    0  0.00000000000E+00  0.00000000000E+00 -0.40868463676E+03  0.40868463679E+03  0.50400001928E-02 0.  1.
    10030    2    1    2    0    0  0.00000000000E+00  0.00000000000E+00  0.71197584101E+02  0.88856685768E+03  0.88570986479E+03 0.  0.
        4    1    3    3  502    0  0.97461275352E+02 -0.22540839156E+03  0.40531328739E+03  0.47390728736E+03  0.12699999809E+01 0. -1.
       -4    1    3    3    0  502 -0.97461275352E+02  0.22540839156E+03 -0.33411570328E+03  0.41465957032E+03  0.12699999809E+01 0.  1.
</event>
<event>
 5   0  0.6524705E-03  0.9088378E+03  0.7818609E-02  0.9414601E-01
       -2   -1    0    0    0  501  0.00000000000E+00  0.00000000000E+00  0.20040733073E+03  0.20040733075E+03  0.25500000920E-02 0.  1.
        2   -1    0    0  501    0  0.00000000000E+00  0.00000000000E+00 -0.10303842177E+04  0.10303842177E+04  0.25500000920E-02 0. -1.
    10030    2    1    2    0    0  0.00000000000E+00  0.00000000000E+00 -0.82997688698E+03  0.12307915485E+04  0.90883783089E+03 0.  0.
        3    1    3    3  502    0  0.11532391944E+02  0.31948467135E+03  0.22358277492E+02  0.32047364021E+03  0.10100000352E+00 0.  1.
       -3    1    3    3    0  502 -0.11532391944E+02 -0.31948467135E+03 -0.85233516447E+03  0.91031790826E+03  0.10100000352E+00 0. -1.
</event>
<event>
 5   0  0.3927993E-03  0.9008856E+03  0.7818609E-02  0.9424475E-01
        1   -1    0    0  501    0  0.00000000000E+00  0.00000000000E+00  0.40999412504E+03  0.40999412507E+03  0.50400001928E-02 0. -1.
       -1   -1    0    0    0  501  0.00000000000E+00  0.00000000000E+00 -0.49488204588E+03  0.49488204590E+03  0.50400001928E-02 0.  1.
    10030    2    1    2    0    0  0.00000000000E+00  0.00000000000E+00 -0.84887920839E+02  0.90487617097E+03  0.90088563407E+03 0.  0.
        2    1    3    3  502    0 -0.34088941134E+03 -0.22458956050E+03 -0.23368869587E+03  0.47037906844E+03  0.25500000920E-02 0.  1.
       -2    1    3    3    0  502  0.34088941134E+03  0.22458956050E+03  0.14880077504E+03  0.43449710252E+03  0.25500000920E-02 0. -1.
</event>
<event>
 5   0  0.6524705E-03  0.8977346E+03  0.7818609E-02  0.9428418E-01
       -2   -1    0    0    0  501  0.00000000000E+00  0.00000000000E+00  0.13535446647E+03  0.13535446650E+03  0.25500000920E-02 0.  1.
        2   -1    0    0  501    0  0.00000000000E+00  0.00000000000E+00 -0.14885498132E+04  0.14885498132E+04  0.25500000920E-02 0. -1.
    10030    2    1    2    0    0  0.00000000000E+00  0.00000000000E+00 -0.13531953467E+04  0.16239042797E+04  0.89773462851E+03 0.  0.
        3    1    3    3  502    0 -0.60074572113E+01  0.10921673019E+03  0.11087787211E+03  0.15575075094E+03  0.10100000352E+00 0.  1.
       -3    1    3    3    0  502  0.60074572113E+01 -0.10921673019E+03 -0.14640732189E+04  0.14681535288E+04  0.10100000352E+00 0. -1.
</event>
<event>
 5   0  0.3794006E-03  0.8302601E+03  0.7818609E-02  0.9517221E-01
        1   -1    0    0  501    0  0.00000000000E+00  0.00000000000E+00  0.34904341926E+03  0.34904341930E+03  0.50400001928E-02 0. -1.
       -1   -1    0    0    0  501  0.00000000000E+00  0.00000000000E+00 -0.49372929846E+03  0.49372929848E+03  0.50400001928E-02 0.  1.
    10030    2    1    2    0    0  0.00000000000E+00  0.00000000000E+00 -0.14468587920E+03  0.84277271778E+03  0.83026010996E+03 0.  0.
        5    1    3    3  502    0  0.23051030320E+03  0.27067290302E+03  0.14515725431E+03  0.38404627168E+03  0.46999998093E+01 0. -1.
       -5    1    3    3    0  502 -0.23051030320E+03 -0.27067290302E+03 -0.28984313351E+03  0.45872644610E+03  0.46999998093E+01 0.  1.
</event>
<event>
 5   0  0.6524705E-03  0.8900179E+03  0.7818609E-02  0.9438146E-01
       -2   -1    0    0    0  501  0.00000000000E+00  0.00000000000E+00  0.11584039622E+03  0.11584039624E+03  0.25500000920E-02 0.  1.
        2   -1    0    0  501    0  0.00000000000E+00  0.00000000000E+00 -0.17095327790E+04  0.17095327790E+04  0.25500000920E-02 0. -1.
    10030    2    1    2    0    0  0.00000000000E+00  0.00000000000E+00 -0.15936923828E+04  0.18253731753E+04  0.89001787508E+03 0.  0.
        3    1    3    3  502    0 -0.33277523782E+03  0.18394019476E+03 -0.32264160793E+03  0.49866920050E+03  0.10100000352E+00 0.  1.
       -3    1    3    3    0  502  0.33277523782E+03 -0.18394019476E+03 -0.12710507749E+04  0.13267039748E+04  0.10100000352E+00 0. -1.
</event>
<event>
 5   0  0.3943549E-03  0.8923349E+03  0.7818609E-02  0.9435214E-01
        1   -1    0    0  501    0  0.00000000000E+00  0.00000000000E+00  0.42641065466E+03  0.42641065469E+03  0.50400001928E-02 0. -1.
       -1   -1    0    0    0  501  0.00000000000E+00  0.00000000000E+00 -0.46683964507E+03  0.46683964510E+03  0.50400001928E-02 0.  1.
    10030    2    1    2    0    0  0.00000000000E+00  0.00000000000E+00 -0.40428990417E+02  0.89325029979E+03  0.89233491179E+03 0.  0.
        3    1    3    3  502    0  0.92202307299E+02  0.42003544682E+03 -0.13922441210E+03  0.45201160293E+03  0.10100000352E+00 0. -1.
       -3    1    3    3    0  502 -0.92202307299E+02 -0.42003544682E+03  0.98795421682E+02  0.44123869686E+03  0.10100000352E+00 0.  1.
</event>
<event>
 5   0  0.3794006E-03  0.8862700E+03  0.7818609E-02  0.9442909E-01
        1   -1    0    0  501    0  0.00000000000E+00  0.00000000000E+00  0.32757591755E+03  0.32757591759E+03  0.50400001928E-02 0. -1.
       -1   -1    0    0    0  501  0.00000000000E+00  0.00000000000E+00 -0.59945989713E+03  0.59945989715E+03  0.50400001928E-02 0.  1.
    10030    2    1    2    0    0  0.00000000000E+00  0.00000000000E+00 -0.27188397958E+03  0.92703581474E+03  0.88626999467E+03 0.  0.
        5    1    3    3  502    0  0.16465423504E+03  0.13121372231E+03  0.27188752855E+03  0.34390838347E+03  0.46999998093E+01 0. -1.
       -5    1    3    3    0  502 -0.16465423504E+03 -0.13121372231E+03 -0.54377150814E+03  0.58312743127E+03  0.46999998093E+01 0.  1.
</event>
<event>
 5   0  0.6724773E-03  0.9009518E+03  0.7818609E-02  0.9424392E-01
        2   -1    0    0  501    0  0.00000000000E+00  0.00000000000E+00  0.10093909907E+04  0.10093909907E+04  0.25500000920E-02 0.  1.
       -2   -1    0    0    0  501  0.00000000000E+00  0.00000000000E+00 -0.20104057663E+03  0.20104057665E+03  0.25500000920E-02 0. -1.
    10030    2    1    2    0    0  0.00000000000E+00  0.00000000000E+00  0.80835041403E+03  0.12104315673E+04  0.90095182295E+03 0.  0.
        5    1    3    3  502    0  0.38433404215E+03 -0.15339959275E+03  0.16511331405E+03  0.44556546936E+03  0.46999998093E+01 0. -1.
       -5    1    3    3    0  502 -0.38433404215E+03  0.15339959275E+03  0.64323709998E+03  0.76486609795E+03  0.46999998093E+01 0.  1.
</event>
<event>
 5   0  0.3943549E-03  0.8997640E+03  0.7818609E-02  0.9425876E-01
       -1   -1    0    0    0  501  0.00000000000E+00  0.00000000000E+00  0.25765101358E+03  0.25765101363E+03  0.50400001928E-02 0.  1.
        1   -1    0    0  501    0  0.00000000000E+00  0.00000000000E+00 -0.78553469903E+03  0.78553469904E+03  0.50400001928E-02 0. -1.
    10030    2    1    2    0    0  0.00000000000E+00  0.00000000000E+00 -0.52788368545E+03  0.10431857127E+04  0.89976399448E+03 0.  0.
        3    1    3    3  502    0 -0.33885893336E+03 -0.27881091710E+03 -0.14897469264E+03  0.46341598317E+03  0.10100000352E+00 0.  1.
       -3    1    3    3    0  502  0.33885893336E+03  0.27881091710E+03 -0.37890899281E+03  0.57976972950E+03  0.10100000352E+00 0. -1.
</event>
<event>
 5   0  0.3927993E-03  0.9017051E+03  0.7818609E-02  0.9423452E-01
        1   -1    0    0  501    0  0.00000000000E+00  0.00000000000E+00  0.66201267662E+03  0.66201267664E+03  0.50400001928E-02 0. -1.
       -1   -1    0    0    0  501  0.00000000000E+00  0.00000000000E+00 -0.30704551599E+03  0.30704551603E+03  0.50400001928E-02 0.  1.
    10030    2    1    2    0    0  0.00000000000E+00  0.00000000000E+00  0.35496716063E+03  0.96905819267E+03  0.90170510460E+03 0.  0.
        2    1    3    3  502    0 -0.44279617525E+03  0.65462795428E+02  0.11946801580E+03  0.46327792653E+03  0.25500000920E-02 0. -1.
       -2    1    3    3    0  502  0.44279617525E+03 -0.65462795428E+02  0.23549914483E+03  0.50578026615E+03  0.25500000920E-02 0.  1.
</event>
<event>
 5   0  0.6609191E-03  0.8984467E+03  0.7818609E-02  0.9427525E-01
        2   -1    0    0  501    0  0.00000000000E+00  0.00000000000E+00  0.11586620051E+04  0.11586620051E+04  0.25500000920E-02 0.  1.
       -2   -1    0    0    0  501  0.00000000000E+00  0.00000000000E+00 -0.17416778986E+03  0.17416778988E+03  0.25500000920E-02 0. -1.
    10030    2    1    2    0    0  0.00000000000E+00  0.00000000000E+00  0.98449421521E+03  0.13328297950E+04  0.89844666094E+03 0.  0.
        2    1    3    3  502    0 -0.14015366201E+03  0.39880317316E+03  0.71778805683E+03  0.83301063284E+03  0.25500000920E-02 0.  1.
       -2    1    3    3    0  502  0.14015366201E+03 -0.39880317316E+03  0.26670615838E+03  0.49981916212E+03  0.25500000920E-02 0. -1.
</event>
<event>
 5   0  0.6609191E-03  0.8940853E+03  0.7818609E-02  0.9433005E-01
       -2   -1    0    0    0  501  0.00000000000E+00  0.00000000000E+00  0.34470025340E+03  0.34470025341E+03  0.25500000920E-02 0.  1.
        2   -1    0    0  501    0  0.00000000000E+00  0.00000000000E+00 -0.57977072790E+03  0.57977072791E+03  0.25500000920E-02 0. -1.
    10030    2    1    2    0    0  0.00000000000E+00  0.00000000000E+00 -0.23507047450E+03  0.92447098132E+03  0.89408526849E+03 0.  0.
        2    1    3    3  502    0 -0.19288139734E+03 -0.16273294824E+03 -0.49907701535E+03  0.55925228040E+03  0.25500000920E-02 0. -1.
       -2    1    3    3    0  502  0.19288139734E+03  0.16273294824E+03  0.26400654085E+03  0.36521870092E+03  0.25500000920E-02 0.  1.
</event>
<event>
 5   0  0.6534628E-03  0.9107025E+03  0.7818609E-02  0.9412301E-01
        2   -1    0    0  501    0  0.00000000000E+00  0.00000000000E+00  0.27905995466E+03  0.27905995467E+03  0.25500000920E-02 0.  1.
       -2   -1    0    0    0  501  0.00000000000E+00  0.00000000000E+00 -0.74301156576E+03  0.74301156577E+03  0.25500000920E-02 0. -1.
    10030    2    1    2    0    0  0.00000000000E+00  0.00000000000E+00 -0.46395161111E+03  0.10220715204E+04  0.91070252851E+03 0.  0.
        4    1    3    3  502    0 -0.12158350472E+03  0.34629407991E+02  0.25896816777E+03  0.28818027229E+03  0.12699999809E+01 0.  1.
       -4    1    3    3    0  502  0.12158350472E+03 -0.34629407991E+02 -0.72291977888E+03  0.73389124815E+03  0.12699999809E+01 0. -1.
</event>
<event>
 5   0  0.6863405E-03  0.9376405E+03  0.7818609E-02  0.9379715E-01
        2   -1    0    0  501    0  0.00000000000E+00  0.00000000000E+00  0.20136140977E+04  0.20136140977E+04  0.25500000920E-02 0.  1.
       -2   -1    0    0    0  501  0.00000000000E+00  0.00000000000E+00 -0.10915320884E+03  0.10915320887E+03  0.25500000920E-02 0. -1.
    10030    2    1    2    0    0  0.00000000000E+00  0.00000000000E+00  0.19044608888E+04  0.21227673065E+04  0.93764052847E+03 0.  0.
        1    1    3    3  502    0 -0.21727736090E+03  0.19389368163E+03  0.12043991979E+03  0.31513486897E+03  0.50400001928E-02 0. -1.
       -1    1    3    3    0  502  0.21727736090E+03 -0.19389368163E+03  0.17840209690E+04  0.18076324376E+04  0.50400001928E-02 0.  1.
</event>
<event>
 5   0  0.2560250E-03  0.9012960E+03  0.7818609E-02  0.9423963E-01
        4   -1    0    0  501    0  0.00000000000E+00  0.00000000000E+00  0.55033022842E+03  0.55033169381E+03  0.12699999809E+01 0. -1.
       -4   -1    0    0    0  501  0.00000000000E+00  0.00000000000E+00 -0.36901830936E+03  0.36902049475E+03  0.12699999809E+01 0.  1.
    10030    2    1    2    0    0  0.00000000000E+00  0.00000000000E+00  0.18131191905E+03  0.91935218856E+03  0.90129597504E+03 0.  0.
        1    1    3    3  502    0 -0.27939132798E+03 -0.35197052487E+03  0.12510900624E+03  0.46647082224E+03  0.50400001928E-02 0. -1.
       -1    1    3    3    0  502  0.27939132798E+03  0.35197052487E+03  0.56202912810E+02  0.45288136632E+03  0.50400001928E-02 0.  1.
</event>
<event>
 5   0  0.6534628E-03  0.9002936E+03  0.7818609E-02  0.9425215E-01
       -2   -1    0    0    0  501  0.00000000000E+00  0.00000000000E+00  0.13673783637E+03  0.13673783640E+03  0.25500000920E-02 0.  1.
        2   -1    0    0  501    0  0.00000000000E+00  0.00000000000E+00 -0.14819024308E+04  0.14819024308E+04  0.25500000920E-02 0. -1.
    10030    2    1    2    0    0  0.00000000000E+00  0.00000000000E+00 -0.13451645944E+04  0.16186402672E+04  0.90029357905E+03 0.  0.
        4    1    3    3  502    0 -0.29352810806E+02  0.44813200795E+03 -0.61726543909E+03  0.76334927736E+03  0.12699999809E+01 0.  1.
       -4    1    3    3    0  502  0.29352810806E+02 -0.44813200795E+03 -0.72789915531E+03  0.85529098981E+03  0.12699999809E+01 0. -1.
</event>
<event>
 5   0  0.6524705E-03  0.9011342E+03  0.7818609E-02  0.9424165E-01
        2   -1    0    0  501    0  0.00000000000E+00  0.00000000000E+00  0.24872921439E+03  0.24872921441E+03  0.25500000920E-02 0.  1.
       -2   -1    0    0    0  501  0.00000000000E+00  0.00000000000E+00 -0.81619175525E+03  0.81619175525E+03  0.25500000920E-02 0. -1.
    10030    2    1    2    0    0  0.00000000000E+00  0.00000000000E+00 -0.56746254085E+03  0.10649209697E+04  0.90113424990E+03 0.  0.
        3    1    3    3  502    0  0.13119194882E+03  0.42549225504E+03 -0.20223517282E+03  0.48903380442E+03  0.10100000352E+00 0.  1.
       -3    1    3    3    0  502 -0.13119194882E+03 -0.42549225504E+03 -0.36522736803E+03  0.57588716524E+03  0.10100000352E+00 0. -1.
</event>
<event>
 5   0  0.2560250E-03  0.8928872E+03  0.7818609E-02  0.9434517E-01
       -3   -1    0    0    0  501  0.00000000000E+00  0.00000000000E+00  0.98614550872E+03  0.98614551389E+03  0.10100000352E+00 0.  1.
        3   -1    0    0  501    0  0.00000000000E+00  0.00000000000E+00 -0.20211203675E+03  0.20211206198E+03  0.10100000352E+00 0. -1.
    10030    2    1    2    0    0  0.00000000000E+00  0.00000000000E+00  0.78403347198E+03  0.11882575759E+04  0.89288721653E+03 0.  0.
        1    1    3    3  502    0  0.10733444106E+03 -0.17236706568E+03 -0.13710251144E+03  0.24500650244E+03  0.50400001928E-02 0. -1.
       -1    1    3    3    0  502 -0.10733444106E+03  0.17236706568E+03  0.92113598342E+03  0.94325107344E+03  0.50400001928E-02 0.  1.
</event>
<event>
 5   0  0.2560250E-03  0.9008151E+03  0.7818609E-02  0.9424563E-01
       -3   -1    0    0    0  501  0.00000000000E+00  0.00000000000E+00  0.66277039170E+03  0.66277039939E+03  0.10100000352E+00 0.  1.
        3   -1    0    0  501    0  0.00000000000E+00  0.00000000000E+00 -0.30608933546E+03  0.30608935212E+03  0.10100000352E+00 0. -1.
    10030    2    1    2    0    0  0.00000000000E+00  0.00000000000E+00  0.35668105624E+03  0.96885975151E+03  0.90081509880E+03 0.  0.
        1    1    3    3  502    0  0.56121284312E+01 -0.41928480910E+03  0.35518609393E+03  0.54953471999E+03  0.50400001928E-02 0.  1.
       -1    1    3    3    0  502 -0.56121284312E+01  0.41928480910E+03  0.14949623133E+01  0.41932503153E+03  0.50400001928E-02 0. -1.
</event>
<event>
 5   0  0.3943549E-03  0.9123787E+03  0.7818609E-02  0.9410238E-01
       -1   -1    0    0    0  501  0.00000000000E+00  0.00000000000E+00  0.25355822555E+03  0.25355822560E+03  0.50400001928E-02 0. -1.
        1   -1    0    0  501    0  0.00000000000E+00  0.00000000000E+00 -0.82075313539E+03  0.82075313541E+03  0.50400001928E-02 0.  1.
    10030    2    1    2    0    0  0.00000000000E+00  0.00000000000E+00 -0.56719490984E+03  0.10743113610E+04  0.91237866845E+03 0.  0.
        3    1    3    3  502    0  0.42025024367E+03  0.12321851987E+03 -0.13319430338E+03  0.45774862490E+03  0.10100000352E+00 0. -1.
       -3    1    3    3    0  502 -0.42025024367E+03 -0.12321851987E+03 -0.43400060646E+03  0.61656273611E+03  0.10100000352E+00 0.  1.
</event>
<event>
 5   0  0.6724773E-03  0.8157967E+03  0.7818609E-02  0.9537429E-01
       -2   -1    0    0    0  501  0.00000000000E+00  0.00000000000E+00  0.10827804374E+04  0.10827804374E+04  0.25500000920E-02 0.  1.
        2   -1    0    0  501    0  0.00000000000E+00  0.00000000000E+00 -0.15366095523E+03  0.15366095525E+03  0.25500000920E-02 0. -1.
    10030    2    1    2    0    0  0.00000000000E+00  0.00000000000E+00  0.92911948214E+03  0.12364413926E+04  0.81579673039E+03 0.  0.
        5    1    3    3  502    0  0.19983982988E+03 -0.26685072746E+03  0.82069508096E+03  0.88583732945E+03  0.46999998093E+01 0.  1.
       -5    1    3    3    0  502 -0.19983982988E+03  0.26685072746E+03  0.10842440119E+03  0.35060406318E+03  0.46999998093E+01 0. -1.
</event>
<event>
 5   0  0.3998066E-03  0.8999250E+03  0.7818609E-02  0.9425675E-01
        1   -1    0    0  501    0  0.00000000000E+00  0.00000000000E+00  0.22415292560E+03  0.22415292565E+03  0.50400001928E-02 0.  1.
       -1   -1    0    0    0  501  0.00000000000E+00  0.00000000000E+00 -0.90325047504E+03  0.90325047505E+03  0.50400001928E-02 0. -1.
    10030    2    1    2    0    0  0.00000000000E+00  0.00000000000E+00 -0.67909754944E+03  0.11274034007E+04  0.89992496702E+03 0.  0.
        4    1    3    3  502    0  0.28667404131E+03  0.21475410842E+03 -0.68071618218E+03  0.76920573751E+03  0.12699999809E+01 0. -1.
       -4    1    3    3    0  502 -0.28667404131E+03 -0.21475410842E+03  0.16186327352E+01  0.35819766319E+03  0.12699999809E+01 0.  1.
</event>
<event>
 5   0  0.6863405E-03  0.9066591E+03  0.7818609E-02  0.9417295E-01
        2   -1    0    0  501    0  0.00000000000E+00  0.00000000000E+00  0.46480593578E+03  0.46480593579E+03  0.25500000920E-02 0.  1.
       -2   -1    0    0    0  501  0.00000000000E+00  0.00000000000E+00 -0.44213656190E+03  0.44213656190E+03  0.25500000920E-02 0. -1.
    10030    2    1    2    0    0  0.00000000000E+00  0.00000000000E+00  0.22669373883E+02  0.90694249769E+03  0.90665913860E+03 0.  0.
        1    1    3    3  502    0  0.50946836879E+02  0.26431761785E+03 -0.35353719677E+03  0.44435113685E+03  0.50400001928E-02 0. -1.
       -1    1    3    3    0  502 -0.50946836879E+02 -0.26431761785E+03  0.37620657065E+03  0.46259136084E+03  0.50400001928E-02 0.  1.
</event>
<event>
 5   0  0.2560250E-03  0.9004173E+03  0.7818609E-02  0.9425060E-01
       -3   -1    0    0    0  501  0.00000000000E+00  0.00000000000E+00  0.27358706531E+03  0.27358708395E+03  0.10100000352E+00 0. -1.
        3   -1    0    0  501    0  0.00000000000E+00  0.00000000000E+00 -0.74085308591E+03  0.74085309279E+03  0.10100000352E+00 0.  1.
    10030    2    1    2    0    0  0.00000000000E+00  0.00000000000E+00 -0.46726602059E+03  0.10144401767E+04  0.90041731336E+03 0.  0.
        5    1    3    3  502    0 -0.15581014807E+03 -0.39999418266E+03 -0.38643039729E+03  0.57760080536E+03  0.46999998093E+01 0.  1.
       -5    1    3    3    0  502  0.15581014807E+03  0.39999418266E+03 -0.80835623301E+02  0.43683937139E+03  0.46999998093E+01 0. -1.
</event>
<event>
 5   0  0.6609191E-03  0.9007539E+03  0.7818609E-02  0.9424640E-01
        2   -1    0    0  501    0  0.00000000000E+00  0.00000000000E+00  0.58487807792E+03  0.58487807793E+03  0.25500000920E-02 0. -1.
       -2   -1    0    0    0  501  0.00000000000E+00  0.00000000000E+00 -0.34680627549E+03  0.34680627550E+03  0.25500000920E-02 0.  1.
    10030    2    1    2    0    0  0.00000000000E+00  0.00000000000E+00  0.23807180243E+03  0.93168435342E+03  0.90075387943E+03 0.  0.
        2    1    3    3  502    0  0.44125550326E+03 -0.90164730618E+02  0.12091202442E+03  0.46632157945E+03  0.25500000920E-02 0.  1.
       -2    1    3    3    0  502 -0.44125550326E+03  0.90164730618E+02  0.11715977801E+03  0.46536277397E+03  0.25500000920E-02 0. -1.
</event>
<event>
 5   0  0.3794006E-03  0.9045282E+03  0.7818609E-02  0.9419939E-01
       -1   -1    0    0    0  501  0.00000000000E+00  0.00000000000E+00  0.17385191382E+03  0.17385191390E+03  0.50400001928E-02 0. -1.
        1   -1    0    0  501    0  0.00000000000E+00  0.00000000000E+00 -0.11765346573E+04  0.11765346573E+04  0.50400001928E-02 0.  1.
    10030    2    1    2    0    0  0.00000000000E+00  0.00000000000E+00 -0.10026827435E+04  0.13503865712E+04  0.90452816851E+03 0.  0.
        5    1    3    3  502    0  0.35383687508E+03  0.26005366711E+03 -0.66277179835E+03  0.79505785364E+03  0.46999998093E+01 0.  1.
       -5    1    3    3    0  502 -0.35383687508E+03 -0.26005366711E+03 -0.33991094512E+03  0.55532871756E+03  0.46999998093E+01 0. -1.
</event>
<event>
 5   0  0.6534628E-03  0.8761425E+03  0.7818609E-02  0.9455906E-01
       -2   -1    0    0    0  501  0.00000000000E+00  0.00000000000E+00  0.33292227521E+03  0.33292227522E+03  0.25500000920E-02 0. -1.
        2   -1    0    0  501    0  0.00000000000E+00  0.00000000000E+00 -0.57643004634E+03  0.57643004634E+03  0.25500000920E-02 0.  1.
    10030    2    1    2    0    0  0.00000000000E+00  0.00000000000E+00 -0.24350777112E+03  0.90935232157E+03  0.87614245996E+03 0.  0.
        4    1    3    3  502    0  0.14809843776E+03 -0.31071767145E+03 -0.40299764386E+03  0.52998804937E+03  0.12699999809E+01 0.  1.
       -4    1    3    3    0  502 -0.14809843776E+03  0.31071767145E+03  0.15948987273E+03  0.37936427220E+03  0.12699999809E+01 0. -1.
</event>
<event>
 5   0  0.6724773E-03  0.8874155E+03  0.7818609E-02  0.9441451E-01
        2   -1    0    0  501    0  0.00000000000E+00  0.00000000000E+00  0.74038148846E+03  0.74038148846E+03  0.25500000920E-02 0.  1.
       -2   -1    0    0    0  501  0.00000000000E+00  0.00000000000E+00 -0.26591231406E+03  0.26591231408E+03  0.25500000920E-02 0. -1.
    10030    2    1    2    0    0  0.00000000000E+00  0.00000000000E+00  0.47446917440E+03  0.10062938025E+04  0.88741547179E+03 0.  0.
        5    1    3    3  502    0  0.19578395043E+03 -0.38884114571E+02  0.68656211756E+03  0.71500556703E+03  0.46999998093E+01 0.  1.
       -5    1    3    3    0  502 -0.19578395043E+03  0.38884114571E+02 -0.21209294316E+03  0.29128823551E+03  0.46999998093E+01 0. -1.
</event>
<event>
 5   0  0.3998066E-03  0.9370510E+03  0.7818609E-02  0.9380415E-01
        1   -1    0    0  501    0  0.00000000000E+00  0.00000000000E+00  0.54815953487E+03  0.54815953490E+03  0.50400001928E-02 0. -1.
       -1   -1    0    0    0  501  0.00000000000E+00  0.00000000000E+00 -0.40046035036E+03  0.40046035039E+03  0.50400001928E-02 0.  1.
    10030    2    1    2    0    0  0.00000000000E+00  0.00000000000E+00  0.14769918452E+03  0.94861988529E+03  0.93705103258E+03 0.  0.
        4    1    3    3  502    0  0.29115162412E+03  0.30380289265E+03  0.28242501157E+03  0.50678493059E+03  0.12699999809E+01 0. -1.
       -4    1    3    3    0  502 -0.29115162412E+03 -0.30380289265E+03 -0.13472582705E+03  0.44183495469E+03  0.12699999809E+01 0.  1.
</event>
<event>
 5   0  0.6524705E-03  0.9115987E+03  0.7818609E-02  0.9411198E-01
        2   -1    0    0  501    0  0.00000000000E+00  0.00000000000E+00  0.12078298637E+04  0.12078298637E+04  0.25500000920E-02 0. -1.
       -2   -1    0    0    0  501  0.00000000000E+00  0.00000000000E+00 -0.17200520930E+03  0.17200520932E+03  0.25500000920E-02 0.  1.
    10030    2    1    2    0    0  0.00000000000E+00  0.00000000000E+00  0.10358246544E+04  0.13798350730E+04  0.91159865846E+03 0.  0.
        3    1    3    3  502    0 -0.21908402125E+03  0.78528251194E+02 -0.75290053608E+02  0.24460804765E+03  0.10100000352E+00 0.  1.
       -3    1    3    3    0  502  0.21908402125E+03 -0.78528251194E+02  0.11111147080E+04  0.11352270254E+04  0.10100000352E+00 0. -1.
</event>
<event>
 5   0  0.3794006E-03  0.9026085E+03  0.7818609E-02  0.9422327E-01
       -1   -1    0    0    0  501  0.00000000000E+00  0.00000000000E+00  0.27780089481E+03  0.27780089485E+03  0.50400001928E-02 0. -1.
        1   -1    0    0  501    0  0.00000000000E+00  0.00000000000E+00 -0.73317082146E+03  0.73317082148E+03  0.50400001928E-02 0.  1.
    10030    2    1    2    0    0  0.00000000000E+00  0.00000000000E+00 -0.45536992666E+03  0.10109717163E+04  0.90260846502E+03 0.  0.
        5    1    3    3  502    0 -0.25870687272E+03 -0.33253480543E+03 -0.46579280409E+02  0.42391079507E+03  0.46999998093E+01 0. -1.
       -5    1    3    3    0  502  0.25870687272E+03  0.33253480543E+03 -0.40879064625E+03  0.58706092126E+03  0.46999998093E+01 0.  1.
</event>
<event>
 5   0  0.3943549E-03  0.9079822E+03  0.7818609E-02  0.9415658E-01
       -1   -1    0    0    0  501  0.00000000000E+00  0.00000000000E+00  0.17698105638E+04  0.17698105638E+04  0.50400001928E-02 0.  1.
        1   -1    0    0  501    0  0.00000000000E+00  0.00000000000E+00 -0.11645760869E+03  0.11645760880E+03  0.50400001928E-02 0. -1.
    10030    2    1    2    0    0  0.00000000000E+00  0.00000000000E+00  0.16533529551E+04  0.18862681726E+04  0.90798217206E+03 0.  0.
        3    1    3    3  502    0  0.39949206106E+03  0.39130959499E+01  0.12746438803E+04  0.13357867535E+04  0.10100000352E+00 0. -1.
       -3    1    3    3    0  502 -0.39949206106E+03 -0.39130959499E+01  0.37870907479E+03  0.55048141903E+03  0.10100000352E+00 0.  1.
</event>
<event>
 5   0  0.3943549E-03  0.9019819E+03  0.7818609E-02  0.9423107E-01
       -1   -1    0    0    0  501  0.00000000000E+00  0.00000000000E+00  0.52601801151E+03  0.52601801154E+03  0.50400001928E-02 0. -1.
        1   -1    0    0  501    0  0.00000000000E+00  0.00000000000E+00 -0.38666513586E+03  0.38666513589E+03  0.50400001928E-02 0.  1.
    10030    2    1    2    0    0  0.00000000000E+00  0.00000000000E+00  0.13935287565E+03  0.91268314743E+03  0.90198187546E+03 0.  0.
        3    1    3    3  502    0 -0.34527157973E+03 -0.43104971134E+02 -0.22064626859E+03  0.41201369923E+03  0.10100000352E+00 0.  1.
       -3    1    3    3    0  502  0.34527157973E+03  0.43104971134E+02  0.35999914425E+03  0.50066944820E+03  0.10100000352E+00 0. -1.
</event>
<event>
 5   0  0.3969536E-03  0.9115579E+03  0.7818609E-02  0.9411248E-01
        1   -1    0    0  501    0  0.00000000000E+00  0.00000000000E+00  0.54081141896E+03  0.54081141899E+03  0.50400001928E-02 0. -1.
       -1   -1    0    0    0  501  0.00000000000E+00  0.00000000000E+00 -0.38411627297E+03  0.38411627300E+03  0.50400001928E-02 0.  1.
    10030    2    1    2    0    0  0.00000000000E+00  0.00000000000E+00  0.15669514599E+03  0.92492769199E+03  0.91155793378E+03 0.  0.
        1    1    3    3  502    0 -0.11198757271E+03 -0.15079047806E+03 -0.34302087148E+03  0.39107838474E+03  0.50400001928E-02 0.  1.
       -1    1    3    3    0  502  0.11198757271E+03  0.15079047806E+03  0.49971601747E+03  0.53384930726E+03  0.50400001928E-02 0. -1.
</event>
<event>
 5   0  0.6524705E-03  0.8963350E+03  0.7818609E-02  0.9430174E-01
       -2   -1    0    0    0  501  0.00000000000E+00  0.00000000000E+00  0.18737029019E+03  0.18737029021E+03  0.25500000920E-02 0. -1.
        2   -1    0    0  501    0  0.00000000000E+00  0.00000000000E+00 -0.10719634795E+04  0.10719634795E+04  0.25500000920E-02 0.  1.
    10030    2    1    2    0    0  0.00000000000E+00  0.00000000000E+00 -0.88459318935E+03  0.12593337697E+04  0.89633500042E+03 0.  0.
        3    1    3    3  502    0  0.33249680371E+03 -0.38644594569E+02 -0.86098702978E+03  0.92376739757E+03  0.10100000352E+00 0.  1.
       -3    1    3    3    0  502 -0.33249680371E+03  0.38644594569E+02 -0.23606159569E+02  0.33556637217E+03  0.10100000352E+00 0. -1.
</event>
<event>
 5   0  0.2560250E-03  0.9039047E+03  0.7818609E-02  0.9420713E-01
        3   -1    0    0  501    0  0.00000000000E+00  0.00000000000E+00  0.64878295762E+03  0.64878296548E+03  0.10100000352E+00 0.  1.
       -3   -1    0    0    0  501  0.00000000000E+00  0.00000000000E+00 -0.31483707551E+03  0.31483709171E+03  0.10100000352E+00 0. -1.
    10030    2    1    2    0    0  0.00000000000E+00  0.00000000000E+00  0.33394588211E+03  0.96362005719E+03  0.90390473084E+03 0.  0.
        4    1    3    3  502    0  0.32584364402E+02  0.41901465643E+03 -0.10212832391E+02  0.42040568259E+03  0.12699999809E+01 0. -1.
       -4    1    3    3    0  502 -0.32584364402E+02 -0.41901465643E+03  0.34415871450E+03  0.54321437460E+03  0.12699999809E+01 0.  1.
</event>
<event>
 5   0  0.6524705E-03  0.8931688E+03  0.7818609E-02  0.9434161E-01
       -2   -1    0    0    0  501  0.00000000000E+00  0.00000000000E+00  0.21595894348E+03  0.21595894350E+03  0.25500000920E-02 0. -1.
        2   -1    0    0  501    0  0.00000000000E+00  0.00000000000E+00 -0.92349791108E+03  0.92349791108E+03  0.25500000920E-02 0.  1.
    10030    2    1    2    0    0  0.00000000000E+00  0.00000000000E+00 -0.70753896760E+03  0.11394568546E+04  0.89316881539E+03 0.  0.
        3    1    3    3  502    0  0.23397691788E+03 -0.34440169437E+03 -0.14774573917E+03  0.44179920646E+03  0.10100000352E+00 0. -1.
       -3    1    3    3    0  502 -0.23397691788E+03  0.34440169437E+03 -0.55979322843E+03  0.69765764812E+03  0.10100000352E+00 0.  1.
</event>
<event>
 5   0  0.6724773E-03  0.9107043E+03  0.7818609E-02  0.9412299E-01
       -2   -1    0    0    0  501  0.00000000000E+00  0.00000000000E+00  0.33110297772E+03  0.33110297773E+03  0.25500000920E-02 0.  1.
        2   -1    0    0  501    0  0.00000000000E+00  0.00000000000E+00 -0.62622689948E+03  0.62622689949E+03  0.25500000920E-02 0. -1.
    10030    2    1    2    0    0  0.00000000000E+00  0.00000000000E+00 -0.29512392176E+03  0.95732987722E+03  0.91070432337E+03 0.  0.
        5    1    3    3  502    0 -0.68777231241E+02  0.81688240045E+02  0.31772817988E+03  0.33522613620E+03  0.46999998093E+01 0.  1.
       -5    1    3    3    0  502  0.68777231241E+02 -0.81688240045E+02 -0.61285210165E+03  0.62210374102E+03  0.46999998093E+01 0. -1.
</event>
<event>
 5   0  0.3927993E-03  0.8892802E+03  0.7818609E-02  0.9439082E-01
       -1   -1    0    0    0  501  0.00000000000E+00  0.00000000000E+00  0.17154798893E+03  0.17154798900E+03  0.50400001928E-02 0. -1.
        1   -1    0    0  501    0  0.00000000000E+00  0.00000000000E+00 -0.11524752628E+04  0.11524752628E+04  0.50400001928E-02 0.  1.
    10030    2    1    2    0    0  0.00000000000E+00  0.00000000000E+00 -0.98092727386E+03  0.13240232518E+04  0.88928018909E+03 0.  0.
        2    1    3    3  502    0 -0.29100713950E+03 -0.19352582694E+03 -0.89974716941E+03  0.96523695008E+03  0.25500000920E-02 0.  1.
       -2    1    3    3    0  502  0.29100713950E+03  0.19352582694E+03 -0.81180104447E+02  0.35878630171E+03  0.25500000920E-02 0. -1.
</event>
<event>
 5   0  0.3998066E-03  0.8923645E+03  0.7818609E-02  0.9435177E-01
        1   -1    0    0  501    0  0.00000000000E+00  0.00000000000E+00  0.47601882632E+03  0.47601882634E+03  0.50400001928E-02 0. -1.
       -1   -1    0    0    0  501  0.00000000000E+00  0.00000000000E+00 -0.41821585243E+03  0.41821585246E+03  0.50400001928E-02 0.  1.
    10030    2    1    2    0    0  0.00000000000E+00  0.00000000000E+00  0.57802973885E+02  0.89423467881E+03  0.89236454266E+03 0.  0.
        4    1    3    3  502    0  0.58859666552E+02  0.31248112590E+03  0.34255599018E+03  0.46739184171E+03  0.12699999809E+01 0. -1.
       -4    1    3    3    0  502 -0.58859666552E+02 -0.31248112590E+03 -0.28475301629E+03  0.42684283709E+03  0.12699999809E+01 0.  1.
</event>
<event>
 5   0  0.6609191E-03  0.9148117E+03  0.7818609E-02  0.9407253E-01
        2   -1    0    0  501    0  0.00000000000E+00  0.00000000000E+00  0.33155620908E+03  0.33155620909E+03  0.25500000920E-02 0.  1.
       -2   -1    0    0    0  501  0.00000000000E+00  0.00000000000E+00 -0.63102460498E+03  0.63102460498E+03  0.25500000920E-02 0. -1.
    10030    2    1    2    0    0  0.00000000000E+00  0.00000000000E+00 -0.29946839590E+03  0.96258081407E+03  0.91481173116E+03 0.  0.
        2    1    3    3  502    0  0.21521158254E+03 -0.37485382912E+03  0.77075802677E+01  0.43230871523E+03  0.25500000920E-02 0.  1.
       -2    1    3    3    0  502 -0.21521158254E+03  0.37485382912E+03 -0.30717597617E+03  0.53027209884E+03  0.25500000920E-02 0. -1.
</event>
<event>
 5   0  0.6524705E-03  0.9022798E+03  0.7818609E-02  0.9422736E-01
       -2   -1    0    0    0  501  0.00000000000E+00  0.00000000000E+00  0.32812657812E+03  0.32812657813E+03  0.25500000920E-02 0. -1.
        2   -1    0    0  501    0  0.00000000000E+00  0.00000000000E+00 -0.62027035288E+03  0.62027035288E+03  0.25500000920E-02 0.  1.
    10030    2    1    2    0    0  0.00000000000E+00  0.00000000000E+00 -0.29214377475E+03  0.94839693102E+03  0.90227975353E+03 0.  0.
        3    1    3    3  502    0  0.34931419205E+03 -0.15393972565E+03 -0.39879671668E+03  0.55204771111E+03  0.10100000352E+00 0.  1.
       -3    1    3    3    0  502 -0.34931419205E+03  0.15393972565E+03  0.10665294193E+03  0.39634921991E+03  0.10100000352E+00 0. -1.
</event>
<event>
 5   0  0.3969536E-03  0.9049713E+03  0.7818609E-02  0.9419388E-01
       -1   -1    0    0    0  501  0.00000000000E+00  0.00000000000E+00  0.20555221149E+03  0.20555221155E+03  0.50400001928E-02 0. -1.
        1   -1    0    0  501    0  0.00000000000E+00  0.00000000000E+00 -0.99606447087E+03  0.99606447089E+03  0.50400001928E-02 0.  1.
    10030    2    1    2    0    0  0.00000000000E+00  0.00000000000E+00 -0.79051225938E+03  0.12016166824E+04  0.90497128091E+03 0.  0.
        1    1    3    3  502    0  0.28852600029E+03  0.34497671940E+03 -0.46147392573E+03  0.64437130129E+03  0.50400001928E-02 0.  1.
       -1    1    3    3    0  502 -0.28852600029E+03 -0.34497671940E+03 -0.32903833365E+03  0.55724538115E+03  0.50400001928E-02 0. -1.
</event>
<event>
 5   0  0.6724773E-03  0.8980532E+03  0.7818609E-02  0.9428018E-01
       -2   -1    0    0    0  501  0.00000000000E+00  0.00000000000E+00  0.23009079119E+03  0.23009079121E+03  0.25500000920E-02 0. -1.
        2   -1    0    0  501    0  0.00000000000E+00  0.00000000000E+00 -0.87628395095E+03  0.87628395096E+03  0.25500000920E-02 0.  1.
    10030    2    1    2    0    0  0.00000000000E+00  0.00000000000E+00 -0.64619315976E+03  0.11063747422E+04  0.89805315565E+03 0.  0.
        5    1    3    3  502    0  0.20823755134E+03  0.23502324918E+03  0.72294798959E+02  0.32225367864E+03  0.46999998093E+01 0. -1.
       -5    1    3    3    0  502 -0.20823755134E+03 -0.23502324918E+03 -0.71848795872E+03  0.78412106352E+03  0.46999998093E+01 0.  1.
</event>
<event>
 5   0  0.3998066E-03  0.9019266E+03  0.7818609E-02  0.9423176E-01
        1   -1    0    0  501    0  0.00000000000E+00  0.00000000000E+00  0.77073204787E+03  0.77073204788E+03  0.50400001928E-02 0. -1.
       -1   -1    0    0    0  501  0.00000000000E+00  0.00000000000E+00 -0.26386331230E+03  0.26386331235E+03  0.50400001928E-02 0.  1.
    10030    2    1    2    0    0  0.00000000000E+00  0.00000000000E+00  0.50686873556E+03  0.10345953602E+04  0.90192662912E+03 0.  0.
        4    1    3    3  502    0  0.37369897522E+03 -0.14146042265E+03  0.49324117953E+03  0.63478378156E+03  0.12699999809E+01 0. -1.
       -4    1    3    3    0  502 -0.37369897522E+03  0.14146042265E+03  0.13627556037E+02  0.39981157867E+03  0.12699999809E+01 0.  1.
</event>
<event>
 5   0  0.3794006E-03  0.8867467E+03  0.7818609E-02  0.9442302E-01
       -1   -1    0    0    0  501  0.00000000000E+00  0.00000000000E+00  0.14817772415E+03  0.14817772423E+03  0.50400001928E-02 0.  1.
        1   -1    0    0  501    0  0.00000000000E+00  0.00000000000E+00 -0.13266495546E+04  0.13266495546E+04  0.50400001928E-02 0. -1.
    10030    2    1    2    0    0  0.00000000000E+00  0.00000000000E+00 -0.11784718305E+04  0.14748272789E+04  0.88674666464E+03 0.  0.
        5    1    3    3  502    0 -0.22397340245E+03  0.36219251554E+03 -0.79435721148E+03  0.90131735407E+03  0.46999998093E+01 0. -1.
       -5    1    3    3    0  502  0.22397340245E+03 -0.36219251554E+03 -0.38411461901E+03  0.57350992481E+03  0.46999998093E+01 0.  1.
</event>
<event>
 5   0  0.6609191E-03  0.9289378E+03  0.7818609E-02  0.9390114E-01
       -2   -1    0    0    0  501  0.00000000000E+00  0.00000000000E+00  0.12446921817E+04  0.12446921817E+04  0.25500000920E-02 0.  1.
        2   -1    0    0  501    0  0.00000000000E+00  0.00000000000E+00 -0.17332104178E+03  0.17332104180E+03  0.25500000920E-02 0. -1.
    10030    2    1    2    0    0  0.00000000000E+00  0.00000000000E+00  0.10713711399E+04  0.14180132235E+04  0.92893777109E+03 0.  0.
        2    1    3    3  502    0  0.25530652598E+02 -0.16120392584E+03  0.11994763026E+04  0.12105296033E+04  0.25500000920E-02 0.  1.
       -2    1    3    3    0  502 -0.25530652598E+02  0.16120392584E+03 -0.12810516270E+03  0.20748362018E+03  0.25500000920E-02 0. -1.
</event>
<event>
 5   0  0.3969536E-03  0.8948381E+03  0.7818609E-02  0.9432057E-01
       -1   -1    0    0    0  501  0.00000000000E+00  0.00000000000E+00  0.64966241069E+03  0.64966241071E+03  0.50400001928E-02 0. -1.
        1   -1    0    0  501    0  0.00000000000E+00  0.00000000000E+00 -0.30813513134E+03  0.30813513138E+03  0.50400001928E-02 0.  1.
    10030    2    1    2    0    0  0.00000000000E+00  0.00000000000E+00  0.34152727935E+03  0.95779754209E+03  0.89483811335E+03 0.  0.
        1    1    3    3  502    0  0.33188096176E+03 -0.10865164029E+03  0.47014590509E+03  0.58565119638E+03  0.50400001928E-02 0. -1.
       -1    1    3    3    0  502 -0.33188096176E+03  0.10865164029E+03 -0.12861862575E+03  0.37214634572E+03  0.50400001928E-02 0.  1.
</event>
<event>
 5   0  0.3927993E-03  0.9018971E+03  0.7818609E-02  0.9423213E-01
       -1   -1    0    0    0  501  0.00000000000E+00  0.00000000000E+00  0.60445124511E+03  0.60445124513E+03  0.50400001928E-02 0. -1.
        1   -1    0    0  501    0  0.00000000000E+00  0.00000000000E+00 -0.33642847502E+03  0.33642847506E+03  0.50400001928E-02 0.  1.
    10030    2    1    2    0    0  0.00000000000E+00  0.00000000000E+00  0.26802277009E+03  0.94087972018E+03  0.90189713525E+03 0.  0.
        2    1    3    3  502    0 -0.34237948891E+02 -0.17239959577E+03 -0.29922232234E+03  0.34702716891E+03  0.25500000920E-02 0.  1.
       -2    1    3    3    0  502  0.34237948891E+02  0.17239959577E+03  0.56724509243E+03  0.59385255128E+03  0.25500000920E-02 0. -1.
</event>
<event>
 5   0  0.6724773E-03  0.8986408E+03  0.7818609E-02  0.9427282E-01
       -2   -1    0    0    0  501  0.00000000000E+00  0.00000000000E+00  0.11400632142E+03  0.11400632145E+03  0.25500000920E-02 0.  1.
        2   -1    0    0  501    0  0.00000000000E+00  0.00000000000E+00 -0.17708565477E+04  0.17708565477E+04  0.25500000920E-02 0. -1.
    10030    2    1    2    0    0  0.00000000000E+00  0.00000000000E+00 -0.16568502263E+04  0.18848628691E+04  0.89864084216E+03 0.  0.
        5    1    3    3  502    0  0.38706190349E+03 -0.13322159404E+03 -0.12168904910E+04  0.12839039946E+04  0.46999998093E+01 0. -1.
       -5    1    3    3    0  502 -0.38706190349E+03  0.13322159404E+03 -0.43995973528E+03  0.60095887456E+03  0.46999998093E+01 0.  1.
</event>
<event>
 5   0  0.6534628E-03  0.8962203E+03  0.7818609E-02  0.9430319E-01
        2   -1    0    0  501    0  0.00000000000E+00  0.00000000000E+00  0.14346860229E+03  0.14346860231E+03  0.25500000920E-02 0.  1.
       -2   -1    0    0    0  501  0.00000000000E+00  0.00000000000E+00 -0.13996282998E+04  0.13996282998E+04  0.25500000920E-02 0. -1.
    10030    2    1    2    0    0  0.00000000000E+00  0.00000000000E+00 -0.12561596976E+04  0.15430969022E+04  0.89622032095E+03 0.  0.
        4    1    3    3  502    0 -0.88601954447E+02  0.23935388536E+03 -0.12622490435E+04  0.12877945680E+04  0.12699999809E+01 0. -1.
       -4    1    3    3    0  502  0.88601954447E+02 -0.23935388536E+03  0.60893459463E+01  0.25530233411E+03  0.12699999809E+01 0.  1.
</event>
<event>
 5   0  0.3927993E-03  0.9121954E+03  0.7818609E-02  0.9410464E-01
        1   -1    0    0  501    0  0.00000000000E+00  0.00000000000E+00  0.15632632440E+04  0.15632632440E+04  0.50400001928E-02 0. -1.
       -1   -1    0    0    0  501  0.00000000000E+00  0.00000000000E+00 -0.13307107255E+03  0.13307107264E+03  0.50400001928E-02 0.  1.
    10030    2    1    2    0    0  0.00000000000E+00  0.00000000000E+00  0.14301921715E+04  0.16963343167E+04  0.91219541030E+03 0.  0.
        2    1    3    3  502    0 -0.22622452668E+03 -0.39229652234E+03  0.61407557778E+03  0.76299601122E+03  0.25500000920E-02 0.  1.
       -2    1    3    3    0  502  0.22622452668E+03  0.39229652234E+03  0.81611659371E+03  0.93333830546E+03  0.25500000920E-02 0. -1.
</event>
<event>
 5   0  0.3943549E-03  0.8971447E+03  0.7818609E-02  0.9429158E-01
        1   -1    0    0  501    0  0.00000000000E+00  0.00000000000E+00  0.28390257876E+03  0.28390257880E+03  0.50400001928E-02 0. -1.
       -1   -1    0    0    0  501  0.00000000000E+00  0.00000000000E+00 -0.70875420434E+03  0.70875420436E+03  0.50400001928E-02 0.  1.
    10030    2    1    2    0    0  0.00000000000E+00  0.00000000000E+00 -0.42485162559E+03  0.99265678316E+03  0.89714468476E+03 0.  0.
        3    1    3    3  502    0  0.76597856836E+02 -0.33925680715E+03 -0.52587844919E+03  0.63048439029E+03  0.10100000352E+00 0.  1.
       -3    1    3    3    0  502 -0.76597856836E+02  0.33925680715E+03  0.10102682360E+03  0.36217239287E+03  0.10100000352E+00 0. -1.
</event>
<event>
 5   0  0.3927993E-03  0.9025810E+03  0.7818609E-02  0.9422361E-01
       -1   -1    0    0    0  501  0.00000000000E+00  0.00000000000E+00  0.14450591455E+03  0.14450591464E+03  0.50400001928E-02 0. -1.
        1   -1    0    0  501    0  0.00000000000E+00  0.00000000000E+00 -0.14093756828E+04  0.14093756828E+04  0.50400001928E-02 0.  1.
    10030    2    1    2    0    0  0.00000000000E+00  0.00000000000E+00 -0.12648697682E+04  0.15538815974E+04  0.90258101479E+03 0.  0.
        2    1    3    3  502    0 -0.12930766365E+03  0.94824548370E+02 -0.13586777697E+04  0.13681072504E+04  0.25500000920E-02 0.  1.
       -2    1    3    3    0  502  0.12930766365E+03 -0.94824548370E+02  0.93808001468E+02  0.18577434698E+03  0.25500000920E-02 0. -1.
</event>
<event>
 5   0  0.6524705E-03  0.8961368E+03  0.7818609E-02  0.9430424E-01
       -2   -1    0    0    0  501  0.00000000000E+00  0.00000000000E+00  0.41517091279E+03  0.41517091280E+03  0.25500000920E-02 0.  1.
        2   -1    0    0  501    0  0.00000000000E+00  0.00000000000E+00 -0.48357259320E+03  0.48357259320E+03  0.25500000920E-02 0. -1.
    10030    2    1    2    0    0  0.00000000000E+00  0.00000000000E+00 -0.68401680403E+02  0.89874350601E+03  0.89613676395E+03 0.  0.
        3    1    3    3  502    0 -0.20831260728E+03 -0.36758272236E+03  0.11541106138E+03  0.43798507215E+03  0.10100000352E+00 0.  1.
       -3    1    3    3    0  502  0.20831260728E+03  0.36758272236E+03 -0.18381274178E+03  0.46075843386E+03  0.10100000352E+00 0. -1.
</event>
<event>
 5   0  0.2560250E-03  0.9022439E+03  0.7818609E-02  0.9422781E-01
        3   -1    0    0  501    0  0.00000000000E+00  0.00000000000E+00  0.38561291276E+03  0.38561292599E+03  0.10100000352E+00 0.  1.
       -3   -1    0    0    0  501  0.00000000000E+00  0.00000000000E+00 -0.52775985062E+03  0.52775986028E+03  0.10100000352E+00 0. -1.
    10030    2    1    2    0    0  0.00000000000E+00  0.00000000000E+00 -0.14214693785E+03  0.91337278627E+03  0.90224392199E+03 0.  0.
        2    1    3    3  502    0 -0.11588237220E+03  0.10625528767E+03 -0.49912719478E+03  0.52330379983E+03  0.25500000920E-02 0. -1.
       -2    1    3    3    0  502  0.11588237220E+03 -0.10625528767E+03  0.35698025692E+03  0.39006898644E+03  0.25500000920E-02 0.  1.
</event>
<event>
 5   0  0.3998066E-03  0.9046742E+03  0.7818609E-02  0.9419757E-01
        1   -1    0    0  501    0  0.00000000000E+00  0.00000000000E+00  0.49817103928E+03  0.49817103930E+03  0.50400001928E-02 0.  1.
       -1   -1    0    0    0  501  0.00000000000E+00  0.00000000000E+00 -0.41072006432E+03  0.41072006435E+03  0.50400001928E-02 0. -1.
    10030    2    1    2    0    0  0.00000000000E+00  0.00000000000E+00  0.87450974959E+02  0.90889110366E+03  0.90467417631E+03 0.  0.
        4    1    3    3  502    0 -0.27311969055E+03  0.31517513023E+03 -0.13224086976E+03  0.43751455818E+03  0.12699999809E+01 0. -1.
       -4    1    3    3    0  502  0.27311969055E+03 -0.31517513023E+03  0.21969184472E+03  0.47137654547E+03  0.12699999809E+01 0.  1.
</event>
<event>
 5   0  0.3943549E-03  0.9019900E+03  0.7818609E-02  0.9423097E-01
        1   -1    0    0  501    0  0.00000000000E+00  0.00000000000E+00  0.11469382960E+04  0.11469382960E+04  0.50400001928E-02 0. -1.
       -1   -1    0    0    0  501  0.00000000000E+00  0.00000000000E+00 -0.17733865137E+03  0.17733865144E+03  0.50400001928E-02 0.  1.
    10030    2    1    2    0    0  0.00000000000E+00  0.00000000000E+00  0.96959964463E+03  0.13242769474E+04  0.90199000143E+03 0.  0.
        3    1    3    3  502    0 -0.45045557994E+03  0.20715992340E+02  0.47370577667E+03  0.65401571456E+03  0.10100000352E+00 0.  1.
       -3    1    3    3    0  502  0.45045557994E+03 -0.20715992340E+02  0.49589386795E+03  0.67026123289E+03  0.10100000352E+00 0. -1.
</event>
<event>
 5   0  0.6863405E-03  0.9038877E+03  0.7818609E-02  0.9420735E-01
        2   -1    0    0  501    0  0.00000000000E+00  0.00000000000E+00  0.46147872587E+03  0.46147872587E+03  0.25500000920E-02 0.  1.
       -2   -1    0    0    0  501  0.00000000000E+00  0.00000000000E+00 -0.44260596208E+03  0.44260596208E+03  0.25500000920E-02 0. -1.
    10030    2    1    2    0    0  0.00000000000E+00  0.00000000000E+00  0.18872763790E+02  0.90408468796E+03  0.90388768207E+03 0.  0.
        1    1    3    3  502    0  0.34112074894E+03 -0.29168757526E+03  0.62440653111E+02  0.45314880790E+03  0.50400001928E-02 0.  1.
       -1    1    3    3    0  502 -0.34112074894E+03  0.29168757526E+03 -0.43567889320E+02  0.45093588006E+03  0.50400001928E-02 0. -1.
</event>
<event>
 5   0  0.3969536E-03  0.9063805E+03  0.7818609E-02  0.9417640E-01
       -1   -1    0    0    0  501  0.00000000000E+00  0.00000000000E+00  0.23586266166E+03  0.23586266172E+03  0.50400001928E-02 0.  1.
        1   -1    0    0  501    0  0.00000000000E+00  0.00000000000E+00 -0.87076684871E+03  0.87076684873E+03  0.50400001928E-02 0. -1.
    10030    2    1    2    0    0  0.00000000000E+00  0.00000000000E+00 -0.63490418705E+03  0.11066295104E+04  0.90638046462E+03 0.  0.
        1    1    3    3  502    0  0.42666759417E+03  0.13681243661E+03 -0.40042619478E+03  0.60091930923E+03  0.50400001928E-02 0.  1.
       -1    1    3    3    0  502 -0.42666759417E+03 -0.13681243661E+03 -0.23447799228E+03  0.50571020121E+03  0.50400001928E-02 0. -1.
</event>
<event>
 5   0  0.6524705E-03  0.9104284E+03  0.7818609E-02  0.9412639E-01
        2   -1    0    0  501    0  0.00000000000E+00  0.00000000000E+00  0.22245078595E+04  0.22245078595E+04  0.25500000920E-02 0.  1.
       -2   -1    0    0    0  501  0.00000000000E+00  0.00000000000E+00 -0.93153173275E+02  0.93153173310E+02  0.25500000920E-02 0. -1.
    10030    2    1    2    0    0  0.00000000000E+00  0.00000000000E+00  0.21313546863E+04  0.23176610329E+04  0.91042839616E+03 0.  0.
        3    1    3    3  502    0 -0.10106314853E+02  0.42245112618E+03  0.14965889039E+04  0.15551030349E+04  0.10100000352E+00 0. -1.
       -3    1    3    3    0  502  0.10106314853E+02 -0.42245112618E+03  0.63476578234E+03  0.76255799795E+03  0.10100000352E+00 0.  1.
</event>
<event>
 5   0  0.6524705E-03  0.8784359E+03  0.7818609E-02  0.9452946E-01
        2   -1    0    0  501    0  0.00000000000E+00  0.00000000000E+00  0.18729446103E+04  0.18729446103E+04  0.25500000920E-02 0.  1.
       -2   -1    0    0    0  501  0.00000000000E+00  0.00000000000E+00 -0.10299952964E+03  0.10299952967E+03  0.25500000920E-02 0. -1.
    10030    2    1    2    0    0  0.00000000000E+00  0.00000000000E+00  0.17699450806E+04  0.19759441400E+04  0.87843591441E+03 0.  0.
        3    1    3    3  502    0 -0.39941071333E+03 -0.88678863733E+02  0.52563628107E+03  0.66609786741E+03  0.10100000352E+00 0. -1.
       -3    1    3    3    0  502  0.39941071333E+03  0.88678863733E+02  0.12443087996E+04  0.13098462725E+04  0.10100000352E+00 0.  1.
</event>
<event>
 5   0  0.6534628E-03  0.8964099E+03  0.7818609E-02  0.9430080E-01
       -2   -1    0    0    0  501  0.00000000000E+00  0.00000000000E+00  0.35933145959E+03  0.35933145960E+03  0.25500000920E-02 0.  1.
        2   -1    0    0  501    0  0.00000000000E+00  0.00000000000E+00 -0.55905947746E+03  0.55905947747E+03  0.25500000920E-02 0. -1.
    10030    2    1    2    0    0  0.00000000000E+00  0.00000000000E+00 -0.19972801787E+03  0.91839093707E+03  0.89640985724E+03 0.  0.
        4    1    3    3  502    0 -0.90391882888E+02 -0.43724311588E+03 -0.59739772045E+02  0.45046940866E+03  0.12699999809E+01 0.  1.
       -4    1    3    3    0  502  0.90391882888E+02  0.43724311588E+03 -0.13998824583E+03  0.46792152841E+03  0.12699999809E+01 0. -1.
</event>
<event>
 5   0  0.3943549E-03  0.8932256E+03  0.7818609E-02  0.9434090E-01
       -1   -1    0    0    0  501  0.00000000000E+00  0.00000000000E+00  0.31641926273E+03  0.31641926277E+03  0.50400001928E-02 0. -1.
        1   -1    0    0  501    0  0.00000000000E+00  0.00000000000E+00 -0.63037566168E+03  0.63037566170E+03  0.50400001928E-02 0.  1.
    10030    2    1    2    0    0  0.00000000000E+00  0.00000000000E+00 -0.31395639896E+03  0.94679492447E+03  0.89322562019E+03 0.  0.
        3    1    3    3  502    0 -0.24540732580E+03 -0.21967532740E+03  0.16274199725E+03  0.36737851447E+03  0.10100000352E+00 0. -1.
       -3    1    3    3    0  502  0.24540732580E+03  0.21967532740E+03 -0.47669839621E+03  0.57941641000E+03  0.10100000352E+00 0.  1.
</event>
<event>
 5   0  0.6534628E-03  0.9010538E+03  0.7818609E-02  0.9424265E-01
        2   -1    0    0  501    0  0.00000000000E+00  0.00000000000E+00  0.70113412216E+03  0.70113412217E+03  0.25500000920E-02 0.  1.
       -2   -1    0    0    0  501  0.00000000000E+00  0.00000000000E+00 -0.28949449549E+03  0.28949449551E+03  0.25500000920E-02 0. -1.
    10030    2    1    2    0    0  0.00000000000E+00  0.00000000000E+00  0.41163962667E+03  0.99062861767E+03  0.90105375861E+03 0.  0.
        4    1    3    3  502    0  0.29864977080E+03 -0.10235101879E+03  0.55918337365E+03  0.64214879499E+03  0.12699999809E+01 0.  1.
       -4    1    3    3    0  502 -0.29864977080E+03  0.10235101879E+03 -0.14754374698E+03  0.34847982268E+03  0.12699999809E+01 0. -1.
</event>
<event>
 5   0  0.3794006E-03  0.8788691E+03  0.7818609E-02  0.9452389E-01
        1   -1    0    0  501    0  0.00000000000E+00  0.00000000000E+00  0.33585895643E+03  0.33585895647E+03  0.50400001928E-02 0.  1.
       -1   -1    0    0    0  501  0.00000000000E+00  0.00000000000E+00 -0.57495178293E+03  0.57495178296E+03  0.50400001928E-02 0. -1.
    10030    2    1    2    0    0  0.00000000000E+00  0.00000000000E+00 -0.23909282650E+03  0.91081073943E+03  0.87886905929E+03 0.  0.
        5    1    3    3  502    0  0.17461376261E+03 -0.39747661806E+03 -0.49235314974E+02  0.43694831986E+03  0.46999998093E+01 0.  1.
       -5    1    3    3    0  502 -0.17461376261E+03  0.39747661806E+03 -0.18985751153E+03  0.47386241956E+03  0.46999998093E+01 0. -1.
</event>
<event>
 5   0  0.6863405E-03  0.9014790E+03  0.7818609E-02  0.9423735E-01
        2   -1    0    0  501    0  0.00000000000E+00  0.00000000000E+00  0.53740361328E+03  0.53740361329E+03  0.25500000920E-02 0.  1.
       -2   -1    0    0    0  501  0.00000000000E+00  0.00000000000E+00 -0.37805119983E+03  0.37805119984E+03  0.25500000920E-02 0. -1.
    10030    2    1    2    0    0  0.00000000000E+00  0.00000000000E+00  0.15935241345E+03  0.91545481313E+03  0.90147896438E+03 0.  0.
        1    1    3    3  502    0  0.44670755188E+03 -0.15123133705E+02  0.13880025596E+03  0.46801907777E+03  0.50400001928E-02 0.  1.
       -1    1    3    3    0  502 -0.44670755188E+03  0.15123133705E+02  0.20552157487E+02  0.44743573536E+03  0.50400001928E-02 0. -1.
</event>
<event>
 5   0  0.3927993E-03  0.8987033E+03  0.7818609E-02  0.9427204E-01
        1   -1    0    0  501    0  0.00000000000E+00  0.00000000000E+00  0.23847646079E+03  0.23847646084E+03  0.50400001928E-02 0.  1.
       -1   -1    0    0    0  501  0.00000000000E+00  0.00000000000E+00 -0.84669534378E+03  0.84669534379E+03  0.50400001928E-02 0. -1.
    10030    2    1    2    0    0  0.00000000000E+00  0.00000000000E+00 -0.60821888299E+03  0.10851718046E+04  0.89870330807E+03 0.  0.
        2    1    3    3  502    0  0.23468883960E+03 -0.18447630314E+03 -0.70966403212E+03  0.76989180821E+03  0.25500000920E-02 0. -1.
       -2    1    3    3    0  502 -0.23468883960E+03  0.18447630314E+03  0.10144514913E+03  0.31527999642E+03  0.25500000920E-02 0.  1.
</event>
<event>
 5   0  0.6724773E-03  0.8966570E+03  0.7818609E-02  0.9429770E-01
       -2   -1    0    0    0  501  0.00000000000E+00  0.00000000000E+00  0.44720549047E+03  0.44720549048E+03  0.25500000920E-02 0.  1.
        2   -1    0    0  501    0  0.00000000000E+00  0.00000000000E+00 -0.44945435457E+03  0.44945435457E+03  0.25500000920E-02 0. -1.
    10030    2    1    2    0    0  0.00000000000E+00  0.00000000000E+00 -0.22488640924E+01  0.89665984505E+03  0.89665702492E+03 0.  0.
        5    1    3    3  502    0 -0.44003742298E+03  0.34336587190E+02  0.77389700574E+02  0.44813300547E+03  0.46999998093E+01 0.  1.
       -5    1    3    3    0  502  0.44003742298E+03 -0.34336587190E+02 -0.79638564666E+02  0.44852683958E+03  0.46999998093E+01 0. -1.
</event>
<event>
 5   0  0.3943549E-03  0.9186511E+03  0.7818609E-02  0.9402562E-01
       -1   -1    0    0    0  501  0.00000000000E+00  0.00000000000E+00  0.19694356767E+03  0.19694356774E+03  0.50400001928E-02 0.  1.
        1   -1    0    0  501    0  0.00000000000E+00  0.00000000000E+00 -0.10712711032E+04  0.10712711032E+04  0.50400001928E-02 0. -1.
    10030    2    1    2    0    0  0.00000000000E+00  0.00000000000E+00 -0.87432753551E+03  0.12682146709E+04  0.91865108295E+03 0.  0.
        3    1    3    3  502    0  0.17128756943E+02  0.13592146891E+03  0.16808277946E+03  0.21684065804E+03  0.10100000352E+00 0.  1.
       -3    1    3    3    0  502 -0.17128756943E+02 -0.13592146891E+03 -0.10424103150E+04  0.10513740129E+04  0.10100000352E+00 0. -1.
</event>
<event>
 5   0  0.3943549E-03  0.8911618E+03  0.7818609E-02  0.9436698E-01
        1   -1    0    0  501    0  0.00000000000E+00  0.00000000000E+00  0.74981295097E+03  0.74981295098E+03  0.50400001928E-02 0.  1.
       -1   -1    0    0    0  501  0.00000000000E+00  0.00000000000E+00 -0.26478914942E+03  0.26478914947E+03  0.50400001928E-02 0. -1.
    10030    2    1    2    0    0  0.00000000000E+00  0.00000000000E+00  0.48502380154E+03  0.10146021005E+04  0.89116178901E+03 0.  0.
        3    1    3    3  502    0  0.27426945257E+03 -0.18955286308E+03 -0.94050698365E+02  0.34640953303E+03  0.10100000352E+00 0. -1.
       -3    1    3    3    0  502 -0.27426945257E+03  0.18955286308E+03  0.57907449991E+03  0.66819256742E+03  0.10100000352E+00 0.  1.
</event>
<event>
 5   0  0.2560250E-03  0.8935495E+03  0.7818609E-02  0.9433681E-01
        3   -1    0    0  501    0  0.00000000000E+00  0.00000000000E+00  0.14964702431E+03  0.14964705839E+03  0.10100000352E+00 0.  1.
       -3   -1    0    0    0  501  0.00000000000E+00  0.00000000000E+00 -0.13338563744E+04  0.13338563782E+04  0.10100000352E+00 0. -1.
    10030    2    1    2    0    0  0.00000000000E+00  0.00000000000E+00 -0.11842093501E+04  0.14835034366E+04  0.89354947350E+03 0.  0.
        4    1    3    3  502    0 -0.46436719777E+02 -0.41724611903E+03 -0.84582965900E+03  0.94428815397E+03  0.12699999809E+01 0. -1.
       -4    1    3    3    0  502  0.46436719777E+02  0.41724611903E+03 -0.33837969109E+03  0.53921528264E+03  0.12699999809E+01 0.  1.
</event>
<event>
 5   0  0.3943549E-03  0.8981142E+03  0.7818609E-02  0.9427942E-01
        1   -1    0    0  501    0  0.00000000000E+00  0.00000000000E+00  0.96372892317E+03  0.96372892318E+03  0.50400001928E-02 0.  1.
       -1   -1    0    0    0  501  0.00000000000E+00  0.00000000000E+00 -0.20924167792E+03  0.20924167798E+03  0.50400001928E-02 0. -1.
    10030    2    1    2    0    0  0.00000000000E+00  0.00000000000E+00  0.75448724525E+03  0.11729706012E+04  0.89811415084E+03 0.  0.
        3    1    3    3  502    0  0.41038524274E+03 -0.51471702377E+01  0.13923751429E+03  0.43339316609E+03  0.10100000352E+00 0. -1.
       -3    1    3    3    0  502 -0.41038524274E+03  0.51471702377E+01  0.61524973096E+03  0.73957743507E+03  0.10100000352E+00 0.  1.
</event>
<event>
 5   0  0.3927993E-03  0.8929424E+03  0.7818609E-02  0.9434447E-01
       -1   -1    0    0    0  501  0.00000000000E+00  0.00000000000E+00  0.35468390210E+03  0.35468390214E+03  0.50400001928E-02 0. -1.
        1   -1    0    0  501    0  0.00000000000E+00  0.00000000000E+00 -0.56201183336E+03  0.56201183338E+03  0.50400001928E-02 0.  1.
    10030    2    1    2    0    0  0.00000000000E+00  0.00000000000E+00 -0.20732793125E+03  0.91669573552E+03  0.89294243960E+03 0.  0.
        2    1    3    3  502    0 -0.22383324955E+03 -0.34419422768E+03 -0.28373097832E+03  0.49907339945E+03  0.25500000920E-02 0. -1.
       -2    1    3    3    0  502  0.22383324955E+03  0.34419422768E+03  0.76403047070E+02  0.41762233607E+03  0.25500000920E-02 0.  1.
</event>
<event>
 5   0  0.3794006E-03  0.8945909E+03  0.7818609E-02  0.9432368E-01
       -1   -1    0    0    0  501  0.00000000000E+00  0.00000000000E+00  0.26921803531E+03  0.26921803536E+03  0.50400001928E-02 0.  1.
        1   -1    0    0  501    0  0.00000000000E+00  0.00000000000E+00 -0.74316431925E+03  0.74316431927E+03  0.50400001928E-02 0. -1.
    10030    2    1    2    0    0  0.00000000000E+00  0.00000000000E+00 -0.47394628394E+03  0.10123823546E+04  0.89459094111E+03 0.  0.
        5    1    3    3  502    0  0.13996893946E+03  0.10950713571E+03 -0.70146576518E+03  0.72364316241E+03  0.46999998093E+01 0. -1.
       -5    1    3    3    0  502 -0.13996893946E+03 -0.10950713571E+03  0.22751948124E+03  0.28873919222E+03  0.46999998093E+01 0.  1.
</event>
<event>
 5   0  0.6724773E-03  0.8980524E+03  0.7818609E-02  0.9428019E-01
       -2   -1    0    0    0  501  0.00000000000E+00  0.00000000000E+00  0.47091356680E+03  0.47091356681E+03  0.25500000920E-02 0.  1.
        2   -1    0    0  501    0  0.00000000000E+00  0.00000000000E+00 -0.42815613177E+03  0.42815613178E+03  0.25500000920E-02 0. -1.
    10030    2    1    2    0    0  0.00000000000E+00  0.00000000000E+00  0.42757435030E+02  0.89906969859E+03  0.89805240642E+03 0.  0.
        5    1    3    3  502    0  0.27849824358E+03 -0.22067739973E+03  0.29617581377E+03  0.46260349015E+03  0.46999998093E+01 0.  1.
       -5    1    3    3    0  502 -0.27849824358E+03  0.22067739973E+03 -0.25341837874E+03  0.43646620845E+03  0.46999998093E+01 0. -1.
</event>
<event>
 5   0  0.3794006E-03  0.8887762E+03  0.7818609E-02  0.9439721E-01
       -1   -1    0    0    0  501  0.00000000000E+00  0.00000000000E+00  0.45930366140E+03  0.45930366143E+03  0.50400001928E-02 0. -1.
        1   -1    0    0  501    0  0.00000000000E+00  0.00000000000E+00 -0.42995691509E+03  0.42995691512E+03  0.50400001928E-02 0.  1.
    10030    2    1    2    0    0  0.00000000000E+00  0.00000000000E+00  0.29346746316E+02  0.88926057655E+03  0.88877620438E+03 0.  0.
        5    1    3    3  502    0 -0.41690109505E+03 -0.45867111250E+01 -0.13913462006E+03  0.43955442606E+03  0.46999998093E+01 0. -1.
       -5    1    3    3    0  502  0.41690109505E+03  0.45867111250E+01  0.16848136638E+03  0.44970615049E+03  0.46999998093E+01 0.  1.
</event>
<event>
 5   0  0.6863405E-03  0.8742517E+03  0.7818609E-02  0.9458353E-01
       -2   -1    0    0    0  501  0.00000000000E+00  0.00000000000E+00  0.14206228958E+03  0.14206228960E+03  0.25500000920E-02 0. -1.
        2   -1    0    0  501    0  0.00000000000E+00  0.00000000000E+00 -0.13450366821E+04  0.13450366821E+04  0.25500000920E-02 0.  1.
    10030    2    1    2    0    0  0.00000000000E+00  0.00000000000E+00 -0.12029743925E+04  0.14870989717E+04  0.87425165862E+03 0.  0.
        1    1    3    3  502    0 -0.46442327677E+02 -0.20468408882E+03  0.50743529756E+02  0.21593372097E+03  0.50400001928E-02 0. -1.
       -1    1    3    3    0  502  0.46442327677E+02  0.20468408882E+03 -0.12537179223E+04  0.12711652507E+04  0.50400001928E-02 0.  1.
</event>
<event>
 5   0  0.3969536E-03  0.9180320E+03  0.7818609E-02  0.9403317E-01
       -1   -1    0    0    0  501  0.00000000000E+00  0.00000000000E+00  0.30014873204E+03  0.30014873208E+03  0.50400001928E-02 0.  1.
        1   -1    0    0  501    0  0.00000000000E+00  0.00000000000E+00 -0.70197096992E+03  0.70197096994E+03  0.50400001928E-02 0. -1.
    10030    2    1    2    0    0  0.00000000000E+00  0.00000000000E+00 -0.40182223789E+03  0.10021197020E+04  0.91803201813E+03 0.  0.
        1    1    3    3  502    0 -0.12910811506E+03 -0.43389787682E+03 -0.11806898341E+03  0.46784244971E+03  0.50400001928E-02 0. -1.
       -1    1    3    3    0  502  0.12910811506E+03  0.43389787682E+03 -0.28375325448E+03  0.53427725231E+03  0.50400001928E-02 0.  1.
</event>
<event>
 5   0  0.6534628E-03  0.8955681E+03  0.7818609E-02  0.9431139E-01
        2   -1    0    0  501    0  0.00000000000E+00  0.00000000000E+00  0.48842605286E+03  0.48842605287E+03  0.25500000920E-02 0.  1.
       -2   -1    0    0    0  501  0.00000000000E+00  0.00000000000E+00 -0.41052386945E+03  0.41052386946E+03  0.25500000920E-02 0. -1.
    10030    2    1    2    0    0  0.00000000000E+00  0.00000000000E+00  0.77902183408E+02  0.89894992233E+03  0.89556809494E+03 0.  0.
        4    1    3    3  502    0 -0.96206509531E+02  0.29543323656E+03 -0.28471412229E+03  0.42142642783E+03  0.12699999809E+01 0. -1.
       -4    1    3    3    0  502  0.96206509531E+02 -0.29543323656E+03  0.36261630570E+03  0.47752349450E+03  0.12699999809E+01 0.  1.
</event>
<event>
 5   0  0.6524705E-03  0.8988379E+03  0.7818609E-02  0.9427035E-01
       -2   -1    0    0    0  501  0.00000000000E+00  0.00000000000E+00  0.38031729385E+03  0.38031729386E+03  0.25500000920E-02 0. -1.
        2   -1    0    0  501    0  0.00000000000E+00  0.00000000000E+00 -0.53107597624E+03  0.53107597625E+03  0.25500000920E-02 0.  1.
    10030    2    1    2    0    0  0.00000000000E+00  0.00000000000E+00 -0.15075868240E+03  0.91139327011E+03  0.89883786774E+03 0.  0.
        3    1    3    3  502    0  0.16271588017E+03 -0.57864255419E+02 -0.49608785207E+03  0.52528839401E+03  0.10100000352E+00 0.  1.
       -3    1    3    3    0  502 -0.16271588017E+03  0.57864255419E+02  0.34532916967E+03  0.38610487609E+03  0.10100000352E+00 0. -1.
</event>
<event>
 5   0  0.3943549E-03  0.8965028E+03  0.7818609E-02  0.9429964E-01
        1   -1    0    0  501    0  0.00000000000E+00  0.00000000000E+00  0.75474428378E+03  0.75474428380E+03  0.50400001928E-02 0. -1.
       -1   -1    0    0    0  501  0.00000000000E+00  0.00000000000E+00 -0.26622169268E+03  0.26622169273E+03  0.50400001928E-02 0.  1.
    10030    2    1    2    0    0  0.00000000000E+00  0.00000000000E+00  0.48852259110E+03  0.10209659765E+04  0.89650276253E+03 0.  0.
        3    1    3    3  502    0  0.36218629200E+02 -0.39966446342E+03  0.47170236565E+03  0.61931139532E+03  0.10100000352E+00 0. -1.
       -3    1    3    3    0  502 -0.36218629200E+02  0.39966446342E+03  0.16820225448E+02  0.40165458121E+03  0.10100000352E+00 0.  1.
</event>
<event>
 5   0  0.3794006E-03  0.9012346E+03  0.7818609E-02  0.9424039E-01
        1   -1    0    0  501    0  0.00000000000E+00  0.00000000000E+00  0.20381107026E+03  0.20381107033E+03  0.50400001928E-02 0. -1.
       -1   -1    0    0    0  501  0.00000000000E+00  0.00000000000E+00 -0.99629502800E+03  0.99629502801E+03  0.50400001928E-02 0.  1.
    10030    2    1    2    0    0  0.00000000000E+00  0.00000000000E+00 -0.79248395774E+03  0.12001060983E+04  0.90123461097E+03 0.  0.
        5    1    3    3  502    0 -0.27268717047E+03 -0.20523305782E+03 -0.44750489313E+01  0.34135174970E+03  0.46999998093E+01 0. -1.
       -5    1    3    3    0  502  0.27268717047E+03  0.20523305782E+03 -0.78800890881E+03  0.85875434864E+03  0.46999998093E+01 0.  1.
</event>
<event>
 5   0  0.2560250E-03  0.8975326E+03  0.7818609E-02  0.9428671E-01
        3   -1    0    0  501    0  0.00000000000E+00  0.00000000000E+00  0.11641734985E+04  0.11641735028E+04  0.10100000352E+00 0. -1.
       -3   -1    0    0    0  501  0.00000000000E+00  0.00000000000E+00 -0.17299068392E+03  0.17299071341E+03  0.10100000352E+00 0.  1.
    10030    2    1    2    0    0  0.00000000000E+00  0.00000000000E+00  0.99118281453E+03  0.13371642162E+04  0.89753260073E+03 0.  0.
        1    1    3    3  502    0 -0.67271175770E+02  0.28764961705E+03  0.99888571089E+03  0.10416527141E+04  0.50400001928E-02 0. -1.
       -1    1    3    3    0  502  0.67271175770E+02 -0.28764961705E+03 -0.77028963574E+01  0.29551150218E+03  0.50400001928E-02 0.  1.
</event>
<event>
 5   0  0.3927993E-03  0.8921817E+03  0.7818609E-02  0.9435408E-01
       -1   -1    0    0    0  501  0.00000000000E+00  0.00000000000E+00  0.36070783971E+03  0.36070783974E+03  0.50400001928E-02 0.  1.
        1   -1    0    0  501    0  0.00000000000E+00  0.00000000000E+00 -0.55168481435E+03  0.55168481437E+03  0.50400001928E-02 0. -1.
    10030    2    1    2    0    0  0.00000000000E+00  0.00000000000E+00 -0.19097697464E+03  0.91239265411E+03  0.89218168017E+03 0.  0.
        2    1    3    3  502    0 -0.11937180613E+03 -0.42619761530E+03 -0.15245498523E+03  0.46812023874E+03  0.25500000920E-02 0.  1.
       -2    1    3    3    0  502  0.11937180613E+03  0.42619761530E+03 -0.38521989405E+02  0.44427241537E+03  0.25500000920E-02 0. -1.
</event>
<event>
 5   0  0.6724773E-03  0.8846681E+03  0.7818609E-02  0.9444953E-01
       -2   -1    0    0    0  501  0.00000000000E+00  0.00000000000E+00  0.91232721758E+02  0.91232721794E+02  0.25500000920E-02 0.  1.
        2   -1    0    0  501    0  0.00000000000E+00  0.00000000000E+00 -0.21446186037E+04  0.21446186037E+04  0.25500000920E-02 0. -1.
    10030    2    1    2    0    0  0.00000000000E+00  0.00000000000E+00 -0.20533858819E+04  0.22358513255E+04  0.88466805614E+03 0.  0.
        5    1    3    3  502    0 -0.18669091285E+03  0.35580152491E+03 -0.55938163880E+03  0.68875113785E+03  0.46999998093E+01 0.  1.
       -5    1    3    3    0  502  0.18669091285E+03 -0.35580152491E+03 -0.14940042431E+04  0.15471001876E+04  0.46999998093E+01 0. -1.
</event>
<event>
 5   0  0.6609191E-03  0.8999179E+03  0.7818609E-02  0.9425684E-01
       -2   -1    0    0    0  501  0.00000000000E+00  0.00000000000E+00  0.42595771984E+03  0.42595771985E+03  0.25500000920E-02 0.  1.
        2   -1    0    0  501    0  0.00000000000E+00  0.00000000000E+00 -0.47531257963E+03  0.47531257963E+03  0.25500000920E-02 0. -1.
    10030    2    1    2    0    0  0.00000000000E+00  0.00000000000E+00 -0.49354859788E+02  0.90127029948E+03  0.89991791322E+03 0.  0.
        2    1    3    3  502    0 -0.21596045074E+03  0.10335962037E+03  0.35686876030E+03  0.42974113079E+03  0.25500000920E-02 0.  1.
       -2    1    3    3    0  502  0.21596045074E+03 -0.10335962037E+03 -0.40622362008E+03  0.47152916869E+03  0.25500000920E-02 0. -1.
</event>
<event>
 5   0  0.6524705E-03  0.8987057E+03  0.7818609E-02  0.9427201E-01
        2   -1    0    0  501    0  0.00000000000E+00  0.00000000000E+00  0.80156020967E+03  0.80156020968E+03  0.25500000920E-02 0.  1.
       -2   -1    0    0    0  501  0.00000000000E+00  0.00000000000E+00 -0.25190618054E+03  0.25190618055E+03  0.25500000920E-02 0. -1.
    10030    2    1    2    0    0  0.00000000000E+00  0.00000000000E+00  0.54965402913E+03  0.10534663902E+04  0.89870567129E+03 0.  0.
        3    1    3    3  502    0 -0.28186960776E+03 -0.13875801397E+03  0.65141969300E+03  0.72322326349E+03  0.10100000352E+00 0.  1.
       -3    1    3    3    0  502  0.28186960776E+03  0.13875801397E+03 -0.10176566387E+03  0.33024312674E+03  0.10100000352E+00 0. -1.
</event>
<event>
 5   0  0.6609191E-03  0.8737776E+03  0.7818609E-02  0.9458968E-01
       -2   -1    0    0    0  501  0.00000000000E+00  0.00000000000E+00  0.30943057816E+03  0.30943057817E+03  0.25500000920E-02 0.  1.
        2   -1    0    0  501    0  0.00000000000E+00  0.00000000000E+00 -0.61684856691E+03  0.61684856692E+03  0.25500000920E-02 0. -1.
    10030    2    1    2    0    0  0.00000000000E+00  0.00000000000E+00 -0.30741798875E+03  0.92627914509E+03  0.87377756599E+03 0.  0.
        2    1    3    3  502    0 -0.19302344896E+03  0.31628369988E+03  0.91669093095E+02  0.38170230978E+03  0.25500000920E-02 0.  1.
       -2    1    3    3    0  502  0.19302344896E+03 -0.31628369988E+03 -0.39908708185E+03  0.54457683531E+03  0.25500000920E-02 0. -1.
</event>
<event>
 5   0  0.6524705E-03  0.8982006E+03  0.7818609E-02  0.9427834E-01
       -2   -1    0    0    0  501  0.00000000000E+00  0.00000000000E+00  0.23205351802E+03  0.23205351803E+03  0.25500000920E-02 0. -1.
        2   -1    0    0  501    0  0.00000000000E+00  0.00000000000E+00 -0.86915764845E+03  0.86915764845E+03  0.25500000920E-02 0.  1.
    10030    2    1    2    0    0  0.00000000000E+00  0.00000000000E+00 -0.63710413043E+03  0.11012111665E+04  0.89820062356E+03 0.  0.
        3    1    3    3  502    0  0.28867738906E+03  0.76186734990E+02  0.92762333926E+02  0.31264023148E+03  0.10100000352E+00 0. -1.
       -3    1    3    3    0  502 -0.28867738906E+03 -0.76186734990E+02 -0.72986646436E+03  0.78857093501E+03  0.10100000352E+00 0.  1.
</event>
<event>
 5   0  0.6724773E-03  0.9110334E+03  0.7818609E-02  0.9411893E-01
        2   -1    0    0  501    0  0.00000000000E+00  0.00000000000E+00  0.18009716414E+04  0.18009716414E+04  0.25500000920E-02 0.  1.
       -2   -1    0    0    0  501  0.00000000000E+00  0.00000000000E+00 -0.11521305429E+03  0.11521305432E+03  0.25500000920E-02 0. -1.
    10030    2    1    2    0    0  0.00000000000E+00  0.00000000000E+00  0.16857585871E+04  0.19161846957E+04  0.91103335510E+03 0.  0.
        5    1    3    3  502    0  0.78057833356E+01  0.76975323717E+02  0.17869985263E+04  0.17886788291E+04  0.46999998093E+01 0.  1.
       -5    1    3    3    0  502 -0.78057833356E+01 -0.76975323717E+02 -0.10123993924E+03  0.12750586657E+03  0.46999998093E+01 0. -1.
</event>
<event>
 5   0  0.6534628E-03  0.9013753E+03  0.7818609E-02  0.9423864E-01
       -2   -1    0    0    0  501  0.00000000000E+00  0.00000000000E+00  0.82541608520E+03  0.82541608520E+03  0.25500000920E-02 0. -1.
        2   -1    0    0  501    0  0.00000000000E+00  0.00000000000E+00 -0.24608116113E+03  0.24608116114E+03  0.25500000920E-02 0.  1.
    10030    2    1    2    0    0  0.00000000000E+00  0.00000000000E+00  0.57933492407E+03  0.10714972463E+04  0.90137527959E+03 0.  0.
        4    1    3    3  502    0  0.27082517425E+02  0.53831521736E+02  0.82060337982E+03  0.82281396157E+03  0.12699999809E+01 0. -1.
       -4    1    3    3    0  502 -0.27082517425E+02 -0.53831521736E+02 -0.24126845575E+03  0.24868328477E+03  0.12699999809E+01 0.  1.
</event>
<event>
 5   0  0.6534628E-03  0.8986240E+03  0.7818609E-02  0.9427303E-01
        2   -1    0    0  501    0  0.00000000000E+00  0.00000000000E+00  0.47539269511E+03  0.47539269511E+03  0.25500000920E-02 0. -1.
       -2   -1    0    0    0  501  0.00000000000E+00  0.00000000000E+00 -0.42466211666E+03  0.42466211667E+03  0.25500000920E-02 0.  1.
    10030    2    1    2    0    0  0.00000000000E+00  0.00000000000E+00  0.50730578446E+02  0.90005481178E+03  0.89862398845E+03 0.  0.
        4    1    3    3  502    0  0.16242311515E+03  0.24253438415E+03 -0.31675648068E+03  0.43074409663E+03  0.12699999809E+01 0.  1.
       -4    1    3    3    0  502 -0.16242311515E+03 -0.24253438415E+03  0.36748705912E+03  0.46931071515E+03  0.12699999809E+01 0. -1.
</event>
<event>
 5   0  0.3969536E-03  0.9027202E+03  0.7818609E-02  0.9422187E-01
       -1   -1    0    0    0  501  0.00000000000E+00  0.00000000000E+00  0.30633516055E+03  0.30633516059E+03  0.50400001928E-02 0. -1.
        1   -1    0    0  501    0  0.00000000000E+00  0.00000000000E+00 -0.66504259662E+03  0.66504259664E+03  0.50400001928E-02 0.  1.
    10030    2    1    2    0    0  0.00000000000E+00  0.00000000000E+00 -0.35870743607E+03  0.97137775723E+03  0.90272017954E+03 0.  0.
        1    1    3    3  502    0  0.38268129610E+03  0.17100734565E+03 -0.35953273500E+03  0.55222484027E+03  0.50400001928E-02 0. -1.
       -1    1    3    3    0  502 -0.38268129610E+03 -0.17100734565E+03  0.82529893166E+00  0.41915291696E+03  0.50400001928E-02 0.  1.
</event>
<event>
 5   0  0.6609191E-03  0.9050936E+03  0.7818609E-02  0.9419236E-01
        2   -1    0    0  501    0  0.00000000000E+00  0.00000000000E+00  0.85343064157E+03  0.85343064157E+03  0.25500000920E-02 0.  1.
       -2   -1    0    0    0  501  0.00000000000E+00  0.00000000000E+00 -0.23997100968E+03  0.23997100969E+03  0.25500000920E-02 0. -1.
    10030    2    1    2    0    0  0.00000000000E+00  0.00000000000E+00  0.61345963189E+03  0.10934016513E+04  0.90509361452E+03 0.  0.
        2    1    3    3  502    0 -0.99865597595E+02  0.30739155976E+03 -0.75931366164E+02  0.33200644718E+03  0.25500000920E-02 0.  1.
       -2    1    3    3    0  502  0.99865597595E+02 -0.30739155976E+03  0.68939099805E+03  0.76139520408E+03  0.25500000920E-02 0. -1.
</event>
<event>
 5   0  0.3794006E-03  0.8994323E+03  0.7818609E-02  0.9426291E-01
        1   -1    0    0  501    0  0.00000000000E+00  0.00000000000E+00  0.15272576593E+04  0.15272576593E+04  0.50400001928E-02 0. -1.
       -1   -1    0    0    0  501  0.00000000000E+00  0.00000000000E+00 -0.13242338934E+03  0.13242338943E+03  0.50400001928E-02 0.  1.
    10030    2    1    2    0    0  0.00000000000E+00  0.00000000000E+00  0.13948342700E+04  0.16596810488E+04  0.89943234481E+03 0.  0.
        5    1    3    3  502    0 -0.43297175717E+03 -0.10305024129E+03  0.81612665138E+03  0.92960674257E+03  0.46999998093E+01 0. -1.
       -5    1    3    3    0  502  0.43297175717E+03  0.10305024129E+03  0.57870761860E+03  0.73007430619E+03  0.46999998093E+01 0.  1.
</event>
<event>
 5   0  0.3998066E-03  0.8970312E+03  0.7818609E-02  0.9429300E-01
       -1   -1    0    0    0  501  0.00000000000E+00  0.00000000000E+00  0.44000405798E+03  0.44000405801E+03  0.50400001928E-02 0.  1.
        1   -1    0    0  501    0  0.00000000000E+00  0.00000000000E+00 -0.45719175375E+03  0.45719175378E+03  0.50400001928E-02 0. -1.
    10030    2    1    2    0    0  0.00000000000E+00  0.00000000000E+00 -0.17187695770E+02  0.89719581179E+03  0.89703116323E+03 0.  0.
        4    1    3    3  502    0 -0.43315388183E+03 -0.95288866250E+02  0.58219316587E+02  0.44731795749E+03  0.12699999809E+01 0. -1.
       -4    1    3    3    0  502  0.43315388183E+03  0.95288866250E+02 -0.75407012357E+02  0.44987785430E+03  0.12699999809E+01 0.  1.
</event>
<event>
 5   0  0.3794006E-03  0.8903728E+03  0.7818609E-02  0.9437697E-01
        1   -1    0    0  501    0  0.00000000000E+00  0.00000000000E+00  0.48331698337E+03  0.48331698340E+03  0.50400001928E-02 0. -1.
       -1   -1    0    0    0  501  0.00000000000E+00  0.00000000000E+00 -0.41006403880E+03  0.41006403883E+03  0.50400001928E-02 0.  1.
    10030    2    1    2    0    0  0.00000000000E+00  0.00000000000E+00  0.73252944576E+02  0.89338102223E+03  0.89037276294E+03 0.  0.
        5    1    3    3  502    0 -0.22757261495E+03 -0.19767951039E+03  0.36530357776E+03  0.47364045206E+03  0.46999998093E+01 0. -1.
       -5    1    3    3    0  502  0.22757261495E+03  0.19767951039E+03 -0.29205063318E+03  0.41974057017E+03  0.46999998093E+01 0.  1.
</event>
<event>
 5   0  0.6863405E-03  0.9024986E+03  0.7818609E-02  0.9422463E-01
        2   -1    0    0  501    0  0.00000000000E+00  0.00000000000E+00  0.75152889921E+03  0.75152889922E+03  0.25500000920E-02 0. -1.
       -2   -1    0    0    0  501  0.00000000000E+00  0.00000000000E+00 -0.27094890449E+03  0.27094890450E+03  0.25500000920E-02 0.  1.
    10030    2    1    2    0    0  0.00000000000E+00  0.00000000000E+00  0.48057999472E+03  0.10224778037E+04  0.90249860264E+03 0.  0.
        1    1    3    3  502    0 -0.88688022861E+02  0.25307126157E+02  0.74073706732E+03  0.74645657540E+03  0.50400001928E-02 0. -1.
       -1    1    3    3    0  502  0.88688022861E+02 -0.25307126157E+02 -0.26015707260E+03  0.27602122832E+03  0.50400001928E-02 0.  1.
</event>
<event>
 5   0  0.6524705E-03  0.9058644E+03  0.7818609E-02  0.9418280E-01
       -2   -1    0    0    0  501  0.00000000000E+00  0.00000000000E+00  0.21746313569E+03  0.21746313570E+03  0.25500000920E-02 0.  1.
        2   -1    0    0  501    0  0.00000000000E+00  0.00000000000E+00 -0.94336717759E+03  0.94336717760E+03  0.25500000920E-02 0. -1.
    10030    2    1    2    0    0  0.00000000000E+00  0.00000000000E+00 -0.72590404191E+03  0.11608303133E+04  0.90586441492E+03 0.  0.
        3    1    3    3  502    0 -0.38575245639E+03 -0.23518939538E+02 -0.66563059755E+03  0.76968967820E+03  0.10100000352E+00 0. -1.
       -3    1    3    3    0  502  0.38575245639E+03  0.23518939538E+02 -0.60273444355E+02  0.39114063510E+03  0.10100000352E+00 0.  1.
</event>
<event>
 5   0  0.6724773E-03  0.8773142E+03  0.7818609E-02  0.9454393E-01
       -2   -1    0    0    0  501  0.00000000000E+00  0.00000000000E+00  0.87004491960E+02  0.87004491998E+02  0.25500000920E-02 0. -1.
        2   -1    0    0  501    0  0.00000000000E+00  0.00000000000E+00 -0.22116106236E+04  0.22116106236E+04  0.25500000920E-02 0.  1.
    10030    2    1    2    0    0  0.00000000000E+00  0.00000000000E+00 -0.21246061317E+04  0.22986151156E+04  0.87731421684E+03 0.  0.
        5    1    3    3  502    0 -0.33251818462E+03 -0.25664384554E+03 -0.13933396528E+04  0.14552841250E+04  0.46999998093E+01 0.  1.
       -5    1    3    3    0  502  0.33251818462E+03  0.25664384554E+03 -0.73126647889E+03  0.84333099060E+03  0.46999998093E+01 0. -1.
</event>
<event>
 5   0  0.3794006E-03  0.8996662E+03  0.7818609E-02  0.9425999E-01
        1   -1    0    0  501    0  0.00000000000E+00  0.00000000000E+00  0.12244937489E+04  0.12244937490E+04  0.50400001928E-02 0.  1.
       -1   -1    0    0    0  501  0.00000000000E+00  0.00000000000E+00 -0.16525180062E+03  0.16525180070E+03  0.50400001928E-02 0. -1.
    10030    2    1    2    0    0  0.00000000000E+00  0.00000000000E+00  0.10592419483E+04  0.13897455497E+04  0.89966615346E+03 0.  0.
        5    1    3    3  502    0 -0.17108569328E+03  0.39517578510E+03  0.73039781514E+03  0.84790168884E+03  0.46999998093E+01 0. -1.
       -5    1    3    3    0  502  0.17108569328E+03 -0.39517578510E+03  0.32884413318E+03  0.54184386081E+03  0.46999998093E+01 0.  1.
</event>
<event>
 5   0  0.6524705E-03  0.8970357E+03  0.7818609E-02  0.9429294E-01
       -2   -1    0    0    0  501  0.00000000000E+00  0.00000000000E+00  0.83021079499E+02  0.83021079539E+02  0.25500000920E-02 0. -1.
        2   -1    0    0  501    0  0.00000000000E+00  0.00000000000E+00 -0.24230988103E+04  0.24230988103E+04  0.25500000920E-02 0.  1.
    10030    2    1    2    0    0  0.00000000000E+00  0.00000000000E+00 -0.23400777308E+04  0.25061198898E+04  0.89703573845E+03 0.  0.
        3    1    3    3  502    0  0.33402422088E+03 -0.29880813267E+03 -0.12192116458E+04  0.12989747988E+04  0.10100000352E+00 0.  1.
       -3    1    3    3    0  502 -0.33402422088E+03  0.29880813267E+03 -0.11208660850E+04  0.12071450911E+04  0.10100000352E+00 0. -1.
</event>
<event>
 5   0  0.6534628E-03  0.8924696E+03  0.7818609E-02  0.9435044E-01
       -2   -1    0    0    0  501  0.00000000000E+00  0.00000000000E+00  0.25119032322E+03  0.25119032323E+03  0.25500000920E-02 0. -1.
        2   -1    0    0  501    0  0.00000000000E+00  0.00000000000E+00 -0.79272750187E+03  0.79272750187E+03  0.25500000920E-02 0.  1.
    10030    2    1    2    0    0  0.00000000000E+00  0.00000000000E+00 -0.54153717864E+03  0.10439178251E+04  0.89246955675E+03 0.  0.
        4    1    3    3  502    0  0.10869956633E+03 -0.21238319394E+03 -0.71185656314E+03  0.75077533002E+03  0.12699999809E+01 0.  1.
       -4    1    3    3    0  502 -0.10869956633E+03  0.21238319394E+03  0.17031938449E+03  0.29314249508E+03  0.12699999809E+01 0. -1.
</event>
<event>
 5   0  0.6724773E-03  0.9110624E+03  0.7818609E-02  0.9411858E-01
       -2   -1    0    0    0  501  0.00000000000E+00  0.00000000000E+00  0.78719321804E+02  0.78719321845E+02  0.25500000920E-02 0. -1.
        2   -1    0    0  501    0  0.00000000000E+00  0.00000000000E+00 -0.26360575064E+04  0.26360575064E+04  0.25500000920E-02 0.  1.
    10030    2    1    2    0    0  0.00000000000E+00  0.00000000000E+00 -0.25573381846E+04  0.27147768283E+04  0.91106236712E+03 0.  0.
        5    1    3    3  502    0  0.34702026744E+02  0.21859485321E+03 -0.92357483076E+02  0.23987483233E+03  0.46999998093E+01 0. -1.
       -5    1    3    3    0  502 -0.34702026744E+02 -0.21859485321E+03 -0.24649807015E+04  0.24749019959E+04  0.46999998093E+01 0.  1.
</event>
<event>
 5   0  0.3794006E-03  0.8990666E+03  0.7818609E-02  0.9426749E-01
        1   -1    0    0  501    0  0.00000000000E+00  0.00000000000E+00  0.86704513407E+03  0.86704513408E+03  0.50400001928E-02 0.  1.
       -1   -1    0    0    0  501  0.00000000000E+00  0.00000000000E+00 -0.23306768341E+03  0.23306768347E+03  0.50400001928E-02 0. -1.
    10030    2    1    2    0    0  0.00000000000E+00  0.00000000000E+00  0.63397745066E+03  0.11001128176E+04  0.89906662901E+03 0.  0.
        5    1    3    3  502    0  0.33387471225E+03 -0.17626887046E+03  0.18478762223E+02  0.37802988351E+03  0.46999998093E+01 0. -1.
       -5    1    3    3    0  502 -0.33387471225E+03  0.17626887046E+03  0.61549868843E+03  0.72208293404E+03  0.46999998093E+01 0.  1.
</event>
<event>
 5   0  0.6524705E-03  0.9004927E+03  0.7818609E-02  0.9424966E-01
        2   -1    0    0  501    0  0.00000000000E+00  0.00000000000E+00  0.11628796437E+04  0.11628796437E+04  0.25500000920E-02 0.  1.
       -2   -1    0    0    0  501  0.00000000000E+00  0.00000000000E+00 -0.17432740697E+03  0.17432740699E+03  0.25500000920E-02 0. -1.
    10030    2    1    2    0    0  0.00000000000E+00  0.00000000000E+00  0.98855223677E+03  0.13372070507E+04  0.90049273828E+03 0.  0.
        3    1    3    3  502    0  0.34593355745E+03  0.28635414769E+02  0.68444151048E+02  0.35380026167E+03  0.10100000352E+00 0. -1.
       -3    1    3    3    0  502 -0.34593355745E+03 -0.28635414769E+02  0.92010808572E+03  0.98340678905E+03  0.10100000352E+00 0.  1.
</event>
<event>
 5   0  0.6863405E-03  0.9005581E+03  0.7818609E-02  0.9424884E-01
       -2   -1    0    0    0  501  0.00000000000E+00  0.00000000000E+00  0.27966751560E+03  0.27966751561E+03  0.25500000920E-02 0. -1.
        2   -1    0    0  501    0  0.00000000000E+00  0.00000000000E+00 -0.72497244333E+03  0.72497244334E+03  0.25500000920E-02 0.  1.
    10030    2    1    2    0    0  0.00000000000E+00  0.00000000000E+00 -0.44530492773E+03  0.10046399589E+04  0.90055814274E+03 0.  0.
        1    1    3    3  502    0 -0.32912147612E+03  0.10611934434E+03  0.99068514152E+02  0.35971771128E+03  0.50400001928E-02 0. -1.
       -1    1    3    3    0  502  0.32912147612E+03 -0.10611934434E+03 -0.54437344188E+03  0.64492224767E+03  0.50400001928E-02 0.  1.
</event>
<event>
 5   0  0.6534628E-03  0.9005785E+03  0.7818609E-02  0.9424859E-01
       -2   -1    0    0    0  501  0.00000000000E+00  0.00000000000E+00  0.94005370741E+03  0.94005370741E+03  0.25500000920E-02 0. -1.
        2   -1    0    0  501    0  0.00000000000E+00  0.00000000000E+00 -0.21569021769E+03  0.21569021770E+03  0.25500000920E-02 0.  1.
    10030    2    1    2    0    0  0.00000000000E+00  0.00000000000E+00  0.72436348972E+03  0.11557439251E+04  0.90057845588E+03 0.  0.
        4    1    3    3  502    0  0.15079886054E+03  0.27886924316E+02 -0.18114177010E+03  0.23734348666E+03  0.12699999809E+01 0.  1.
       -4    1    3    3    0  502 -0.15079886054E+03 -0.27886924316E+02  0.90550525982E+03  0.91840043845E+03  0.12699999809E+01 0. -1.
</event>
<event>
 5   0  0.6863405E-03  0.9204723E+03  0.7818609E-02  0.9400346E-01
       -2   -1    0    0    0  501  0.00000000000E+00  0.00000000000E+00  0.37365917992E+03  0.37365917993E+03  0.25500000920E-02 0.  1.
        2   -1    0    0  501    0  0.00000000000E+00  0.00000000000E+00 -0.56687301341E+03  0.56687301342E+03  0.25500000920E-02 0. -1.
    10030    2    1    2    0    0  0.00000000000E+00  0.00000000000E+00 -0.19321383349E+03  0.94053219335E+03  0.92047228165E+03 0.  0.
        1    1    3    3  502    0  0.33323135508E+03 -0.21055086586E+03 -0.33936074063E+03  0.52013509344E+03  0.50400001928E-02 0. -1.
       -1    1    3    3    0  502 -0.33323135508E+03  0.21055086586E+03  0.14614690714E+03  0.42039709991E+03  0.50400001928E-02 0.  1.
</event>
<event>
 5   0  0.6524705E-03  0.8710171E+03  0.7818609E-02  0.9462555E-01
       -2   -1    0    0    0  501  0.00000000000E+00  0.00000000000E+00  0.15718742674E+03  0.15718742676E+03  0.25500000920E-02 0.  1.
        2   -1    0    0  501    0  0.00000000000E+00  0.00000000000E+00 -0.12066338862E+04  0.12066338862E+04  0.25500000920E-02 0. -1.
    10030    2    1    2    0    0  0.00000000000E+00  0.00000000000E+00 -0.10494464594E+04  0.13638213129E+04  0.87101705059E+03 0.  0.
        3    1    3    3  502    0  0.92502966686E+02  0.39465035770E+03 -0.77408061641E+03  0.87378859834E+03  0.10100000352E+00 0. -1.
       -3    1    3    3    0  502 -0.92502966686E+02 -0.39465035770E+03 -0.27536584303E+03  0.49003271461E+03  0.10100000352E+00 0.  1.
</event>
<event>
 5   0  0.6609191E-03  0.9107049E+03  0.7818609E-02  0.9412298E-01
       -2   -1    0    0    0  501  0.00000000000E+00  0.00000000000E+00  0.26571099445E+03  0.26571099446E+03  0.25500000920E-02 0. -1.
        2   -1    0    0  501    0  0.00000000000E+00  0.00000000000E+00 -0.78034360126E+03  0.78034360127E+03  0.25500000920E-02 0.  1.
    10030    2    1    2    0    0  0.00000000000E+00  0.00000000000E+00 -0.51463260682E+03  0.10460545957E+04  0.91070494522E+03 0.  0.
        2    1    3    3  502    0 -0.37471661283E+03  0.18972557143E+03 -0.45934802254E+03  0.62242183301E+03  0.25500000920E-02 0.  1.
       -2    1    3    3    0  502  0.37471661283E+03 -0.18972557143E+03 -0.55284584275E+02  0.42363276272E+03  0.25500000920E-02 0. -1.
</event>
<event>
 5   0  0.6863405E-03  0.9082702E+03  0.7818609E-02  0.9415302E-01
        2   -1    0    0  501    0  0.00000000000E+00  0.00000000000E+00  0.13910134314E+04  0.13910134314E+04  0.25500000920E-02 0. -1.
       -2   -1    0    0    0  501  0.00000000000E+00  0.00000000000E+00 -0.14826506542E+03  0.14826506545E+03  0.25500000920E-02 0.  1.
    10030    2    1    2    0    0  0.00000000000E+00  0.00000000000E+00  0.12427483660E+04  0.15392784969E+04  0.90827021846E+03 0.  0.
        1    1    3    3  502    0 -0.37191986320E+02  0.23078172148E+01 -0.14566976489E+03  0.15036040135E+03  0.50400001928E-02 0.  1.
       -1    1    3    3    0  502  0.37191986320E+02 -0.23078172148E+01  0.13884181309E+04  0.13889180955E+04  0.50400001928E-02 0. -1.
</event>
<event>
 5   0  0.6609191E-03  0.8996172E+03  0.7818609E-02  0.9426060E-01
        2   -1    0    0  501    0  0.00000000000E+00  0.00000000000E+00  0.19300737979E+04  0.19300737979E+04  0.25500000920E-02 0.  1.
       -2   -1    0    0    0  501  0.00000000000E+00  0.00000000000E+00 -0.10482903471E+03  0.10482903475E+03  0.25500000920E-02 0. -1.
    10030    2    1    2    0    0  0.00000000000E+00  0.00000000000E+00  0.18252447632E+04  0.20349028326E+04  0.89961719235E+03 0.  0.
        2    1    3    3  502    0 -0.28969245034E+03 -0.34400409797E+03  0.89407454444E+03  0.10008145813E+04  0.25500000920E-02 0.  1.
       -2    1    3    3    0  502  0.28969245034E+03  0.34400409797E+03  0.93117021873E+03  0.10340882513E+04  0.25500000920E-02 0. -1.
</event>
<event>
 5   0  0.3969536E-03  0.9023445E+03  0.7818609E-02  0.9422655E-01
       -1   -1    0    0    0  501  0.00000000000E+00  0.00000000000E+00  0.84430050368E+03  0.84430050370E+03  0.50400001928E-02 0. -1.
        1   -1    0    0  501    0  0.00000000000E+00  0.00000000000E+00 -0.24109474961E+03  0.24109474967E+03  0.50400001928E-02 0.  1.
    10030    2    1    2    0    0  0.00000000000E+00  0.00000000000E+00  0.60320575407E+03  0.10853952534E+04  0.90234454300E+03 0.  0.
        1    1    3    3  502    0  0.21163449157E+03  0.88882459370E+00  0.78088906849E+03  0.80905975387E+03  0.50400001928E-02 0. -1.
       -1    1    3    3    0  502 -0.21163449157E+03 -0.88882459370E+00 -0.17768331442E+03  0.27633549949E+03  0.50400001928E-02 0.  1.
</event>
<event>
 5   0  0.3927993E-03  0.8998383E+03  0.7818609E-02  0.9425784E-01
       -1   -1    0    0    0  501  0.00000000000E+00  0.00000000000E+00  0.26597862501E+03  0.26597862506E+03  0.50400001928E-02 0. -1.
        1   -1    0    0  501    0  0.00000000000E+00  0.00000000000E+00 -0.76106581286E+03  0.76106581288E+03  0.50400001928E-02 0.  1.
    10030    2    1    2    0    0  0.00000000000E+00  0.00000000000E+00 -0.49508718785E+03  0.10270444379E+04  0.89983829321E+03 0.  0.
        2    1    3    3  502    0 -0.13528854447E+03  0.36448743251E+03  0.10902400203E+02  0.38893822268E+03  0.25500000920E-02 0. -1.
       -2    1    3    3    0  502  0.13528854447E+03 -0.36448743251E+03 -0.50598958805E+03  0.63810621526E+03  0.25500000920E-02 0.  1.
</event>
<event>
 5   0  0.3998066E-03  0.8988840E+03  0.7818609E-02  0.9426978E-01
       -1   -1    0    0    0  501  0.00000000000E+00  0.00000000000E+00  0.17788139966E+03  0.17788139973E+03  0.50400001928E-02 0.  1.
        1   -1    0    0  501    0  0.00000000000E+00  0.00000000000E+00 -0.11355774208E+04  0.11355774208E+04  0.50400001928E-02 0. -1.
    10030    2    1    2    0    0  0.00000000000E+00  0.00000000000E+00 -0.95769602115E+03  0.13134588205E+04  0.89888397714E+03 0.  0.
        4    1    3    3  502    0  0.35174911093E+03  0.21052333509E+03 -0.74807969311E+03  0.85303713390E+03  0.12699999809E+01 0. -1.
       -4    1    3    3    0  502 -0.35174911093E+03 -0.21052333509E+03 -0.20961632803E+03  0.46042168665E+03  0.12699999809E+01 0.  1.
</event>
<event>
 5   0  0.3794006E-03  0.9067937E+03  0.7818609E-02  0.9417129E-01
       -1   -1    0    0    0  501  0.00000000000E+00  0.00000000000E+00  0.47905749969E+03  0.47905749971E+03  0.50400001928E-02 0. -1.
        1   -1    0    0  501    0  0.00000000000E+00  0.00000000000E+00 -0.42911066954E+03  0.42911066957E+03  0.50400001928E-02 0.  1.
    10030    2    1    2    0    0  0.00000000000E+00  0.00000000000E+00  0.49946830141E+02  0.90816816929E+03  0.90679365782E+03 0.  0.
        5    1    3    3  502    0  0.21444202453E+03 -0.44507278620E+02  0.42253900094E+03  0.47594913283E+03  0.46999998093E+01 0. -1.
       -5    1    3    3    0  502 -0.21444202453E+03  0.44507278620E+02 -0.37259217079E+03  0.43221903645E+03  0.46999998093E+01 0.  1.
</event>
<event>
 5   0  0.6524705E-03  0.9008154E+03  0.7818609E-02  0.9424563E-01
        2   -1    0    0  501    0  0.00000000000E+00  0.00000000000E+00  0.20909594857E+04  0.20909594857E+04  0.25500000920E-02 0.  1.
       -2   -1    0    0    0  501  0.00000000000E+00  0.00000000000E+00 -0.97021056230E+02  0.97021056264E+02  0.25500000920E-02 0. -1.
    10030    2    1    2    0    0  0.00000000000E+00  0.00000000000E+00  0.19939384294E+04  0.21879805419E+04  0.90081540367E+03 0.  0.
        3    1    3    3  502    0 -0.93232481899E+02  0.42920520955E+03  0.12393436087E+04  0.13148695746E+04  0.10100000352E+00 0.  1.
       -3    1    3    3    0  502  0.93232481899E+02 -0.42920520955E+03  0.75459482071E+03  0.87311096731E+03  0.10100000352E+00 0. -1.
</event>
<event>
 5   0  0.2560250E-03  0.8962794E+03  0.7818609E-02  0.9430244E-01
       -3   -1    0    0    0  501  0.00000000000E+00  0.00000000000E+00  0.22274467433E+03  0.22274469723E+03  0.10100000352E+00 0.  1.
        3   -1    0    0  501    0  0.00000000000E+00  0.00000000000E+00 -0.90161147034E+03  0.90161147599E+03  0.10100000352E+00 0. -1.
    10030    2    1    2    0    0  0.00000000000E+00  0.00000000000E+00 -0.67886679601E+03  0.11243561732E+04  0.89627935240E+03 0.  0.
        3    1    3    3  502    0 -0.28122894342E+03 -0.22315361034E+03 -0.29594150028E+01  0.35902091967E+03  0.10100000352E+00 0.  1.
       -3    1    3    3    0  502  0.28122894342E+03  0.22315361034E+03 -0.67590738101E+03  0.76533525355E+03  0.10100000352E+00 0. -1.
</event>
<event>
 5   0  0.6524705E-03  0.9003445E+03  0.7818609E-02  0.9425151E-01
       -2   -1    0    0    0  501  0.00000000000E+00  0.00000000000E+00  0.23435485041E+03  0.23435485042E+03  0.25500000920E-02 0. -1.
        2   -1    0    0  501    0  0.00000000000E+00  0.00000000000E+00 -0.86473593898E+03  0.86473593898E+03  0.25500000920E-02 0.  1.
    10030    2    1    2    0    0  0.00000000000E+00  0.00000000000E+00 -0.63038108857E+03  0.10990907894E+04  0.90034451546E+03 0.  0.
        3    1    3    3  502    0 -0.22173261639E+03  0.27510647488E+03  0.25320921678E+02  0.35424579739E+03  0.10100000352E+00 0. -1.
       -3    1    3    3    0  502  0.22173261639E+03 -0.27510647488E+03 -0.65570201025E+03  0.74484499202E+03  0.10100000352E+00 0.  1.
</event>
<event>
 5   0  0.3943549E-03  0.9025959E+03  0.7818609E-02  0.9422342E-01
        1   -1    0    0  501    0  0.00000000000E+00  0.00000000000E+00  0.30174560678E+03  0.30174560683E+03  0.50400001928E-02 0.  1.
       -1   -1    0    0    0  501  0.00000000000E+00  0.00000000000E+00 -0.67497197665E+03  0.67497197667E+03  0.50400001928E-02 0. -1.
    10030    2    1    2    0    0  0.00000000000E+00  0.00000000000E+00 -0.37322636987E+03  0.97671758349E+03  0.90259587565E+03 0.  0.
        3    1    3    3  502    0  0.30163680531E+03 -0.60308545042E+02 -0.54395544974E+03  0.62490753270E+03  0.10100000352E+00 0. -1.
       -3    1    3    3    0  502 -0.30163680531E+03  0.60308545042E+02  0.17072907987E+03  0.35181005079E+03  0.10100000352E+00 0.  1.
</event>
<event>
 5   0  0.3998066E-03  0.8990644E+03  0.7818609E-02  0.9426752E-01
        1   -1    0    0  501    0  0.00000000000E+00  0.00000000000E+00  0.26540845048E+04  0.26540845049E+04  0.50400001928E-02 0. -1.
       -1   -1    0    0    0  501  0.00000000000E+00  0.00000000000E+00 -0.76138954756E+02  0.76138954923E+02  0.50400001928E-02 0.  1.
    10030    2    1    2    0    0  0.00000000000E+00  0.00000000000E+00  0.25779455501E+04  0.27302234598E+04  0.89906444767E+03 0.  0.
        4    1    3    3  502    0  0.30249650619E+03 -0.14385850550E+03  0.37856793821E+03  0.50548462153E+03  0.12699999809E+01 0.  1.
       -4    1    3    3    0  502 -0.30249650619E+03  0.14385850550E+03  0.21993776119E+04  0.22247388382E+04  0.12699999809E+01 0. -1.
</event>
<event>
 5   0  0.3794006E-03  0.8935231E+03  0.7818609E-02  0.9433714E-01
        1   -1    0    0  501    0  0.00000000000E+00  0.00000000000E+00  0.11573460957E+04  0.11573460957E+04  0.50400001928E-02 0. -1.
       -1   -1    0    0    0  501  0.00000000000E+00  0.00000000000E+00 -0.17245995990E+03  0.17245995997E+03  0.50400001928E-02 0.  1.
    10030    2    1    2    0    0  0.00000000000E+00  0.00000000000E+00  0.98488613584E+03  0.13298060557E+04  0.89352305244E+03 0.  0.
        5    1    3    3  502    0 -0.13530444167E+03 -0.32536272085E+03  0.90112391514E+03  0.96758182728E+03  0.46999998093E+01 0. -1.
       -5    1    3    3    0  502  0.13530444167E+03  0.32536272085E+03  0.83762220705E+02  0.36222422844E+03  0.46999998093E+01 0.  1.
</event>
<event>
 5   0  0.6534628E-03  0.8500561E+03  0.7818609E-02  0.9490262E-01
       -2   -1    0    0    0  501  0.00000000000E+00  0.00000000000E+00  0.12338621875E+04  0.12338621875E+04  0.25500000920E-02 0.  1.
        2   -1    0    0  501    0  0.00000000000E+00  0.00000000000E+00 -0.14640926367E+03  0.14640926369E+03  0.25500000920E-02 0. -1.
    10030    2    1    2    0    0  0.00000000000E+00  0.00000000000E+00  0.10874529238E+04  0.13802714512E+04  0.85005612603E+03 0.  0.
        4    1    3    3  502    0  0.17733404513E+03 -0.10443205630E+03 -0.60108556865E+02  0.21440165451E+03  0.12699999809E+01 0. -1.
       -4    1    3    3    0  502 -0.17733404513E+03  0.10443205630E+03  0.11475614807E+04  0.11658697967E+04  0.12699999809E+01 0.  1.
</event>
<event>
 5   0  0.6534628E-03  0.8885037E+03  0.7818609E-02  0.9440068E-01
        2   -1    0    0  501    0  0.00000000000E+00  0.00000000000E+00  0.21606585882E+03  0.21606585884E+03  0.25500000920E-02 0. -1.
       -2   -1    0    0    0  501  0.00000000000E+00  0.00000000000E+00 -0.91342377008E+03  0.91342377008E+03  0.25500000920E-02 0.  1.
    10030    2    1    2    0    0  0.00000000000E+00  0.00000000000E+00 -0.69735791126E+03  0.11294896289E+04  0.88850366654E+03 0.  0.
        4    1    3    3  502    0 -0.27334724738E+03 -0.34724709775E+03 -0.40635979487E+03  0.60035752709E+03  0.12699999809E+01 0.  1.
       -4    1    3    3    0  502  0.27334724738E+03  0.34724709775E+03 -0.29099811639E+03  0.52913210183E+03  0.12699999809E+01 0. -1.
</event>
<event>
 5   0  0.6524705E-03  0.8973087E+03  0.7818609E-02  0.9428952E-01
        2   -1    0    0  501    0  0.00000000000E+00  0.00000000000E+00  0.69807198615E+03  0.69807198616E+03  0.25500000920E-02 0.  1.
       -2   -1    0    0    0  501  0.00000000000E+00  0.00000000000E+00 -0.28835236740E+03  0.28835236741E+03  0.25500000920E-02 0. -1.
    10030    2    1    2    0    0  0.00000000000E+00  0.00000000000E+00  0.40971961876E+03  0.98642435356E+03  0.89730866446E+03 0.  0.
        3    1    3    3  502    0 -0.43769837400E+02  0.22590859850E+03 -0.21854068772E+03  0.31734923339E+03  0.10100000352E+00 0. -1.
       -3    1    3    3    0  502  0.43769837400E+02 -0.22590859850E+03  0.62826030648E+03  0.66907512018E+03  0.10100000352E+00 0.  1.
</event>
<event>
 5   0  0.3969536E-03  0.9236489E+03  0.7818609E-02  0.9396493E-01
        1   -1    0    0  501    0  0.00000000000E+00  0.00000000000E+00  0.38208928439E+03  0.38208928443E+03  0.50400001928E-02 0.  1.
       -1   -1    0    0    0  501  0.00000000000E+00  0.00000000000E+00 -0.55819892874E+03  0.55819892876E+03  0.50400001928E-02 0. -1.
    10030    2    1    2    0    0  0.00000000000E+00  0.00000000000E+00 -0.17610964434E+03  0.94028821319E+03  0.92364891438E+03 0.  0.
        1    1    3    3  502    0 -0.40293725067E+03  0.11008808640E+03  0.11248120046E+03  0.43258506126E+03  0.50400001928E-02 0. -1.
       -1    1    3    3    0  502  0.40293725067E+03 -0.11008808640E+03 -0.28859084480E+03  0.50770315193E+03  0.50400001928E-02 0.  1.
</event>
<event>
 5   0  0.6534628E-03  0.8861950E+03  0.7818609E-02  0.9443005E-01
       -2   -1    0    0    0  501  0.00000000000E+00  0.00000000000E+00  0.20613861809E+03  0.20613861810E+03  0.25500000920E-02 0.  1.
        2   -1    0    0  501    0  0.00000000000E+00  0.00000000000E+00 -0.95244357564E+03  0.95244357564E+03  0.25500000920E-02 0. -1.
    10030    2    1    2    0    0  0.00000000000E+00  0.00000000000E+00 -0.74630495755E+03  0.11585821937E+04  0.88619501804E+03 0.  0.
        4    1    3    3  502    0  0.32628055336E+03  0.27132570226E+03 -0.20645854442E+03  0.47191458938E+03  0.12699999809E+01 0.  1.
       -4    1    3    3    0  502 -0.32628055336E+03 -0.27132570226E+03 -0.53984641313E+03  0.68666760436E+03  0.12699999809E+01 0. -1.
</event>
<event>
 5   0  0.3998066E-03  0.8964177E+03  0.7818609E-02  0.9430071E-01
        1   -1    0    0  501    0  0.00000000000E+00  0.00000000000E+00  0.54226743230E+03  0.54226743232E+03  0.50400001928E-02 0. -1.
       -1   -1    0    0    0  501  0.00000000000E+00  0.00000000000E+00 -0.37046511590E+03  0.37046511594E+03  0.50400001928E-02 0.  1.
    10030    2    1    2    0    0  0.00000000000E+00  0.00000000000E+00  0.17180231640E+03  0.91273254826E+03  0.89641768653E+03 0.  0.
        4    1    3    3  502    0 -0.16926430420E+03  0.14220229863E+03  0.48289167891E+03  0.53109122086E+03  0.12699999809E+01 0. -1.
       -4    1    3    3    0  502  0.16926430420E+03 -0.14220229863E+03 -0.31108936251E+03  0.38164132740E+03  0.12699999809E+01 0.  1.
</event>
<event>
 5   0  0.6863405E-03  0.9005971E+03  0.7818609E-02  0.9424835E-01
       -2   -1    0    0    0  501  0.00000000000E+00  0.00000000000E+00  0.14098779609E+03  0.14098779611E+03  0.25500000920E-02 0.  1.
        2   -1    0    0  501    0  0.00000000000E+00  0.00000000000E+00 -0.14382009153E+04  0.14382009153E+04  0.25500000920E-02 0. -1.
    10030    2    1    2    0    0  0.00000000000E+00  0.00000000000E+00 -0.12972131192E+04  0.15791887114E+04  0.90059708504E+03 0.  0.
        1    1    3    3  502    0 -0.40184853615E+03 -0.18195235621E+03 -0.49001621866E+03  0.65932146978E+03  0.50400001928E-02 0.  1.
       -1    1    3    3    0  502  0.40184853615E+03  0.18195235621E+03 -0.80719690053E+03  0.91986724161E+03  0.50400001928E-02 0. -1.
</event>
<event>
 5   0  0.6724773E-03  0.8970020E+03  0.7818609E-02  0.9429337E-01
       -2   -1    0    0    0  501  0.00000000000E+00  0.00000000000E+00  0.14603630083E+03  0.14603630085E+03  0.25500000920E-02 0.  1.
        2   -1    0    0  501    0  0.00000000000E+00  0.00000000000E+00 -0.13774188839E+04  0.13774188839E+04  0.25500000920E-02 0. -1.
    10030    2    1    2    0    0  0.00000000000E+00  0.00000000000E+00 -0.12313825831E+04  0.15234551848E+04  0.89700202569E+03 0.  0.
        5    1    3    3  502    0  0.11293083222E+03 -0.13286709404E+03  0.86060592927E+02  0.19451363242E+03  0.46999998093E+01 0.  1.
       -5    1    3    3    0  502 -0.11293083222E+03  0.13286709404E+03 -0.13174431760E+04  0.13289415524E+04  0.46999998093E+01 0. -1.
</event>
<event>
 5   0  0.3969536E-03  0.9020711E+03  0.7818609E-02  0.9422996E-01
        1   -1    0    0  501    0  0.00000000000E+00  0.00000000000E+00  0.10210513841E+04  0.10210513842E+04  0.50400001928E-02 0.  1.
       -1   -1    0    0    0  501  0.00000000000E+00  0.00000000000E+00 -0.19923879988E+03  0.19923879994E+03  0.50400001928E-02 0. -1.
    10030    2    1    2    0    0  0.00000000000E+00  0.00000000000E+00  0.82181258427E+03  0.12202901841E+04  0.90207106691E+03 0.  0.
        1    1    3    3  502    0 -0.35202489352E+03  0.67174943903E+02  0.40438671397E+02  0.36065119564E+03  0.50400001928E-02 0. -1.
       -1    1    3    3    0  502  0.35202489352E+03 -0.67174943903E+02  0.78137391287E+03  0.85963898846E+03  0.50400001928E-02 0.  1.
</event>
<event>
 5   0  0.3969536E-03  0.8995497E+03  0.7818609E-02  0.9426145E-01
        1   -1    0    0  501    0  0.00000000000E+00  0.00000000000E+00  0.71873427986E+03  0.71873427988E+03  0.50400001928E-02 0. -1.
       -1   -1    0    0    0  501  0.00000000000E+00  0.00000000000E+00 -0.28146342006E+03  0.28146342011E+03  0.50400001928E-02 0.  1.
    10030    2    1    2    0    0  0.00000000000E+00  0.00000000000E+00  0.43727085980E+03  0.10001977000E+04  0.89954968414E+03 0.  0.
        1    1    3    3  502    0 -0.70728598772E+02 -0.33190047272E+03 -0.10958217617E+03  0.35660722348E+03  0.50400001928E-02 0.  1.
       -1    1    3    3    0  502  0.70728598772E+02  0.33190047272E+03  0.54685303597E+03  0.64359047651E+03  0.50400001928E-02 0. -1.
</event>
<event>
 5   0  0.3998066E-03  0.8895813E+03  0.7818609E-02  0.9438700E-01
       -1   -1    0    0    0  501  0.00000000000E+00  0.00000000000E+00  0.24387202549E+03  0.24387202554E+03  0.50400001928E-02 0.  1.
        1   -1    0    0  501    0  0.00000000000E+00  0.00000000000E+00 -0.81123984349E+03  0.81123984350E+03  0.50400001928E-02 0. -1.
    10030    2    1    2    0    0  0.00000000000E+00  0.00000000000E+00 -0.56736781799E+03  0.10551118690E+04  0.88958125841E+03 0.  0.
        4    1    3    3  502    0 -0.10252296528E+03 -0.17602207785E+03  0.18529273703E+03  0.27537200583E+03  0.12699999809E+01 0.  1.
       -4    1    3    3    0  502  0.10252296528E+03  0.17602207785E+03 -0.75266055503E+03  0.77973986322E+03  0.12699999809E+01 0. -1.
</event>
<event>
 5   0  0.6534628E-03  0.9030416E+03  0.7818609E-02  0.9421787E-01
       -2   -1    0    0    0  501  0.00000000000E+00  0.00000000000E+00  0.97866504322E+03  0.97866504323E+03  0.25500000920E-02 0.  1.
        2   -1    0    0  501    0  0.00000000000E+00  0.00000000000E+00 -0.20831541183E+03  0.20831541184E+03  0.25500000920E-02 0. -1.
    10030    2    1    2    0    0  0.00000000000E+00  0.00000000000E+00  0.77034963139E+03  0.11869804551E+04  0.90304155283E+03 0.  0.
        4    1    3    3  502    0  0.35292572353E+03 -0.27677018614E+03  0.31673508203E+03  0.54907287982E+03  0.12699999809E+01 0. -1.
       -4    1    3    3    0  502 -0.35292572353E+03  0.27677018614E+03  0.45361454937E+03  0.63790757525E+03  0.12699999809E+01 0.  1.
</event>
<event>
 5   0  0.3969536E-03  0.9755074E+03  0.7818609E-02  0.9335823E-01
        1   -1    0    0  501    0  0.00000000000E+00  0.00000000000E+00  0.54766961446E+03  0.54766961448E+03  0.50400001928E-02 0.  1.
       -1   -1    0    0    0  501  0.00000000000E+00  0.00000000000E+00 -0.43439265595E+03  0.43439265598E+03  0.50400001928E-02 0. -1.
    10030    2    1    2    0    0  0.00000000000E+00  0.00000000000E+00  0.11327695851E+03  0.98206227046E+03  0.97550737247E+03 0.  0.
        1    1    3    3  502    0 -0.46460827574E+03  0.61243331675E+02  0.19279542877E+03  0.50673629527E+03  0.50400001928E-02 0.  1.
       -1    1    3    3    0  502  0.46460827574E+03 -0.61243331675E+02 -0.79518470259E+02  0.47532597520E+03  0.50400001928E-02 0. -1.
</event>
<event>
 5   0  0.6863405E-03  0.9047436E+03  0.7818609E-02  0.9419671E-01
       -2   -1    0    0    0  501  0.00000000000E+00  0.00000000000E+00  0.22365651243E+03  0.22365651244E+03  0.25500000920E-02 0. -1.
        2   -1    0    0  501    0  0.00000000000E+00  0.00000000000E+00 -0.91497566319E+03  0.91497566319E+03  0.25500000920E-02 0.  1.
    10030    2    1    2    0    0  0.00000000000E+00  0.00000000000E+00 -0.69131915076E+03  0.11386321756E+04  0.90474364500E+03 0.  0.
        1    1    3    3  502    0 -0.16306137234E+03  0.41445675140E+03 -0.24595180889E+03  0.50877863777E+03  0.50400001928E-02 0.  1.
       -1    1    3    3    0  502  0.16306137234E+03 -0.41445675140E+03 -0.44536734187E+03  0.62985353786E+03  0.50400001928E-02 0. -1.
</event>
<event>
 5   0  0.2560250E-03  0.9006898E+03  0.7818609E-02  0.9424720E-01
        3   -1    0    0  501    0  0.00000000000E+00  0.00000000000E+00  0.15836133491E+03  0.15836136712E+03  0.10100000352E+00 0.  1.
       -3   -1    0    0    0  501  0.00000000000E+00  0.00000000000E+00 -0.12806819553E+04  0.12806819593E+04  0.10100000352E+00 0. -1.
    10030    2    1    2    0    0  0.00000000000E+00  0.00000000000E+00 -0.11223206204E+04  0.14390433264E+04  0.90068980248E+03 0.  0.
        1    1    3    3  502    0 -0.25790215536E+03 -0.21073187219E+03 -0.10454782885E+04  0.10972448657E+04  0.50400001928E-02 0. -1.
       -1    1    3    3    0  502  0.25790215536E+03  0.21073187219E+03 -0.76842331891E+02  0.34179846063E+03  0.50400001928E-02 0.  1.
</event>
<event>
 5   0  0.3794006E-03  0.8502986E+03  0.7818609E-02  0.9489936E-01
       -1   -1    0    0    0  501  0.00000000000E+00  0.00000000000E+00  0.36737988914E+03  0.36737988918E+03  0.50400001928E-02 0.  1.
        1   -1    0    0  501    0  0.00000000000E+00  0.00000000000E+00 -0.49200276108E+03  0.49200276111E+03  0.50400001928E-02 0. -1.
    10030    2    1    2    0    0  0.00000000000E+00  0.00000000000E+00 -0.12462287194E+03  0.85938265029E+03  0.85029858250E+03 0.  0.
        5    1    3    3  502    0 -0.95881449168E+02  0.43222580720E+02  0.35399736381E+03  0.36932054825E+03  0.46999998093E+01 0.  1.
       -5    1    3    3    0  502  0.95881449168E+02 -0.43222580720E+02 -0.47862023575E+03  0.49006210203E+03  0.46999998093E+01 0. -1.
</event>
<event>
 5   0  0.6524705E-03  0.9131583E+03  0.7818609E-02  0.9409281E-01
       -2   -1    0    0    0  501  0.00000000000E+00  0.00000000000E+00  0.16212293069E+03  0.16212293071E+03  0.25500000920E-02 0. -1.
        2   -1    0    0  501    0  0.00000000000E+00  0.00000000000E+00 -0.12858422419E+04  0.12858422419E+04  0.25500000920E-02 0.  1.
    10030    2    1    2    0    0  0.00000000000E+00  0.00000000000E+00 -0.11237193112E+04  0.14479651726E+04  0.91315828349E+03 0.  0.
        3    1    3    3  502    0  0.42314360410E+03  0.55560532284E+02 -0.30457558103E+03  0.52431267122E+03  0.10100000352E+00 0.  1.
       -3    1    3    3    0  502 -0.42314360410E+03 -0.55560532284E+02 -0.81914373013E+03  0.92365250135E+03  0.10100000352E+00 0. -1.
</event>
<event>
 5   0  0.3969536E-03  0.8999102E+03  0.7818609E-02  0.9425694E-01
        1   -1    0    0  501    0  0.00000000000E+00  0.00000000000E+00  0.24307410973E+03  0.24307410978E+03  0.50400001928E-02 0. -1.
       -1   -1    0    0    0  501  0.00000000000E+00  0.00000000000E+00 -0.83291293621E+03  0.83291293623E+03  0.50400001928E-02 0.  1.
    10030    2    1    2    0    0  0.00000000000E+00  0.00000000000E+00 -0.58983882648E+03  0.10759870460E+04  0.89991015216E+03 0.  0.
        1    1    3    3  502    0 -0.22122755102E+03 -0.37158707280E+03 -0.14634451525E+03  0.45654714890E+03  0.50400001928E-02 0. -1.
       -1    1    3    3    0  502  0.22122755102E+03  0.37158707280E+03 -0.44349431124E+03  0.61943989711E+03  0.50400001928E-02 0.  1.
</event>
<event>
 5   0  0.3794006E-03  0.8708005E+03  0.7818609E-02  0.9462837E-01
        1   -1    0    0  501    0  0.00000000000E+00  0.00000000000E+00  0.13333940624E+04  0.13333940624E+04  0.50400001928E-02 0. -1.
       -1   -1    0    0    0  501  0.00000000000E+00  0.00000000000E+00 -0.14217356505E+03  0.14217356514E+03  0.50400001928E-02 0.  1.
    10030    2    1    2    0    0  0.00000000000E+00  0.00000000000E+00  0.11912204973E+04  0.14755676275E+04  0.87080052260E+03 0.  0.
        5    1    3    3  502    0 -0.10805984709E+02 -0.13963977671E+03 -0.10291512948E+03  0.17386676054E+03  0.46999998093E+01 0.  1.
       -5    1    3    3    0  502  0.10805984709E+02  0.13963977671E+03  0.12941356268E+04  0.13017008670E+04  0.46999998093E+01 0. -1.
</event>
<event>
 5   0  0.2560250E-03  0.9023040E+03  0.7818609E-02  0.9422706E-01
       -3   -1    0    0    0  501  0.00000000000E+00  0.00000000000E+00  0.19398093630E+03  0.19398096260E+03  0.10100000352E+00 0.  1.
        3   -1    0    0  501    0  0.00000000000E+00  0.00000000000E+00 -0.10492685935E+04  0.10492685984E+04  0.10100000352E+00 0. -1.
    10030    2    1    2    0    0  0.00000000000E+00  0.00000000000E+00 -0.85528765721E+03  0.12432495610E+04  0.90230399216E+03 0.  0.
        3    1    3    3  502    0  0.24412528292E+03 -0.30875935396E+03 -0.12386179454E+03  0.41263936647E+03  0.10100000352E+00 0.  1.
       -3    1    3    3    0  502 -0.24412528292E+03  0.30875935396E+03 -0.73142586266E+03  0.83061019449E+03  0.10100000352E+00 0. -1.
</event>
<event>
 5   0  0.6724773E-03  0.8903655E+03  0.7818609E-02  0.9437706E-01
        2   -1    0    0  501    0  0.00000000000E+00  0.00000000000E+00  0.10433787246E+04  0.10433787246E+04  0.25500000920E-02 0. -1.
       -2   -1    0    0    0  501  0.00000000000E+00  0.00000000000E+00 -0.18994796536E+03  0.18994796537E+03  0.25500000920E-02 0.  1.
    10030    2    1    2    0    0  0.00000000000E+00  0.00000000000E+00  0.85343075923E+03  0.12333266900E+04  0.89036546619E+03 0.  0.
        5    1    3    3  502    0  0.19295685709E+03  0.17817097285E+03  0.92459169602E+03  0.96118111645E+03  0.46999998093E+01 0. -1.
       -5    1    3    3    0  502 -0.19295685709E+03 -0.17817097285E+03 -0.71160936790E+02  0.27214557352E+03  0.46999998093E+01 0.  1.
</event>
<event>
 5   0  0.3969536E-03  0.8944091E+03  0.7818609E-02  0.9432597E-01
        1   -1    0    0  501    0  0.00000000000E+00  0.00000000000E+00  0.63801901586E+03  0.63801901588E+03  0.50400001928E-02 0.  1.
       -1   -1    0    0    0  501  0.00000000000E+00  0.00000000000E+00 -0.31345756768E+03  0.31345756772E+03  0.50400001928E-02 0. -1.
    10030    2    1    2    0    0  0.00000000000E+00  0.00000000000E+00  0.32456144818E+03  0.95147658360E+03  0.89440905378E+03 0.  0.
        1    1    3    3  502    0  0.35884890638E+03  0.73820880227E+02  0.43510013930E+03  0.56880066035E+03  0.50400001928E-02 0.  1.
       -1    1    3    3    0  502 -0.35884890638E+03 -0.73820880227E+02 -0.11053869112E+03  0.38267592324E+03  0.50400001928E-02 0. -1.
</event>
<event>
 5   0  0.3794006E-03  0.9708484E+03  0.7818609E-02  0.9341109E-01
        1   -1    0    0  501    0  0.00000000000E+00  0.00000000000E+00  0.57362062655E+03  0.57362062657E+03  0.50400001928E-02 0. -1.
       -1   -1    0    0    0  501  0.00000000000E+00  0.00000000000E+00 -0.41078829799E+03  0.41078829802E+03  0.50400001928E-02 0.  1.
    10030    2    1    2    0    0  0.00000000000E+00  0.00000000000E+00  0.16283232856E+03  0.98440892459E+03  0.97084837312E+03 0.  0.
        5    1    3    3  502    0 -0.22840415319E+03  0.10500268274E+03  0.50245157518E+03  0.56184846354E+03  0.46999998093E+01 0. -1.
       -5    1    3    3    0  502  0.22840415319E+03 -0.10500268274E+03 -0.33961924662E+03  0.42256046106E+03  0.46999998093E+01 0.  1.
</event>
<event>
 5   0  0.3943549E-03  0.9303072E+03  0.7818609E-02  0.9388469E-01
        1   -1    0    0  501    0  0.00000000000E+00  0.00000000000E+00  0.15032811919E+03  0.15032811927E+03  0.50400001928E-02 0.  1.
       -1   -1    0    0    0  501  0.00000000000E+00  0.00000000000E+00 -0.14393039572E+04  0.14393039572E+04  0.50400001928E-02 0. -1.
    10030    2    1    2    0    0  0.00000000000E+00  0.00000000000E+00 -0.12889758380E+04  0.15896320764E+04  0.93030716839E+03 0.  0.
        3    1    3    3  502    0  0.24779824515E+03 -0.22420159964E+03 -0.91598287372E+02  0.34649759600E+03  0.10100000352E+00 0.  1.
       -3    1    3    3    0  502 -0.24779824515E+03  0.22420159964E+03 -0.11973775506E+04  0.12431344804E+04  0.10100000352E+00 0. -1.
</event>
<event>
 5   0  0.6534628E-03  0.8813726E+03  0.7818609E-02  0.9449171E-01
        2   -1    0    0  501    0  0.00000000000E+00  0.00000000000E+00  0.57970831901E+03  0.57970831902E+03  0.25500000920E-02 0.  1.
       -2   -1    0    0    0  501  0.00000000000E+00  0.00000000000E+00 -0.33500364617E+03  0.33500364618E+03  0.25500000920E-02 0. -1.
    10030    2    1    2    0    0  0.00000000000E+00  0.00000000000E+00  0.24470467284E+03  0.91471196520E+03  0.88137256729E+03 0.  0.
        4    1    3    3  502    0  0.19829220533E+03  0.25005234052E+01  0.53078261002E+03  0.56661966372E+03  0.12699999809E+01 0.  1.
       -4    1    3    3    0  502 -0.19829220533E+03 -0.25005234052E+01 -0.28607793718E+03  0.34809230148E+03  0.12699999809E+01 0. -1.
</event>
<event>
 5   0  0.3927993E-03  0.8930152E+03  0.7818609E-02  0.9434355E-01
       -1   -1    0    0    0  501  0.00000000000E+00  0.00000000000E+00  0.46857450758E+03  0.46857450760E+03  0.50400001928E-02 0. -1.
        1   -1    0    0  501    0  0.00000000000E+00  0.00000000000E+00 -0.42547992854E+03  0.42547992857E+03  0.50400001928E-02 0.  1.
    10030    2    1    2    0    0  0.00000000000E+00  0.00000000000E+00  0.43094579040E+02  0.89405443617E+03  0.89301522501E+03 0.  0.
        2    1    3    3  502    0  0.37220779187E+03  0.12205721481E+03  0.23611525156E+03  0.45736967110E+03  0.25500000920E-02 0. -1.
       -2    1    3    3    0  502 -0.37220779187E+03 -0.12205721481E+03 -0.19302067252E+03  0.43668476507E+03  0.25500000920E-02 0.  1.
</event>
<event>
 5   0  0.2560250E-03  0.8945059E+03  0.7818609E-02  0.9432475E-01
       -3   -1    0    0    0  501  0.00000000000E+00  0.00000000000E+00  0.60958043776E+03  0.60958044613E+03  0.10100000352E+00 0. -1.
        3   -1    0    0  501    0  0.00000000000E+00  0.00000000000E+00 -0.32815228181E+03  0.32815229735E+03  0.10100000352E+00 0.  1.
    10030    2    1    2    0    0  0.00000000000E+00  0.00000000000E+00  0.28142815595E+03  0.93773274348E+03  0.89450594812E+03 0.  0.
        4    1    3    3  502    0 -0.23307562351E+03 -0.80841770594E+02  0.53180240962E+03  0.58623805227E+03  0.12699999809E+01 0. -1.
       -4    1    3    3    0  502  0.23307562351E+03  0.80841770594E+02 -0.25037425367E+03  0.35149469121E+03  0.12699999809E+01 0.  1.
</event>
<event>
 5   0  0.6863405E-03  0.9013419E+03  0.7818609E-02  0.9423906E-01
        2   -1    0    0  501    0  0.00000000000E+00  0.00000000000E+00  0.10183588953E+04  0.10183588953E+04  0.25500000920E-02 0.  1.
       -2   -1    0    0    0  501  0.00000000000E+00  0.00000000000E+00 -0.19944273674E+03  0.19944273676E+03  0.25500000920E-02 0. -1.
    10030    2    1    2    0    0  0.00000000000E+00  0.00000000000E+00  0.81891615852E+03  0.12178016320E+04  0.90134185538E+03 0.  0.
        1    1    3    3  502    0 -0.27064097862E+03  0.14532301892E+03  0.85499080753E+03  0.90850129341E+03  0.50400001928E-02 0.  1.
       -1    1    3    3    0  502  0.27064097862E+03 -0.14532301892E+03 -0.36074649016E+02  0.30930033861E+03  0.50400001928E-02 0. -1.
</event>
<event>
 5   0  0.6534628E-03  0.8971008E+03  0.7818609E-02  0.9429213E-01
        2   -1    0    0  501    0  0.00000000000E+00  0.00000000000E+00  0.10866988477E+04  0.10866988477E+04  0.25500000920E-02 0.  1.
       -2   -1    0    0    0  501  0.00000000000E+00  0.00000000000E+00 -0.18514555245E+03  0.18514555247E+03  0.25500000920E-02 0. -1.
    10030    2    1    2    0    0  0.00000000000E+00  0.00000000000E+00  0.90155329523E+03  0.12718444002E+04  0.89710079370E+03 0.  0.
        4    1    3    3  502    0 -0.11203454787E+03 -0.35227798553E+03  0.90594835835E+02  0.38060551255E+03  0.12699999809E+01 0. -1.
       -4    1    3    3    0  502  0.11203454787E+03  0.35227798553E+03  0.81095845940E+03  0.89123888760E+03  0.12699999809E+01 0.  1.
</event>
<event>
 5   0  0.6534628E-03  0.9218866E+03  0.7818609E-02  0.9398628E-01
        2   -1    0    0  501    0  0.00000000000E+00  0.00000000000E+00  0.16402878272E+04  0.16402878272E+04  0.25500000920E-02 0. -1.
       -2   -1    0    0    0  501  0.00000000000E+00  0.00000000000E+00 -0.12953137311E+03  0.12953137313E+03  0.25500000920E-02 0.  1.
    10030    2    1    2    0    0  0.00000000000E+00  0.00000000000E+00  0.15107564541E+04  0.17698192003E+04  0.92188661898E+03 0.  0.
        4    1    3    3  502    0 -0.20286164716E+03  0.27295554837E+02  0.15482477621E+04  0.15617204106E+04  0.12699999809E+01 0. -1.
       -4    1    3    3    0  502  0.20286164716E+03 -0.27295554837E+02 -0.37491308005E+02  0.20809878971E+03  0.12699999809E+01 0.  1.
</event>
<event>
 5   0  0.6609191E-03  0.8988845E+03  0.7818609E-02  0.9426977E-01
       -2   -1    0    0    0  501  0.00000000000E+00  0.00000000000E+00  0.26540174417E+03  0.26540174418E+03  0.25500000920E-02 0.  1.
        2   -1    0    0  501    0  0.00000000000E+00  0.00000000000E+00 -0.76110402446E+03  0.76110402446E+03  0.25500000920E-02 0. -1.
    10030    2    1    2    0    0  0.00000000000E+00  0.00000000000E+00 -0.49570228029E+03  0.10265057686E+04  0.89888449890E+03 0.  0.
        2    1    3    3  502    0  0.19343834671E+02 -0.38101996420E+02 -0.75877900633E+03  0.75998126722E+03  0.25500000920E-02 0. -1.
       -2    1    3    3    0  502 -0.19343834671E+02  0.38101996420E+02  0.26307672604E+03  0.26652450142E+03  0.25500000920E-02 0.  1.
</event>
<event>
 5   0  0.6524705E-03  0.8987743E+03  0.7818609E-02  0.9427115E-01
       -2   -1    0    0    0  501  0.00000000000E+00  0.00000000000E+00  0.34996634044E+03  0.34996634045E+03  0.25500000920E-02 0.  1.
        2   -1    0    0  501    0  0.00000000000E+00  0.00000000000E+00 -0.57705213958E+03  0.57705213958E+03  0.25500000920E-02 0. -1.
    10030    2    1    2    0    0  0.00000000000E+00  0.00000000000E+00 -0.22708579914E+03  0.92701848003E+03  0.89877433327E+03 0.  0.
        3    1    3    3  502    0 -0.43956567087E+03  0.75456993457E+02 -0.17038442662E+03  0.47743334603E+03  0.10100000352E+00 0.  1.
       -3    1    3    3    0  502  0.43956567087E+03 -0.75456993457E+02 -0.56701372520E+02  0.44958513400E+03  0.10100000352E+00 0. -1.
</event>
<event>
 5   0  0.3943549E-03  0.8974708E+03  0.7818609E-02  0.9428749E-01
       -1   -1    0    0    0  501  0.00000000000E+00  0.00000000000E+00  0.30198105756E+03  0.30198105760E+03  0.50400001928E-02 0.  1.
        1   -1    0    0  501    0  0.00000000000E+00  0.00000000000E+00 -0.66680822342E+03  0.66680822344E+03  0.50400001928E-02 0. -1.
    10030    2    1    2    0    0  0.00000000000E+00  0.00000000000E+00 -0.36482716586E+03  0.96878928104E+03  0.89747078510E+03 0.  0.
        3    1    3    3  502    0  0.21359708574E+03  0.60035236667E+02 -0.60345448222E+03  0.64295043899E+03  0.10100000352E+00 0. -1.
       -3    1    3    3    0  502 -0.21359708574E+03 -0.60035236667E+02  0.23862731636E+03  0.32583884206E+03  0.10100000352E+00 0.  1.
</event>
<event>
 5   0  0.3998066E-03  0.8998207E+03  0.7818609E-02  0.9425806E-01
        1   -1    0    0  501    0  0.00000000000E+00  0.00000000000E+00  0.38488181228E+03  0.38488181231E+03  0.50400001928E-02 0. -1.
       -1   -1    0    0    0  501  0.00000000000E+00  0.00000000000E+00 -0.52592597276E+03  0.52592597279E+03  0.50400001928E-02 0.  1.
    10030    2    1    2    0    0  0.00000000000E+00  0.00000000000E+00 -0.14104416049E+03  0.91080778510E+03  0.89982074114E+03 0.  0.
        4    1    3    3  502    0  0.82556398861E+02 -0.40201001513E+03  0.11609314216E+03  0.42650538310E+03  0.12699999809E+01 0. -1.
       -4    1    3    3    0  502 -0.82556398861E+02  0.40201001513E+03 -0.25713730265E+03  0.48430240199E+03  0.12699999809E+01 0.  1.
</event>
<event>
 5   0  0.6524705E-03  0.8449238E+03  0.7818609E-02  0.9497176E-01
       -2   -1    0    0    0  501  0.00000000000E+00  0.00000000000E+00  0.10683303342E+03  0.10683303345E+03  0.25500000920E-02 0. -1.
        2   -1    0    0  501    0  0.00000000000E+00  0.00000000000E+00 -0.16705886160E+04  0.16705886160E+04  0.25500000920E-02 0.  1.
    10030    2    1    2    0    0  0.00000000000E+00  0.00000000000E+00 -0.15637555826E+04  0.17774216494E+04  0.84492378230E+03 0.  0.
        3    1    3    3  502    0 -0.83845418695E+02 -0.13873492854E+03 -0.16025607455E+04  0.16107384604E+04  0.10100000352E+00 0.  1.
       -3    1    3    3    0  502  0.83845418695E+02  0.13873492854E+03  0.38805162935E+02  0.16668318903E+03  0.10100000352E+00 0. -1.
</event>
<event>
 5   0  0.6609191E-03  0.9023854E+03  0.7818609E-02  0.9422604E-01
       -2   -1    0    0    0  501  0.00000000000E+00  0.00000000000E+00  0.27154966113E+03  0.27154966115E+03  0.25500000920E-02 0.  1.
        2   -1    0    0  501    0  0.00000000000E+00  0.00000000000E+00 -0.74967824145E+03  0.74967824145E+03  0.25500000920E-02 0. -1.
    10030    2    1    2    0    0  0.00000000000E+00  0.00000000000E+00 -0.47812858031E+03  0.10212279026E+04  0.90238544410E+03 0.  0.
        2    1    3    3  502    0  0.20228950903E+03 -0.24334254362E+03  0.12491036097E+03  0.34020469909E+03  0.25500000920E-02 0.  1.
       -2    1    3    3    0  502 -0.20228950903E+03  0.24334254362E+03 -0.60303894128E+03  0.68102320350E+03  0.25500000920E-02 0. -1.
</event>
<event>
 5   0  0.3969536E-03  0.9001757E+03  0.7818609E-02  0.9425362E-01
        1   -1    0    0  501    0  0.00000000000E+00  0.00000000000E+00  0.67710657923E+03  0.67710657925E+03  0.50400001928E-02 0.  1.
       -1   -1    0    0    0  501  0.00000000000E+00  0.00000000000E+00 -0.29918340375E+03  0.29918340379E+03  0.50400001928E-02 0. -1.
    10030    2    1    2    0    0  0.00000000000E+00  0.00000000000E+00  0.37792317548E+03  0.97628998304E+03  0.90017565198E+03 0.  0.
        1    1    3    3  502    0 -0.44650432232E+03  0.51160850589E+02  0.16249514412E+03  0.47789979533E+03  0.50400001928E-02 0. -1.
       -1    1    3    3    0  502  0.44650432232E+03 -0.51160850589E+02  0.21542803136E+03  0.49839018771E+03  0.50400001928E-02 0.  1.
</event>
<event>
 5   0  0.6863405E-03  0.9286152E+03  0.7818609E-02  0.9390501E-01
        2   -1    0    0  501    0  0.00000000000E+00  0.00000000000E+00  0.63832179566E+03  0.63832179566E+03  0.25500000920E-02 0.  1.
       -2   -1    0    0    0  501  0.00000000000E+00  0.00000000000E+00 -0.33773176122E+03  0.33773176123E+03  0.25500000920E-02 0. -1.
    10030    2    1    2    0    0  0.00000000000E+00  0.00000000000E+00  0.30059003443E+03  0.97605355690E+03  0.92861519325E+03 0.  0.
        1    1    3    3  502    0  0.95628588507E+02  0.25270583453E+03  0.54717738537E+03  0.61025253529E+03  0.50400001928E-02 0.  1.
       -1    1    3    3    0  502 -0.95628588507E+02 -0.25270583453E+03 -0.24658735094E+03  0.36580102161E+03  0.50400001928E-02 0. -1.
</event>
<event>
 5   0  0.3927993E-03  0.8976304E+03  0.7818609E-02  0.9428548E-01
        1   -1    0    0  501    0  0.00000000000E+00  0.00000000000E+00  0.59357232948E+03  0.59357232950E+03  0.50400001928E-02 0. -1.
       -1   -1    0    0    0  501  0.00000000000E+00  0.00000000000E+00 -0.33936060722E+03  0.33936060725E+03  0.50400001928E-02 0.  1.
    10030    2    1    2    0    0  0.00000000000E+00  0.00000000000E+00  0.25421172227E+03  0.93293293676E+03  0.89763036087E+03 0.  0.
        2    1    3    3  502    0 -0.44380347023E+03  0.12403115146E+02  0.19541520664E+03  0.48507984956E+03  0.25500000920E-02 0. -1.
       -2    1    3    3    0  502  0.44380347023E+03 -0.12403115146E+02  0.58796515621E+02  0.44785308720E+03  0.25500000920E-02 0.  1.
</event>
<event>
 5   0  0.6724773E-03  0.8977451E+03  0.7818609E-02  0.9428405E-01
        2   -1    0    0  501    0  0.00000000000E+00  0.00000000000E+00  0.88420892053E+03  0.88420892053E+03  0.25500000920E-02 0.  1.
       -2   -1    0    0    0  501  0.00000000000E+00  0.00000000000E+00 -0.22787214602E+03  0.22787214604E+03  0.25500000920E-02 0. -1.
    10030    2    1    2    0    0  0.00000000000E+00  0.00000000000E+00  0.65633677450E+03  0.11120810666E+04  0.89774514037E+03 0.  0.
        5    1    3    3  502    0  0.16162594993E+03  0.34540865773E+03  0.62139998665E+03  0.72910227124E+03  0.46999998093E+01 0.  1.
       -5    1    3    3    0  502 -0.16162594993E+03 -0.34540865773E+03  0.34936787856E+02  0.38297879533E+03  0.46999998093E+01 0. -1.
</event>
<event>
 5   0  0.3927993E-03  0.9214617E+03  0.7818609E-02  0.9399144E-01
       -1   -1    0    0    0  501  0.00000000000E+00  0.00000000000E+00  0.11353436982E+04  0.11353436982E+04  0.50400001928E-02 0. -1.
        1   -1    0    0  501    0  0.00000000000E+00  0.00000000000E+00 -0.18696799204E+03  0.18696799211E+03  0.50400001928E-02 0.  1.
    10030    2    1    2    0    0  0.00000000000E+00  0.00000000000E+00  0.94837570615E+03  0.13223116903E+04  0.92146173351E+03 0.  0.
        2    1    3    3  502    0 -0.41086348135E+03 -0.27656797519E+02  0.17765926548E+03  0.44848245604E+03  0.25500000920E-02 0.  1.
       -2    1    3    3    0  502  0.41086348135E+03  0.27656797519E+02  0.77071644067E+03  0.87382923428E+03  0.25500000920E-02 0. -1.
</event>
<event>
 5   0  0.3943549E-03  0.8078495E+03  0.7818609E-02  0.9548724E-01
        1   -1    0    0  501    0  0.00000000000E+00  0.00000000000E+00  0.24592040992E+03  0.24592040997E+03  0.50400001928E-02 0.  1.
       -1   -1    0    0    0  501  0.00000000000E+00  0.00000000000E+00 -0.66344717256E+03  0.66344717258E+03  0.50400001928E-02 0. -1.
    10030    2    1    2    0    0  0.00000000000E+00  0.00000000000E+00 -0.41752676264E+03  0.90936758255E+03  0.80784949259E+03 0.  0.
        3    1    3    3  502    0  0.37335937709E+03  0.17151587275E+02 -0.38119149796E+03  0.53385238570E+03  0.10100000352E+00 0. -1.
       -3    1    3    3    0  502 -0.37335937709E+03 -0.17151587275E+02 -0.36335264684E+02  0.37551519685E+03  0.10100000352E+00 0.  1.
</event>
<event>
 5   0  0.3794006E-03  0.8950621E+03  0.7818609E-02  0.9431775E-01
        1   -1    0    0  501    0  0.00000000000E+00  0.00000000000E+00  0.66047443763E+03  0.66047443764E+03  0.50400001928E-02 0. -1.
       -1   -1    0    0    0  501  0.00000000000E+00  0.00000000000E+00 -0.30324265681E+03  0.30324265685E+03  0.50400001928E-02 0.  1.
    10030    2    1    2    0    0  0.00000000000E+00  0.00000000000E+00  0.35723178082E+03  0.96371709449E+03  0.89506206097E+03 0.  0.
        5    1    3    3  502    0  0.17342929128E+03 -0.26631073280E+03  0.51784232778E+03  0.60760340019E+03  0.46999998093E+01 0. -1.
       -5    1    3    3    0  502 -0.17342929128E+03  0.26631073280E+03 -0.16061054696E+03  0.35611369431E+03  0.46999998093E+01 0.  1.
</event>
<event>
 5   0  0.6863405E-03  0.8988982E+03  0.7818609E-02  0.9426960E-01
       -2   -1    0    0    0  501  0.00000000000E+00  0.00000000000E+00  0.18551896672E+03  0.18551896673E+03  0.25500000920E-02 0. -1.
        2   -1    0    0  501    0  0.00000000000E+00  0.00000000000E+00 -0.10888617795E+04  0.10888617795E+04  0.25500000920E-02 0.  1.
    10030    2    1    2    0    0  0.00000000000E+00  0.00000000000E+00 -0.90334281275E+03  0.12743807462E+04  0.89889824171E+03 0.  0.
        1    1    3    3  502    0  0.53532670538E+02 -0.20074966579E+03 -0.10166946790E+04  0.10377062424E+04  0.50400001928E-02 0.  1.
       -1    1    3    3    0  502 -0.53532670538E+02  0.20074966579E+03  0.11335186629E+03  0.23667450379E+03  0.50400001928E-02 0. -1.
</event>
<event>
 5   0  0.3943549E-03  0.9038346E+03  0.7818609E-02  0.9420801E-01
        1   -1    0    0  501    0  0.00000000000E+00  0.00000000000E+00  0.51348578927E+03  0.51348578930E+03  0.50400001928E-02 0. -1.
       -1   -1    0    0    0  501  0.00000000000E+00  0.00000000000E+00 -0.39773102813E+03  0.39773102816E+03  0.50400001928E-02 0.  1.
    10030    2    1    2    0    0  0.00000000000E+00  0.00000000000E+00  0.11575476114E+03  0.91121681746E+03  0.90383456655E+03 0.  0.
        3    1    3    3  502    0  0.45161956142E+03 -0.14531233173E+02  0.65544476164E+02  0.45658238419E+03  0.10100000352E+00 0.  1.
       -3    1    3    3    0  502 -0.45161956142E+03  0.14531233173E+02  0.50210284976E+02  0.45463443327E+03  0.10100000352E+00 0. -1.
</event>
<event>
 5   0  0.6609191E-03  0.8928712E+03  0.7818609E-02  0.9434537E-01
        2   -1    0    0  501    0  0.00000000000E+00  0.00000000000E+00  0.46990441885E+03  0.46990441886E+03  0.25500000920E-02 0. -1.
       -2   -1    0    0    0  501  0.00000000000E+00  0.00000000000E+00 -0.42413891617E+03  0.42413891617E+03  0.25500000920E-02 0.  1.
    10030    2    1    2    0    0  0.00000000000E+00  0.00000000000E+00  0.45765502684E+02  0.89404333503E+03  0.89287121337E+03 0.  0.
        2    1    3    3  502    0 -0.19810660513E+03  0.13706326533E+03 -0.35347258656E+03  0.42775628009E+03  0.25500000920E-02 0.  1.
       -2    1    3    3    0  502  0.19810660513E+03 -0.13706326533E+03  0.39923808924E+03  0.46628705494E+03  0.25500000920E-02 0. -1.
</event>
<event>
 5   0  0.3998066E-03  0.8990401E+03  0.7818609E-02  0.9426782E-01
       -1   -1    0    0    0  501  0.00000000000E+00  0.00000000000E+00  0.42375996279E+03  0.42375996282E+03  0.50400001928E-02 0.  1.
        1   -1    0    0  501    0  0.00000000000E+00  0.00000000000E+00 -0.47684609242E+03  0.47684609245E+03  0.50400001928E-02 0. -1.
    10030    2    1    2    0    0  0.00000000000E+00  0.00000000000E+00 -0.53086129631E+02  0.90060605527E+03  0.89904011569E+03 0.  0.
        4    1    3    3  502    0 -0.15095467993E+03 -0.42248197008E+03 -0.54669346182E+02  0.45196092834E+03  0.12699999809E+01 0. -1.
       -4    1    3    3    0  502  0.15095467993E+03  0.42248197008E+03  0.15832165509E+01  0.44864512692E+03  0.12699999809E+01 0.  1.
</event>
<event>
 5   0  0.3794006E-03  0.8970824E+03  0.7818609E-02  0.9429236E-01
        1   -1    0    0  501    0  0.00000000000E+00  0.00000000000E+00  0.87893548744E+03  0.87893548745E+03  0.50400001928E-02 0. -1.
       -1   -1    0    0    0  501  0.00000000000E+00  0.00000000000E+00 -0.22890097381E+03  0.22890097386E+03  0.50400001928E-02 0.  1.
    10030    2    1    2    0    0  0.00000000000E+00  0.00000000000E+00  0.65003451363E+03  0.11078364613E+04  0.89708235748E+03 0.  0.
        5    1    3    3  502    0  0.41090596280E+03  0.11835665326E+03  0.15788976942E+03  0.45585444708E+03  0.46999998093E+01 0.  1.
       -5    1    3    3    0  502 -0.41090596280E+03 -0.11835665326E+03  0.49214474422E+03  0.65198201424E+03  0.46999998093E+01 0. -1.
</event>
<event>
 5   0  0.6724773E-03  0.8931769E+03  0.7818609E-02  0.9434151E-01
       -2   -1    0    0    0  501  0.00000000000E+00  0.00000000000E+00  0.50074745265E+03  0.50074745266E+03  0.25500000920E-02 0. -1.
        2   -1    0    0  501    0  0.00000000000E+00  0.00000000000E+00 -0.39828710563E+03  0.39828710564E+03  0.25500000920E-02 0.  1.
    10030    2    1    2    0    0  0.00000000000E+00  0.00000000000E+00  0.10246034702E+03  0.89903455829E+03  0.89317692217E+03 0.  0.
        5    1    3    3  502    0 -0.19492049522E+03 -0.80794063806E+02 -0.34492111576E+03  0.40436907189E+03  0.46999998093E+01 0.  1.
       -5    1    3    3    0  502  0.19492049522E+03  0.80794063806E+02  0.44738146278E+03  0.49466548641E+03  0.46999998093E+01 0. -1.
</event>
<event>
 5   0  0.3794006E-03  0.9072715E+03  0.7818609E-02  0.9416537E-01
       -1   -1    0    0    0  501  0.00000000000E+00  0.00000000000E+00  0.32058933568E+03  0.32058933572E+03  0.50400001928E-02 0. -1.
        1   -1    0    0  501    0  0.00000000000E+00  0.00000000000E+00 -0.64189718539E+03  0.64189718541E+03  0.50400001928E-02 0.  1.
    10030    2    1    2    0    0  0.00000000000E+00  0.00000000000E+00 -0.32130784971E+03  0.96248652112E+03  0.90727149688E+03 0.  0.
        5    1    3    3  502    0  0.12858565166E+03  0.84166694126E+02  0.29210395357E+03  0.33009863966E+03  0.46999998093E+01 0. -1.
       -5    1    3    3    0  502 -0.12858565166E+03 -0.84166694126E+02 -0.61341180329E+03  0.63238788146E+03  0.46999998093E+01 0.  1.
</event>
<event>
 5   0  0.3927993E-03  0.8850089E+03  0.7818609E-02  0.9444518E-01
        1   -1    0    0  501    0  0.00000000000E+00  0.00000000000E+00  0.35779072599E+03  0.35779072603E+03  0.50400001928E-02 0. -1.
       -1   -1    0    0    0  501  0.00000000000E+00  0.00000000000E+00 -0.54727572106E+03  0.54727572108E+03  0.50400001928E-02 0.  1.
    10030    2    1    2    0    0  0.00000000000E+00  0.00000000000E+00 -0.18948499507E+03  0.90506644711E+03  0.88500887584E+03 0.  0.
        2    1    3    3  502    0 -0.19074401431E+03 -0.39878795746E+03 -0.11506917179E+03  0.45678882245E+03  0.25500000920E-02 0.  1.
       -2    1    3    3    0  502  0.19074401431E+03  0.39878795746E+03 -0.74415823281E+02  0.44827762466E+03  0.25500000920E-02 0. -1.
</event>
<event>
 5   0  0.6863405E-03  0.8992603E+03  0.7818609E-02  0.9426507E-01
        2   -1    0    0  501    0  0.00000000000E+00  0.00000000000E+00  0.13919825809E+04  0.13919825809E+04  0.25500000920E-02 0.  1.
       -2   -1    0    0    0  501  0.00000000000E+00  0.00000000000E+00 -0.14523693271E+03  0.14523693273E+03  0.25500000920E-02 0. -1.
    10030    2    1    2    0    0  0.00000000000E+00  0.00000000000E+00  0.12467456481E+04  0.15372195136E+04  0.89926031925E+03 0.  0.
        1    1    3    3  502    0  0.18892435864E+03  0.31477183708E+02 -0.72017325542E+02  0.20462092167E+03  0.50400001928E-02 0. -1.
       -1    1    3    3    0  502 -0.18892435864E+03 -0.31477183708E+02  0.13187629737E+04  0.13325985919E+04  0.50400001928E-02 0.  1.
</event>
<event>
 5   0  0.3998066E-03  0.8916031E+03  0.7818609E-02  0.9436139E-01
        1   -1    0    0  501    0  0.00000000000E+00  0.00000000000E+00  0.57533023443E+03  0.57533023445E+03  0.50400001928E-02 0.  1.
       -1   -1    0    0    0  501  0.00000000000E+00  0.00000000000E+00 -0.34543472988E+03  0.34543472992E+03  0.50400001928E-02 0. -1.
    10030    2    1    2    0    0  0.00000000000E+00  0.00000000000E+00  0.22989550455E+03  0.92076496436E+03  0.89160314972E+03 0.  0.
        4    1    3    3  502    0  0.36049905237E+03  0.16069600181E+02  0.38527181387E+03  0.52787667336E+03  0.12699999809E+01 0.  1.
       -4    1    3    3    0  502 -0.36049905237E+03 -0.16069600181E+02 -0.15537630933E+03  0.39288829101E+03  0.12699999809E+01 0. -1.
</event>
<event>
 5   0  0.6863405E-03  0.8959164E+03  0.7818609E-02  0.9430701E-01
       -2   -1    0    0    0  501  0.00000000000E+00  0.00000000000E+00  0.44776539923E+03  0.44776539923E+03  0.25500000920E-02 0. -1.
        2   -1    0    0  501    0  0.00000000000E+00  0.00000000000E+00 -0.44815107996E+03  0.44815107997E+03  0.25500000920E-02 0.  1.
    10030    2    1    2    0    0  0.00000000000E+00  0.00000000000E+00 -0.38568073583E+00  0.89591647920E+03  0.89591639619E+03 0.  0.
        1    1    3    3  502    0 -0.17080107788E+02 -0.40830737935E+03 -0.18365920606E+03  0.44803721956E+03  0.50400001928E-02 0.  1.
       -1    1    3    3    0  502  0.17080107788E+02  0.40830737935E+03  0.18327352533E+03  0.44787925965E+03  0.50400001928E-02 0. -1.
</event>
<event>
 5   0  0.6863405E-03  0.9473998E+03  0.7818609E-02  0.9368195E-01
       -2   -1    0    0    0  501  0.00000000000E+00  0.00000000000E+00  0.36011531039E+03  0.36011531040E+03  0.25500000920E-02 0.  1.
        2   -1    0    0  501    0  0.00000000000E+00  0.00000000000E+00 -0.62311038771E+03  0.62311038771E+03  0.25500000920E-02 0. -1.
    10030    2    1    2    0    0  0.00000000000E+00  0.00000000000E+00 -0.26299507731E+03  0.98322569811E+03  0.94739979034E+03 0.  0.
        1    1    3    3  502    0  0.62439476387E+02  0.45116094968E+03  0.36046879084E+01  0.45547544888E+03  0.50400001928E-02 0.  1.
       -1    1    3    3    0  502 -0.62439476387E+02 -0.45116094968E+03 -0.26659976522E+03  0.52775024924E+03  0.50400001928E-02 0. -1.
</event>
<event>
 5   0  0.3998066E-03  0.9000164E+03  0.7818609E-02  0.9425561E-01
       -1   -1    0    0    0  501  0.00000000000E+00  0.00000000000E+00  0.11078230994E+03  0.11078231005E+03  0.50400001928E-02 0.  1.
        1   -1    0    0  501    0  0.00000000000E+00  0.00000000000E+00 -0.18279758900E+04  0.18279758900E+04  0.50400001928E-02 0. -1.
    10030    2    1    2    0    0  0.00000000000E+00  0.00000000000E+00 -0.17171935801E+04  0.19387582001E+04  0.90001642590E+03 0.  0.
        4    1    3    3  502    0  0.87419547904E+02 -0.14695389688E+03 -0.17552666786E+04  0.17635760123E+04  0.12699999809E+01 0. -1.
       -4    1    3    3    0  502 -0.87419547904E+02  0.14695389688E+03  0.38073098587E+02  0.17518218774E+03  0.12699999809E+01 0.  1.
</event>
<event>
 5   0  0.3943549E-03  0.9026496E+03  0.7818609E-02  0.9422275E-01
       -1   -1    0    0    0  501  0.00000000000E+00  0.00000000000E+00  0.28925833929E+03  0.28925833933E+03  0.50400001928E-02 0.  1.
        1   -1    0    0  501    0  0.00000000000E+00  0.00000000000E+00 -0.70419431814E+03  0.70419431816E+03  0.50400001928E-02 0. -1.
    10030    2    1    2    0    0  0.00000000000E+00  0.00000000000E+00 -0.41493597885E+03  0.99345265749E+03  0.90264960872E+03 0.  0.
        3    1    3    3  502    0  0.30530421928E+03 -0.32587953559E+03 -0.13541524041E+03  0.46663201301E+03  0.10100000352E+00 0.  1.
       -3    1    3    3    0  502 -0.30530421928E+03  0.32587953559E+03 -0.27952073845E+03  0.52682064448E+03  0.10100000352E+00 0. -1.
</event>
<event>
 5   0  0.6534628E-03  0.9042547E+03  0.7818609E-02  0.9420278E-01
       -2   -1    0    0    0  501  0.00000000000E+00  0.00000000000E+00  0.40378635113E+03  0.40378635114E+03  0.25500000920E-02 0.  1.
        2   -1    0    0  501    0  0.00000000000E+00  0.00000000000E+00 -0.50625564400E+03  0.50625564400E+03  0.25500000920E-02 0. -1.
    10030    2    1    2    0    0  0.00000000000E+00  0.00000000000E+00 -0.10246929286E+03  0.91004199514E+03  0.90425465271E+03 0.  0.
        4    1    3    3  502    0  0.12431594411E+03 -0.40089699701E+03  0.11790241536E+03  0.43597643126E+03  0.12699999809E+01 0.  1.
       -4    1    3    3    0  502 -0.12431594411E+03  0.40089699701E+03 -0.22037170823E+03  0.47406556388E+03  0.12699999809E+01 0. -1.
</event>
<event>
 5   0  0.3998066E-03  0.9054878E+03  0.7818609E-02  0.9418747E-01
        1   -1    0    0  501    0  0.00000000000E+00  0.00000000000E+00  0.82463143856E+03  0.82463143857E+03  0.50400001928E-02 0. -1.
       -1   -1    0    0    0  501  0.00000000000E+00  0.00000000000E+00 -0.24856805507E+03  0.24856805512E+03  0.50400001928E-02 0.  1.
    10030    2    1    2    0    0  0.00000000000E+00  0.00000000000E+00  0.57606338348E+03  0.10731994937E+04  0.90548778648E+03 0.  0.
        4    1    3    3  502    0  0.77609807627E+02  0.44075695576E+03  0.36916015006E+03  0.58014722750E+03  0.12699999809E+01 0.  1.
       -4    1    3    3    0  502 -0.77609807627E+02 -0.44075695576E+03  0.20690323343E+03  0.49305226619E+03  0.12699999809E+01 0. -1.
</event>
<event>
 5   0  0.3969536E-03  0.9064803E+03  0.7818609E-02  0.9417517E-01
       -1   -1    0    0    0  501  0.00000000000E+00  0.00000000000E+00  0.19177725896E+03  0.19177725903E+03  0.50400001928E-02 0.  1.
        1   -1    0    0  501    0  0.00000000000E+00  0.00000000000E+00 -0.10711729474E+04  0.10711729474E+04  0.50400001928E-02 0. -1.
    10030    2    1    2    0    0  0.00000000000E+00  0.00000000000E+00 -0.87939568843E+03  0.12629502064E+04  0.90648025191E+03 0.  0.
        1    1    3    3  502    0 -0.18044295024E+03  0.40958989507E+03 -0.34017020564E+03  0.56217373583E+03  0.50400001928E-02 0.  1.
       -1    1    3    3    0  502  0.18044295024E+03 -0.40958989507E+03 -0.53922548279E+03  0.70077647060E+03  0.50400001928E-02 0. -1.
</event>
<event>
 5   0  0.3794006E-03  0.9024258E+03  0.7818609E-02  0.9422554E-01
       -1   -1    0    0    0  501  0.00000000000E+00  0.00000000000E+00  0.25059416623E+03  0.25059416628E+03  0.50400001928E-02 0. -1.
        1   -1    0    0  501    0  0.00000000000E+00  0.00000000000E+00 -0.81244146649E+03  0.81244146650E+03  0.50400001928E-02 0.  1.
    10030    2    1    2    0    0  0.00000000000E+00  0.00000000000E+00 -0.56184730026E+03  0.10630356328E+04  0.90242582397E+03 0.  0.
        5    1    3    3  502    0 -0.12251602365E+03  0.36530623392E+03 -0.43822814190E+01  0.38535712655E+03  0.46999998093E+01 0. -1.
       -5    1    3    3    0  502  0.12251602365E+03 -0.36530623392E+03 -0.55746501884E+03  0.67767850624E+03  0.46999998093E+01 0.  1.
</event>
<event>
 5   0  0.6534628E-03  0.8962648E+03  0.7818609E-02  0.9430263E-01
        2   -1    0    0  501    0  0.00000000000E+00  0.00000000000E+00  0.22512446158E+03  0.22512446159E+03  0.25500000920E-02 0.  1.
       -2   -1    0    0    0  501  0.00000000000E+00  0.00000000000E+00 -0.89205158592E+03  0.89205158592E+03  0.25500000920E-02 0. -1.
    10030    2    1    2    0    0  0.00000000000E+00  0.00000000000E+00 -0.66692712434E+03  0.11171760475E+04  0.89626476666E+03 0.  0.
        4    1    3    3  502    0  0.35940356444E+03 -0.21271428838E+03 -0.53600304872E+03  0.67949920658E+03  0.12699999809E+01 0. -1.
       -4    1    3    3    0  502 -0.35940356444E+03  0.21271428838E+03 -0.13092407563E+03  0.43767684093E+03  0.12699999809E+01 0.  1.
</event>
<event>
 5   0  0.6609191E-03  0.8949162E+03  0.7818609E-02  0.9431959E-01
        2   -1    0    0  501    0  0.00000000000E+00  0.00000000000E+00  0.14857407849E+04  0.14857407849E+04  0.25500000920E-02 0.  1.
       -2   -1    0    0    0  501  0.00000000000E+00  0.00000000000E+00 -0.13476021435E+03  0.13476021437E+03  0.25500000920E-02 0. -1.
    10030    2    1    2    0    0  0.00000000000E+00  0.00000000000E+00  0.13509805705E+04  0.16205009992E+04  0.89491618972E+03 0.  0.
        2    1    3    3  502    0  0.15182089845E+03  0.46007742988E+02  0.14331095926E+04  0.14418631704E+04  0.25500000920E-02 0.  1.
       -2    1    3    3    0  502 -0.15182089845E+03 -0.46007742988E+02 -0.82129022112E+02  0.17863782886E+03  0.25500000920E-02 0. -1.
</event>
<event>
 5   0  0.3794006E-03  0.9215382E+03  0.7818609E-02  0.9399051E-01
        1   -1    0    0  501    0  0.00000000000E+00  0.00000000000E+00  0.36535286113E+03  0.36535286116E+03  0.50400001928E-02 0.  1.
       -1   -1    0    0    0  501  0.00000000000E+00  0.00000000000E+00 -0.58110448041E+03  0.58110448043E+03  0.50400001928E-02 0. -1.
    10030    2    1    2    0    0  0.00000000000E+00  0.00000000000E+00 -0.21575161928E+03  0.94645734160E+03  0.92153824567E+03 0.  0.
        5    1    3    3  502    0  0.14260515127E+03  0.45223236484E+02  0.33968862131E+03  0.37120320545E+03  0.46999998093E+01 0.  1.
       -5    1    3    3    0  502 -0.14260515127E+03 -0.45223236484E+02 -0.55544024059E+03  0.57525413615E+03  0.46999998093E+01 0. -1.
</event>
<event>
 5   0  0.3969536E-03  0.9030066E+03  0.7818609E-02  0.9421831E-01
        1   -1    0    0  501    0  0.00000000000E+00  0.00000000000E+00  0.73564854589E+03  0.73564854591E+03  0.50400001928E-02 0.  1.
       -1   -1    0    0    0  501  0.00000000000E+00  0.00000000000E+00 -0.27710952907E+03  0.27710952912E+03  0.50400001928E-02 0. -1.
    10030    2    1    2    0    0  0.00000000000E+00  0.00000000000E+00  0.45853901682E+03  0.10127580750E+04  0.90300658280E+03 0.  0.
        1    1    3    3  502    0  0.43164994235E+03  0.11263360324E+01  0.80766925746E+02  0.43914261656E+03  0.50400001928E-02 0. -1.
       -1    1    3    3    0  502 -0.43164994235E+03 -0.11263360324E+01  0.37777209107E+03  0.57361545846E+03  0.50400001928E-02 0.  1.
</event>
<event>
 5   0  0.6524705E-03  0.8995022E+03  0.7818609E-02  0.9426204E-01
       -2   -1    0    0    0  501  0.00000000000E+00  0.00000000000E+00  0.30005864859E+03  0.30005864860E+03  0.25500000920E-02 0.  1.
        2   -1    0    0  501    0  0.00000000000E+00  0.00000000000E+00 -0.67412170951E+03  0.67412170951E+03  0.25500000920E-02 0. -1.
    10030    2    1    2    0    0  0.00000000000E+00  0.00000000000E+00 -0.37406306092E+03  0.97418035811E+03  0.89950219376E+03 0.  0.
        3    1    3    3  502    0  0.26943330494E+03 -0.22229587327E+03  0.11980262665E+03  0.36927285391E+03  0.10100000352E+00 0.  1.
       -3    1    3    3    0  502 -0.26943330494E+03  0.22229587327E+03 -0.49386568757E+03  0.60490750420E+03  0.10100000352E+00 0. -1.
</event>
<event>
 5   0  0.6534628E-03  0.9053360E+03  0.7818609E-02  0.9418936E-01
        2   -1    0    0  501    0  0.00000000000E+00  0.00000000000E+00  0.10437370527E+04  0.10437370527E+04  0.25500000920E-02 0.  1.
       -2   -1    0    0    0  501  0.00000000000E+00  0.00000000000E+00 -0.19632176630E+03  0.19632176632E+03  0.25500000920E-02 0. -1.
    10030    2    1    2    0    0  0.00000000000E+00  0.00000000000E+00  0.84741528640E+03  0.12400588190E+04  0.90533596361E+03 0.  0.
        4    1    3    3  502    0  0.22123838564E+02 -0.24199017180E+03  0.94682317162E+03  0.97750930364E+03  0.12699999809E+01 0.  1.
       -4    1    3    3    0  502 -0.22123838564E+02  0.24199017180E+03 -0.99407885223E+02  0.26254951538E+03  0.12699999809E+01 0. -1.
</event>
<event>
 5   0  0.6534628E-03  0.9017540E+03  0.7818609E-02  0.9423391E-01
        2   -1    0    0  501    0  0.00000000000E+00  0.00000000000E+00  0.13369913919E+04  0.13369913919E+04  0.25500000920E-02 0.  1.
       -2   -1    0    0    0  501  0.00000000000E+00  0.00000000000E+00 -0.15205040953E+03  0.15205040956E+03  0.25500000920E-02 0. -1.
    10030    2    1    2    0    0  0.00000000000E+00  0.00000000000E+00  0.11849409824E+04  0.14890418015E+04  0.90175404341E+03 0.  0.
        4    1    3    3  502    0 -0.58605637717E+02  0.14895610058E+03  0.12884891375E+04  0.12983945513E+04  0.12699999809E+01 0.  1.
       -4    1    3    3    0  502  0.58605637717E+02 -0.14895610058E+03 -0.10354815507E+03  0.19064725015E+03  0.12699999809E+01 0. -1.
</event>
<event>
 5   0  0.3943549E-03  0.8986579E+03  0.7818609E-02  0.9427261E-01
       -1   -1    0    0    0  501  0.00000000000E+00  0.00000000000E+00  0.19459470833E+03  0.19459470839E+03  0.50400001928E-02 0.  1.
        1   -1    0    0  501    0  0.00000000000E+00  0.00000000000E+00 -0.10375230710E+04  0.10375230710E+04  0.50400001928E-02 0. -1.
    10030    2    1    2    0    0  0.00000000000E+00  0.00000000000E+00 -0.84292836269E+03  0.12321177794E+04  0.89865788694E+03 0.  0.
        3    1    3    3  502    0 -0.25942302530E+03  0.29367564301E+02 -0.92285723411E+03  0.95907676681E+03  0.10100000352E+00 0. -1.
       -3    1    3    3    0  502  0.25942302530E+03 -0.29367564301E+02  0.79928871414E+02  0.27304101262E+03  0.10100000352E+00 0.  1.
</event>
<event>
 5   0  0.3943549E-03  0.8728428E+03  0.7818609E-02  0.9460181E-01
        1   -1    0    0  501    0  0.00000000000E+00  0.00000000000E+00  0.19142597299E+04  0.19142597299E+04  0.50400001928E-02 0. -1.
       -1   -1    0    0    0  501  0.00000000000E+00  0.00000000000E+00 -0.99497283731E+02  0.99497283859E+02  0.50400001928E-02 0.  1.
    10030    2    1    2    0    0  0.00000000000E+00  0.00000000000E+00  0.18147624462E+04  0.20137570138E+04  0.87284281200E+03 0.  0.
        3    1    3    3  502    0 -0.51007282277E+02  0.22005467339E+03  0.17688932328E+04  0.17832579963E+04  0.10100000352E+00 0. -1.
       -3    1    3    3    0  502  0.51007282277E+02 -0.22005467339E+03  0.45869213395E+02  0.23049901749E+03  0.10100000352E+00 0.  1.
</event>
<event>
 5   0  0.3969536E-03  0.8982246E+03  0.7818609E-02  0.9427803E-01
        1   -1    0    0  501    0  0.00000000000E+00  0.00000000000E+00  0.18377650281E+04  0.18377650281E+04  0.50400001928E-02 0. -1.
       -1   -1    0    0    0  501  0.00000000000E+00  0.00000000000E+00 -0.10975389120E+03  0.10975389132E+03  0.50400001928E-02 0.  1.
    10030    2    1    2    0    0  0.00000000000E+00  0.00000000000E+00  0.17280111369E+04  0.19475189194E+04  0.89822461125E+03 0.  0.
        1    1    3    3  502    0 -0.31516166308E+03  0.12880459457E+03  0.14990451666E+04  0.15372227910E+04  0.50400001928E-02 0. -1.
       -1    1    3    3    0  502  0.31516166308E+03 -0.12880459457E+03  0.22896597027E+03  0.41029612845E+03  0.50400001928E-02 0.  1.
</event>
<event>
 5   0  0.3927993E-03  0.8990964E+03  0.7818609E-02  0.9426712E-01
        1   -1    0    0  501    0  0.00000000000E+00  0.00000000000E+00  0.40683903500E+03  0.40683903503E+03  0.50400001928E-02 0. -1.
       -1   -1    0    0    0  501  0.00000000000E+00  0.00000000000E+00 -0.49674090994E+03  0.49674090996E+03  0.50400001928E-02 0.  1.
    10030    2    1    2    0    0  0.00000000000E+00  0.00000000000E+00 -0.89901874939E+02  0.90357994500E+03  0.89909641857E+03 0.  0.
        2    1    3    3  502    0  0.24524991926E+03  0.22593807506E+02 -0.42290556566E+03  0.48939464700E+03  0.25500000920E-02 0.  1.
       -2    1    3    3    0  502 -0.24524991926E+03 -0.22593807506E+02  0.33300369072E+03  0.41418529800E+03  0.25500000920E-02 0. -1.
</event>
<event>
 5   0  0.6524705E-03  0.9000190E+03  0.7818609E-02  0.9425558E-01
        2   -1    0    0  501    0  0.00000000000E+00  0.00000000000E+00  0.74352276475E+03  0.74352276475E+03  0.25500000920E-02 0.  1.
       -2   -1    0    0    0  501  0.00000000000E+00  0.00000000000E+00 -0.27236363459E+03  0.27236363460E+03  0.25500000920E-02 0. -1.
    10030    2    1    2    0    0  0.00000000000E+00  0.00000000000E+00  0.47115913016E+03  0.10158863994E+04  0.90001902783E+03 0.  0.
        3    1    3    3  502    0  0.33590012088E+03  0.29946494215E+03  0.23630198222E+03  0.50827825036E+03  0.10100000352E+00 0. -1.
       -3    1    3    3    0  502 -0.33590012088E+03 -0.29946494215E+03  0.23485714794E+03  0.50760814900E+03  0.10100000352E+00 0.  1.
</event>
<event>
 5   0  0.6524705E-03  0.8995569E+03  0.7818609E-02  0.9426135E-01
       -2   -1    0    0    0  501  0.00000000000E+00  0.00000000000E+00  0.15943868496E+03  0.15943868498E+03  0.25500000920E-02 0. -1.
        2   -1    0    0  501    0  0.00000000000E+00  0.00000000000E+00 -0.12688305041E+04  0.12688305041E+04  0.25500000920E-02 0.  1.
    10030    2    1    2    0    0  0.00000000000E+00  0.00000000000E+00 -0.11093918191E+04  0.14282691891E+04  0.89955692878E+03 0.  0.
        3    1    3    3  502    0  0.43350639093E+03  0.49273688659E+02 -0.72822565765E+03  0.84892184919E+03  0.10100000352E+00 0.  1.
       -3    1    3    3    0  502 -0.43350639093E+03 -0.49273688659E+02 -0.38116616146E+03  0.57934733987E+03  0.10100000352E+00 0. -1.
</event>
<event>
 5   0  0.3943549E-03  0.8957735E+03  0.7818609E-02  0.9430880E-01
        1   -1    0    0  501    0  0.00000000000E+00  0.00000000000E+00  0.96335511696E+03  0.96335511697E+03  0.50400001928E-02 0. -1.
       -1   -1    0    0    0  501  0.00000000000E+00  0.00000000000E+00 -0.20823320887E+03  0.20823320893E+03  0.50400001928E-02 0.  1.
    10030    2    1    2    0    0  0.00000000000E+00  0.00000000000E+00  0.75512190808E+03  0.11715883259E+04  0.89577346987E+03 0.  0.
        3    1    3    3  502    0 -0.30167333313E+03  0.32940220307E+03  0.42073982928E+03  0.61362417281E+03  0.10100000352E+00 0.  1.
       -3    1    3    3    0  502  0.30167333313E+03 -0.32940220307E+03  0.33438207880E+03  0.55796415309E+03  0.10100000352E+00 0. -1.
</event>
<event>
 5   0  0.6609191E-03  0.8979117E+03  0.7818609E-02  0.9428196E-01
       -2   -1    0    0    0  501  0.00000000000E+00  0.00000000000E+00  0.29242489077E+03  0.29242489078E+03  0.25500000920E-02 0.  1.
        2   -1    0    0  501    0  0.00000000000E+00  0.00000000000E+00 -0.68927565107E+03  0.68927565107E+03  0.25500000920E-02 0. -1.
    10030    2    1    2    0    0  0.00000000000E+00  0.00000000000E+00 -0.39685076030E+03  0.98170054186E+03  0.89791170386E+03 0.  0.
        2    1    3    3  502    0  0.37787019447E+03  0.14056441475E+03 -0.41438521870E+03  0.57815166526E+03  0.25500000920E-02 0. -1.
       -2    1    3    3    0  502 -0.37787019447E+03 -0.14056441475E+03  0.17534458401E+02  0.40354887660E+03  0.25500000920E-02 0.  1.
</event>
<event>
 5   0  0.6863405E-03  0.8988704E+03  0.7818609E-02  0.9426995E-01
        2   -1    0    0  501    0  0.00000000000E+00  0.00000000000E+00  0.14522856308E+04  0.14522856308E+04  0.25500000920E-02 0.  1.
       -2   -1    0    0    0  501  0.00000000000E+00  0.00000000000E+00 -0.13908558448E+03  0.13908558451E+03  0.25500000920E-02 0. -1.
    10030    2    1    2    0    0  0.00000000000E+00  0.00000000000E+00  0.13132000463E+04  0.15913712153E+04  0.89887039291E+03 0.  0.
        1    1    3    3  502    0  0.57563129181E+02  0.38775881512E+03  0.10457750824E+04  0.11168329935E+04  0.50400001928E-02 0.  1.
       -1    1    3    3    0  502 -0.57563129181E+02 -0.38775881512E+03  0.26742496393E+03  0.47453822175E+03  0.50400001928E-02 0. -1.
</event>
<event>
 5   0  0.6534628E-03  0.9033206E+03  0.7818609E-02  0.9421440E-01
       -2   -1    0    0    0  501  0.00000000000E+00  0.00000000000E+00  0.98032124992E+02  0.98032125025E+02  0.25500000920E-02 0. -1.
        2   -1    0    0  501    0  0.00000000000E+00  0.00000000000E+00 -0.20809200581E+04  0.20809200581E+04  0.25500000920E-02 0.  1.
    10030    2    1    2    0    0  0.00000000000E+00  0.00000000000E+00 -0.19828879332E+04  0.21789521832E+04  0.90332057494E+03 0.  0.
        4    1    3    3  502    0 -0.33296877675E+03 -0.21675911172E+03 -0.15095960179E+04  0.15610043142E+04  0.12699999809E+01 0.  1.
       -4    1    3    3    0  502  0.33296877675E+03  0.21675911172E+03 -0.47329191522E+03  0.61794786893E+03  0.12699999809E+01 0. -1.
</event>
<event>
 5   0  0.3794006E-03  0.8856323E+03  0.7818609E-02  0.9443722E-01
       -1   -1    0    0    0  501  0.00000000000E+00  0.00000000000E+00  0.65747938358E+03  0.65747938360E+03  0.50400001928E-02 0. -1.
        1   -1    0    0  501    0  0.00000000000E+00  0.00000000000E+00 -0.29823921238E+03  0.29823921242E+03  0.50400001928E-02 0.  1.
    10030    2    1    2    0    0  0.00000000000E+00  0.00000000000E+00  0.35924017120E+03  0.95571859602E+03  0.88563227932E+03 0.  0.
        5    1    3    3  502    0 -0.24207603017E+03  0.35239405492E+03  0.30398644725E+03  0.52460673312E+03  0.46999998093E+01 0. -1.
       -5    1    3    3    0  502  0.24207603017E+03 -0.35239405492E+03  0.55253723957E+02  0.43111186290E+03  0.46999998093E+01 0.  1.
</event>
<event>
 5   0  0.6863405E-03  0.8971049E+03  0.7818609E-02  0.9429208E-01
       -2   -1    0    0    0  501  0.00000000000E+00  0.00000000000E+00  0.13285308792E+03  0.13285308794E+03  0.25500000920E-02 0. -1.
        2   -1    0    0  501    0  0.00000000000E+00  0.00000000000E+00 -0.15144495719E+04  0.15144495719E+04  0.25500000920E-02 0.  1.
    10030    2    1    2    0    0  0.00000000000E+00  0.00000000000E+00 -0.13815964840E+04  0.16473026599E+04  0.89710490390E+03 0.  0.
        1    1    3    3  502    0 -0.24717311229E+03  0.35950378996E+03 -0.88217124150E+03  0.98415629947E+03  0.50400001928E-02 0.  1.
       -1    1    3    3    0  502  0.24717311229E+03 -0.35950378996E+03 -0.49942524252E+03  0.66314636041E+03  0.50400001928E-02 0. -1.
</event>
<event>
 5   0  0.6524705E-03  0.9005387E+03  0.7818609E-02  0.9424908E-01
       -2   -1    0    0    0  501  0.00000000000E+00  0.00000000000E+00  0.93279304088E+03  0.93279304088E+03  0.25500000920E-02 0.  1.
        2   -1    0    0  501    0  0.00000000000E+00  0.00000000000E+00 -0.21734992791E+03  0.21734992793E+03  0.25500000920E-02 0. -1.
    10030    2    1    2    0    0  0.00000000000E+00  0.00000000000E+00  0.71544311297E+03  0.11501429688E+04  0.90053872811E+03 0.  0.
        3    1    3    3  502    0 -0.10197804930E+03 -0.43750965929E+03  0.39663373425E+03  0.59927669224E+03  0.10100000352E+00 0.  1.
       -3    1    3    3    0  502  0.10197804930E+03  0.43750965929E+03  0.31880937872E+03  0.55086627658E+03  0.10100000352E+00 0. -1.
</event>
<event>
 5   0  0.3998066E-03  0.8961953E+03  0.7818609E-02  0.9430350E-01
       -1   -1    0    0    0  501  0.00000000000E+00  0.00000000000E+00  0.50271632284E+03  0.50271632286E+03  0.50400001928E-02 0. -1.
        1   -1    0    0  501    0  0.00000000000E+00  0.00000000000E+00 -0.39941310821E+03  0.39941310824E+03  0.50400001928E-02 0.  1.
    10030    2    1    2    0    0  0.00000000000E+00  0.00000000000E+00  0.10330321463E+03  0.90212943110E+03  0.89619526684E+03 0.  0.
        4    1    3    3  502    0  0.42206535511E+03  0.26341600723E+02 -0.97507936919E+02  0.43398439439E+03  0.12699999809E+01 0.  1.
       -4    1    3    3    0  502 -0.42206535511E+03 -0.26341600723E+02  0.20081115155E+03  0.46814503671E+03  0.12699999809E+01 0. -1.
</event>
<event>
 5   0  0.6724773E-03  0.8992550E+03  0.7818609E-02  0.9426513E-01
       -2   -1    0    0    0  501  0.00000000000E+00  0.00000000000E+00  0.71429133207E+03  0.71429133207E+03  0.25500000920E-02 0. -1.
        2   -1    0    0  501    0  0.00000000000E+00  0.00000000000E+00 -0.28302861180E+03  0.28302861182E+03  0.25500000920E-02 0.  1.
    10030    2    1    2    0    0  0.00000000000E+00  0.00000000000E+00  0.43126272027E+03  0.99731994389E+03  0.89925498975E+03 0.  0.
        5    1    3    3  502    0 -0.98541125589E+02 -0.43791485399E+03  0.24418854615E+03  0.51100871700E+03  0.46999998093E+01 0.  1.
       -5    1    3    3    0  502  0.98541125589E+02  0.43791485399E+03  0.18707417411E+03  0.48631122689E+03  0.46999998093E+01 0. -1.
</event>
<event>
 5   0  0.6609191E-03  0.9068135E+03  0.7818609E-02  0.9417104E-01
       -2   -1    0    0    0  501  0.00000000000E+00  0.00000000000E+00  0.19886057560E+03  0.19886057561E+03  0.25500000920E-02 0.  1.
        2   -1    0    0  501    0  0.00000000000E+00  0.00000000000E+00 -0.10337779711E+04  0.10337779711E+04  0.25500000920E-02 0. -1.
    10030    2    1    2    0    0  0.00000000000E+00  0.00000000000E+00 -0.83491739552E+03  0.12326385467E+04  0.90681350318E+03 0.  0.
        2    1    3    3  502    0  0.52879667090E+02  0.43151046022E+03 -0.59248847509E+03  0.73487422706E+03  0.25500000920E-02 0. -1.
       -2    1    3    3    0  502 -0.52879667090E+02 -0.43151046022E+03 -0.24242892043E+03  0.49776431968E+03  0.25500000920E-02 0.  1.
</event>
<event>
 5   0  0.6609191E-03  0.8840072E+03  0.7818609E-02  0.9445797E-01
       -2   -1    0    0    0  501  0.00000000000E+00  0.00000000000E+00  0.23004766456E+03  0.23004766457E+03  0.25500000920E-02 0.  1.
        2   -1    0    0  501    0  0.00000000000E+00  0.00000000000E+00 -0.84924650455E+03  0.84924650455E+03  0.25500000920E-02 0. -1.
    10030    2    1    2    0    0  0.00000000000E+00  0.00000000000E+00 -0.61919883999E+03  0.10792941691E+04  0.88400718326E+03 0.  0.
        2    1    3    3  502    0  0.98881257381E+02  0.13697108369E+03  0.18907751537E+03  0.25355253431E+03  0.25500000920E-02 0.  1.
       -2    1    3    3    0  502 -0.98881257381E+02 -0.13697108369E+03 -0.80827635536E+03  0.82574163482E+03  0.25500000920E-02 0. -1.
</event>
<event>
 5   0  0.3943549E-03  0.8866940E+03  0.7818609E-02  0.9442369E-01
       -1   -1    0    0    0  501  0.00000000000E+00  0.00000000000E+00  0.64647399777E+03  0.64647399779E+03  0.50400001928E-02 0. -1.
        1   -1    0    0  501    0  0.00000000000E+00  0.00000000000E+00 -0.30404406564E+03  0.30404406568E+03  0.50400001928E-02 0.  1.
    10030    2    1    2    0    0  0.00000000000E+00  0.00000000000E+00  0.34242993213E+03  0.95051806347E+03  0.88669404563E+03 0.  0.
        3    1    3    3  502    0  0.11703007919E+03  0.41578639024E+03  0.27831754997E+03  0.51384339109E+03  0.10100000352E+00 0. -1.
       -3    1    3    3    0  502 -0.11703007919E+03 -0.41578639024E+03  0.64112382164E+02  0.43667467238E+03  0.10100000352E+00 0.  1.
</event>
<event>
 5   0  0.3927993E-03  0.9021135E+03  0.7818609E-02  0.9422943E-01
        1   -1    0    0  501    0  0.00000000000E+00  0.00000000000E+00  0.13907654707E+03  0.13907654716E+03  0.50400001928E-02 0.  1.
       -1   -1    0    0    0  501  0.00000000000E+00  0.00000000000E+00 -0.14628792207E+04  0.14628792207E+04  0.50400001928E-02 0. -1.
    10030    2    1    2    0    0  0.00000000000E+00  0.00000000000E+00 -0.13238026736E+04  0.16019557679E+04  0.90211349812E+03 0.  0.
        2    1    3    3  502    0  0.27241879628E+03  0.32008647874E+03 -0.37127575571E+03  0.56081462287E+03  0.25500000920E-02 0.  1.
       -2    1    3    3    0  502 -0.27241879628E+03 -0.32008647874E+03 -0.95252691792E+03  0.10411411450E+04  0.25500000920E-02 0. -1.
</event>
<event>
 5   0  0.6863405E-03  0.9039509E+03  0.7818609E-02  0.9420656E-01
        2   -1    0    0  501    0  0.00000000000E+00  0.00000000000E+00  0.64926251931E+03  0.64926251931E+03  0.25500000920E-02 0. -1.
       -2   -1    0    0    0  501  0.00000000000E+00  0.00000000000E+00 -0.31463666353E+03  0.31463666354E+03  0.25500000920E-02 0.  1.
    10030    2    1    2    0    0  0.00000000000E+00  0.00000000000E+00  0.33462585578E+03  0.96389918285E+03  0.90395086777E+03 0.  0.
        1    1    3    3  502    0  0.14895176833E+03 -0.36471310971E+03  0.40354393430E+03  0.56395920829E+03  0.50400001928E-02 0. -1.
       -1    1    3    3    0  502 -0.14895176833E+03  0.36471310971E+03 -0.68918078518E+02  0.39993997456E+03  0.50400001928E-02 0.  1.
</event>
<event>
 5   0  0.2560250E-03  0.8975605E+03  0.7818609E-02  0.9428636E-01
        4   -1    0    0  501    0  0.00000000000E+00  0.00000000000E+00  0.49380370902E+03  0.49380534215E+03  0.12699999809E+01 0. -1.
       -4   -1    0    0    0  501  0.00000000000E+00  0.00000000000E+00 -0.40785863560E+03  0.40786061288E+03  0.12699999809E+01 0.  1.
    10030    2    1    2    0    0  0.00000000000E+00  0.00000000000E+00  0.85945073412E+02  0.90166595503E+03  0.89756054883E+03 0.  0.
        5    1    3    3  502    0  0.15772802648E+03 -0.25721092470E+03 -0.29073062489E+03  0.41902503072E+03  0.46999998093E+01 0.  1.
       -5    1    3    3    0  502 -0.15772802648E+03  0.25721092470E+03  0.37667569830E+03  0.48264092431E+03  0.46999998093E+01 0. -1.
</event>
<event>
 5   0  0.3794006E-03  0.8967972E+03  0.7818609E-02  0.9429594E-01
        1   -1    0    0  501    0  0.00000000000E+00  0.00000000000E+00  0.59590654635E+03  0.59590654637E+03  0.50400001928E-02 0.  1.
       -1   -1    0    0    0  501  0.00000000000E+00  0.00000000000E+00 -0.33740409907E+03  0.33740409911E+03  0.50400001928E-02 0. -1.
    10030    2    1    2    0    0  0.00000000000E+00  0.00000000000E+00  0.25850244728E+03  0.93331064548E+03  0.89679721549E+03 0.  0.
        5    1    3    3  502    0 -0.32383156537E+03 -0.13007250938E+03 -0.16373091285E+03  0.38550699377E+03  0.46999998093E+01 0. -1.
       -5    1    3    3    0  502  0.32383156537E+03  0.13007250938E+03  0.42223336013E+03  0.54780365171E+03  0.46999998093E+01 0.  1.
</event>
<event>
 5   0  0.6724773E-03  0.8728866E+03  0.7818609E-02  0.9460124E-01
        2   -1    0    0  501    0  0.00000000000E+00  0.00000000000E+00  0.53812568360E+03  0.53812568361E+03  0.25500000920E-02 0. -1.
       -2   -1    0    0    0  501  0.00000000000E+00  0.00000000000E+00 -0.35397448098E+03  0.35397448099E+03  0.25500000920E-02 0.  1.
    10030    2    1    2    0    0  0.00000000000E+00  0.00000000000E+00  0.18415120262E+03  0.89210016460E+03  0.87288661248E+03 0.  0.
        5    1    3    3  502    0  0.21693885011E+02 -0.22140178678E+03 -0.29165031290E+03  0.36683970729E+03  0.46999998093E+01 0.  1.
       -5    1    3    3    0  502 -0.21693885011E+02  0.22140178678E+03  0.47580151552E+03  0.52526045731E+03  0.46999998093E+01 0. -1.
</event>
<event>
 5   0  0.3927993E-03  0.9003881E+03  0.7818609E-02  0.9425096E-01
        1   -1    0    0  501    0  0.00000000000E+00  0.00000000000E+00  0.11834652454E+04  0.11834652454E+04  0.50400001928E-02 0.  1.
       -1   -1    0    0    0  501  0.00000000000E+00  0.00000000000E+00 -0.17125527363E+03  0.17125527370E+03  0.50400001928E-02 0. -1.
    10030    2    1    2    0    0  0.00000000000E+00  0.00000000000E+00  0.10122099718E+04  0.13547205191E+04  0.90038805965E+03 0.  0.
        2    1    3    3  502    0 -0.16899097898E+03  0.12406904803E+02  0.11336547262E+04  0.11462481933E+04  0.25500000920E-02 0.  1.
       -2    1    3    3    0  502  0.16899097898E+03 -0.12406904803E+02 -0.12144475444E+03  0.20847232586E+03  0.25500000920E-02 0. -1.
</event>
<event>
 5   0  0.3943549E-03  0.9024405E+03  0.7818609E-02  0.9422536E-01
       -1   -1    0    0    0  501  0.00000000000E+00  0.00000000000E+00  0.68834316949E+03  0.68834316951E+03  0.50400001928E-02 0. -1.
        1   -1    0    0  501    0  0.00000000000E+00  0.00000000000E+00 -0.29578229832E+03  0.29578229836E+03  0.50400001928E-02 0.  1.
    10030    2    1    2    0    0  0.00000000000E+00  0.00000000000E+00  0.39256087118E+03  0.98412546787E+03  0.90244052377E+03 0.  0.
        3    1    3    3  502    0  0.19271099530E+03  0.29882421893E+03  0.49921277906E+03  0.61290035936E+03  0.10100000352E+00 0. -1.
       -3    1    3    3    0  502 -0.19271099530E+03 -0.29882421893E+03 -0.10665190788E+03  0.37122510851E+03  0.10100000352E+00 0.  1.
</event>
<event>
 5   0  0.3794006E-03  0.9247509E+03  0.7818609E-02  0.9395160E-01
        1   -1    0    0  501    0  0.00000000000E+00  0.00000000000E+00  0.41902965087E+03  0.41902965090E+03  0.50400001928E-02 0. -1.
       -1   -1    0    0    0  501  0.00000000000E+00  0.00000000000E+00 -0.51020505553E+03  0.51020505556E+03  0.50400001928E-02 0.  1.
    10030    2    1    2    0    0  0.00000000000E+00  0.00000000000E+00 -0.91175404662E+02  0.92923470646E+03  0.92475087741E+03 0.  0.
        5    1    3    3  502    0  0.12670588506E+03 -0.42534770148E+03  0.84631956470E+02  0.45184035512E+03  0.46999998093E+01 0.  1.
       -5    1    3    3    0  502 -0.12670588506E+03  0.42534770148E+03 -0.17580736113E+03  0.47739435134E+03  0.46999998093E+01 0. -1.
</event>
<event>
 5   0  0.6609191E-03  0.8895673E+03  0.7818609E-02  0.9438718E-01
        2   -1    0    0  501    0  0.00000000000E+00  0.00000000000E+00  0.24367530157E+03  0.24367530158E+03  0.25500000920E-02 0. -1.
       -2   -1    0    0    0  501  0.00000000000E+00  0.00000000000E+00 -0.81186924010E+03  0.81186924010E+03  0.25500000920E-02 0.  1.
    10030    2    1    2    0    0  0.00000000000E+00  0.00000000000E+00 -0.56819393853E+03  0.10555445417E+04  0.88956726991E+03 0.  0.
        2    1    3    3  502    0 -0.40302571298E+03 -0.84250597378E+02 -0.48372716355E+03  0.63523212863E+03  0.25500000920E-02 0.  1.
       -2    1    3    3    0  502  0.40302571298E+03  0.84250597378E+02 -0.84466774974E+02  0.42031241305E+03  0.25500000920E-02 0. -1.
</event>
<event>
 5   0  0.6524705E-03  0.9092716E+03  0.7818609E-02  0.9414065E-01
        2   -1    0    0  501    0  0.00000000000E+00  0.00000000000E+00  0.61754692932E+03  0.61754692932E+03  0.25500000920E-02 0.  1.
       -2   -1    0    0    0  501  0.00000000000E+00  0.00000000000E+00 -0.33470119270E+03  0.33470119271E+03  0.25500000920E-02 0. -1.
    10030    2    1    2    0    0  0.00000000000E+00  0.00000000000E+00  0.28284573661E+03  0.95224812204E+03  0.90927156296E+03 0.  0.
        3    1    3    3  502    0  0.89805944818E+02 -0.33785599074E+03 -0.16297272860E+03  0.38570960407E+03  0.10100000352E+00 0. -1.
       -3    1    3    3    0  502 -0.89805944818E+02  0.33785599074E+03  0.44581846522E+03  0.56653851796E+03  0.10100000352E+00 0.  1.
</event>
<event>
 5   0  0.3943549E-03  0.8988432E+03  0.7818609E-02  0.9427029E-01
        1   -1    0    0  501    0  0.00000000000E+00  0.00000000000E+00  0.64997549627E+03  0.64997549629E+03  0.50400001928E-02 0.  1.
       -1   -1    0    0    0  501  0.00000000000E+00  0.00000000000E+00 -0.31074980231E+03  0.31074980236E+03  0.50400001928E-02 0. -1.
    10030    2    1    2    0    0  0.00000000000E+00  0.00000000000E+00  0.33922569395E+03  0.96072529864E+03  0.89884316097E+03 0.  0.
        3    1    3    3  502    0  0.21897993451E+03 -0.12221771464E+03  0.56823720479E+03  0.62111425084E+03  0.10100000352E+00 0.  1.
       -3    1    3    3    0  502 -0.21897993451E+03  0.12221771464E+03 -0.22901151083E+03  0.33961104780E+03  0.10100000352E+00 0. -1.
</event>
<event>
 5   0  0.6863405E-03  0.9143728E+03  0.7818609E-02  0.9407791E-01
       -2   -1    0    0    0  501  0.00000000000E+00  0.00000000000E+00  0.33085612154E+03  0.33085612155E+03  0.25500000920E-02 0. -1.
        2   -1    0    0  501    0  0.00000000000E+00  0.00000000000E+00 -0.63175314576E+03  0.63175314577E+03  0.25500000920E-02 0.  1.
    10030    2    1    2    0    0  0.00000000000E+00  0.00000000000E+00 -0.30089702422E+03  0.96260926732E+03  0.91437278084E+03 0.  0.
        1    1    3    3  502    0  0.18428459929E+03 -0.53093742958E+02  0.28646280995E+03  0.34473279593E+03  0.50400001928E-02 0. -1.
       -1    1    3    3    0  502 -0.18428459929E+03  0.53093742958E+02 -0.58735983417E+03  0.61787647139E+03  0.50400001928E-02 0.  1.
</event>
<event>
 5   0  0.6863405E-03  0.8811201E+03  0.7818609E-02  0.9449495E-01
        2   -1    0    0  501    0  0.00000000000E+00  0.00000000000E+00  0.96077595199E+03  0.96077595199E+03  0.25500000920E-02 0. -1.
       -2   -1    0    0    0  501  0.00000000000E+00  0.00000000000E+00 -0.20201709649E+03  0.20201709651E+03  0.25500000920E-02 0.  1.
    10030    2    1    2    0    0  0.00000000000E+00  0.00000000000E+00  0.75875885549E+03  0.11627930485E+04  0.88112012396E+03 0.  0.
        1    1    3    3  502    0 -0.14328539746E+03 -0.41605091217E+03  0.35094962707E+03  0.56284518955E+03  0.50400001928E-02 0.  1.
       -1    1    3    3    0  502  0.14328539746E+03  0.41605091217E+03  0.40780922843E+03  0.59994785895E+03  0.50400001928E-02 0. -1.
</event>
<event>
 5   0  0.6724773E-03  0.8964158E+03  0.7818609E-02  0.9430073E-01
       -2   -1    0    0    0  501  0.00000000000E+00  0.00000000000E+00  0.22187571815E+03  0.22187571816E+03  0.25500000920E-02 0.  1.
        2   -1    0    0  501    0  0.00000000000E+00  0.00000000000E+00 -0.90541827578E+03  0.90541827578E+03  0.25500000920E-02 0. -1.
    10030    2    1    2    0    0  0.00000000000E+00  0.00000000000E+00 -0.68354255763E+03  0.11272939939E+04  0.89641581908E+03 0.  0.
        5    1    3    3  502    0 -0.36790096237E+03  0.35825350812E+02 -0.23051484260E+02  0.37038903170E+03  0.46999998093E+01 0. -1.
       -5    1    3    3    0  502  0.36790096237E+03 -0.35825350812E+02 -0.66049107337E+03  0.75690496225E+03  0.46999998093E+01 0.  1.
</event>
<event>
 5   0  0.6524705E-03  0.8987842E+03  0.7818609E-02  0.9427103E-01
       -2   -1    0    0    0  501  0.00000000000E+00  0.00000000000E+00  0.19857615350E+03  0.19857615352E+03  0.25500000920E-02 0.  1.
        2   -1    0    0  501    0  0.00000000000E+00  0.00000000000E+00 -0.10170065750E+04  0.10170065750E+04  0.25500000920E-02 0. -1.
    10030    2    1    2    0    0  0.00000000000E+00  0.00000000000E+00 -0.81843042147E+03  0.12155827285E+04  0.89878418713E+03 0.  0.
        3    1    3    3  502    0 -0.31201888858E+03  0.27850905584E+03 -0.18685686907E+03  0.45808141278E+03  0.10100000352E+00 0.  1.
       -3    1    3    3    0  502  0.31201888858E+03 -0.27850905584E+03 -0.63157355240E+03  0.75750131572E+03  0.10100000352E+00 0. -1.
</event>
<event>
 5   0  0.3969536E-03  0.9001243E+03  0.7818609E-02  0.9425426E-01
       -1   -1    0    0    0  501  0.00000000000E+00  0.00000000000E+00  0.17053232624E+03  0.17053232631E+03  0.50400001928E-02 0.  1.
        1   -1    0    0  501    0  0.00000000000E+00  0.00000000000E+00 -0.11877861791E+04  0.11877861791E+04  0.50400001928E-02 0. -1.
    10030    2    1    2    0    0  0.00000000000E+00  0.00000000000E+00 -0.10172538529E+04  0.13583185054E+04  0.90012430309E+03 0.  0.
        1    1    3    3  502    0  0.15565077902E+03  0.35155354203E+03 -0.86168576850E+03  0.94356739112E+03  0.50400001928E-02 0. -1.
       -1    1    3    3    0  502 -0.15565077902E+03 -0.35155354203E+03 -0.15556808437E+03  0.41475111431E+03  0.50400001928E-02 0.  1.
</event>
<event>
 5   0  0.3969536E-03  0.8982293E+03  0.7818609E-02  0.9427798E-01
       -1   -1    0    0    0  501  0.00000000000E+00  0.00000000000E+00  0.22739741782E+03  0.22739741788E+03  0.50400001928E-02 0. -1.
        1   -1    0    0  501    0  0.00000000000E+00  0.00000000000E+00 -0.88701078218E+03  0.88701078220E+03  0.50400001928E-02 0.  1.
    10030    2    1    2    0    0  0.00000000000E+00  0.00000000000E+00 -0.65961336436E+03  0.11144082001E+04  0.89822928362E+03 0.  0.
        1    1    3    3  502    0  0.30728213444E+03  0.26584949745E+03 -0.92433624588E+02  0.41670402016E+03  0.50400001928E-02 0.  1.
       -1    1    3    3    0  502 -0.30728213444E+03 -0.26584949745E+03 -0.56717973977E+03  0.69770417992E+03  0.50400001928E-02 0. -1.
</event>
<event>
 5   0  0.3969536E-03  0.9114187E+03  0.7818609E-02  0.9411419E-01
       -1   -1    0    0    0  501  0.00000000000E+00  0.00000000000E+00  0.46314144155E+03  0.46314144158E+03  0.50400001928E-02 0. -1.
        1   -1    0    0  501    0  0.00000000000E+00  0.00000000000E+00 -0.44839648115E+03  0.44839648118E+03  0.50400001928E-02 0.  1.
    10030    2    1    2    0    0  0.00000000000E+00  0.00000000000E+00  0.14744960396E+02  0.91153792276E+03  0.91141865834E+03 0.  0.
        1    1    3    3  502    0  0.24826149635E+03  0.47585334243E+00 -0.37482539752E+03  0.44958656081E+03  0.50400001928E-02 0.  1.
       -1    1    3    3    0  502 -0.24826149635E+03 -0.47585334243E+00  0.38957035792E+03  0.46195136195E+03  0.50400001928E-02 0. -1.
</event>
<event>
 5   0  0.6724773E-03  0.8971692E+03  0.7818609E-02  0.9429127E-01
       -2   -1    0    0    0  501  0.00000000000E+00  0.00000000000E+00  0.28265659179E+03  0.28265659181E+03  0.25500000920E-02 0. -1.
        2   -1    0    0  501    0  0.00000000000E+00  0.00000000000E+00 -0.71191739592E+03  0.71191739592E+03  0.25500000920E-02 0.  1.
    10030    2    1    2    0    0  0.00000000000E+00  0.00000000000E+00 -0.42926080413E+03  0.99457398773E+03  0.89716920317E+03 0.  0.
        5    1    3    3  502    0  0.31416308691E+03 -0.28308745502E+03 -0.38043135336E+03  0.56884712972E+03  0.46999998093E+01 0.  1.
       -5    1    3    3    0  502 -0.31416308691E+03  0.28308745502E+03 -0.48829450764E+02  0.42572685801E+03  0.46999998093E+01 0. -1.
</event>
<event>
 5   0  0.6863405E-03  0.8990139E+03  0.7818609E-02  0.9426815E-01
        2   -1    0    0  501    0  0.00000000000E+00  0.00000000000E+00  0.97144282053E+03  0.97144282053E+03  0.25500000920E-02 0.  1.
       -2   -1    0    0    0  501  0.00000000000E+00  0.00000000000E+00 -0.20799629256E+03  0.20799629257E+03  0.25500000920E-02 0. -1.
    10030    2    1    2    0    0  0.00000000000E+00  0.00000000000E+00  0.76344652797E+03  0.11794391131E+04  0.89901391561E+03 0.  0.
        1    1    3    3  502    0 -0.33776942397E+03  0.40641744009E+02 -0.37162179136E+01  0.34022602108E+03  0.50400001928E-02 0. -1.
       -1    1    3    3    0  502  0.33776942397E+03 -0.40641744009E+02  0.76716274588E+03  0.83921309202E+03  0.50400001928E-02 0.  1.
</event>
<event>
 5   0  0.3794006E-03  0.8991001E+03  0.7818609E-02  0.9426707E-01
       -1   -1    0    0    0  501  0.00000000000E+00  0.00000000000E+00  0.26640948675E+03  0.26640948680E+03  0.50400001928E-02 0.  1.
        1   -1    0    0  501    0  0.00000000000E+00  0.00000000000E+00 -0.75858870212E+03  0.75858870213E+03  0.50400001928E-02 0. -1.
    10030    2    1    2    0    0  0.00000000000E+00  0.00000000000E+00 -0.49217921537E+03  0.10249981889E+04  0.89910005409E+03 0.  0.
        5    1    3    3  502    0  0.31350884132E+03 -0.23064429383E+03  0.10324078857E+02  0.38937547492E+03  0.46999998093E+01 0.  1.
       -5    1    3    3    0  502 -0.31350884132E+03  0.23064429383E+03 -0.50250329422E+03  0.63562271401E+03  0.46999998093E+01 0. -1.
</event>
<event>
 5   0  0.3794006E-03  0.8949345E+03  0.7818609E-02  0.9431936E-01
       -1   -1    0    0    0  501  0.00000000000E+00  0.00000000000E+00  0.97793978771E+02  0.97793978901E+02  0.50400001928E-02 0. -1.
        1   -1    0    0  501    0  0.00000000000E+00  0.00000000000E+00 -0.20474362113E+04  0.20474362113E+04  0.50400001928E-02 0.  1.
    10030    2    1    2    0    0  0.00000000000E+00  0.00000000000E+00 -0.19496422325E+04  0.21452301902E+04  0.89493448593E+03 0.  0.
        5    1    3    3  502    0  0.19977953322E+03  0.58366203203E+02 -0.19242780292E+04  0.19355067809E+04  0.46999998093E+01 0.  1.
       -5    1    3    3    0  502 -0.19977953322E+03 -0.58366203203E+02 -0.25364203330E+02  0.20972340923E+03  0.46999998093E+01 0. -1.
</event>
<event>
 5   0  0.6863405E-03  0.9019464E+03  0.7818609E-02  0.9423152E-01
       -2   -1    0    0    0  501  0.00000000000E+00  0.00000000000E+00  0.11311545956E+03  0.11311545959E+03  0.25500000920E-02 0. -1.
        2   -1    0    0  501    0  0.00000000000E+00  0.00000000000E+00 -0.17979577697E+04  0.17979577697E+04  0.25500000920E-02 0.  1.
    10030    2    1    2    0    0  0.00000000000E+00  0.00000000000E+00 -0.16848423102E+04  0.19110732293E+04  0.90194638292E+03 0.  0.
        1    1    3    3  502    0 -0.37092552809E+03 -0.48937588720E+01 -0.13857978777E+04  0.14345889495E+04  0.50400001928E-02 0.  1.
       -1    1    3    3    0  502  0.37092552809E+03  0.48937588720E+01 -0.29904443248E+03  0.47648427979E+03  0.50400001928E-02 0. -1.
</event>
<event>
 5   0  0.3943549E-03  0.9020292E+03  0.7818609E-02  0.9423048E-01
       -1   -1    0    0    0  501  0.00000000000E+00  0.00000000000E+00  0.24550998388E+03  0.24550998393E+03  0.50400001928E-02 0. -1.
        1   -1    0    0  501    0  0.00000000000E+00  0.00000000000E+00 -0.82853721139E+03  0.82853721141E+03  0.50400001928E-02 0.  1.
    10030    2    1    2    0    0  0.00000000000E+00  0.00000000000E+00 -0.58302722751E+03  0.10740471953E+04  0.90202917346E+03 0.  0.
        3    1    3    3  502    0 -0.25861141568E+03 -0.36577188216E+03 -0.22912708568E+03  0.50315819151E+03  0.10100000352E+00 0.  1.
       -3    1    3    3    0  502  0.25861141568E+03  0.36577188216E+03 -0.35390014183E+03  0.57088900382E+03  0.10100000352E+00 0. -1.
</event>
<event>
 5   0  0.3927993E-03  0.9008483E+03  0.7818609E-02  0.9424522E-01
        1   -1    0    0  501    0  0.00000000000E+00  0.00000000000E+00  0.41442180147E+03  0.41442180150E+03  0.50400001928E-02 0. -1.
       -1   -1    0    0    0  501  0.00000000000E+00  0.00000000000E+00 -0.48955419590E+03  0.48955419593E+03  0.50400001928E-02 0.  1.
    10030    2    1    2    0    0  0.00000000000E+00  0.00000000000E+00 -0.75132394431E+02  0.90397599743E+03  0.90084833753E+03 0.  0.
        2    1    3    3  502    0  0.10204870581E+02 -0.11327040987E+03  0.39977675337E+03  0.41563899923E+03  0.25500000920E-02 0. -1.
       -2    1    3    3    0  502 -0.10204870581E+02  0.11327040987E+03 -0.47490914781E+03  0.48833699820E+03  0.25500000920E-02 0.  1.
</event>
<event>
 5   0  0.3998066E-03  0.8941549E+03  0.7818609E-02  0.9432918E-01
       -1   -1    0    0    0  501  0.00000000000E+00  0.00000000000E+00  0.62651929105E+03  0.62651929107E+03  0.50400001928E-02 0. -1.
        1   -1    0    0  501    0  0.00000000000E+00  0.00000000000E+00 -0.31902968194E+03  0.31902968198E+03  0.50400001928E-02 0.  1.
    10030    2    1    2    0    0  0.00000000000E+00  0.00000000000E+00  0.30748960911E+03  0.94554897305E+03  0.89415490869E+03 0.  0.
        4    1    3    3  502    0  0.46796963825E+01 -0.43713421583E+03  0.25276683159E+03  0.50497614425E+03  0.12699999809E+01 0.  1.
       -4    1    3    3    0  502 -0.46796963825E+01  0.43713421583E+03  0.54722777513E+02  0.44057282881E+03  0.12699999809E+01 0. -1.
</event>
<event>
 5   0  0.3998066E-03  0.9083277E+03  0.7818609E-02  0.9415231E-01
       -1   -1    0    0    0  501  0.00000000000E+00  0.00000000000E+00  0.13460000392E+04  0.13460000392E+04  0.50400001928E-02 0. -1.
        1   -1    0    0  501    0  0.00000000000E+00  0.00000000000E+00 -0.15324279539E+03  0.15324279547E+03  0.50400001928E-02 0.  1.
    10030    2    1    2    0    0  0.00000000000E+00  0.00000000000E+00  0.11927572438E+04  0.14992428347E+04  0.90832771326E+03 0.  0.
        4    1    3    3  502    0 -0.30635104897E+03 -0.32513966722E+03  0.73144616451E+03  0.85707751860E+03  0.12699999809E+01 0. -1.
       -4    1    3    3    0  502  0.30635104897E+03  0.32513966722E+03  0.46131107932E+03  0.64216531610E+03  0.12699999809E+01 0.  1.
</event>
<event>
 5   0  0.3969536E-03  0.9026968E+03  0.7818609E-02  0.9422217E-01
       -1   -1    0    0    0  501  0.00000000000E+00  0.00000000000E+00  0.91881828555E+03  0.91881828556E+03  0.50400001928E-02 0.  1.
        1   -1    0    0  501    0  0.00000000000E+00  0.00000000000E+00 -0.22171452374E+03  0.22171452380E+03  0.50400001928E-02 0. -1.
    10030    2    1    2    0    0  0.00000000000E+00  0.00000000000E+00  0.69710376181E+03  0.11405328094E+04  0.90269675667E+03 0.  0.
        1    1    3    3  502    0  0.23837021760E+03  0.15938109624E+03 -0.91841647808E+02  0.30109397665E+03  0.50400001928E-02 0. -1.
       -1    1    3    3    0  502 -0.23837021760E+03 -0.15938109624E+03  0.78894540961E+03  0.83943883271E+03  0.50400001928E-02 0.  1.
</event>
<event>
 5   0  0.3943549E-03  0.9024419E+03  0.7818609E-02  0.9422534E-01
        1   -1    0    0  501    0  0.00000000000E+00  0.00000000000E+00  0.27655100553E+03  0.27655100558E+03  0.50400001928E-02 0.  1.
       -1   -1    0    0    0  501  0.00000000000E+00  0.00000000000E+00 -0.73621265756E+03  0.73621265758E+03  0.50400001928E-02 0. -1.
    10030    2    1    2    0    0  0.00000000000E+00  0.00000000000E+00 -0.45966165203E+03  0.10127636632E+04  0.90244191118E+03 0.  0.
        3    1    3    3  502    0 -0.36399998825E+03  0.23318698973E+03 -0.84682122475E+02  0.44050338897E+03  0.10100000352E+00 0.  1.
       -3    1    3    3    0  502  0.36399998825E+03 -0.23318698973E+03 -0.37497952956E+03  0.57226027419E+03  0.10100000352E+00 0. -1.
</event>
<event>
 5   0  0.3998066E-03  0.9006066E+03  0.7818609E-02  0.9424824E-01
       -1   -1    0    0    0  501  0.00000000000E+00  0.00000000000E+00  0.68846877208E+03  0.68846877209E+03  0.50400001928E-02 0. -1.
        1   -1    0    0  501    0  0.00000000000E+00  0.00000000000E+00 -0.29452757746E+03  0.29452757750E+03  0.50400001928E-02 0.  1.
    10030    2    1    2    0    0  0.00000000000E+00  0.00000000000E+00  0.39394119461E+03  0.98299634960E+03  0.90060655034E+03 0.  0.
        4    1    3    3  502    0 -0.34606785465E+03  0.56841865780E+02 -0.11131762299E+03  0.36794997461E+03  0.12699999809E+01 0.  1.
       -4    1    3    3    0  502  0.34606785465E+03 -0.56841865780E+02  0.50525881760E+03  0.61504637499E+03  0.12699999809E+01 0. -1.
</event>
<event>
 5   0  0.6724773E-03  0.8535090E+03  0.7818609E-02  0.9485639E-01
       -2   -1    0    0    0  501  0.00000000000E+00  0.00000000000E+00  0.29709306593E+03  0.29709306594E+03  0.25500000920E-02 0.  1.
        2   -1    0    0  501    0  0.00000000000E+00  0.00000000000E+00 -0.61300460835E+03  0.61300460836E+03  0.25500000920E-02 0. -1.
    10030    2    1    2    0    0  0.00000000000E+00  0.00000000000E+00 -0.31591154243E+03  0.91009767430E+03  0.85350903576E+03 0.  0.
        5    1    3    3  502    0 -0.19669346246E+03  0.29429558594E+03 -0.41208269483E+03  0.54326093864E+03  0.46999998093E+01 0. -1.
       -5    1    3    3    0  502  0.19669346246E+03 -0.29429558594E+03  0.96171152397E+02  0.36683673566E+03  0.46999998093E+01 0.  1.
</event>
<event>
 5   0  0.3927993E-03  0.8682000E+03  0.7818609E-02  0.9466230E-01
        1   -1    0    0  501    0  0.00000000000E+00  0.00000000000E+00  0.53800062952E+03  0.53800062955E+03  0.50400001928E-02 0.  1.
       -1   -1    0    0    0  501  0.00000000000E+00  0.00000000000E+00 -0.35026500857E+03  0.35026500861E+03  0.50400001928E-02 0. -1.
    10030    2    1    2    0    0  0.00000000000E+00  0.00000000000E+00  0.18773562095E+03  0.88826563815E+03  0.86819996576E+03 0.  0.
        2    1    3    3  502    0  0.13812221156E+03 -0.50073007417E+02 -0.32405519750E+03  0.35580447219E+03  0.25500000920E-02 0. -1.
       -2    1    3    3    0  502 -0.13812221156E+03  0.50073007417E+02  0.51179081845E+03  0.53246116596E+03  0.25500000920E-02 0.  1.
</event>
<event>
 5   0  0.3943549E-03  0.9043125E+03  0.7818609E-02  0.9420207E-01
       -1   -1    0    0    0  501  0.00000000000E+00  0.00000000000E+00  0.62703857758E+03  0.62703857760E+03  0.50400001928E-02 0.  1.
        1   -1    0    0  501    0  0.00000000000E+00  0.00000000000E+00 -0.32604895646E+03  0.32604895650E+03  0.50400001928E-02 0. -1.
    10030    2    1    2    0    0  0.00000000000E+00  0.00000000000E+00  0.30098962111E+03  0.95308753410E+03  0.90431249888E+03 0.  0.
        3    1    3    3  502    0 -0.21099498348E+03  0.37132217976E+03  0.30698291108E+03  0.52596346083E+03  0.10100000352E+00 0.  1.
       -3    1    3    3    0  502  0.21099498348E+03 -0.37132217976E+03 -0.59932899613E+01  0.42712407326E+03  0.10100000352E+00 0. -1.
</event>
<event>
 5   0  0.3927993E-03  0.8969581E+03  0.7818609E-02  0.9429392E-01
       -1   -1    0    0    0  501  0.00000000000E+00  0.00000000000E+00  0.36935113210E+03  0.36935113213E+03  0.50400001928E-02 0. -1.
        1   -1    0    0  501    0  0.00000000000E+00  0.00000000000E+00 -0.54455889155E+03  0.54455889158E+03  0.50400001928E-02 0.  1.
    10030    2    1    2    0    0  0.00000000000E+00  0.00000000000E+00 -0.17520775946E+03  0.91391002371E+03  0.89695806616E+03 0.  0.
        2    1    3    3  502    0 -0.30937297347E+03  0.14645988591E+03 -0.38285853955E+03  0.51355895105E+03  0.25500000920E-02 0.  1.
       -2    1    3    3    0  502  0.30937297347E+03 -0.14645988591E+03  0.20765078009E+03  0.40035107265E+03  0.25500000920E-02 0. -1.
</event>
<event>
 5   0  0.6863405E-03  0.8807637E+03  0.7818609E-02  0.9449952E-01
       -2   -1    0    0    0  501  0.00000000000E+00  0.00000000000E+00  0.51908284079E+03  0.51908284080E+03  0.25500000920E-02 0.  1.
        2   -1    0    0  501    0  0.00000000000E+00  0.00000000000E+00 -0.37361315933E+03  0.37361315934E+03  0.25500000920E-02 0. -1.
    10030    2    1    2    0    0  0.00000000000E+00  0.00000000000E+00  0.14546968146E+03  0.89269600014E+03  0.88076371431E+03 0.  0.
        1    1    3    3  502    0  0.34900919932E+02  0.92182973106E+02  0.50775866442E+03  0.51723750450E+03  0.50400001928E-02 0.  1.
       -1    1    3    3    0  502 -0.34900919932E+02 -0.92182973106E+02 -0.36228898297E+03  0.37545849564E+03  0.50400001928E-02 0. -1.
</event>
<event>
 5   0  0.3969536E-03  0.8986496E+03  0.7818609E-02  0.9427271E-01
        1   -1    0    0  501    0  0.00000000000E+00  0.00000000000E+00  0.65065255142E+03  0.65065255144E+03  0.50400001928E-02 0.  1.
       -1   -1    0    0    0  501  0.00000000000E+00  0.00000000000E+00 -0.31029273962E+03  0.31029273966E+03  0.50400001928E-02 0. -1.
    10030    2    1    2    0    0  0.00000000000E+00  0.00000000000E+00  0.34035981181E+03  0.96094529110E+03  0.89864957074E+03 0.  0.
        1    1    3    3  502    0  0.44173687977E+03  0.81209935558E+02  0.18396702832E+03  0.48535594373E+03  0.50400001928E-02 0. -1.
       -1    1    3    3    0  502 -0.44173687977E+03 -0.81209935558E+02  0.15639278349E+03  0.47558934737E+03  0.50400001928E-02 0.  1.
</event>
<event>
 5   0  0.6609191E-03  0.8962443E+03  0.7818609E-02  0.9430288E-01
       -2   -1    0    0    0  501  0.00000000000E+00  0.00000000000E+00  0.48588511368E+03  0.48588511368E+03  0.25500000920E-02 0. -1.
        2   -1    0    0  501    0  0.00000000000E+00  0.00000000000E+00 -0.41329413889E+03  0.41329413890E+03  0.25500000920E-02 0.  1.
    10030    2    1    2    0    0  0.00000000000E+00  0.00000000000E+00  0.72590974787E+02  0.89917925258E+03  0.89624431862E+03 0.  0.
        2    1    3    3  502    0 -0.44116935528E+03  0.67673368442E+02 -0.38779270947E+01  0.44634641610E+03  0.25500000920E-02 0. -1.
       -2    1    3    3    0  502  0.44116935528E+03 -0.67673368442E+02  0.76468901881E+02  0.45283283648E+03  0.25500000920E-02 0.  1.
</event>
<event>
 5   0  0.2560250E-03  0.8107633E+03  0.7818609E-02  0.9544567E-01
       -3   -1    0    0    0  501  0.00000000000E+00  0.00000000000E+00  0.14047034737E+04  0.14047034774E+04  0.10100000352E+00 0.  1.
        3   -1    0    0  501    0  0.00000000000E+00  0.00000000000E+00 -0.11698857353E+03  0.11698861713E+03  0.10100000352E+00 0. -1.
    10030    2    1    2    0    0  0.00000000000E+00  0.00000000000E+00  0.12877149002E+04  0.15216920945E+04  0.81076332321E+03 0.  0.
        2    1    3    3  502    0 -0.33508071115E+02 -0.38326098937E+03  0.88364477641E+03  0.96376338781E+03  0.25500000920E-02 0. -1.
       -2    1    3    3    0  502  0.33508071115E+02  0.38326098937E+03  0.40407012381E+03  0.55792870670E+03  0.25500000920E-02 0.  1.
</event>
<event>
 5   0  0.3969536E-03  0.9035378E+03  0.7818609E-02  0.9421170E-01
       -1   -1    0    0    0  501  0.00000000000E+00  0.00000000000E+00  0.13304784823E+03  0.13304784832E+03  0.50400001928E-02 0.  1.
        1   -1    0    0  501    0  0.00000000000E+00  0.00000000000E+00 -0.15339981803E+04  0.15339981803E+04  0.50400001928E-02 0. -1.
    10030    2    1    2    0    0  0.00000000000E+00  0.00000000000E+00 -0.14009503320E+04  0.16670460286E+04  0.90353784018E+03 0.  0.
        1    1    3    3  502    0  0.38495793657E+03 -0.46305601779E+02 -0.11282587869E+04  0.11930233493E+04  0.50400001928E-02 0. -1.
       -1    1    3    3    0  502 -0.38495793657E+03  0.46305601779E+02 -0.27269154511E+03  0.47402267930E+03  0.50400001928E-02 0.  1.
</event>
<event>
 5   0  0.3943549E-03  0.8978210E+03  0.7818609E-02  0.9428309E-01
       -1   -1    0    0    0  501  0.00000000000E+00  0.00000000000E+00  0.25417166440E+03  0.25417166445E+03  0.50400001928E-02 0. -1.
        1   -1    0    0  501    0  0.00000000000E+00  0.00000000000E+00 -0.79285245810E+03  0.79285245812E+03  0.50400001928E-02 0.  1.
    10030    2    1    2    0    0  0.00000000000E+00  0.00000000000E+00 -0.53868079370E+03  0.10470241226E+04  0.89782098201E+03 0.  0.
        3    1    3    3  502    0 -0.10594870586E+03 -0.15107323912E+03 -0.74658224193E+03  0.76904701158E+03  0.10100000352E+00 0.  1.
       -3    1    3    3    0  502  0.10594870586E+03  0.15107323912E+03  0.20790144823E+03  0.27797711098E+03  0.10100000352E+00 0. -1.
</event>
<event>
 5   0  0.2560250E-03  0.8800924E+03  0.7818609E-02  0.9450815E-01
        3   -1    0    0  501    0  0.00000000000E+00  0.00000000000E+00  0.22733439897E+03  0.22733442141E+03  0.10100000352E+00 0.  1.
       -3   -1    0    0    0  501  0.00000000000E+00  0.00000000000E+00 -0.85178774076E+03  0.85178774675E+03  0.10100000352E+00 0. -1.
    10030    2    1    2    0    0  0.00000000000E+00  0.00000000000E+00 -0.62445334179E+03  0.10791221682E+04  0.88009242568E+03 0.  0.
        3    1    3    3  502    0  0.34975534599E+03 -0.23298491831E+03 -0.15221627902E+03  0.44696820917E+03  0.10100000352E+00 0. -1.
       -3    1    3    3    0  502 -0.34975534599E+03  0.23298491831E+03 -0.47223706277E+03  0.63215395899E+03  0.10100000352E+00 0.  1.
</event>
<event>
 5   0  0.6524705E-03  0.9153759E+03  0.7818609E-02  0.9406562E-01
        2   -1    0    0  501    0  0.00000000000E+00  0.00000000000E+00  0.11202004039E+04  0.11202004039E+04  0.25500000920E-02 0. -1.
       -2   -1    0    0    0  501  0.00000000000E+00  0.00000000000E+00 -0.18700069271E+03  0.18700069273E+03  0.25500000920E-02 0.  1.
    10030    2    1    2    0    0  0.00000000000E+00  0.00000000000E+00  0.93319971121E+03  0.13072010967E+04  0.91537588241E+03 0.  0.
        3    1    3    3  502    0 -0.28064914077E+03 -0.97312052338E+02  0.96384924411E+03  0.10085826448E+04  0.10100000352E+00 0. -1.
       -3    1    3    3    0  502  0.28064914077E+03  0.97312052338E+02 -0.30649532900E+02  0.29861845189E+03  0.10100000352E+00 0.  1.
</event>
<event>
 5   0  0.6534628E-03  0.8944411E+03  0.7818609E-02  0.9432557E-01
       -2   -1    0    0    0  501  0.00000000000E+00  0.00000000000E+00  0.28639574667E+03  0.28639574668E+03  0.25500000920E-02 0.  1.
        2   -1    0    0  501    0  0.00000000000E+00  0.00000000000E+00 -0.69835611887E+03  0.69835611888E+03  0.25500000920E-02 0. -1.
    10030    2    1    2    0    0  0.00000000000E+00  0.00000000000E+00 -0.41196037220E+03  0.98475186556E+03  0.89444110396E+03 0.  0.
        4    1    3    3  502    0 -0.28247734735E+03 -0.34666265338E+03 -0.21260086422E+03  0.49514562240E+03  0.12699999809E+01 0.  1.
       -4    1    3    3    0  502  0.28247734735E+03  0.34666265338E+03 -0.19935950799E+03  0.48960624316E+03  0.12699999809E+01 0. -1.
</event>
<event>
 5   0  0.3969536E-03  0.8945278E+03  0.7818609E-02  0.9432448E-01
        1   -1    0    0  501    0  0.00000000000E+00  0.00000000000E+00  0.97939225690E+03  0.97939225692E+03  0.50400001928E-02 0.  1.
       -1   -1    0    0    0  501  0.00000000000E+00  0.00000000000E+00 -0.20425423407E+03  0.20425423413E+03  0.50400001928E-02 0. -1.
    10030    2    1    2    0    0  0.00000000000E+00  0.00000000000E+00  0.77513802283E+03  0.11836464910E+04  0.89452784268E+03 0.  0.
        1    1    3    3  502    0  0.37687663436E+03 -0.24060720580E+03  0.37324469264E+03  0.58244263719E+03  0.50400001928E-02 0. -1.
       -1    1    3    3    0  502 -0.37687663436E+03  0.24060720580E+03  0.40189333019E+03  0.60120385385E+03  0.50400001928E-02 0.  1.
</event>
<event>
 5   0  0.3794006E-03  0.9005038E+03  0.7818609E-02  0.9424952E-01
       -1   -1    0    0    0  501  0.00000000000E+00  0.00000000000E+00  0.80997448219E+03  0.80997448221E+03  0.50400001928E-02 0.  1.
        1   -1    0    0  501    0  0.00000000000E+00  0.00000000000E+00 -0.25028783727E+03  0.25028783733E+03  0.50400001928E-02 0. -1.
    10030    2    1    2    0    0  0.00000000000E+00  0.00000000000E+00  0.55968664492E+03  0.10602623195E+04  0.90050377330E+03 0.  0.
        5    1    3    3  502    0 -0.18641231704E+03  0.35822379837E+03  0.51423617974E+03  0.65386143808E+03  0.46999998093E+01 0.  1.
       -5    1    3    3    0  502  0.18641231704E+03 -0.35822379837E+03  0.45450465176E+02  0.40640088145E+03  0.46999998093E+01 0. -1.
</event>
<event>
 5   0  0.6524705E-03  0.9047067E+03  0.7818609E-02  0.9419717E-01
        2   -1    0    0  501    0  0.00000000000E+00  0.00000000000E+00  0.13481386745E+04  0.13481386745E+04  0.25500000920E-02 0. -1.
       -2   -1    0    0    0  501  0.00000000000E+00  0.00000000000E+00 -0.15178226227E+03  0.15178226229E+03  0.25500000920E-02 0.  1.
    10030    2    1    2    0    0  0.00000000000E+00  0.00000000000E+00  0.11963564122E+04  0.14999209368E+04  0.90470666603E+03 0.  0.
        3    1    3    3  502    0 -0.12585558066E+03  0.33196902808E+03  0.10629265747E+04  0.11206498009E+04  0.10100000352E+00 0. -1.
       -3    1    3    3    0  502  0.12585558066E+03 -0.33196902808E+03  0.13342983749E+03  0.37927113589E+03  0.10100000352E+00 0.  1.
</event>
<event>
 5   0  0.3998066E-03  0.8582532E+03  0.7818609E-02  0.9479326E-01
        1   -1    0    0  501    0  0.00000000000E+00  0.00000000000E+00  0.40674875328E+03  0.40674875331E+03  0.50400001928E-02 0.  1.
       -1   -1    0    0    0  501  0.00000000000E+00  0.00000000000E+00 -0.45273561348E+03  0.45273561350E+03  0.50400001928E-02 0. -1.
    10030    2    1    2    0    0  0.00000000000E+00  0.00000000000E+00 -0.45986860199E+02  0.85948436681E+03  0.85825321758E+03 0.  0.
        4    1    3    3  502    0 -0.33872796918E+03 -0.23349171709E+03  0.99218568477E+02  0.42320320921E+03  0.12699999809E+01 0.  1.
       -4    1    3    3    0  502  0.33872796918E+03  0.23349171709E+03 -0.14520542868E+03  0.43628115760E+03  0.12699999809E+01 0. -1.
</event>
<event>
 5   0  0.6524705E-03  0.8954332E+03  0.7818609E-02  0.9431308E-01
        2   -1    0    0  501    0  0.00000000000E+00  0.00000000000E+00  0.46281241448E+03  0.46281241449E+03  0.25500000920E-02 0.  1.
       -2   -1    0    0    0  501  0.00000000000E+00  0.00000000000E+00 -0.43311320937E+03  0.43311320938E+03  0.25500000920E-02 0. -1.
    10030    2    1    2    0    0  0.00000000000E+00  0.00000000000E+00  0.29699205111E+02  0.89592562387E+03  0.89543323633E+03 0.  0.
        3    1    3    3  502    0 -0.15520142806E+03  0.23971196164E+03  0.35985924342E+03  0.45939960068E+03  0.10100000352E+00 0.  1.
       -3    1    3    3    0  502  0.15520142806E+03 -0.23971196164E+03 -0.33016003831E+03  0.43652602319E+03  0.10100000352E+00 0. -1.
</event>
<event>
 5   0  0.3794006E-03  0.9029221E+03  0.7818609E-02  0.9421936E-01
        1   -1    0    0  501    0  0.00000000000E+00  0.00000000000E+00  0.13420235287E+04  0.13420235287E+04  0.50400001928E-02 0.  1.
       -1   -1    0    0    0  501  0.00000000000E+00  0.00000000000E+00 -0.15187296153E+03  0.15187296162E+03  0.50400001928E-02 0. -1.
    10030    2    1    2    0    0  0.00000000000E+00  0.00000000000E+00  0.11901505671E+04  0.14938964903E+04  0.90292211805E+03 0.  0.
        5    1    3    3  502    0 -0.43119699276E+03 -0.13358678157E+03  0.60223438357E+03  0.75265172393E+03  0.46999998093E+01 0.  1.
       -5    1    3    3    0  502  0.43119699276E+03  0.13358678157E+03  0.58791618356E+03  0.74124476637E+03  0.46999998093E+01 0. -1.
</event>
<event>
 5   0  0.3927993E-03  0.8999014E+03  0.7818609E-02  0.9425705E-01
       -1   -1    0    0    0  501  0.00000000000E+00  0.00000000000E+00  0.38122949079E+03  0.38122949082E+03  0.50400001928E-02 0. -1.
        1   -1    0    0  501    0  0.00000000000E+00  0.00000000000E+00 -0.53105979364E+03  0.53105979366E+03  0.50400001928E-02 0.  1.
    10030    2    1    2    0    0  0.00000000000E+00  0.00000000000E+00 -0.14983030285E+03  0.91228928449E+03  0.89990144957E+03 0.  0.
        2    1    3    3  502    0 -0.19494232339E+03 -0.33118707439E+03 -0.31216291218E+03  0.49510915103E+03  0.25500000920E-02 0. -1.
       -2    1    3    3    0  502  0.19494232339E+03  0.33118707439E+03  0.16233260933E+03  0.41718013345E+03  0.25500000920E-02 0.  1.
</event>
<event>
 5   0  0.6724773E-03  0.8977787E+03  0.7818609E-02  0.9428362E-01
       -2   -1    0    0    0  501  0.00000000000E+00  0.00000000000E+00  0.20242934022E+03  0.20242934023E+03  0.25500000920E-02 0.  1.
        2   -1    0    0  501    0  0.00000000000E+00  0.00000000000E+00 -0.99541721603E+03  0.99541721604E+03  0.25500000920E-02 0. -1.
    10030    2    1    2    0    0  0.00000000000E+00  0.00000000000E+00 -0.79298787581E+03  0.11978465563E+04  0.89777870390E+03 0.  0.
        5    1    3    3  502    0  0.19748607411E+02 -0.40061332186E+03 -0.12765820979E+03  0.42095100626E+03  0.46999998093E+01 0.  1.
       -5    1    3    3    0  502 -0.19748607411E+02  0.40061332186E+03 -0.66532966602E+03  0.77689555001E+03  0.46999998093E+01 0. -1.
</event>
<event>
 5   0  0.3969536E-03  0.9026547E+03  0.7818609E-02  0.9422269E-01
       -1   -1    0    0    0  501  0.00000000000E+00  0.00000000000E+00  0.25506189446E+03  0.25506189451E+03  0.50400001928E-02 0.  1.
        1   -1    0    0  501    0  0.00000000000E+00  0.00000000000E+00 -0.79861548600E+03  0.79861548602E+03  0.50400001928E-02 0. -1.
    10030    2    1    2    0    0  0.00000000000E+00  0.00000000000E+00 -0.54355359154E+03  0.10536773805E+04  0.90265470439E+03 0.  0.
        1    1    3    3  502    0  0.34112554666E+02 -0.31334240910E+02 -0.79583358790E+03  0.79718040661E+03  0.50400001928E-02 0. -1.
       -1    1    3    3    0  502 -0.34112554666E+02  0.31334240910E+02  0.25227999636E+03  0.25649697391E+03  0.50400001928E-02 0.  1.
</event>
<event>
 5   0  0.3969536E-03  0.9008177E+03  0.7818609E-02  0.9424560E-01
        1   -1    0    0  501    0  0.00000000000E+00  0.00000000000E+00  0.10676949463E+04  0.10676949463E+04  0.50400001928E-02 0. -1.
       -1   -1    0    0    0  501  0.00000000000E+00  0.00000000000E+00 -0.19000569914E+03  0.19000569921E+03  0.50400001928E-02 0.  1.
    10030    2    1    2    0    0  0.00000000000E+00  0.00000000000E+00  0.87768924715E+03  0.12577006455E+04  0.90081768364E+03 0.  0.
        1    1    3    3  502    0  0.97478953867E+01 -0.50001041488E+02  0.10636598169E+04  0.10648790221E+04  0.50400001928E-02 0. -1.
       -1    1    3    3    0  502 -0.97478953867E+01  0.50001041488E+02 -0.18597056975E+03  0.19282162341E+03  0.50400001928E-02 0.  1.
</event>
<event>
 5   0  0.6724773E-03  0.8954127E+03  0.7818609E-02  0.9431334E-01
       -2   -1    0    0    0  501  0.00000000000E+00  0.00000000000E+00  0.12446300379E+03  0.12446300382E+03  0.25500000920E-02 0.  1.
        2   -1    0    0  501    0  0.00000000000E+00  0.00000000000E+00 -0.16104460755E+04  0.16104460755E+04  0.25500000920E-02 0. -1.
    10030    2    1    2    0    0  0.00000000000E+00  0.00000000000E+00 -0.14859830717E+04  0.17349090793E+04  0.89541265575E+03 0.  0.
        5    1    3    3  502    0 -0.29368084636E+03  0.33665760217E+03 -0.79888196499E+03  0.91532576966E+03  0.46999998093E+01 0.  1.
       -5    1    3    3    0  502  0.29368084636E+03 -0.33665760217E+03 -0.68710110670E+03  0.81958330964E+03  0.46999998093E+01 0. -1.
</event>
<event>
 5   0  0.3998066E-03  0.8970462E+03  0.7818609E-02  0.9429281E-01
       -1   -1    0    0    0  501  0.00000000000E+00  0.00000000000E+00  0.27453610905E+03  0.27453610909E+03  0.50400001928E-02 0.  1.
        1   -1    0    0  501    0  0.00000000000E+00  0.00000000000E+00 -0.73277414342E+03  0.73277414344E+03  0.50400001928E-02 0. -1.
    10030    2    1    2    0    0  0.00000000000E+00  0.00000000000E+00 -0.45823803437E+03  0.10073102525E+04  0.89704617980E+03 0.  0.
        4    1    3    3  502    0  0.23139220587E+03 -0.19684690553E+03  0.14141074009E+03  0.33509650470E+03  0.12699999809E+01 0.  1.
       -4    1    3    3    0  502 -0.23139220587E+03  0.19684690553E+03 -0.59964877446E+03  0.67221374782E+03  0.12699999809E+01 0. -1.
</event>
<event>
 5   0  0.3969536E-03  0.9016712E+03  0.7818609E-02  0.9423495E-01
        1   -1    0    0  501    0  0.00000000000E+00  0.00000000000E+00  0.10807410341E+04  0.10807410341E+04  0.50400001928E-02 0. -1.
       -1   -1    0    0    0  501  0.00000000000E+00  0.00000000000E+00 -0.18806794891E+03  0.18806794897E+03  0.50400001928E-02 0.  1.
    10030    2    1    2    0    0  0.00000000000E+00  0.00000000000E+00  0.89267308520E+03  0.12688089831E+04  0.90167122530E+03 0.  0.
        1    1    3    3  502    0  0.84512131770E+02 -0.42903729604E+03  0.29194793773E+03  0.52578408133E+03  0.50400001928E-02 0. -1.
       -1    1    3    3    0  502 -0.84512131770E+02  0.42903729604E+03  0.60072514748E+03  0.74302490177E+03  0.50400001928E-02 0.  1.
</event>
<event>
 5   0  0.6724773E-03  0.8440429E+03  0.7818609E-02  0.9498367E-01
        2   -1    0    0  501    0  0.00000000000E+00  0.00000000000E+00  0.13815123456E+04  0.13815123456E+04  0.25500000920E-02 0. -1.
       -2   -1    0    0    0  501  0.00000000000E+00  0.00000000000E+00 -0.12891820097E+03  0.12891820100E+03  0.25500000920E-02 0.  1.
    10030    2    1    2    0    0  0.00000000000E+00  0.00000000000E+00  0.12525941446E+04  0.15104305466E+04  0.84404285729E+03 0.  0.
        5    1    3    3  502    0  0.28169576266E+03 -0.13007462483E+03  0.11445689195E+03  0.33074821366E+03  0.46999998093E+01 0.  1.
       -5    1    3    3    0  502 -0.28169576266E+03  0.13007462483E+03  0.11381372527E+04  0.11796823329E+04  0.46999998093E+01 0. -1.
</event>
<event>
 5   0  0.3794006E-03  0.9347403E+03  0.7818609E-02  0.9383167E-01
        1   -1    0    0  501    0  0.00000000000E+00  0.00000000000E+00  0.13292167305E+04  0.13292167305E+04  0.50400001928E-02 0. -1.
       -1   -1    0    0    0  501  0.00000000000E+00  0.00000000000E+00 -0.16433351996E+03  0.16433352004E+03  0.50400001928E-02 0.  1.
    10030    2    1    2    0    0  0.00000000000E+00  0.00000000000E+00  0.11648832106E+04  0.14935502506E+04  0.93474031513E+03 0.  0.
        5    1    3    3  502    0  0.14846407225E+03  0.44278714380E+03  0.55427551615E+03  0.72480719731E+03  0.46999998093E+01 0. -1.
       -5    1    3    3    0  502 -0.14846407225E+03 -0.44278714380E+03  0.61060769440E+03  0.76874305325E+03  0.46999998093E+01 0.  1.
</event>
<event>
 5   0  0.6524705E-03  0.9012129E+03  0.7818609E-02  0.9424067E-01
       -2   -1    0    0    0  501  0.00000000000E+00  0.00000000000E+00  0.20456967772E+03  0.20456967774E+03  0.25500000920E-02 0. -1.
        2   -1    0    0  501    0  0.00000000000E+00  0.00000000000E+00 -0.99255263272E+03  0.99255263272E+03  0.25500000920E-02 0.  1.
    10030    2    1    2    0    0  0.00000000000E+00  0.00000000000E+00 -0.78798295499E+03  0.11971223105E+04  0.90121289873E+03 0.  0.
        3    1    3    3  502    0 -0.16203301076E+03  0.97092921748E+02 -0.93742034776E+03  0.95626285645E+03  0.10100000352E+00 0.  1.
       -3    1    3    3    0  502  0.16203301076E+03 -0.97092921748E+02  0.14943739276E+03  0.24085945401E+03  0.10100000352E+00 0. -1.
</event>
<event>
 5   0  0.3927993E-03  0.9203764E+03  0.7818609E-02  0.9400462E-01
       -1   -1    0    0    0  501  0.00000000000E+00  0.00000000000E+00  0.92478339891E+03  0.92478339892E+03  0.50400001928E-02 0. -1.
        1   -1    0    0  501    0  0.00000000000E+00  0.00000000000E+00 -0.22899762440E+03  0.22899762446E+03  0.50400001928E-02 0.  1.
    10030    2    1    2    0    0  0.00000000000E+00  0.00000000000E+00  0.69578577451E+03  0.11537810234E+04  0.92037644793E+03 0.  0.
        2    1    3    3  502    0  0.11176116678E+03  0.34965411755E+03  0.69580755359E+03  0.78669988684E+03  0.25500000920E-02 0. -1.
       -2    1    3    3    0  502 -0.11176116678E+03 -0.34965411755E+03 -0.21779081239E-01  0.36708113654E+03  0.25500000920E-02 0.  1.
</event>
<event>
 5   0  0.3998066E-03  0.9024071E+03  0.7818609E-02  0.9422577E-01
       -1   -1    0    0    0  501  0.00000000000E+00  0.00000000000E+00  0.42292718275E+03  0.42292718278E+03  0.50400001928E-02 0.  1.
        1   -1    0    0  501    0  0.00000000000E+00  0.00000000000E+00 -0.48137040403E+03  0.48137040406E+03  0.50400001928E-02 0. -1.
    10030    2    1    2    0    0  0.00000000000E+00  0.00000000000E+00 -0.58443221274E+02  0.90429758684E+03  0.90240706749E+03 0.  0.
        4    1    3    3  502    0 -0.40473989877E+03  0.18667778103E+03 -0.99511529295E+02  0.45669151180E+03  0.12699999809E+01 0. -1.
       -4    1    3    3    0  502  0.40473989877E+03 -0.18667778103E+03  0.41068308021E+02  0.44760607504E+03  0.12699999809E+01 0.  1.
</event>
<event>
 5   0  0.3969536E-03  0.9040527E+03  0.7818609E-02  0.9420529E-01
        1   -1    0    0  501    0  0.00000000000E+00  0.00000000000E+00  0.66275294995E+03  0.66275294997E+03  0.50400001928E-02 0. -1.
       -1   -1    0    0    0  501  0.00000000000E+00  0.00000000000E+00 -0.30830165438E+03  0.30830165442E+03  0.50400001928E-02 0.  1.
    10030    2    1    2    0    0  0.00000000000E+00  0.00000000000E+00  0.35445129558E+03  0.97105460439E+03  0.90405272179E+03 0.  0.
        1    1    3    3  502    0 -0.12375653949E+03  0.11593616648E+03  0.62729167278E+03  0.64980898618E+03  0.50400001928E-02 0. -1.
       -1    1    3    3    0  502  0.12375653949E+03 -0.11593616648E+03 -0.27284037720E+03  0.32124561821E+03  0.50400001928E-02 0.  1.
</event>
<event>
 5   0  0.3998066E-03  0.9032975E+03  0.7818609E-02  0.9421469E-01
        1   -1    0    0  501    0  0.00000000000E+00  0.00000000000E+00  0.17558209243E+04  0.17558209243E+04  0.50400001928E-02 0. -1.
       -1   -1    0    0    0  501  0.00000000000E+00  0.00000000000E+00 -0.11617732630E+03  0.11617732641E+03  0.50400001928E-02 0.  1.
    10030    2    1    2    0    0  0.00000000000E+00  0.00000000000E+00  0.16396435980E+04  0.18719982507E+04  0.90329747162E+03 0.  0.
        4    1    3    3  502    0  0.40854541277E+03 -0.78615172062E+02  0.11840894691E+04  0.12550534583E+04  0.12699999809E+01 0. -1.
       -4    1    3    3    0  502 -0.40854541277E+03  0.78615172062E+02  0.45555412889E+03  0.61694479236E+03  0.12699999809E+01 0.  1.
</event>
<event>
 5   0  0.6609191E-03  0.9037358E+03  0.7818609E-02  0.9420923E-01
        2   -1    0    0  501    0  0.00000000000E+00  0.00000000000E+00  0.20304097423E+04  0.20304097423E+04  0.25500000920E-02 0.  1.
       -2   -1    0    0    0  501  0.00000000000E+00  0.00000000000E+00 -0.10056325140E+03  0.10056325143E+03  0.25500000920E-02 0. -1.
    10030    2    1    2    0    0  0.00000000000E+00  0.00000000000E+00  0.19298464909E+04  0.21309729937E+04  0.90373581401E+03 0.  0.
        2    1    3    3  502    0  0.36450099933E+03 -0.99375571677E+02  0.15494316524E+04  0.15948275544E+04  0.25500000920E-02 0.  1.
       -2    1    3    3    0  502 -0.36450099933E+03  0.99375571677E+02  0.38041483847E+03  0.53614543931E+03  0.25500000920E-02 0. -1.
</event>
<event>
 5   0  0.6863405E-03  0.9004293E+03  0.7818609E-02  0.9425045E-01
       -2   -1    0    0    0  501  0.00000000000E+00  0.00000000000E+00  0.53923516823E+03  0.53923516824E+03  0.25500000920E-02 0. -1.
        2   -1    0    0  501    0  0.00000000000E+00  0.00000000000E+00 -0.37589021936E+03  0.37589021937E+03  0.25500000920E-02 0.  1.
    10030    2    1    2    0    0  0.00000000000E+00  0.00000000000E+00  0.16334494887E+03  0.91512538761E+03  0.90042928802E+03 0.  0.
        1    1    3    3  502    0  0.22091982612E+03 -0.16221866087E+03 -0.28133032181E+03  0.39276865138E+03  0.50400001928E-02 0.  1.
       -1    1    3    3    0  502 -0.22091982612E+03  0.16221866087E+03  0.44467527068E+03  0.52235673623E+03  0.50400001928E-02 0. -1.
</event>
<event>
 5   0  0.6524705E-03  0.8907658E+03  0.7818609E-02  0.9437199E-01
        2   -1    0    0  501    0  0.00000000000E+00  0.00000000000E+00  0.20083199117E+04  0.20083199117E+04  0.25500000920E-02 0.  1.
       -2   -1    0    0    0  501  0.00000000000E+00  0.00000000000E+00 -0.98772078118E+02  0.98772078151E+02  0.25500000920E-02 0. -1.
    10030    2    1    2    0    0  0.00000000000E+00  0.00000000000E+00  0.19095478336E+04  0.21070919898E+04  0.89076580815E+03 0.  0.
        3    1    3    3  502    0 -0.13527789191E+03  0.54287833899E+01 -0.48917122911E+02  0.14395302999E+03  0.10100000352E+00 0. -1.
       -3    1    3    3    0  502  0.13527789191E+03 -0.54287833899E+01  0.19584649565E+04  0.19631389599E+04  0.10100000352E+00 0.  1.
</event>
<event>
 5   0  0.6863405E-03  0.9002062E+03  0.7818609E-02  0.9425324E-01
        2   -1    0    0  501    0  0.00000000000E+00  0.00000000000E+00  0.56110001146E+03  0.56110001147E+03  0.25500000920E-02 0.  1.
       -2   -1    0    0    0  501  0.00000000000E+00  0.00000000000E+00 -0.36106358454E+03  0.36106358455E+03  0.25500000920E-02 0. -1.
    10030    2    1    2    0    0  0.00000000000E+00  0.00000000000E+00  0.20003642692E+03  0.92216359602E+03  0.90020615735E+03 0.  0.
        1    1    3    3  502    0 -0.32855043519E+03  0.47993267255E+02  0.41131198276E+03  0.52860787863E+03  0.50400001928E-02 0.  1.
       -1    1    3    3    0  502  0.32855043519E+03 -0.47993267255E+02 -0.21127555583E+03  0.39355571738E+03  0.50400001928E-02 0. -1.
</event>
<event>
 5   0  0.6534628E-03  0.9025869E+03  0.7818609E-02  0.9422353E-01
        2   -1    0    0  501    0  0.00000000000E+00  0.00000000000E+00  0.19079798765E+03  0.19079798767E+03  0.25500000920E-02 0. -1.
       -2   -1    0    0    0  501  0.00000000000E+00  0.00000000000E+00 -0.10674420297E+04  0.10674420297E+04  0.25500000920E-02 0.  1.
    10030    2    1    2    0    0  0.00000000000E+00  0.00000000000E+00 -0.87664404203E+03  0.12582400174E+04  0.90258692925E+03 0.  0.
        4    1    3    3  502    0 -0.36006656567E+03  0.26427993538E+03 -0.52836823606E+03  0.69185722641E+03  0.12699999809E+01 0.  1.
       -4    1    3    3    0  502  0.36006656567E+03 -0.26427993538E+03 -0.34827580597E+03  0.56638279095E+03  0.12699999809E+01 0. -1.
</event>
<event>
 5   0  0.3943549E-03  0.8960815E+03  0.7818609E-02  0.9430493E-01
       -1   -1    0    0    0  501  0.00000000000E+00  0.00000000000E+00  0.50704728493E+03  0.50704728496E+03  0.50400001928E-02 0. -1.
        1   -1    0    0  501    0  0.00000000000E+00  0.00000000000E+00 -0.39590095619E+03  0.39590095623E+03  0.50400001928E-02 0.  1.
    10030    2    1    2    0    0  0.00000000000E+00  0.00000000000E+00  0.11114632874E+03  0.90294824118E+03  0.89608148059E+03 0.  0.
        3    1    3    3  502    0 -0.38171015148E+03 -0.79680628103E+02  0.27791957568E+03  0.47884333867E+03  0.10100000352E+00 0.  1.
       -3    1    3    3    0  502  0.38171015148E+03  0.79680628103E+02 -0.16677324694E+03  0.42410490251E+03  0.10100000352E+00 0. -1.
</event>
<event>
 5   0  0.3969536E-03  0.8849280E+03  0.7818609E-02  0.9444621E-01
       -1   -1    0    0    0  501  0.00000000000E+00  0.00000000000E+00  0.53051389048E+03  0.53051389050E+03  0.50400001928E-02 0. -1.
        1   -1    0    0  501    0  0.00000000000E+00  0.00000000000E+00 -0.36902780048E+03  0.36902780051E+03  0.50400001928E-02 0.  1.
    10030    2    1    2    0    0  0.00000000000E+00  0.00000000000E+00  0.16148609000E+03  0.89954169101E+03  0.88492796125E+03 0.  0.
        1    1    3    3  502    0 -0.12532982337E+03 -0.12749099314E+02  0.51189872737E+03  0.52717208885E+03  0.50400001928E-02 0. -1.
       -1    1    3    3    0  502  0.12532982337E+03  0.12749099314E+02 -0.35041263737E+03  0.37236960216E+03  0.50400001928E-02 0.  1.
</event>
<event>
 5   0  0.2560250E-03  0.9022909E+03  0.7818609E-02  0.9422722E-01
        3   -1    0    0  501    0  0.00000000000E+00  0.00000000000E+00  0.75498353510E+03  0.75498354186E+03  0.10100000352E+00 0.  1.
       -3   -1    0    0    0  501  0.00000000000E+00  0.00000000000E+00 -0.26958498103E+03  0.26958499995E+03  0.10100000352E+00 0. -1.
    10030    2    1    2    0    0  0.00000000000E+00  0.00000000000E+00  0.48539855407E+03  0.10245685418E+04  0.90229094008E+03 0.  0.
        2    1    3    3  502    0  0.19215742739E+03  0.26341613959E+03 -0.11135638921E+03  0.34454721726E+03  0.25500000920E-02 0. -1.
       -2    1    3    3    0  502 -0.19215742739E+03 -0.26341613959E+03  0.59675494328E+03  0.68002132454E+03  0.25500000920E-02 0.  1.
</event>
<event>
 5   0  0.3969536E-03  0.8956134E+03  0.7818609E-02  0.9431082E-01
       -1   -1    0    0    0  501  0.00000000000E+00  0.00000000000E+00  0.41112907296E+03  0.41112907299E+03  0.50400001928E-02 0. -1.
        1   -1    0    0  501    0  0.00000000000E+00  0.00000000000E+00 -0.48775637347E+03  0.48775637350E+03  0.50400001928E-02 0.  1.
    10030    2    1    2    0    0  0.00000000000E+00  0.00000000000E+00 -0.76627300512E+02  0.89888544649E+03  0.89561336676E+03 0.  0.
        1    1    3    3  502    0  0.43125852422E+00 -0.36279173770E+02  0.40965148332E+03  0.41125503310E+03  0.50400001928E-02 0. -1.
       -1    1    3    3    0  502 -0.43125852422E+00  0.36279173770E+02 -0.48627878383E+03  0.48763041339E+03  0.50400001928E-02 0.  1.
</event>
<event>
 5   0  0.3998066E-03  0.9078212E+03  0.7818609E-02  0.9415857E-01
        1   -1    0    0  501    0  0.00000000000E+00  0.00000000000E+00  0.71375055349E+03  0.71375055351E+03  0.50400001928E-02 0.  1.
       -1   -1    0    0    0  501  0.00000000000E+00  0.00000000000E+00 -0.28866501130E+03  0.28866501134E+03  0.50400001928E-02 0. -1.
    10030    2    1    2    0    0  0.00000000000E+00  0.00000000000E+00  0.42508554220E+03  0.10024155649E+04  0.90782115336E+03 0.  0.
        4    1    3    3  502    0  0.64013933361E+02  0.39469331666E+03  0.44975965314E+03  0.60180225687E+03  0.12699999809E+01 0.  1.
       -4    1    3    3    0  502 -0.64013933361E+02 -0.39469331666E+03 -0.24674110947E+02  0.40061330798E+03  0.12699999809E+01 0. -1.
</event>
<event>
 5   0  0.3943549E-03  0.9093504E+03  0.7818609E-02  0.9413968E-01
       -1   -1    0    0    0  501  0.00000000000E+00  0.00000000000E+00  0.38148630350E+03  0.38148630353E+03  0.50400001928E-02 0.  1.
        1   -1    0    0  501    0  0.00000000000E+00  0.00000000000E+00 -0.54190554978E+03  0.54190554980E+03  0.50400001928E-02 0. -1.
    10030    2    1    2    0    0  0.00000000000E+00  0.00000000000E+00 -0.16041924628E+03  0.92339185334E+03  0.90935041663E+03 0.  0.
        3    1    3    3  502    0  0.21186851478E+03 -0.20961546229E+03 -0.42888116820E+03  0.52227002233E+03  0.10100000352E+00 0. -1.
       -3    1    3    3    0  502 -0.21186851478E+03  0.20961546229E+03  0.26846192192E+03  0.40112183101E+03  0.10100000352E+00 0.  1.
</event>
<event>
 5   0  0.6534628E-03  0.8989857E+03  0.7818609E-02  0.9426850E-01
       -2   -1    0    0    0  501  0.00000000000E+00  0.00000000000E+00  0.33909694300E+03  0.33909694301E+03  0.25500000920E-02 0.  1.
        2   -1    0    0  501    0  0.00000000000E+00  0.00000000000E+00 -0.59582903317E+03  0.59582903318E+03  0.25500000920E-02 0. -1.
    10030    2    1    2    0    0  0.00000000000E+00  0.00000000000E+00 -0.25673209017E+03  0.93492597619E+03  0.89898565886E+03 0.  0.
        4    1    3    3  502    0 -0.93180901198E+02  0.81923900125E+02 -0.57766573178E+03  0.59084136309E+03  0.12699999809E+01 0. -1.
       -4    1    3    3    0  502  0.93180901198E+02 -0.81923900125E+02  0.32093364161E+03  0.34408461311E+03  0.12699999809E+01 0.  1.
</event>
<event>
 5   0  0.3927993E-03  0.9015827E+03  0.7818609E-02  0.9423605E-01
        1   -1    0    0  501    0  0.00000000000E+00  0.00000000000E+00  0.91654961857E+03  0.91654961859E+03  0.50400001928E-02 0.  1.
       -1   -1    0    0    0  501  0.00000000000E+00  0.00000000000E+00 -0.22171507067E+03  0.22171507073E+03  0.50400001928E-02 0. -1.
    10030    2    1    2    0    0  0.00000000000E+00  0.00000000000E+00  0.69483454791E+03  0.11382646893E+04  0.90158274938E+03 0.  0.
        2    1    3    3  502    0 -0.34558752010E+03  0.13988003213E+03  0.66734973082E+03  0.76442973560E+03  0.25500000920E-02 0.  1.
       -2    1    3    3    0  502  0.34558752010E+03 -0.13988003213E+03  0.27484817087E+02  0.37383495371E+03  0.25500000920E-02 0. -1.
</event>
<event>
 5   0  0.3943549E-03  0.9061992E+03  0.7818609E-02  0.9417865E-01
       -1   -1    0    0    0  501  0.00000000000E+00  0.00000000000E+00  0.56688547484E+03  0.56688547486E+03  0.50400001928E-02 0. -1.
        1   -1    0    0  501    0  0.00000000000E+00  0.00000000000E+00 -0.36215295770E+03  0.36215295774E+03  0.50400001928E-02 0.  1.
    10030    2    1    2    0    0  0.00000000000E+00  0.00000000000E+00  0.20473251714E+03  0.92903843260E+03  0.90619920861E+03 0.  0.
        3    1    3    3  502    0 -0.13293820110E+03 -0.41622562615E+03 -0.20585089044E+02  0.43742438578E+03  0.10100000352E+00 0.  1.
       -3    1    3    3    0  502  0.13293820110E+03  0.41622562615E+03  0.22531760618E+03  0.49161404683E+03  0.10100000352E+00 0. -1.
</event>
<event>
 5   0  0.6724773E-03  0.9029808E+03  0.7818609E-02  0.9421863E-01
        2   -1    0    0  501    0  0.00000000000E+00  0.00000000000E+00  0.10450225760E+04  0.10450225760E+04  0.25500000920E-02 0. -1.
       -2   -1    0    0    0  501  0.00000000000E+00  0.00000000000E+00 -0.19506141757E+03  0.19506141759E+03  0.25500000920E-02 0.  1.
    10030    2    1    2    0    0  0.00000000000E+00  0.00000000000E+00  0.84996115843E+03  0.12400839936E+04  0.90298080840E+03 0.  0.
        5    1    3    3  502    0  0.41406562711E+03  0.16184215721E+03  0.53292642716E+03  0.69402874160E+03  0.46999998093E+01 0.  1.
       -5    1    3    3    0  502 -0.41406562711E+03 -0.16184215721E+03  0.31703473127E+03  0.54605525200E+03  0.46999998093E+01 0. -1.
</event>
<event>
 5   0  0.3927993E-03  0.9008980E+03  0.7818609E-02  0.9424460E-01
       -1   -1    0    0    0  501  0.00000000000E+00  0.00000000000E+00  0.35627963503E+03  0.35627963506E+03  0.50400001928E-02 0.  1.
        1   -1    0    0  501    0  0.00000000000E+00  0.00000000000E+00 -0.56950859734E+03  0.56950859736E+03  0.50400001928E-02 0. -1.
    10030    2    1    2    0    0  0.00000000000E+00  0.00000000000E+00 -0.21322896231E+03  0.92578823242E+03  0.90089803026E+03 0.  0.
        2    1    3    3  502    0  0.13565452043E+02  0.40817027888E+03  0.88681704167E+02  0.41791319997E+03  0.25500000920E-02 0. -1.
       -2    1    3    3    0  502 -0.13565452043E+02 -0.40817027888E+03 -0.30191066648E+03  0.50787503245E+03  0.25500000920E-02 0.  1.
</event>
<event>
 5   0  0.3794006E-03  0.9007911E+03  0.7818609E-02  0.9424593E-01
       -1   -1    0    0    0  501  0.00000000000E+00  0.00000000000E+00  0.88363367781E+03  0.88363367783E+03  0.50400001928E-02 0. -1.
        1   -1    0    0  501    0  0.00000000000E+00  0.00000000000E+00 -0.22957041307E+03  0.22957041312E+03  0.50400001928E-02 0.  1.
    10030    2    1    2    0    0  0.00000000000E+00  0.00000000000E+00  0.65406326475E+03  0.11132040910E+04  0.90079109333E+03 0.  0.
        5    1    3    3  502    0 -0.42075169691E+03  0.15210284484E+03  0.26321331778E+03  0.51910558321E+03  0.46999998093E+01 0. -1.
       -5    1    3    3    0  502  0.42075169691E+03 -0.15210284484E+03  0.39084994696E+03  0.59409850774E+03  0.46999998093E+01 0.  1.
</event>
<event>
 5   0  0.3794006E-03  0.8927506E+03  0.7818609E-02  0.9434689E-01
        1   -1    0    0  501    0  0.00000000000E+00  0.00000000000E+00  0.14584136346E+04  0.14584136346E+04  0.50400001928E-02 0. -1.
       -1   -1    0    0    0  501  0.00000000000E+00  0.00000000000E+00 -0.13662165970E+03  0.13662165979E+03  0.50400001928E-02 0.  1.
    10030    2    1    2    0    0  0.00000000000E+00  0.00000000000E+00  0.13217919749E+04  0.15950352944E+04  0.89275056172E+03 0.  0.
        5    1    3    3  502    0 -0.50209121145E+02 -0.21814651314E+03 -0.29038781753E+02  0.22577466174E+03  0.46999998093E+01 0.  1.
       -5    1    3    3    0  502  0.50209121145E+02  0.21814651314E+03  0.13508307566E+04  0.13692606326E+04  0.46999998093E+01 0. -1.
</event>
<event>
 5   0  0.6609191E-03  0.9028833E+03  0.7818609E-02  0.9421984E-01
       -2   -1    0    0    0  501  0.00000000000E+00  0.00000000000E+00  0.29358908301E+03  0.29358908302E+03  0.25500000920E-02 0.  1.
        2   -1    0    0  501    0  0.00000000000E+00  0.00000000000E+00 -0.69416594701E+03  0.69416594701E+03  0.25500000920E-02 0. -1.
    10030    2    1    2    0    0  0.00000000000E+00  0.00000000000E+00 -0.40057686399E+03  0.98775503004E+03  0.90288325679E+03 0.  0.
        2    1    3    3  502    0 -0.54124654105E+02 -0.44142176380E+03 -0.28514857558E+03  0.52829192867E+03  0.25500000920E-02 0. -1.
       -2    1    3    3    0  502  0.54124654105E+02  0.44142176380E+03 -0.11542828842E+03  0.45946310136E+03  0.25500000920E-02 0.  1.
</event>
<event>
 5   0  0.6609191E-03  0.8994023E+03  0.7818609E-02  0.9426329E-01
        2   -1    0    0  501    0  0.00000000000E+00  0.00000000000E+00  0.59832573193E+03  0.59832573193E+03  0.25500000920E-02 0. -1.
       -2   -1    0    0    0  501  0.00000000000E+00  0.00000000000E+00 -0.33799504894E+03  0.33799504895E+03  0.25500000920E-02 0.  1.
    10030    2    1    2    0    0  0.00000000000E+00  0.00000000000E+00  0.26033068299E+03  0.93632078088E+03  0.89940232388E+03 0.  0.
        2    1    3    3  502    0 -0.33974224789E+03 -0.29252697414E+03  0.93590480608E+02  0.45799127030E+03  0.25500000920E-02 0.  1.
       -2    1    3    3    0  502  0.33974224789E+03  0.29252697414E+03  0.16674020238E+03  0.47832951059E+03  0.25500000920E-02 0. -1.
</event>
<event>
 5   0  0.6724773E-03  0.9004410E+03  0.7818609E-02  0.9425030E-01
       -2   -1    0    0    0  501  0.00000000000E+00  0.00000000000E+00  0.64284418113E+03  0.64284418114E+03  0.25500000920E-02 0.  1.
        2   -1    0    0  501    0  0.00000000000E+00  0.00000000000E+00 -0.31531514634E+03  0.31531514635E+03  0.25500000920E-02 0. -1.
    10030    2    1    2    0    0  0.00000000000E+00  0.00000000000E+00  0.32752903480E+03  0.95815932748E+03  0.90044101873E+03 0.  0.
        5    1    3    3  502    0 -0.36919836778E+03  0.12163711812E+03  0.40541925653E+03  0.56168486435E+03  0.46999998093E+01 0.  1.
       -5    1    3    3    0  502  0.36919836778E+03 -0.12163711812E+03 -0.77890221732E+02  0.39647446313E+03  0.46999998093E+01 0. -1.
</event>
<event>
 5   0  0.6534628E-03  0.9006631E+03  0.7818609E-02  0.9424753E-01
        2   -1    0    0  501    0  0.00000000000E+00  0.00000000000E+00  0.14985091269E+04  0.14985091269E+04  0.25500000920E-02 0.  1.
       -2   -1    0    0    0  501  0.00000000000E+00  0.00000000000E+00 -0.13533351524E+03  0.13533351526E+03  0.25500000920E-02 0. -1.
    10030    2    1    2    0    0  0.00000000000E+00  0.00000000000E+00  0.13631756117E+04  0.16338426422E+04  0.90066310635E+03 0.  0.
        4    1    3    3  502    0 -0.93248395484E+02  0.18295634122E+03  0.14086294751E+04  0.14235191945E+04  0.12699999809E+01 0.  1.
       -4    1    3    3    0  502  0.93248395484E+02 -0.18295634122E+03 -0.45453863414E+02  0.21032344770E+03  0.12699999809E+01 0. -1.
</event>
<event>
 5   0  0.3969536E-03  0.8994079E+03  0.7818609E-02  0.9426322E-01
       -1   -1    0    0    0  501  0.00000000000E+00  0.00000000000E+00  0.38462358118E+03  0.38462358122E+03  0.50400001928E-02 0. -1.
        1   -1    0    0  501    0  0.00000000000E+00  0.00000000000E+00 -0.52579627337E+03  0.52579627339E+03  0.50400001928E-02 0.  1.
    10030    2    1    2    0    0  0.00000000000E+00  0.00000000000E+00 -0.14117269218E+03  0.91041985461E+03  0.89940790671E+03 0.  0.
        1    1    3    3  502    0  0.31798880675E+03 -0.30647386526E+03  0.15248889098E+02  0.44190003388E+03  0.50400001928E-02 0. -1.
       -1    1    3    3    0  502 -0.31798880675E+03  0.30647386526E+03 -0.15642158128E+03  0.46851982073E+03  0.50400001928E-02 0.  1.
</event>
<event>
 5   0  0.6534628E-03  0.8847580E+03  0.7818609E-02  0.9444838E-01
        2   -1    0    0  501    0  0.00000000000E+00  0.00000000000E+00  0.59641709313E+03  0.59641709314E+03  0.25500000920E-02 0.  1.
       -2   -1    0    0    0  501  0.00000000000E+00  0.00000000000E+00 -0.32812473236E+03  0.32812473237E+03  0.25500000920E-02 0. -1.
    10030    2    1    2    0    0  0.00000000000E+00  0.00000000000E+00  0.26829236077E+03  0.92454182551E+03  0.88475804391E+03 0.  0.
        4    1    3    3  502    0  0.99732115925E+02 -0.17494838319E+03 -0.27744849861E+03  0.34283044499E+03  0.12699999809E+01 0. -1.
       -4    1    3    3    0  502 -0.99732115925E+02  0.17494838319E+03  0.54574085939E+03  0.58171138052E+03  0.12699999809E+01 0.  1.
</event>
<event>
 5   0  0.3998066E-03  0.8777234E+03  0.7818609E-02  0.9453865E-01
        1   -1    0    0  501    0  0.00000000000E+00  0.00000000000E+00  0.11574622979E+04  0.11574622979E+04  0.50400001928E-02 0.  1.
       -1   -1    0    0    0  501  0.00000000000E+00  0.00000000000E+00 -0.16639814651E+03  0.16639814658E+03  0.50400001928E-02 0. -1.
    10030    2    1    2    0    0  0.00000000000E+00  0.00000000000E+00  0.99106415135E+03  0.13238604445E+04  0.87772337572E+03 0.  0.
        4    1    3    3  502    0 -0.25400097072E+03  0.13693283151E+03 -0.31869686498E+01  0.28858077403E+03  0.12699999809E+01 0. -1.
       -4    1    3    3    0  502  0.25400097072E+03 -0.13693283151E+03  0.99425112000E+03  0.10352796704E+04  0.12699999809E+01 0.  1.
</event>
<event>
 5   0  0.6863405E-03  0.8913251E+03  0.7818609E-02  0.9436491E-01
        2   -1    0    0  501    0  0.00000000000E+00  0.00000000000E+00  0.12671640804E+04  0.12671640805E+04  0.25500000920E-02 0.  1.
       -2   -1    0    0    0  501  0.00000000000E+00  0.00000000000E+00 -0.15673983764E+03  0.15673983766E+03  0.25500000920E-02 0. -1.
    10030    2    1    2    0    0  0.00000000000E+00  0.00000000000E+00  0.11104242428E+04  0.14239039181E+04  0.89132506360E+03 0.  0.
        1    1    3    3  502    0  0.88715675729E+02 -0.14183379207E+03  0.12150989462E+04  0.12265613498E+04  0.50400001928E-02 0.  1.
       -1    1    3    3    0  502 -0.88715675729E+02  0.14183379207E+03 -0.10467470344E+03  0.19734256828E+03  0.50400001928E-02 0. -1.
</event>
<event>
 5   0  0.3943549E-03  0.8973763E+03  0.7818609E-02  0.9428867E-01
        1   -1    0    0  501    0  0.00000000000E+00  0.00000000000E+00  0.33713369144E+03  0.33713369147E+03  0.50400001928E-02 0. -1.
       -1   -1    0    0    0  501  0.00000000000E+00  0.00000000000E+00 -0.59715494786E+03  0.59715494788E+03  0.50400001928E-02 0.  1.
    10030    2    1    2    0    0  0.00000000000E+00  0.00000000000E+00 -0.26002125642E+03  0.93428863935E+03  0.89737629110E+03 0.  0.
        3    1    3    3  502    0  0.16293303521E+03  0.35079762444E+03  0.10675262475E+03  0.40125089454E+03  0.10100000352E+00 0. -1.
       -3    1    3    3    0  502 -0.16293303521E+03 -0.35079762444E+03 -0.36677388118E+03  0.53303774481E+03  0.10100000352E+00 0.  1.
</event>
<event>
 5   0  0.6524705E-03  0.8991212E+03  0.7818609E-02  0.9426681E-01
        2   -1    0    0  501    0  0.00000000000E+00  0.00000000000E+00  0.50462559231E+03  0.50462559232E+03  0.25500000920E-02 0.  1.
       -2   -1    0    0    0  501  0.00000000000E+00  0.00000000000E+00 -0.40050433284E+03  0.40050433285E+03  0.25500000920E-02 0. -1.
    10030    2    1    2    0    0  0.00000000000E+00  0.00000000000E+00  0.10412125947E+03  0.90512992517E+03  0.89912120693E+03 0.  0.
        3    1    3    3  502    0  0.31917729315E+02 -0.41961478784E+03 -0.10713987621E+03  0.43425139596E+03  0.10100000352E+00 0. -1.
       -3    1    3    3    0  502 -0.31917729315E+02  0.41961478784E+03  0.21126113568E+03  0.47087852921E+03  0.10100000352E+00 0.  1.
</event>
<event>
 5   0  0.3794006E-03  0.8422564E+03  0.7818609E-02  0.9500789E-01
       -1   -1    0    0    0  501  0.00000000000E+00  0.00000000000E+00  0.13710876968E+03  0.13710876978E+03  0.50400001928E-02 0. -1.
        1   -1    0    0  501    0  0.00000000000E+00  0.00000000000E+00 -0.12934911477E+04  0.12934911477E+04  0.50400001928E-02 0.  1.
    10030    2    1    2    0    0  0.00000000000E+00  0.00000000000E+00 -0.11563823780E+04  0.14305999175E+04  0.84225644535E+03 0.  0.
        5    1    3    3  502    0 -0.28409521044E+03  0.29352073202E+03 -0.40445546729E+03  0.57486591805E+03  0.46999998093E+01 0.  1.
       -5    1    3    3    0  502  0.28409521044E+03 -0.29352073202E+03 -0.75192691074E+03  0.85573399945E+03  0.46999998093E+01 0. -1.
</event>
<event>
 5   0  0.6863405E-03  0.8983276E+03  0.7818609E-02  0.9427674E-01
       -2   -1    0    0    0  501  0.00000000000E+00  0.00000000000E+00  0.20025058467E+03  0.20025058468E+03  0.25500000920E-02 0.  1.
        2   -1    0    0  501    0  0.00000000000E+00  0.00000000000E+00 -0.10074782446E+04  0.10074782446E+04  0.25500000920E-02 0. -1.
    10030    2    1    2    0    0  0.00000000000E+00  0.00000000000E+00 -0.80722765994E+03  0.12077288293E+04  0.89832757395E+03 0.  0.
        1    1    3    3  502    0 -0.34664718847E+03  0.56763011712E+02 -0.77995947074E+03  0.85540814165E+03  0.50400001928E-02 0. -1.
       -1    1    3    3    0  502  0.34664718847E+03 -0.56763011712E+02 -0.27268189194E+02  0.35232068764E+03  0.50400001928E-02 0.  1.
</event>
<event>
 5   0  0.6524705E-03  0.8957023E+03  0.7818609E-02  0.9430970E-01
        2   -1    0    0  501    0  0.00000000000E+00  0.00000000000E+00  0.19277595445E+04  0.19277595445E+04  0.25500000920E-02 0.  1.
       -2   -1    0    0    0  501  0.00000000000E+00  0.00000000000E+00 -0.10404338772E+03  0.10404338775E+03  0.25500000920E-02 0. -1.
    10030    2    1    2    0    0  0.00000000000E+00  0.00000000000E+00  0.18237161568E+04  0.20318029323E+04  0.89570225803E+03 0.  0.
        3    1    3    3  502    0 -0.17456334807E+03 -0.34001415241E+03  0.14413640799E+04  0.14911781944E+04  0.10100000352E+00 0.  1.
       -3    1    3    3    0  502  0.17456334807E+03  0.34001415241E+03  0.38235207690E+03  0.54062473791E+03  0.10100000352E+00 0. -1.
</event>
<event>
 5   0  0.2560250E-03  0.9005085E+03  0.7818609E-02  0.9424946E-01
       -3   -1    0    0    0  501  0.00000000000E+00  0.00000000000E+00  0.93417122952E+02  0.93417177552E+02  0.10100000352E+00 0.  1.
        3   -1    0    0  501    0  0.00000000000E+00  0.00000000000E+00 -0.21701463738E+04  0.21701463762E+04  0.10100000352E+00 0. -1.
    10030    2    1    2    0    0  0.00000000000E+00  0.00000000000E+00 -0.20767292509E+04  0.22635635537E+04  0.90050851209E+03 0.  0.
        2    1    3    3  502    0 -0.24802032235E+03  0.47291706182E+02 -0.19754483226E+04  0.19915186820E+04  0.25500000920E-02 0. -1.
       -2    1    3    3    0  502  0.24802032235E+03 -0.47291706182E+02 -0.10128092832E+03  0.27204487170E+03  0.25500000920E-02 0.  1.
</event>
<event>
 5   0  0.3998066E-03  0.9010007E+03  0.7818609E-02  0.9424331E-01
       -1   -1    0    0    0  501  0.00000000000E+00  0.00000000000E+00  0.46375872467E+03  0.46375872470E+03  0.50400001928E-02 0.  1.
        1   -1    0    0  501    0  0.00000000000E+00  0.00000000000E+00 -0.43762098608E+03  0.43762098611E+03  0.50400001928E-02 0. -1.
    10030    2    1    2    0    0  0.00000000000E+00  0.00000000000E+00  0.26137738591E+02  0.90137971081E+03  0.90100066686E+03 0.  0.
        4    1    3    3  502    0 -0.31956584749E+03  0.17195440523E+03  0.28012365278E+03  0.45843377069E+03  0.12699999809E+01 0.  1.
       -4    1    3    3    0  502  0.31956584749E+03 -0.17195440523E+03 -0.25398591419E+03  0.44294594012E+03  0.12699999809E+01 0. -1.
</event>
<event>
 5   0  0.3927993E-03  0.8529047E+03  0.7818609E-02  0.9486447E-01
        1   -1    0    0  501    0  0.00000000000E+00  0.00000000000E+00  0.13866755379E+04  0.13866755379E+04  0.50400001928E-02 0. -1.
       -1   -1    0    0    0  501  0.00000000000E+00  0.00000000000E+00 -0.13114935788E+03  0.13114935797E+03  0.50400001928E-02 0.  1.
    10030    2    1    2    0    0  0.00000000000E+00  0.00000000000E+00  0.12555261800E+04  0.15178248959E+04  0.85290469915E+03 0.  0.
        2    1    3    3  502    0 -0.41296303198E+03 -0.50133944398E+02  0.46073003599E+03  0.62074474967E+03  0.25500000920E-02 0. -1.
       -2    1    3    3    0  502  0.41296303198E+03  0.50133944398E+02  0.79479614402E+03  0.89708014620E+03  0.25500000920E-02 0.  1.
</event>
<event>
 5   0  0.6534628E-03  0.9018650E+03  0.7818609E-02  0.9423253E-01
       -2   -1    0    0    0  501  0.00000000000E+00  0.00000000000E+00  0.26039978551E+03  0.26039978552E+03  0.25500000920E-02 0.  1.
        2   -1    0    0  501    0  0.00000000000E+00  0.00000000000E+00 -0.78087666574E+03  0.78087666575E+03  0.25500000920E-02 0. -1.
    10030    2    1    2    0    0  0.00000000000E+00  0.00000000000E+00 -0.52047688024E+03  0.10412764513E+04  0.90186499272E+03 0.  0.
        4    1    3    3  502    0 -0.17366105445E+03  0.41521350069E+03 -0.22803223603E+03  0.50454011393E+03  0.12699999809E+01 0.  1.
       -4    1    3    3    0  502  0.17366105445E+03 -0.41521350069E+03 -0.29244464421E+03  0.53673633734E+03  0.12699999809E+01 0. -1.
</event>
<event>
 5   0  0.6863405E-03  0.9010421E+03  0.7818609E-02  0.9424280E-01
       -2   -1    0    0    0  501  0.00000000000E+00  0.00000000000E+00  0.93052895867E+02  0.93052895902E+02  0.25500000920E-02 0.  1.
        2   -1    0    0  501    0  0.00000000000E+00  0.00000000000E+00 -0.21812242939E+04  0.21812242939E+04  0.25500000920E-02 0. -1.
    10030    2    1    2    0    0  0.00000000000E+00  0.00000000000E+00 -0.20881713980E+04  0.22742771898E+04  0.90104214579E+03 0.  0.
        1    1    3    3  502    0 -0.36961194628E+03 -0.13396935761E+03 -0.15994256432E+04  0.16470346590E+04  0.50400001928E-02 0. -1.
       -1    1    3    3    0  502  0.36961194628E+03  0.13396935761E+03 -0.48874575477E+03  0.62724253080E+03  0.50400001928E-02 0.  1.
</event>
<event>
 5   0  0.3969536E-03  0.8991555E+03  0.7818609E-02  0.9426638E-01
        1   -1    0    0  501    0  0.00000000000E+00  0.00000000000E+00  0.15595213496E+04  0.15595213496E+04  0.50400001928E-02 0. -1.
       -1   -1    0    0    0  501  0.00000000000E+00  0.00000000000E+00 -0.12960397047E+03  0.12960397057E+03  0.50400001928E-02 0.  1.
    10030    2    1    2    0    0  0.00000000000E+00  0.00000000000E+00  0.14299173791E+04  0.16891253202E+04  0.89915551275E+03 0.  0.
        1    1    3    3  502    0  0.40658385261E+02 -0.26957526080E+03  0.43396729749E+02  0.27605651905E+03  0.50400001928E-02 0.  1.
       -1    1    3    3    0  502 -0.40658385261E+02  0.26957526080E+03  0.13865206494E+04  0.14130688011E+04  0.50400001928E-02 0. -1.
</event>
<event>
 5   0  0.6724773E-03  0.9050925E+03  0.7818609E-02  0.9419238E-01
       -2   -1    0    0    0  501  0.00000000000E+00  0.00000000000E+00  0.40406118637E+03  0.40406118638E+03  0.25500000920E-02 0.  1.
        2   -1    0    0  501    0  0.00000000000E+00  0.00000000000E+00 -0.50684921722E+03  0.50684921723E+03  0.25500000920E-02 0. -1.
    10030    2    1    2    0    0  0.00000000000E+00  0.00000000000E+00 -0.10278803085E+03  0.91091040360E+03  0.90509247268E+03 0.  0.
        5    1    3    3  502    0 -0.25829237282E+03  0.12708275050E+03 -0.40279600065E+03  0.49510774936E+03  0.46999998093E+01 0. -1.
       -5    1    3    3    0  502  0.25829237282E+03 -0.12708275050E+03  0.30000796981E+03  0.41580265425E+03  0.46999998093E+01 0.  1.
</event>
<event>
 5   0  0.3998066E-03  0.9044626E+03  0.7818609E-02  0.9420020E-01
        1   -1    0    0  501    0  0.00000000000E+00  0.00000000000E+00  0.26655731459E+03  0.26655731464E+03  0.50400001928E-02 0. -1.
       -1   -1    0    0    0  501  0.00000000000E+00  0.00000000000E+00 -0.76723885076E+03  0.76723885078E+03  0.50400001928E-02 0.  1.
    10030    2    1    2    0    0  0.00000000000E+00  0.00000000000E+00 -0.50068153617E+03  0.10337961654E+04  0.90446255366E+03 0.  0.
        4    1    3    3  502    0 -0.37149028567E+03  0.18067104520E+03 -0.40003428191E+02  0.41502884971E+03  0.12699999809E+01 0. -1.
       -4    1    3    3    0  502  0.37149028567E+03 -0.18067104520E+03 -0.46067810798E+03  0.61876731571E+03  0.12699999809E+01 0.  1.
</event>
<event>
 5   0  0.3943549E-03  0.9004348E+03  0.7818609E-02  0.9425038E-01
        1   -1    0    0  501    0  0.00000000000E+00  0.00000000000E+00  0.22323157872E+04  0.22323157872E+04  0.50400001928E-02 0. -1.
       -1   -1    0    0    0  501  0.00000000000E+00  0.00000000000E+00 -0.90800640182E+02  0.90800640322E+02  0.50400001928E-02 0.  1.
    10030    2    1    2    0    0  0.00000000000E+00  0.00000000000E+00  0.21415151470E+04  0.23231164275E+04  0.90043478994E+03 0.  0.
        3    1    3    3  502    0  0.21346442219E+03 -0.18899588809E+03  0.19697260966E+04  0.19902531023E+04  0.10100000352E+00 0. -1.
       -3    1    3    3    0  502 -0.21346442219E+03  0.18899588809E+03  0.17178905040E+03  0.33286332524E+03  0.10100000352E+00 0.  1.
</event>
<event>
 5   0  0.2560250E-03  0.9199762E+03  0.7818609E-02  0.9400949E-01
        3   -1    0    0  501    0  0.00000000000E+00  0.00000000000E+00  0.40190122924E+03  0.40190124193E+03  0.10100000352E+00 0.  1.
       -3   -1    0    0    0  501  0.00000000000E+00  0.00000000000E+00 -0.52647030744E+03  0.52647031713E+03  0.10100000352E+00 0. -1.
    10030    2    1    2    0    0  0.00000000000E+00  0.00000000000E+00 -0.12456907821E+03  0.92837155906E+03  0.91997624775E+03 0.  0.
        3    1    3    3  502    0  0.40626429380E+02 -0.40550901948E+03  0.15297164954E+03  0.43530266184E+03  0.10100000352E+00 0.  1.
       -3    1    3    3    0  502 -0.40626429380E+02  0.40550901948E+03 -0.27754072775E+03  0.49306889722E+03  0.10100000352E+00 0. -1.
</event>
<event>
 5   0  0.3927993E-03  0.9214731E+03  0.7818609E-02  0.9399130E-01
        1   -1    0    0  501    0  0.00000000000E+00  0.00000000000E+00  0.43502541420E+03  0.43502541423E+03  0.50400001928E-02 0.  1.
       -1   -1    0    0    0  501  0.00000000000E+00  0.00000000000E+00 -0.48796725977E+03  0.48796725980E+03  0.50400001928E-02 0. -1.
    10030    2    1    2    0    0  0.00000000000E+00  0.00000000000E+00 -0.52941845571E+02  0.92299267403E+03  0.92147308007E+03 0.  0.
        2    1    3    3  502    0 -0.66522304355E+02 -0.37308902087E+03  0.23598699140E+03  0.44644203945E+03  0.25500000920E-02 0.  1.
       -2    1    3    3    0  502  0.66522304355E+02  0.37308902087E+03 -0.28892883698E+03  0.47655063457E+03  0.25500000920E-02 0. -1.
</event>
<event>
 5   0  0.6534628E-03  0.8973448E+03  0.7818609E-02  0.9428907E-01
       -2   -1    0    0    0  501  0.00000000000E+00  0.00000000000E+00  0.24620176621E+03  0.24620176622E+03  0.25500000920E-02 0.  1.
        2   -1    0    0  501    0  0.00000000000E+00  0.00000000000E+00 -0.81765028736E+03  0.81765028737E+03  0.25500000920E-02 0. -1.
    10030    2    1    2    0    0  0.00000000000E+00  0.00000000000E+00 -0.57144852116E+03  0.10638520536E+04  0.89734484987E+03 0.  0.
        4    1    3    3  502    0  0.17525905461E+03  0.16013616218E+03 -0.73708625421E+03  0.77437528738E+03  0.12699999809E+01 0. -1.
       -4    1    3    3    0  502 -0.17525905461E+03 -0.16013616218E+03  0.16563773306E+03  0.28947676620E+03  0.12699999809E+01 0.  1.
</event>
<event>
 5   0  0.3969536E-03  0.8979696E+03  0.7818609E-02  0.9428123E-01
       -1   -1    0    0    0  501  0.00000000000E+00  0.00000000000E+00  0.34817967030E+03  0.34817967034E+03  0.50400001928E-02 0. -1.
        1   -1    0    0  501    0  0.00000000000E+00  0.00000000000E+00 -0.57897505126E+03  0.57897505128E+03  0.50400001928E-02 0.  1.
    10030    2    1    2    0    0  0.00000000000E+00  0.00000000000E+00 -0.23079538095E+03  0.92715472162E+03  0.89796958186E+03 0.  0.
        1    1    3    3  502    0  0.14467750094E+03  0.29351561890E+03 -0.43280467288E+03  0.54258905510E+03  0.50400001928E-02 0.  1.
       -1    1    3    3    0  502 -0.14467750094E+03 -0.29351561890E+03  0.20200929193E+03  0.38456566652E+03  0.50400001928E-02 0. -1.
</event>
<event>
 5   0  0.3943549E-03  0.9027390E+03  0.7818609E-02  0.9422164E-01
       -1   -1    0    0    0  501  0.00000000000E+00  0.00000000000E+00  0.22812073343E+03  0.22812073349E+03  0.50400001928E-02 0. -1.
        1   -1    0    0  501    0  0.00000000000E+00  0.00000000000E+00 -0.89309906028E+03  0.89309906030E+03  0.50400001928E-02 0.  1.
    10030    2    1    2    0    0  0.00000000000E+00  0.00000000000E+00 -0.66497832685E+03  0.11212197938E+04  0.90273897157E+03 0.  0.
        3    1    3    3  502    0 -0.23816168367E+03 -0.12259987632E+03 -0.78370781632E+03  0.82822078506E+03  0.10100000352E+00 0.  1.
       -3    1    3    3    0  502  0.23816168367E+03  0.12259987632E+03  0.11872948947E+03  0.29299900872E+03  0.10100000352E+00 0. -1.
</event>
<event>
 5   0  0.6609191E-03  0.9002323E+03  0.7818609E-02  0.9425291E-01
       -2   -1    0    0    0  501  0.00000000000E+00  0.00000000000E+00  0.13450774897E+04  0.13450774897E+04  0.25500000920E-02 0. -1.
        2   -1    0    0  501    0  0.00000000000E+00  0.00000000000E+00 -0.15062667754E+03  0.15062667756E+03  0.25500000920E-02 0.  1.
    10030    2    1    2    0    0  0.00000000000E+00  0.00000000000E+00  0.11944508122E+04  0.14957041673E+04  0.90023231075E+03 0.  0.
        2    1    3    3  502    0 -0.12419112974E+03  0.41970475569E+03  0.77171111338E+03  0.88719420713E+03  0.25500000920E-02 0. -1.
       -2    1    3    3    0  502  0.12419112974E+03 -0.41970475569E+03  0.42273969880E+03  0.60850996015E+03  0.25500000920E-02 0.  1.
</event>
<event>
 5   0  0.6534628E-03  0.9082485E+03  0.7818609E-02  0.9415329E-01
        2   -1    0    0  501    0  0.00000000000E+00  0.00000000000E+00  0.10901941594E+04  0.10901941594E+04  0.25500000920E-02 0.  1.
       -2   -1    0    0    0  501  0.00000000000E+00  0.00000000000E+00 -0.18916707966E+03  0.18916707968E+03  0.25500000920E-02 0. -1.
    10030    2    1    2    0    0  0.00000000000E+00  0.00000000000E+00  0.90102707977E+03  0.12793612391E+04  0.90824852418E+03 0.  0.
        4    1    3    3  502    0 -0.30299151177E+02  0.35368187130E+03  0.51557273980E+02  0.35870415393E+03  0.12699999809E+01 0. -1.
       -4    1    3    3    0  502  0.30299151177E+02 -0.35368187130E+03  0.84946980579E+03  0.92065708518E+03  0.12699999809E+01 0.  1.
</event>
<event>
 5   0  0.3794006E-03  0.8974661E+03  0.7818609E-02  0.9428754E-01
        1   -1    0    0  501    0  0.00000000000E+00  0.00000000000E+00  0.10671383250E+04  0.10671383250E+04  0.50400001928E-02 0.  1.
       -1   -1    0    0    0  501  0.00000000000E+00  0.00000000000E+00 -0.18869283135E+03  0.18869283142E+03  0.50400001928E-02 0. -1.
    10030    2    1    2    0    0  0.00000000000E+00  0.00000000000E+00  0.87844549364E+03  0.12558311564E+04  0.89746610418E+03 0.  0.
        5    1    3    3  502    0  0.20755170350E+03 -0.28024892947E+03  0.44126834776E+02  0.35154863054E+03  0.46999998093E+01 0. -1.
       -5    1    3    3    0  502 -0.20755170350E+03  0.28024892947E+03  0.83431865886E+03  0.90428252588E+03  0.46999998093E+01 0.  1.
</event>
<event>
 5   0  0.6534628E-03  0.9006468E+03  0.7818609E-02  0.9424773E-01
       -2   -1    0    0    0  501  0.00000000000E+00  0.00000000000E+00  0.91142734999E+02  0.91142735035E+02  0.25500000920E-02 0.  1.
        2   -1    0    0  501    0  0.00000000000E+00  0.00000000000E+00 -0.22249841757E+04  0.22249841757E+04  0.25500000920E-02 0. -1.
    10030    2    1    2    0    0  0.00000000000E+00  0.00000000000E+00 -0.21338414407E+04  0.23161269108E+04  0.90064675239E+03 0.  0.
        4    1    3    3  502    0  0.13806061718E+03  0.24829242421E+02 -0.21673613836E+04  0.21718964536E+04  0.12699999809E+01 0. -1.
       -4    1    3    3    0  502 -0.13806061718E+03 -0.24829242421E+02  0.33519942864E+02  0.14423045714E+03  0.12699999809E+01 0.  1.
</event>
<event>
 5   0  0.3927993E-03  0.8997603E+03  0.7818609E-02  0.9425881E-01
        1   -1    0    0  501    0  0.00000000000E+00  0.00000000000E+00  0.75560439911E+03  0.75560439913E+03  0.50400001928E-02 0. -1.
       -1   -1    0    0    0  501  0.00000000000E+00  0.00000000000E+00 -0.26785462767E+03  0.26785462772E+03  0.50400001928E-02 0.  1.
    10030    2    1    2    0    0  0.00000000000E+00  0.00000000000E+00  0.48774977144E+03  0.10234590268E+04  0.89976026812E+03 0.  0.
        2    1    3    3  502    0  0.25147631189E+03  0.14327076510E+03 -0.14789611699E+03  0.32502324379E+03  0.25500000920E-02 0.  1.
       -2    1    3    3    0  502 -0.25147631189E+03 -0.14327076510E+03  0.63564588843E+03  0.69843578306E+03  0.25500000920E-02 0. -1.
</event>
<event>
 5   0  0.6724773E-03  0.8265144E+03  0.7818609E-02  0.9522412E-01
        2   -1    0    0  501    0  0.00000000000E+00  0.00000000000E+00  0.10720771379E+04  0.10720771379E+04  0.25500000920E-02 0. -1.
       -2   -1    0    0    0  501  0.00000000000E+00  0.00000000000E+00 -0.15929965268E+03  0.15929965270E+03  0.25500000920E-02 0.  1.
    10030    2    1    2    0    0  0.00000000000E+00  0.00000000000E+00  0.91277748524E+03  0.12313767906E+04  0.82651440576E+03 0.  0.
        5    1    3    3  502    0 -0.22827728087E+03  0.28638365659E+03  0.17123530159E+03  0.40431390556E+03  0.46999998093E+01 0.  1.
       -5    1    3    3    0  502  0.22827728087E+03 -0.28638365659E+03  0.74154218366E+03  0.82706288507E+03  0.46999998093E+01 0. -1.
</event>
<event>
 5   0  0.3998066E-03  0.8882796E+03  0.7818609E-02  0.9440352E-01
        1   -1    0    0  501    0  0.00000000000E+00  0.00000000000E+00  0.69693112454E+03  0.69693112455E+03  0.50400001928E-02 0. -1.
       -1   -1    0    0    0  501  0.00000000000E+00  0.00000000000E+00 -0.28304114506E+03  0.28304114511E+03  0.50400001928E-02 0.  1.
    10030    2    1    2    0    0  0.00000000000E+00  0.00000000000E+00  0.41388997948E+03  0.97997226966E+03  0.88827964864E+03 0.  0.
        4    1    3    3  502    0  0.37374126324E+03 -0.15343456224E+03  0.41047092881E+03  0.57594504342E+03  0.12699999809E+01 0. -1.
       -4    1    3    3    0  502 -0.37374126324E+03  0.15343456224E+03  0.34190506634E+01  0.40402722624E+03  0.12699999809E+01 0.  1.
</event>
<event>
 5   0  0.6524705E-03  0.8975713E+03  0.7818609E-02  0.9428623E-01
        2   -1    0    0  501    0  0.00000000000E+00  0.00000000000E+00  0.51566379403E+03  0.51566379403E+03  0.25500000920E-02 0.  1.
       -2   -1    0    0    0  501  0.00000000000E+00  0.00000000000E+00 -0.39058115800E+03  0.39058115801E+03  0.25500000920E-02 0. -1.
    10030    2    1    2    0    0  0.00000000000E+00  0.00000000000E+00  0.12508263603E+03  0.90624495204E+03  0.89757130484E+03 0.  0.
        3    1    3    3  502    0 -0.26510938289E+03 -0.30084963209E+03  0.26602061107E+03  0.48120729602E+03  0.10100000352E+00 0. -1.
       -3    1    3    3    0  502  0.26510938289E+03  0.30084963209E+03 -0.14093797505E+03  0.42503765602E+03  0.10100000352E+00 0.  1.
</event>
<event>
 5   0  0.2560250E-03  0.9004859E+03  0.7818609E-02  0.9424974E-01
        4   -1    0    0  501    0  0.00000000000E+00  0.00000000000E+00  0.51757942877E+03  0.51758098689E+03  0.12699999809E+01 0. -1.
       -4   -1    0    0    0  501  0.00000000000E+00  0.00000000000E+00 -0.39166367354E+03  0.39166573258E+03  0.12699999809E+01 0.  1.
    10030    2    1    2    0    0  0.00000000000E+00  0.00000000000E+00  0.12591575523E+03  0.90924671946E+03  0.90048587964E+03 0.  0.
        3    1    3    3  502    0  0.31917590534E+03 -0.62063873957E+02  0.37742567397E+03  0.49817199095E+03  0.10100000352E+00 0. -1.
       -3    1    3    3    0  502 -0.31917590534E+03  0.62063873957E+02 -0.25150991874E+03  0.41107472851E+03  0.10100000352E+00 0.  1.
</event>
<event>
 5   0  0.6609191E-03  0.8909922E+03  0.7818609E-02  0.9436912E-01
        2   -1    0    0  501    0  0.00000000000E+00  0.00000000000E+00  0.14074685001E+04  0.14074685001E+04  0.25500000920E-02 0.  1.
       -2   -1    0    0    0  501  0.00000000000E+00  0.00000000000E+00 -0.14100975530E+03  0.14100975533E+03  0.25500000920E-02 0. -1.
    10030    2    1    2    0    0  0.00000000000E+00  0.00000000000E+00  0.12664587448E+04  0.15484782554E+04  0.89099223074E+03 0.  0.
        2    1    3    3  502    0  0.29367841144E+02  0.43202861070E+03  0.81513630179E+03  0.92301591593E+03  0.25500000920E-02 0.  1.
       -2    1    3    3    0  502 -0.29367841144E+02 -0.43202861070E+03  0.45132244297E+03  0.62546233947E+03  0.25500000920E-02 0. -1.
</event>
<event>
 5   0  0.2560250E-03  0.8967027E+03  0.7818609E-02  0.9429713E-01
       -3   -1    0    0    0  501  0.00000000000E+00  0.00000000000E+00  0.16303262897E+04  0.16303262928E+04  0.10100000352E+00 0.  1.
        3   -1    0    0  501    0  0.00000000000E+00  0.00000000000E+00 -0.12329978190E+03  0.12329982327E+03  0.10100000352E+00 0. -1.
    10030    2    1    2    0    0  0.00000000000E+00  0.00000000000E+00  0.15070265078E+04  0.17536261161E+04  0.89670265966E+03 0.  0.
        4    1    3    3  502    0  0.37830180645E+03  0.20597745761E+03  0.51020848065E+03  0.66772245464E+03  0.12699999809E+01 0.  1.
       -4    1    3    3    0  502 -0.37830180645E+03 -0.20597745761E+03  0.99681802711E+03  0.10859036614E+04  0.12699999809E+01 0. -1.
</event>
<event>
 5   0  0.6534628E-03  0.9052531E+03  0.7818609E-02  0.9419038E-01
        2   -1    0    0  501    0  0.00000000000E+00  0.00000000000E+00  0.71986301363E+03  0.71986301364E+03  0.25500000920E-02 0.  1.
       -2   -1    0    0    0  501  0.00000000000E+00  0.00000000000E+00 -0.28459694276E+03  0.28459694278E+03  0.25500000920E-02 0. -1.
    10030    2    1    2    0    0  0.00000000000E+00  0.00000000000E+00  0.43526607087E+03  0.10044599564E+04  0.90525314227E+03 0.  0.
        4    1    3    3  502    0 -0.89049564726E+02 -0.21060761941E+03 -0.21579480928E+03  0.31441120677E+03  0.12699999809E+01 0. -1.
       -4    1    3    3    0  502  0.89049564726E+02  0.21060761941E+03  0.65106088015E+03  0.69004874965E+03  0.12699999809E+01 0.  1.
</event>
<event>
 5   0  0.6724773E-03  0.9001836E+03  0.7818609E-02  0.9425352E-01
       -2   -1    0    0    0  501  0.00000000000E+00  0.00000000000E+00  0.57918580109E+03  0.57918580110E+03  0.25500000920E-02 0. -1.
        2   -1    0    0  501    0  0.00000000000E+00  0.00000000000E+00 -0.34977137838E+03  0.34977137839E+03  0.25500000920E-02 0.  1.
    10030    2    1    2    0    0  0.00000000000E+00  0.00000000000E+00  0.22941442271E+03  0.92895717949E+03  0.90018357238E+03 0.  0.
        5    1    3    3  502    0 -0.43885500548E+03  0.23706079904E+02  0.21478556031E+03  0.48919384806E+03  0.46999998093E+01 0. -1.
       -5    1    3    3    0  502  0.43885500548E+03 -0.23706079904E+02  0.14628862405E+02  0.43976333144E+03  0.46999998093E+01 0.  1.
</event>
<event>
 5   0  0.3998066E-03  0.9000217E+03  0.7818609E-02  0.9425554E-01
       -1   -1    0    0    0  501  0.00000000000E+00  0.00000000000E+00  0.47507327693E+03  0.47507327696E+03  0.50400001928E-02 0.  1.
        1   -1    0    0  501    0  0.00000000000E+00  0.00000000000E+00 -0.42627057657E+03  0.42627057660E+03  0.50400001928E-02 0. -1.
    10030    2    1    2    0    0  0.00000000000E+00  0.00000000000E+00  0.48802700361E+02  0.90134385356E+03  0.90002168796E+03 0.  0.
        4    1    3    3  502    0 -0.22894085494E+03 -0.16011106058E+03 -0.32890392510E+03  0.43154243317E+03  0.12699999809E+01 0. -1.
       -4    1    3    3    0  502  0.22894085494E+03  0.16011106058E+03  0.37770662547E+03  0.46980142039E+03  0.12699999809E+01 0.  1.
</event>
<event>
 5   0  0.2560250E-03  0.9025025E+03  0.7818609E-02  0.9422459E-01
        4   -1    0    0  501    0  0.00000000000E+00  0.00000000000E+00  0.57248683967E+03  0.57248824835E+03  0.12699999809E+01 0. -1.
       -4   -1    0    0    0  501  0.00000000000E+00  0.00000000000E+00 -0.35568679131E+03  0.35568905861E+03  0.12699999809E+01 0.  1.
    10030    2    1    2    0    0  0.00000000000E+00  0.00000000000E+00  0.21680004836E+03  0.92817730695E+03  0.90250254968E+03 0.  0.
        5    1    3    3  502    0 -0.19705190823E+03  0.13863694455E+03  0.50077157789E+03  0.55573727620E+03  0.46999998093E+01 0. -1.
       -5    1    3    3    0  502  0.19705190823E+03 -0.13863694455E+03 -0.28397152953E+03  0.37244003076E+03  0.46999998093E+01 0.  1.
</event>
<event>
 5   0  0.6724773E-03  0.8918169E+03  0.7818609E-02  0.9435869E-01
       -2   -1    0    0    0  501  0.00000000000E+00  0.00000000000E+00  0.11091764234E+03  0.11091764237E+03  0.25500000920E-02 0.  1.
        2   -1    0    0  501    0  0.00000000000E+00  0.00000000000E+00 -0.17926303912E+04  0.17926303912E+04  0.25500000920E-02 0. -1.
    10030    2    1    2    0    0  0.00000000000E+00  0.00000000000E+00 -0.16817127488E+04  0.19035480335E+04  0.89181687941E+03 0.  0.
        5    1    3    3  502    0  0.17907800416E+03  0.15857460394E+03 -0.37670971538E+02  0.24219006727E+03  0.46999998093E+01 0.  1.
       -5    1    3    3    0  502 -0.17907800416E+03 -0.15857460394E+03 -0.16440417773E+04  0.16613579663E+04  0.46999998093E+01 0. -1.
</event>
<event>
 5   0  0.3943549E-03  0.9012942E+03  0.7818609E-02  0.9423965E-01
       -1   -1    0    0    0  501  0.00000000000E+00  0.00000000000E+00  0.23818799732E+03  0.23818799737E+03  0.50400001928E-02 0.  1.
        1   -1    0    0  501    0  0.00000000000E+00  0.00000000000E+00 -0.85261556145E+03  0.85261556147E+03  0.50400001928E-02 0. -1.
    10030    2    1    2    0    0  0.00000000000E+00  0.00000000000E+00 -0.61442756413E+03  0.10908035588E+04  0.90129416530E+03 0.  0.
        3    1    3    3  502    0 -0.44057179477E+02  0.25443005582E+03 -0.75420445994E+03  0.79718258007E+03  0.10100000352E+00 0. -1.
       -3    1    3    3    0  502  0.44057179477E+02 -0.25443005582E+03  0.13977689581E+03  0.29362097877E+03  0.10100000352E+00 0.  1.
</event>
<event>
 5   0  0.6863405E-03  0.8468315E+03  0.7818609E-02  0.9494600E-01
        2   -1    0    0  501    0  0.00000000000E+00  0.00000000000E+00  0.72664827165E+03  0.72664827165E+03  0.25500000920E-02 0. -1.
       -2   -1    0    0    0  501  0.00000000000E+00  0.00000000000E+00 -0.24672306291E+03  0.24672306293E+03  0.25500000920E-02 0.  1.
    10030    2    1    2    0    0  0.00000000000E+00  0.00000000000E+00  0.47992520873E+03  0.97337133458E+03  0.84683147615E+03 0.  0.
        1    1    3    3  502    0  0.16114906171E+03  0.25028875990E+03 -0.10614181939E+03  0.31603729095E+03  0.50400001928E-02 0.  1.
       -1    1    3    3    0  502 -0.16114906171E+03 -0.25028875990E+03  0.58606702812E+03  0.65733404362E+03  0.50400001928E-02 0. -1.
</event>
<event>
 5   0  0.3969536E-03  0.9013032E+03  0.7818609E-02  0.9423954E-01
       -1   -1    0    0    0  501  0.00000000000E+00  0.00000000000E+00  0.16071611812E+03  0.16071611820E+03  0.50400001928E-02 0.  1.
        1   -1    0    0  501    0  0.00000000000E+00  0.00000000000E+00 -0.12636371126E+04  0.12636371126E+04  0.50400001928E-02 0. -1.
    10030    2    1    2    0    0  0.00000000000E+00  0.00000000000E+00 -0.11029209945E+04  0.14243532308E+04  0.90130317100E+03 0.  0.
        1    1    3    3  502    0  0.38925088743E+03 -0.10627877878E+03 -0.86861204946E+03  0.95775692358E+03  0.50400001928E-02 0. -1.
       -1    1    3    3    0  502 -0.38925088743E+03  0.10627877878E+03 -0.23430894506E+03  0.46659630726E+03  0.50400001928E-02 0.  1.
</event>
<event>
 5   0  0.6863405E-03  0.9733234E+03  0.7818609E-02  0.9338297E-01
       -2   -1    0    0    0  501  0.00000000000E+00  0.00000000000E+00  0.94602765259E+02  0.94602765294E+02  0.25500000920E-02 0. -1.
        2   -1    0    0  501    0  0.00000000000E+00  0.00000000000E+00 -0.25035167429E+04  0.25035167429E+04  0.25500000920E-02 0.  1.
    10030    2    1    2    0    0  0.00000000000E+00  0.00000000000E+00 -0.24089139776E+04  0.25981195082E+04  0.97332339291E+03 0.  0.
        1    1    3    3  502    0  0.40165555069E+03 -0.26466884109E+03 -0.14017495917E+04  0.14819847147E+04  0.50400001928E-02 0.  1.
       -1    1    3    3    0  502 -0.40165555069E+03  0.26466884109E+03 -0.10071643860E+04  0.11161347935E+04  0.50400001928E-02 0. -1.
</event>
<event>
 5   0  0.6863405E-03  0.8951984E+03  0.7818609E-02  0.9431604E-01
        2   -1    0    0  501    0  0.00000000000E+00  0.00000000000E+00  0.18793108055E+04  0.18793108055E+04  0.25500000920E-02 0.  1.
       -2   -1    0    0    0  501  0.00000000000E+00  0.00000000000E+00 -0.10660560484E+03  0.10660560487E+03  0.25500000920E-02 0. -1.
    10030    2    1    2    0    0  0.00000000000E+00  0.00000000000E+00  0.17727052007E+04  0.19859164104E+04  0.89519844758E+03 0.  0.
        1    1    3    3  502    0 -0.39186565976E+03  0.17565304910E+03  0.11663680022E+04  0.12429106990E+04  0.50400001928E-02 0. -1.
       -1    1    3    3    0  502  0.39186565976E+03 -0.17565304910E+03  0.60633719842E+03  0.74300571140E+03  0.50400001928E-02 0.  1.
</event>
<event>
 5   0  0.6724773E-03  0.8902244E+03  0.7818609E-02  0.9437885E-01
       -2   -1    0    0    0  501  0.00000000000E+00  0.00000000000E+00  0.30995222321E+03  0.30995222322E+03  0.25500000920E-02 0.  1.
        2   -1    0    0  501    0  0.00000000000E+00  0.00000000000E+00 -0.63921098009E+03  0.63921098010E+03  0.25500000920E-02 0. -1.
    10030    2    1    2    0    0  0.00000000000E+00  0.00000000000E+00 -0.32925875688E+03  0.94916320332E+03  0.89022438607E+03 0.  0.
        5    1    3    3  502    0 -0.60384390252E+02  0.26160463742E+03 -0.54312451711E+03  0.60587918927E+03  0.46999998093E+01 0. -1.
       -5    1    3    3    0  502  0.60384390252E+02 -0.26160463742E+03  0.21386576023E+03  0.34328401405E+03  0.46999998093E+01 0.  1.
</event>
<event>
 5   0  0.6524705E-03  0.9015631E+03  0.7818609E-02  0.9423630E-01
        2   -1    0    0  501    0  0.00000000000E+00  0.00000000000E+00  0.56155035321E+03  0.56155035322E+03  0.25500000920E-02 0. -1.
       -2   -1    0    0    0  501  0.00000000000E+00  0.00000000000E+00 -0.36186247976E+03  0.36186247977E+03  0.25500000920E-02 0.  1.
    10030    2    1    2    0    0  0.00000000000E+00  0.00000000000E+00  0.19968787345E+03  0.92341283299E+03  0.90156309448E+03 0.  0.
        3    1    3    3  502    0 -0.27283776017E+03 -0.23612636056E+03 -0.17690418599E+03  0.40185968042E+03  0.10100000352E+00 0.  1.
       -3    1    3    3    0  502  0.27283776017E+03  0.23612636056E+03  0.37659205944E+03  0.52155315257E+03  0.10100000352E+00 0. -1.
</event>
<event>
 5   0  0.3927993E-03  0.9015688E+03  0.7818609E-02  0.9423622E-01
        1   -1    0    0  501    0  0.00000000000E+00  0.00000000000E+00  0.55799147216E+03  0.55799147218E+03  0.50400001928E-02 0. -1.
       -1   -1    0    0    0  501  0.00000000000E+00  0.00000000000E+00 -0.36417504881E+03  0.36417504885E+03  0.50400001928E-02 0.  1.
    10030    2    1    2    0    0  0.00000000000E+00  0.00000000000E+00  0.19381642335E+03  0.92216652103E+03  0.90156879191E+03 0.  0.
        2    1    3    3  502    0  0.38794196921E+03 -0.14070906755E+03 -0.88643476747E+02  0.42208491935E+03  0.25500000920E-02 0.  1.
       -2    1    3    3    0  502 -0.38794196921E+03  0.14070906755E+03  0.28245990010E+03  0.50008160168E+03  0.25500000920E-02 0. -1.
</event>
<event>
 5   0  0.3943549E-03  0.8990666E+03  0.7818609E-02  0.9426749E-01
       -1   -1    0    0    0  501  0.00000000000E+00  0.00000000000E+00  0.10402243393E+04  0.10402243393E+04  0.50400001928E-02 0. -1.
        1   -1    0    0  501    0  0.00000000000E+00  0.00000000000E+00 -0.19426596457E+03  0.19426596463E+03  0.50400001928E-02 0.  1.
    10030    2    1    2    0    0  0.00000000000E+00  0.00000000000E+00  0.84595837471E+03  0.12344903039E+04  0.89906659305E+03 0.  0.
        3    1    3    3  502    0 -0.27060193072E+03 -0.64857300343E+02  0.90775283407E+03  0.94944567632E+03  0.10100000352E+00 0. -1.
       -3    1    3    3    0  502  0.27060193072E+03  0.64857300343E+02 -0.61794459356E+02  0.28504462761E+03  0.10100000352E+00 0.  1.
</event>
<event>
 5   0  0.2560250E-03  0.8999917E+03  0.7818609E-02  0.9425592E-01
        3   -1    0    0  501    0  0.00000000000E+00  0.00000000000E+00  0.15561637913E+03  0.15561641191E+03  0.10100000352E+00 0.  1.
       -3   -1    0    0    0  501  0.00000000000E+00  0.00000000000E+00 -0.13012526987E+04  0.13012527026E+04  0.10100000352E+00 0. -1.
    10030    2    1    2    0    0  0.00000000000E+00  0.00000000000E+00 -0.11456363196E+04  0.14568691145E+04  0.89999168895E+03 0.  0.
        1    1    3    3  502    0 -0.33899998256E+03 -0.13462395240E+03 -0.14621569242E+03  0.39296771556E+03  0.50400001928E-02 0.  1.
       -1    1    3    3    0  502  0.33899998256E+03  0.13462395240E+03 -0.99942062716E+03  0.10639013990E+04  0.50400001928E-02 0. -1.
</event>
<event>
 5   0  0.3927993E-03  0.8937932E+03  0.7818609E-02  0.9433374E-01
       -1   -1    0    0    0  501  0.00000000000E+00  0.00000000000E+00  0.17206581485E+03  0.17206581492E+03  0.50400001928E-02 0.  1.
        1   -1    0    0  501    0  0.00000000000E+00  0.00000000000E+00 -0.11606988397E+04  0.11606988397E+04  0.50400001928E-02 0. -1.
    10030    2    1    2    0    0  0.00000000000E+00  0.00000000000E+00 -0.98863302480E+03  0.13327646546E+04  0.89379324610E+03 0.  0.
        2    1    3    3  502    0  0.11201429801E+03 -0.42306169412E+03 -0.35938592885E+03  0.56629201465E+03  0.25500000920E-02 0.  1.
       -2    1    3    3    0  502 -0.11201429801E+03  0.42306169412E+03 -0.62924709596E+03  0.76647263994E+03  0.25500000920E-02 0. -1.
</event>
<event>
 5   0  0.3969536E-03  0.8808976E+03  0.7818609E-02  0.9449780E-01
       -1   -1    0    0    0  501  0.00000000000E+00  0.00000000000E+00  0.65982222477E+03  0.65982222478E+03  0.50400001928E-02 0. -1.
        1   -1    0    0  501    0  0.00000000000E+00  0.00000000000E+00 -0.29401125026E+03  0.29401125030E+03  0.50400001928E-02 0.  1.
    10030    2    1    2    0    0  0.00000000000E+00  0.00000000000E+00  0.36581097451E+03  0.95383347508E+03  0.88089762692E+03 0.  0.
        1    1    3    3  502    0 -0.20066507885E+03 -0.21374028258E+02  0.60682001227E+03  0.63949499628E+03  0.50400001928E-02 0. -1.
       -1    1    3    3    0  502  0.20066507885E+03  0.21374028258E+02 -0.24100903776E+03  0.31433847881E+03  0.50400001928E-02 0.  1.
</event>
<event>
 5   0  0.6863405E-03  0.8923941E+03  0.7818609E-02  0.9435139E-01
        2   -1    0    0  501    0  0.00000000000E+00  0.00000000000E+00  0.51139989799E+03  0.51139989800E+03  0.25500000920E-02 0.  1.
       -2   -1    0    0    0  501  0.00000000000E+00  0.00000000000E+00 -0.38930747450E+03  0.38930747451E+03  0.25500000920E-02 0. -1.
    10030    2    1    2    0    0  0.00000000000E+00  0.00000000000E+00  0.12209242349E+03  0.90070737251E+03  0.89239408952E+03 0.  0.
        1    1    3    3  502    0 -0.20781115518E+03  0.37542567072E+03 -0.62412088706E+02  0.43361870266E+03  0.50400001928E-02 0. -1.
       -1    1    3    3    0  502  0.20781115518E+03 -0.37542567072E+03  0.18450451220E+03  0.46708866985E+03  0.50400001928E-02 0.  1.
</event>
<event>
 5   0  0.3943549E-03  0.9076695E+03  0.7818609E-02  0.9416045E-01
        1   -1    0    0  501    0  0.00000000000E+00  0.00000000000E+00  0.48068043830E+03  0.48068043832E+03  0.50400001928E-02 0.  1.
       -1   -1    0    0    0  501  0.00000000000E+00  0.00000000000E+00 -0.42848838337E+03  0.42848838340E+03  0.50400001928E-02 0. -1.
    10030    2    1    2    0    0  0.00000000000E+00  0.00000000000E+00  0.52192054926E+02  0.90916882173E+03  0.90766950803E+03 0.  0.
        3    1    3    3  502    0 -0.20350410491E+03  0.40562694987E+03  0.30442615973E+02  0.45483393260E+03  0.10100000352E+00 0.  1.
       -3    1    3    3    0  502  0.20350410491E+03 -0.40562694987E+03  0.21749438952E+02  0.45433488912E+03  0.10100000352E+00 0. -1.
</event>
<event>
 5   0  0.6609191E-03  0.8903414E+03  0.7818609E-02  0.9437736E-01
        2   -1    0    0  501    0  0.00000000000E+00  0.00000000000E+00  0.21026013067E+04  0.21026013067E+04  0.25500000920E-02 0. -1.
       -2   -1    0    0    0  501  0.00000000000E+00  0.00000000000E+00 -0.94253228246E+02  0.94253228281E+02  0.25500000920E-02 0.  1.
    10030    2    1    2    0    0  0.00000000000E+00  0.00000000000E+00  0.20083480785E+04  0.21968545350E+04  0.89034141971E+03 0.  0.
        2    1    3    3  502    0 -0.14711042424E+03  0.29392726988E+02 -0.30004310895E+02  0.15298911072E+03  0.25500000920E-02 0.  1.
       -2    1    3    3    0  502  0.14711042424E+03 -0.29392726988E+02  0.20383523894E+04  0.20438654243E+04  0.25500000920E-02 0. -1.
</event>
<event>
 5   0  0.3794006E-03  0.8925757E+03  0.7818609E-02  0.9434910E-01
        1   -1    0    0  501    0  0.00000000000E+00  0.00000000000E+00  0.27176028746E+03  0.27176028751E+03  0.50400001928E-02 0.  1.
       -1   -1    0    0    0  501  0.00000000000E+00  0.00000000000E+00 -0.73289897578E+03  0.73289897580E+03  0.50400001928E-02 0. -1.
    10030    2    1    2    0    0  0.00000000000E+00  0.00000000000E+00 -0.46113868831E+03  0.10046592633E+04  0.89257568054E+03 0.  0.
        5    1    3    3  502    0  0.18599103559E+03  0.96690085962E+00  0.22602667074E+03  0.29275202152E+03  0.46999998093E+01 0.  1.
       -5    1    3    3    0  502 -0.18599103559E+03 -0.96690085962E+00 -0.68716535906E+03  0.71190724179E+03  0.46999998093E+01 0. -1.
</event>
<event>
 5   0  0.6534628E-03  0.9109121E+03  0.7818609E-02  0.9412043E-01
       -2   -1    0    0    0  501  0.00000000000E+00  0.00000000000E+00  0.22429578878E+03  0.22429578879E+03  0.25500000920E-02 0.  1.
        2   -1    0    0  501    0  0.00000000000E+00  0.00000000000E+00 -0.92485109707E+03  0.92485109708E+03  0.25500000920E-02 0. -1.
    10030    2    1    2    0    0  0.00000000000E+00  0.00000000000E+00 -0.70055530829E+03  0.11491468859E+04  0.91091208430E+03 0.  0.
        4    1    3    3  502    0  0.34372598145E+03 -0.16182229290E+03 -0.66718298950E+03  0.76776868859E+03  0.12699999809E+01 0. -1.
       -4    1    3    3    0  502 -0.34372598145E+03  0.16182229290E+03 -0.33372318793E+02  0.38137819728E+03  0.12699999809E+01 0.  1.
</event>
<event>
 5   0  0.6863405E-03  0.9007613E+03  0.7818609E-02  0.9424630E-01
       -2   -1    0    0    0  501  0.00000000000E+00  0.00000000000E+00  0.12202553828E+03  0.12202553830E+03  0.25500000920E-02 0.  1.
        2   -1    0    0  501    0  0.00000000000E+00  0.00000000000E+00 -0.16622975250E+04  0.16622975250E+04  0.25500000920E-02 0. -1.
    10030    2    1    2    0    0  0.00000000000E+00  0.00000000000E+00 -0.15402719867E+04  0.17843230633E+04  0.90076134527E+03 0.  0.
        1    1    3    3  502    0  0.28628744108E+03  0.34767799486E+03 -0.76715591465E+03  0.88958905369E+03  0.50400001928E-02 0. -1.
       -1    1    3    3    0  502 -0.28628744108E+03 -0.34767799486E+03 -0.77311607205E+03  0.89473400959E+03  0.50400001928E-02 0.  1.
</event>
<event>
 5   0  0.6863405E-03  0.9005849E+03  0.7818609E-02  0.9424851E-01
       -2   -1    0    0    0  501  0.00000000000E+00  0.00000000000E+00  0.39759205456E+03  0.39759205457E+03  0.25500000920E-02 0.  1.
        2   -1    0    0  501    0  0.00000000000E+00  0.00000000000E+00 -0.50997823385E+03  0.50997823386E+03  0.25500000920E-02 0. -1.
    10030    2    1    2    0    0  0.00000000000E+00  0.00000000000E+00 -0.11238617929E+03  0.90757028842E+03  0.90058490723E+03 0.  0.
        1    1    3    3  502    0 -0.31755544611E+03 -0.24398502761E+03  0.15129988239E+03  0.42809088928E+03  0.50400001928E-02 0.  1.
       -1    1    3    3    0  502  0.31755544611E+03  0.24398502761E+03 -0.26368606169E+03  0.47947939914E+03  0.50400001928E-02 0. -1.
</event>
<event>
 5   0  0.3998066E-03  0.9023922E+03  0.7818609E-02  0.9422596E-01
       -1   -1    0    0    0  501  0.00000000000E+00  0.00000000000E+00  0.23767325759E+03  0.23767325765E+03  0.50400001928E-02 0. -1.
        1   -1    0    0  501    0  0.00000000000E+00  0.00000000000E+00 -0.85654539282E+03  0.85654539284E+03  0.50400001928E-02 0.  1.
    10030    2    1    2    0    0  0.00000000000E+00  0.00000000000E+00 -0.61887213523E+03  0.10942186505E+04  0.90239222919E+03 0.  0.
        4    1    3    3  502    0 -0.37892021236E+03 -0.21640126317E+03 -0.17029977629E+03  0.46841611922E+03  0.12699999809E+01 0. -1.
       -4    1    3    3    0  502  0.37892021236E+03  0.21640126317E+03 -0.44857235894E+03  0.62580253127E+03  0.12699999809E+01 0.  1.
</event>
<event>
 5   0  0.6534628E-03  0.9038081E+03  0.7818609E-02  0.9420834E-01
        2   -1    0    0  501    0  0.00000000000E+00  0.00000000000E+00  0.37170256590E+03  0.37170256591E+03  0.25500000920E-02 0. -1.
       -2   -1    0    0    0  501  0.00000000000E+00  0.00000000000E+00 -0.54941039335E+03  0.54941039336E+03  0.25500000920E-02 0.  1.
    10030    2    1    2    0    0  0.00000000000E+00  0.00000000000E+00 -0.17770782746E+03  0.92111295927E+03  0.90380806137E+03 0.  0.
        4    1    3    3  502    0  0.50470411959E+02  0.80321824212E+02 -0.53914697700E+03  0.54743030025E+03  0.12699999809E+01 0.  1.
       -4    1    3    3    0  502 -0.50470411959E+02 -0.80321824212E+02  0.36143914954E+03  0.37368265902E+03  0.12699999809E+01 0. -1.
</event>
<event>
 5   0  0.6534628E-03  0.9029491E+03  0.7818609E-02  0.9421902E-01
       -2   -1    0    0    0  501  0.00000000000E+00  0.00000000000E+00  0.16702506835E+03  0.16702506837E+03  0.25500000920E-02 0.  1.
        2   -1    0    0  501    0  0.00000000000E+00  0.00000000000E+00 -0.12203513469E+04  0.12203513469E+04  0.25500000920E-02 0. -1.
    10030    2    1    2    0    0  0.00000000000E+00  0.00000000000E+00 -0.10533262786E+04  0.13873764153E+04  0.90294909523E+03 0.  0.
        4    1    3    3  502    0 -0.48514174678E+02  0.22470971301E+03  0.70358590011E+02  0.24041635625E+03  0.12699999809E+01 0.  1.
       -4    1    3    3    0  502  0.48514174678E+02 -0.22470971301E+03 -0.11236848686E+04  0.11469600590E+04  0.12699999809E+01 0. -1.
</event>
<event>
 5   0  0.2560250E-03  0.9128921E+03  0.7818609E-02  0.9409608E-01
       -4   -1    0    0    0  501  0.00000000000E+00  0.00000000000E+00  0.50690630241E+03  0.50690789333E+03  0.12699999809E+01 0. -1.
        4   -1    0    0  501    0  0.00000000000E+00  0.00000000000E+00 -0.41100566325E+03  0.41100762538E+03  0.12699999809E+01 0.  1.
    10030    2    1    2    0    0  0.00000000000E+00  0.00000000000E+00  0.95900639163E+02  0.91791551872E+03  0.91289208941E+03 0.  0.
        5    1    3    3  502    0 -0.27675848004E+03  0.36165737239E+03  0.17293358992E+02  0.45575482613E+03  0.46999998093E+01 0.  1.
       -5    1    3    3    0  502  0.27675848004E+03 -0.36165737239E+03  0.78607280171E+02  0.46216069259E+03  0.46999998093E+01 0. -1.
</event>
<event>
 5   0  0.6863405E-03  0.9038755E+03  0.7818609E-02  0.9420750E-01
        2   -1    0    0  501    0  0.00000000000E+00  0.00000000000E+00  0.27103656737E+04  0.27103656737E+04  0.25500000920E-02 0. -1.
       -2   -1    0    0    0  501  0.00000000000E+00  0.00000000000E+00 -0.75358004189E+02  0.75358004232E+02  0.25500000920E-02 0.  1.
    10030    2    1    2    0    0  0.00000000000E+00  0.00000000000E+00  0.26350076695E+04  0.27857236779E+04  0.90387553978E+03 0.  0.
        1    1    3    3  502    0  0.18369375293E+03 -0.36592078106E+03  0.72783588075E+03  0.83509669033E+03  0.50400001928E-02 0.  1.
       -1    1    3    3    0  502 -0.18369375293E+03  0.36592078106E+03  0.19071717887E+04  0.19506269876E+04  0.50400001928E-02 0. -1.
</event>
<event>
 5   0  0.3794006E-03  0.9039449E+03  0.7818609E-02  0.9420663E-01
        1   -1    0    0  501    0  0.00000000000E+00  0.00000000000E+00  0.73644334715E+03  0.73644334717E+03  0.50400001928E-02 0. -1.
       -1   -1    0    0    0  501  0.00000000000E+00  0.00000000000E+00 -0.27738604936E+03  0.27738604940E+03  0.50400001928E-02 0.  1.
    10030    2    1    2    0    0  0.00000000000E+00  0.00000000000E+00  0.45905729779E+03  0.10138293966E+04  0.90394493344E+03 0.  0.
        5    1    3    3  502    0  0.36339108494E+02 -0.17522314946E+03  0.69498773640E+03  0.71767243688E+03  0.46999998093E+01 0. -1.
       -5    1    3    3    0  502 -0.36339108494E+02  0.17522314946E+03 -0.23593043861E+03  0.29615695969E+03  0.46999998093E+01 0.  1.
</event>
<event>
 5   0  0.3794006E-03  0.9022594E+03  0.7818609E-02  0.9422761E-01
        1   -1    0    0  501    0  0.00000000000E+00  0.00000000000E+00  0.62485514277E+03  0.62485514279E+03  0.50400001928E-02 0.  1.
       -1   -1    0    0    0  501  0.00000000000E+00  0.00000000000E+00 -0.32570429554E+03  0.32570429558E+03  0.50400001928E-02 0. -1.
    10030    2    1    2    0    0  0.00000000000E+00  0.00000000000E+00  0.29915084723E+03  0.95055943837E+03  0.90225939534E+03 0.  0.
        5    1    3    3  502    0  0.45461161692E+02  0.38135806136E+02 -0.32154893908E+03  0.32701202907E+03  0.46999998093E+01 0. -1.
       -5    1    3    3    0  502 -0.45461161692E+02 -0.38135806136E+02  0.62069978631E+03  0.62354740931E+03  0.46999998093E+01 0.  1.
</event>
<event>
 5   0  0.3794006E-03  0.9009324E+03  0.7818609E-02  0.9424417E-01
        1   -1    0    0  501    0  0.00000000000E+00  0.00000000000E+00  0.20532216415E+03  0.20532216421E+03  0.50400001928E-02 0. -1.
       -1   -1    0    0    0  501  0.00000000000E+00  0.00000000000E+00 -0.98829951198E+03  0.98829951199E+03  0.50400001928E-02 0.  1.
    10030    2    1    2    0    0  0.00000000000E+00  0.00000000000E+00 -0.78297734783E+03  0.11936216762E+04  0.90093239406E+03 0.  0.
        5    1    3    3  502    0  0.14137374114E+03  0.23077602924E+03  0.85564483633E+02  0.28387934270E+03  0.46999998093E+01 0. -1.
       -5    1    3    3    0  502 -0.14137374114E+03 -0.23077602924E+03 -0.86854183146E+03  0.90974233350E+03  0.46999998093E+01 0.  1.
</event>
<event>
 5   0  0.3927993E-03  0.8819391E+03  0.7818609E-02  0.9448444E-01
       -1   -1    0    0    0  501  0.00000000000E+00  0.00000000000E+00  0.73454412702E+02  0.73454412875E+02  0.50400001928E-02 0. -1.
        1   -1    0    0  501    0  0.00000000000E+00  0.00000000000E+00 -0.26472764896E+04  0.26472764897E+04  0.50400001928E-02 0.  1.
    10030    2    1    2    0    0  0.00000000000E+00  0.00000000000E+00 -0.25738220769E+04  0.27207309025E+04  0.88193909098E+03 0.  0.
        2    1    3    3  502    0  0.27391313348E+03  0.30309696520E+03 -0.17990296616E+04  0.18448316720E+04  0.25500000920E-02 0. -1.
       -2    1    3    3    0  502 -0.27391313348E+03 -0.30309696520E+03 -0.77479241539E+03  0.87589923048E+03  0.25500000920E-02 0.  1.
</event>
<event>
 5   0  0.6524705E-03  0.9043817E+03  0.7818609E-02  0.9420121E-01
       -2   -1    0    0    0  501  0.00000000000E+00  0.00000000000E+00  0.16761272749E+03  0.16761272751E+03  0.25500000920E-02 0.  1.
        2   -1    0    0  501    0  0.00000000000E+00  0.00000000000E+00 -0.12199345014E+04  0.12199345014E+04  0.25500000920E-02 0. -1.
    10030    2    1    2    0    0  0.00000000000E+00  0.00000000000E+00 -0.10523217739E+04  0.13875472289E+04  0.90438166532E+03 0.  0.
        3    1    3    3  502    0 -0.27131528885E+03  0.94186412805E+02  0.97151318061E+01  0.28736294178E+03  0.10100000352E+00 0.  1.
       -3    1    3    3    0  502  0.27131528885E+03 -0.94186412805E+02 -0.10620369057E+04  0.11001842871E+04  0.10100000352E+00 0. -1.
</event>
<event>
 5   0  0.6724773E-03  0.9041955E+03  0.7818609E-02  0.9420352E-01
       -2   -1    0    0    0  501  0.00000000000E+00  0.00000000000E+00  0.31362400519E+03  0.31362400520E+03  0.25500000920E-02 0.  1.
        2   -1    0    0  501    0  0.00000000000E+00  0.00000000000E+00 -0.65171146228E+03  0.65171146229E+03  0.25500000920E-02 0. -1.
    10030    2    1    2    0    0  0.00000000000E+00  0.00000000000E+00 -0.33808745710E+03  0.96533546749E+03  0.90419546346E+03 0.  0.
        5    1    3    3  502    0 -0.14739838366E+03  0.42682909273E+03 -0.14612320481E+03  0.47464032581E+03  0.46999998093E+01 0.  1.
       -5    1    3    3    0  502  0.14739838366E+03 -0.42682909273E+03 -0.19196425229E+03  0.49069514167E+03  0.46999998093E+01 0. -1.
</event>
<event>
 5   0  0.6609191E-03  0.8923332E+03  0.7818609E-02  0.9435216E-01
        2   -1    0    0  501    0  0.00000000000E+00  0.00000000000E+00  0.11988960512E+04  0.11988960513E+04  0.25500000920E-02 0. -1.
       -2   -1    0    0    0  501  0.00000000000E+00  0.00000000000E+00 -0.16603994554E+03  0.16603994556E+03  0.25500000920E-02 0.  1.
    10030    2    1    2    0    0  0.00000000000E+00  0.00000000000E+00  0.10328561057E+04  0.13649359968E+04  0.89233320025E+03 0.  0.
        2    1    3    3  502    0 -0.76849730121E+02 -0.43367277483E+03  0.62552243235E+03  0.76502043766E+03  0.25500000920E-02 0.  1.
       -2    1    3    3    0  502  0.76849730121E+02  0.43367277483E+03  0.40733367336E+03  0.59991555915E+03  0.25500000920E-02 0. -1.
</event>
<event>
 5   0  0.3927993E-03  0.9040852E+03  0.7818609E-02  0.9420489E-01
       -1   -1    0    0    0  501  0.00000000000E+00  0.00000000000E+00  0.13933902717E+03  0.13933902726E+03  0.50400001928E-02 0. -1.
        1   -1    0    0  501    0  0.00000000000E+00  0.00000000000E+00 -0.14665130339E+04  0.14665130339E+04  0.50400001928E-02 0.  1.
    10030    2    1    2    0    0  0.00000000000E+00  0.00000000000E+00 -0.13271740067E+04  0.16058520612E+04  0.90408517200E+03 0.  0.
        2    1    3    3  502    0 -0.16938195771E+03  0.37556360511E+03 -0.33317121970E+03  0.52985029086E+03  0.25500000920E-02 0. -1.
       -2    1    3    3    0  502  0.16938195771E+03 -0.37556360511E+03 -0.99400278705E+03  0.10760017703E+04  0.25500000920E-02 0.  1.
</event>
<event>
 5   0  0.6863405E-03  0.8973374E+03  0.7818609E-02  0.9428916E-01
        2   -1    0    0  501    0  0.00000000000E+00  0.00000000000E+00  0.98636585421E+03  0.98636585421E+03  0.25500000920E-02 0.  1.
       -2   -1    0    0    0  501  0.00000000000E+00  0.00000000000E+00 -0.20408616507E+03  0.20408616508E+03  0.25500000920E-02 0. -1.
    10030    2    1    2    0    0  0.00000000000E+00  0.00000000000E+00  0.78227968914E+03  0.11904520193E+04  0.89733744946E+03 0.  0.
        1    1    3    3  502    0  0.18690689843E+03 -0.40536171644E+03  0.45122569995E+03  0.63471012451E+03  0.50400001928E-02 0.  1.
       -1    1    3    3    0  502 -0.18690689843E+03  0.40536171644E+03  0.33105398919E+03  0.55574189478E+03  0.50400001928E-02 0. -1.
</event>
<event>
 5   0  0.2560250E-03  0.9066610E+03  0.7818609E-02  0.9417293E-01
       -3   -1    0    0    0  501  0.00000000000E+00  0.00000000000E+00  0.57104090741E+03  0.57104091635E+03  0.10100000352E+00 0.  1.
        3   -1    0    0  501    0  0.00000000000E+00  0.00000000000E+00 -0.35988408547E+03  0.35988409965E+03  0.10100000352E+00 0. -1.
    10030    2    1    2    0    0  0.00000000000E+00  0.00000000000E+00  0.21115682194E+03  0.93092501599E+03  0.90666100718E+03 0.  0.
        1    1    3    3  502    0 -0.10770197818E+03 -0.12338609214E+02  0.55753633133E+03  0.56797774443E+03  0.50400001928E-02 0.  1.
       -1    1    3    3    0  502  0.10770197818E+03  0.12338609214E+02 -0.34637950940E+03  0.36294727156E+03  0.50400001928E-02 0. -1.
</event>
<event>
 5   0  0.2560250E-03  0.8897403E+03  0.7818609E-02  0.9438498E-01
       -4   -1    0    0    0  501  0.00000000000E+00  0.00000000000E+00  0.70374022342E+03  0.70374136937E+03  0.12699999809E+01 0.  1.
        4   -1    0    0  501    0  0.00000000000E+00  0.00000000000E+00 -0.28122232846E+03  0.28122519611E+03  0.12699999809E+01 0. -1.
    10030    2    1    2    0    0  0.00000000000E+00  0.00000000000E+00  0.42251789495E+03  0.98496656548E+03  0.88974027870E+03 0.  0.
        5    1    3    3  502    0  0.43276188534E+03 -0.10222476716E+03  0.19749443522E+03  0.48657876481E+03  0.46999998093E+01 0. -1.
       -5    1    3    3    0  502 -0.43276188534E+03  0.10222476716E+03  0.22502345974E+03  0.49838780067E+03  0.46999998093E+01 0.  1.
</event>
<event>
 5   0  0.3969536E-03  0.8960819E+03  0.7818609E-02  0.9430492E-01
       -1   -1    0    0    0  501  0.00000000000E+00  0.00000000000E+00  0.34135712547E+03  0.34135712550E+03  0.50400001928E-02 0. -1.
        1   -1    0    0  501    0  0.00000000000E+00  0.00000000000E+00 -0.58806655367E+03  0.58806655370E+03  0.50400001928E-02 0.  1.
    10030    2    1    2    0    0  0.00000000000E+00  0.00000000000E+00 -0.24670942821E+03  0.92942367920E+03  0.89608193458E+03 0.  0.
        1    1    3    3  502    0  0.24301542106E+03 -0.34315824052E+03  0.37083133644E+02  0.42212466373E+03  0.50400001928E-02 0. -1.
       -1    1    3    3    0  502 -0.24301542106E+03  0.34315824052E+03 -0.28379256185E+03  0.50729901547E+03  0.50400001928E-02 0.  1.
</event>
<event>
 5   0  0.3943549E-03  0.8999619E+03  0.7818609E-02  0.9425629E-01
       -1   -1    0    0    0  501  0.00000000000E+00  0.00000000000E+00  0.30872098229E+03  0.30872098233E+03  0.50400001928E-02 0.  1.
        1   -1    0    0  501    0  0.00000000000E+00  0.00000000000E+00 -0.65587651738E+03  0.65587651740E+03  0.50400001928E-02 0. -1.
    10030    2    1    2    0    0  0.00000000000E+00  0.00000000000E+00 -0.34715553509E+03  0.96459749973E+03  0.89996187193E+03 0.  0.
        3    1    3    3  502    0 -0.52744830123E+01  0.20124139816E+02  0.30820524466E+03  0.30890659464E+03  0.10100000352E+00 0.  1.
       -3    1    3    3    0  502  0.52744830123E+01 -0.20124139816E+02 -0.65536077975E+03  0.65569090509E+03  0.10100000352E+00 0. -1.
</event>
<event>
 5   0  0.3927993E-03  0.8849558E+03  0.7818609E-02  0.9444585E-01
       -1   -1    0    0    0  501  0.00000000000E+00  0.00000000000E+00  0.23982779885E+03  0.23982779890E+03  0.50400001928E-02 0. -1.
        1   -1    0    0  501    0  0.00000000000E+00  0.00000000000E+00 -0.81636358831E+03  0.81636358832E+03  0.50400001928E-02 0.  1.
    10030    2    1    2    0    0  0.00000000000E+00  0.00000000000E+00 -0.57653578946E+03  0.10561913872E+04  0.88495577850E+03 0.  0.
        2    1    3    3  502    0 -0.13445882531E+03 -0.18425335754E+03  0.16425168593E+03  0.28108200193E+03  0.25500000920E-02 0. -1.
       -2    1    3    3    0  502  0.13445882531E+03  0.18425335754E+03 -0.74078747539E+03  0.77510938529E+03  0.25500000920E-02 0.  1.
</event>
<event>
 5   0  0.3943549E-03  0.9003018E+03  0.7818609E-02  0.9425204E-01
       -1   -1    0    0    0  501  0.00000000000E+00  0.00000000000E+00  0.25737518896E+03  0.25737518901E+03  0.50400001928E-02 0. -1.
        1   -1    0    0  501    0  0.00000000000E+00  0.00000000000E+00 -0.78731681256E+03  0.78731681257E+03  0.50400001928E-02 0.  1.
    10030    2    1    2    0    0  0.00000000000E+00  0.00000000000E+00 -0.52994162359E+03  0.10446920016E+04  0.90030175706E+03 0.  0.
        3    1    3    3  502    0  0.40795903296E+03  0.13419934383E+02 -0.44727369327E+02  0.41062295964E+03  0.10100000352E+00 0. -1.
       -3    1    3    3    0  502 -0.40795903296E+03 -0.13419934383E+02 -0.48521425427E+03  0.63406904195E+03  0.10100000352E+00 0.  1.
</event>
<event>
 5   0  0.3998066E-03  0.8967198E+03  0.7818609E-02  0.9429691E-01
        1   -1    0    0  501    0  0.00000000000E+00  0.00000000000E+00  0.58650898968E+03  0.58650898971E+03  0.50400001928E-02 0.  1.
       -1   -1    0    0    0  501  0.00000000000E+00  0.00000000000E+00 -0.34275108033E+03  0.34275108037E+03  0.50400001928E-02 0. -1.
    10030    2    1    2    0    0  0.00000000000E+00  0.00000000000E+00  0.24375790935E+03  0.92926007007E+03  0.89671977755E+03 0.  0.
        4    1    3    3  502    0  0.37878428132E+03 -0.22442997974E+03  0.34077584388E+02  0.44159850796E+03  0.12699999809E+01 0.  1.
       -4    1    3    3    0  502 -0.37878428132E+03  0.22442997974E+03  0.20968032497E+03  0.48766156211E+03  0.12699999809E+01 0. -1.
</event>
<event>
 5   0  0.3927993E-03  0.8990620E+03  0.7818609E-02  0.9426755E-01
       -1   -1    0    0    0  501  0.00000000000E+00  0.00000000000E+00  0.59189437377E+03  0.59189437379E+03  0.50400001928E-02 0. -1.
        1   -1    0    0  501    0  0.00000000000E+00  0.00000000000E+00 -0.34140910229E+03  0.34140910233E+03  0.50400001928E-02 0.  1.
    10030    2    1    2    0    0  0.00000000000E+00  0.00000000000E+00  0.25048527148E+03  0.93330347612E+03  0.89906201527E+03 0.  0.
        2    1    3    3  502    0 -0.41228010091E+03 -0.20616081990E+02  0.31000505301E+03  0.51623932177E+03  0.25500000920E-02 0. -1.
       -2    1    3    3    0  502  0.41228010091E+03  0.20616081990E+02 -0.59519781527E+02  0.41706415435E+03  0.25500000920E-02 0.  1.
</event>
<event>
 5   0  0.6609191E-03  0.8975463E+03  0.7818609E-02  0.9428654E-01
        2   -1    0    0  501    0  0.00000000000E+00  0.00000000000E+00  0.81905558595E+03  0.81905558595E+03  0.25500000920E-02 0.  1.
       -2   -1    0    0    0  501  0.00000000000E+00  0.00000000000E+00 -0.24588972533E+03  0.24588972534E+03  0.25500000920E-02 0. -1.
    10030    2    1    2    0    0  0.00000000000E+00  0.00000000000E+00  0.57316586062E+03  0.10649453113E+04  0.89754632876E+03 0.  0.
        2    1    3    3  502    0  0.36346504737E+03  0.24654043293E+03  0.17713878708E+03  0.47356855430E+03  0.25500000920E-02 0. -1.
       -2    1    3    3    0  502 -0.36346504737E+03 -0.24654043293E+03  0.39602707355E+03  0.59137675700E+03  0.25500000920E-02 0.  1.
</event>
<event>
 5   0  0.3927993E-03  0.9003499E+03  0.7818609E-02  0.9425144E-01
       -1   -1    0    0    0  501  0.00000000000E+00  0.00000000000E+00  0.30453488098E+03  0.30453488102E+03  0.50400001928E-02 0.  1.
        1   -1    0    0  501    0  0.00000000000E+00  0.00000000000E+00 -0.66546565245E+03  0.66546565247E+03  0.50400001928E-02 0. -1.
    10030    2    1    2    0    0  0.00000000000E+00  0.00000000000E+00 -0.36093077147E+03  0.97000053349E+03  0.90034993929E+03 0.  0.
        2    1    3    3  502    0  0.21947328558E+03 -0.39229363676E+03 -0.20673800117E+03  0.49477613287E+03  0.25500000920E-02 0. -1.
       -2    1    3    3    0  502 -0.21947328558E+03  0.39229363676E+03 -0.15419277030E+03  0.47522440062E+03  0.25500000920E-02 0.  1.
</event>
<event>
 5   0  0.3794006E-03  0.9130996E+03  0.7818609E-02  0.9409353E-01
        1   -1    0    0  501    0  0.00000000000E+00  0.00000000000E+00  0.24516383289E+03  0.24516383294E+03  0.50400001928E-02 0.  1.
       -1   -1    0    0    0  501  0.00000000000E+00  0.00000000000E+00 -0.85019758582E+03  0.85019758583E+03  0.50400001928E-02 0. -1.
    10030    2    1    2    0    0  0.00000000000E+00  0.00000000000E+00 -0.60503375293E+03  0.10953614188E+04  0.91309955402E+03 0.  0.
        5    1    3    3  502    0 -0.29438788918E+03 -0.11084972956E+03  0.94377006045E+02  0.32845243356E+03  0.46999998093E+01 0.  1.
       -5    1    3    3    0  502  0.29438788918E+03  0.11084972956E+03 -0.69941075897E+03  0.76690898522E+03  0.46999998093E+01 0. -1.
</event>
<event>
 5   0  0.2560250E-03  0.8879567E+03  0.7818609E-02  0.9440763E-01
        3   -1    0    0  501    0  0.00000000000E+00  0.00000000000E+00  0.16093970086E+03  0.16093973255E+03  0.10100000352E+00 0. -1.
       -3   -1    0    0    0  501  0.00000000000E+00  0.00000000000E+00 -0.12247864345E+04  0.12247864387E+04  0.10100000352E+00 0.  1.
    10030    2    1    2    0    0  0.00000000000E+00  0.00000000000E+00 -0.10638467337E+04  0.13857261712E+04  0.88795672693E+03 0.  0.
        1    1    3    3  502    0 -0.38434259189E+03  0.22204391081E+03 -0.51678809406E+03  0.68124346636E+03  0.50400001928E-02 0. -1.
       -1    1    3    3    0  502  0.38434259189E+03 -0.22204391081E+03 -0.54705863960E+03  0.70448270487E+03  0.50400001928E-02 0.  1.
</event>
<event>
 5   0  0.6524705E-03  0.8915309E+03  0.7818609E-02  0.9436231E-01
       -2   -1    0    0    0  501  0.00000000000E+00  0.00000000000E+00  0.85564623734E+03  0.85564623734E+03  0.25500000920E-02 0. -1.
        2   -1    0    0  501    0  0.00000000000E+00  0.00000000000E+00 -0.23223011576E+03  0.23223011578E+03  0.25500000920E-02 0.  1.
    10030    2    1    2    0    0  0.00000000000E+00  0.00000000000E+00  0.62341612158E+03  0.10878763531E+04  0.89153087385E+03 0.  0.
        3    1    3    3  502    0  0.44406123135E+03 -0.12242995239E+02  0.35681624507E+03  0.56978777722E+03  0.10100000352E+00 0.  1.
       -3    1    3    3    0  502 -0.44406123135E+03  0.12242995239E+02  0.26659987651E+03  0.51808857590E+03  0.10100000352E+00 0. -1.
</event>
<event>
 5   0  0.6524705E-03  0.8842935E+03  0.7818609E-02  0.9445431E-01
        2   -1    0    0  501    0  0.00000000000E+00  0.00000000000E+00  0.70141175945E+03  0.70141175946E+03  0.25500000920E-02 0. -1.
       -2   -1    0    0    0  501  0.00000000000E+00  0.00000000000E+00 -0.27871465290E+03  0.27871465292E+03  0.25500000920E-02 0.  1.
    10030    2    1    2    0    0  0.00000000000E+00  0.00000000000E+00  0.42269710655E+03  0.98012641238E+03  0.88429346958E+03 0.  0.
        3    1    3    3  502    0 -0.23920506537E+02 -0.99309291498E+02  0.68815378690E+03  0.69569402084E+03  0.10100000352E+00 0. -1.
       -3    1    3    3    0  502  0.23920506537E+02  0.99309291498E+02 -0.26545668035E+03  0.28443239153E+03  0.10100000352E+00 0.  1.
</event>
<event>
 5   0  0.6534628E-03  0.8993108E+03  0.7818609E-02  0.9426443E-01
       -2   -1    0    0    0  501  0.00000000000E+00  0.00000000000E+00  0.17490732015E+03  0.17490732017E+03  0.25500000920E-02 0. -1.
        2   -1    0    0  501    0  0.00000000000E+00  0.00000000000E+00 -0.11559835724E+04  0.11559835724E+04  0.25500000920E-02 0.  1.
    10030    2    1    2    0    0  0.00000000000E+00  0.00000000000E+00 -0.98107625229E+03  0.13308908926E+04  0.89931082236E+03 0.  0.
        4    1    3    3  502    0  0.40544820625E+02 -0.44716771479E+03 -0.45472794064E+03  0.63904769816E+03  0.12699999809E+01 0. -1.
       -4    1    3    3    0  502 -0.40544820625E+02  0.44716771479E+03 -0.52634831164E+03  0.69184319444E+03  0.12699999809E+01 0.  1.
</event>
<event>
 5   0  0.6524705E-03  0.9069554E+03  0.7818609E-02  0.9416928E-01
        2   -1    0    0  501    0  0.00000000000E+00  0.00000000000E+00  0.37536776983E+03  0.37536776984E+03  0.25500000920E-02 0.  1.
       -2   -1    0    0    0  501  0.00000000000E+00  0.00000000000E+00 -0.54784148393E+03  0.54784148394E+03  0.25500000920E-02 0. -1.
    10030    2    1    2    0    0  0.00000000000E+00  0.00000000000E+00 -0.17247371410E+03  0.92320925378E+03  0.90695542570E+03 0.  0.
        3    1    3    3  502    0 -0.11760683831E+03  0.29795216007E+03  0.24050663557E+03  0.40056249208E+03  0.10100000352E+00 0.  1.
       -3    1    3    3    0  502  0.11760683831E+03 -0.29795216007E+03 -0.41298034967E+03  0.52264676170E+03  0.10100000352E+00 0. -1.
</event>
<event>
 5   0  0.6863405E-03  0.9033095E+03  0.7818609E-02  0.9421454E-01
       -2   -1    0    0    0  501  0.00000000000E+00  0.00000000000E+00  0.27310126506E+03  0.27310126507E+03  0.25500000920E-02 0.  1.
        2   -1    0    0  501    0  0.00000000000E+00  0.00000000000E+00 -0.74694649292E+03  0.74694649293E+03  0.25500000920E-02 0. -1.
    10030    2    1    2    0    0  0.00000000000E+00  0.00000000000E+00 -0.47384522786E+03  0.10200477580E+04  0.90330954198E+03 0.  0.
        1    1    3    3  502    0 -0.35224411316E+03 -0.20546538267E+03 -0.45618044862E+03  0.61187624604E+03  0.50400001928E-02 0. -1.
       -1    1    3    3    0  502  0.35224411316E+03  0.20546538267E+03 -0.17664779236E+02  0.40817151197E+03  0.50400001928E-02 0.  1.
</event>
<event>
 5   0  0.6724773E-03  0.9046347E+03  0.7818609E-02  0.9419806E-01
       -2   -1    0    0    0  501  0.00000000000E+00  0.00000000000E+00  0.30133641772E+03  0.30133641773E+03  0.25500000920E-02 0.  1.
        2   -1    0    0  501    0  0.00000000000E+00  0.00000000000E+00 -0.67894549498E+03  0.67894549498E+03  0.25500000920E-02 0. -1.
    10030    2    1    2    0    0  0.00000000000E+00  0.00000000000E+00 -0.37760907726E+03  0.98028191271E+03  0.90463474019E+03 0.  0.
        5    1    3    3  502    0  0.21913578592E+03  0.18625728106E+03  0.18946584314E+03  0.34442947483E+03  0.46999998093E+01 0.  1.
       -5    1    3    3    0  502 -0.21913578592E+03 -0.18625728106E+03 -0.56707492040E+03  0.63585243788E+03  0.46999998093E+01 0. -1.
</event>
<event>
 5   0  0.6724773E-03  0.8980059E+03  0.7818609E-02  0.9428078E-01
        2   -1    0    0  501    0  0.00000000000E+00  0.00000000000E+00  0.40655448561E+03  0.40655448562E+03  0.25500000920E-02 0.  1.
       -2   -1    0    0    0  501  0.00000000000E+00  0.00000000000E+00 -0.49588346423E+03  0.49588346424E+03  0.25500000920E-02 0. -1.
    10030    2    1    2    0    0  0.00000000000E+00  0.00000000000E+00 -0.89328978618E+02  0.90243794985E+03  0.89800589470E+03 0.  0.
        5    1    3    3  502    0 -0.10792472273E+03 -0.34514457435E+03  0.22274849874E+03  0.42474875712E+03  0.46999998093E+01 0.  1.
       -5    1    3    3    0  502  0.10792472273E+03  0.34514457435E+03 -0.31207747736E+03  0.47768919274E+03  0.46999998093E+01 0. -1.
</event>
<event>
 5   0  0.3943549E-03  0.8918505E+03  0.7818609E-02  0.9435826E-01
       -1   -1    0    0    0  501  0.00000000000E+00  0.00000000000E+00  0.30491672722E+03  0.30491672726E+03  0.50400001928E-02 0.  1.
        1   -1    0    0  501    0  0.00000000000E+00  0.00000000000E+00 -0.65214309414E+03  0.65214309416E+03  0.50400001928E-02 0. -1.
    10030    2    1    2    0    0  0.00000000000E+00  0.00000000000E+00 -0.34722636692E+03  0.95705982142E+03  0.89185052105E+03 0.  0.
        3    1    3    3  502    0  0.26977404190E+03 -0.33154123434E+03 -0.30999491115E+03  0.52800992310E+03  0.10100000352E+00 0. -1.
       -3    1    3    3    0  502 -0.26977404190E+03  0.33154123434E+03 -0.37231455774E+02  0.42904989832E+03  0.10100000352E+00 0.  1.
</event>
<event>
 5   0  0.3969536E-03  0.8938930E+03  0.7818609E-02  0.9433248E-01
       -1   -1    0    0    0  501  0.00000000000E+00  0.00000000000E+00  0.13680018018E+03  0.13680018028E+03  0.50400001928E-02 0.  1.
        1   -1    0    0  501    0  0.00000000000E+00  0.00000000000E+00 -0.14602406475E+04  0.14602406475E+04  0.50400001928E-02 0. -1.
    10030    2    1    2    0    0  0.00000000000E+00  0.00000000000E+00 -0.13234404673E+04  0.15970408278E+04  0.89389302217E+03 0.  0.
        1    1    3    3  502    0 -0.22479854452E+03  0.21894416638E+03 -0.12303299722E+04  0.12697175962E+04  0.50400001928E-02 0. -1.
       -1    1    3    3    0  502  0.22479854452E+03 -0.21894416638E+03 -0.93110495142E+02  0.32732323160E+03  0.50400001928E-02 0.  1.
</event>
<event>
 5   0  0.3943549E-03  0.9031647E+03  0.7818609E-02  0.9421634E-01
       -1   -1    0    0    0  501  0.00000000000E+00  0.00000000000E+00  0.24555165798E+03  0.24555165804E+03  0.50400001928E-02 0. -1.
        1   -1    0    0  501    0  0.00000000000E+00  0.00000000000E+00 -0.83048365880E+03  0.83048365881E+03  0.50400001928E-02 0.  1.
    10030    2    1    2    0    0  0.00000000000E+00  0.00000000000E+00 -0.58493200082E+03  0.10760353169E+04  0.90316474551E+03 0.  0.
        3    1    3    3  502    0  0.38811151296E+03 -0.21467951732E+03 -0.19131023010E+03  0.48302945665E+03  0.10100000352E+00 0. -1.
       -3    1    3    3    0  502 -0.38811151296E+03  0.21467951732E+03 -0.39362177071E+03  0.59300586020E+03  0.10100000352E+00 0.  1.
</event>
<event>
 5   0  0.3969536E-03  0.8991996E+03  0.7818609E-02  0.9426583E-01
       -1   -1    0    0    0  501  0.00000000000E+00  0.00000000000E+00  0.76157528638E+03  0.76157528639E+03  0.50400001928E-02 0.  1.
        1   -1    0    0  501    0  0.00000000000E+00  0.00000000000E+00 -0.26542349757E+03  0.26542349762E+03  0.50400001928E-02 0. -1.
    10030    2    1    2    0    0  0.00000000000E+00  0.00000000000E+00  0.49615178881E+03  0.10269987840E+04  0.89919959121E+03 0.  0.
        1    1    3    3  502    0 -0.19798066941E+03 -0.34888721803E+03  0.47996208196E+03  0.62552556823E+03  0.50400001928E-02 0. -1.
       -1    1    3    3    0  502  0.19798066941E+03  0.34888721803E+03  0.16189706845E+02  0.40147321579E+03  0.50400001928E-02 0.  1.
</event>
<event>
 5   0  0.3998066E-03  0.9043671E+03  0.7818609E-02  0.9420139E-01
       -1   -1    0    0    0  501  0.00000000000E+00  0.00000000000E+00  0.25654995693E+03  0.25654995698E+03  0.50400001928E-02 0. -1.
        1   -1    0    0  501    0  0.00000000000E+00  0.00000000000E+00 -0.79699865091E+03  0.79699865092E+03  0.50400001928E-02 0.  1.
    10030    2    1    2    0    0  0.00000000000E+00  0.00000000000E+00 -0.54044869398E+03  0.10535486079E+04  0.90436711483E+03 0.  0.
        4    1    3    3  502    0  0.14629267189E+01 -0.12734097118E+03 -0.77567397065E+03  0.78605953003E+03  0.12699999809E+01 0.  1.
       -4    1    3    3    0  502 -0.14629267189E+01  0.12734097118E+03  0.23522527667E+03  0.26748907787E+03  0.12699999809E+01 0. -1.
</event>
<event>
 5   0  0.6534628E-03  0.9074374E+03  0.7818609E-02  0.9416332E-01
        2   -1    0    0  501    0  0.00000000000E+00  0.00000000000E+00  0.65462826106E+03  0.65462826107E+03  0.25500000920E-02 0.  1.
       -2   -1    0    0    0  501  0.00000000000E+00  0.00000000000E+00 -0.31446954411E+03  0.31446954412E+03  0.25500000920E-02 0. -1.
    10030    2    1    2    0    0  0.00000000000E+00  0.00000000000E+00  0.34015871695E+03  0.96909780518E+03  0.90743738257E+03 0.  0.
        4    1    3    3  502    0 -0.26446647858E+03  0.28804080075E+03  0.41582164418E+03  0.57080581099E+03  0.12699999809E+01 0.  1.
       -4    1    3    3    0  502  0.26446647858E+03 -0.28804080075E+03 -0.75662927229E+02  0.39829199420E+03  0.12699999809E+01 0. -1.
</event>
<event>
 5   0  0.6724773E-03  0.8978346E+03  0.7818609E-02  0.9428292E-01
       -2   -1    0    0    0  501  0.00000000000E+00  0.00000000000E+00  0.12380175768E+03  0.12380175770E+03  0.25500000920E-02 0. -1.
        2   -1    0    0  501    0  0.00000000000E+00  0.00000000000E+00 -0.16278181611E+04  0.16278181611E+04  0.25500000920E-02 0.  1.
    10030    2    1    2    0    0  0.00000000000E+00  0.00000000000E+00 -0.15040164034E+04  0.17516199188E+04  0.89783461628E+03 0.  0.
        5    1    3    3  502    0  0.27022480125E+03 -0.94117901506E+02 -0.77240056638E+02  0.29642492969E+03  0.46999998093E+01 0. -1.
       -5    1    3    3    0  502 -0.27022480125E+03  0.94117901506E+02 -0.14267763468E+04  0.14551949891E+04  0.46999998093E+01 0.  1.
</event>
<event>
 5   0  0.3969536E-03  0.9061329E+03  0.7818609E-02  0.9417947E-01
        1   -1    0    0  501    0  0.00000000000E+00  0.00000000000E+00  0.94767787347E+03  0.94767787348E+03  0.50400001928E-02 0. -1.
       -1   -1    0    0    0  501  0.00000000000E+00  0.00000000000E+00 -0.21660227772E+03  0.21660227778E+03  0.50400001928E-02 0.  1.
    10030    2    1    2    0    0  0.00000000000E+00  0.00000000000E+00  0.73107559575E+03  0.11642801513E+04  0.90613285114E+03 0.  0.
        1    1    3    3  502    0  0.17893873859E+03 -0.10994230322E+03  0.88135761724E+03  0.90603401244E+03  0.50400001928E-02 0. -1.
       -1    1    3    3    0  502 -0.17893873859E+03  0.10994230322E+03 -0.15028202149E+03  0.25824613882E+03  0.50400001928E-02 0.  1.
</event>
<event>
 5   0  0.6524705E-03  0.9043883E+03  0.7818609E-02  0.9420112E-01
       -2   -1    0    0    0  501  0.00000000000E+00  0.00000000000E+00  0.23225009616E+03  0.23225009618E+03  0.25500000920E-02 0.  1.
        2   -1    0    0  501    0  0.00000000000E+00  0.00000000000E+00 -0.88042833784E+03  0.88042833784E+03  0.25500000920E-02 0. -1.
    10030    2    1    2    0    0  0.00000000000E+00  0.00000000000E+00 -0.64817824168E+03  0.11126784340E+04  0.90438833725E+03 0.  0.
        3    1    3    3  502    0 -0.20185644972E+03 -0.30932880370E+03 -0.64503092963E+03  0.74330023912E+03  0.10100000352E+00 0. -1.
       -3    1    3    3    0  502  0.20185644972E+03  0.30932880370E+03 -0.31473120419E+01  0.36937819490E+03  0.10100000352E+00 0.  1.
</event>
<event>
 5   0  0.6863405E-03  0.9049778E+03  0.7818609E-02  0.9419380E-01
        2   -1    0    0  501    0  0.00000000000E+00  0.00000000000E+00  0.13144535892E+04  0.13144535892E+04  0.25500000920E-02 0.  1.
       -2   -1    0    0    0  501  0.00000000000E+00  0.00000000000E+00 -0.15576524727E+03  0.15576524729E+03  0.25500000920E-02 0. -1.
    10030    2    1    2    0    0  0.00000000000E+00  0.00000000000E+00  0.11586883420E+04  0.14702188365E+04  0.90497776407E+03 0.  0.
        1    1    3    3  502    0  0.29856595742E+03 -0.10340976632E+03  0.53139690940E+02  0.32040449042E+03  0.50400001928E-02 0. -1.
       -1    1    3    3    0  502 -0.29856595742E+03  0.10340976632E+03  0.11055486510E+04  0.11498143461E+04  0.50400001928E-02 0.  1.
</event>
<event>
 5   0  0.6609191E-03  0.9011058E+03  0.7818609E-02  0.9424200E-01
       -2   -1    0    0    0  501  0.00000000000E+00  0.00000000000E+00  0.28485133423E+03  0.28485133424E+03  0.25500000920E-02 0.  1.
        2   -1    0    0  501    0  0.00000000000E+00  0.00000000000E+00 -0.71264505377E+03  0.71264505377E+03  0.25500000920E-02 0. -1.
    10030    2    1    2    0    0  0.00000000000E+00  0.00000000000E+00 -0.42779371953E+03  0.99749638802E+03  0.90110575275E+03 0.  0.
        2    1    3    3  502    0  0.12517224732E+03  0.42253843263E+03 -0.11010660374E+03  0.45423593290E+03  0.25500000920E-02 0.  1.
       -2    1    3    3    0  502 -0.12517224732E+03 -0.42253843263E+03 -0.31768711579E+03  0.54326045512E+03  0.25500000920E-02 0. -1.
</event>
<event>
 5   0  0.2560250E-03  0.9031643E+03  0.7818609E-02  0.9421634E-01
       -4   -1    0    0    0  501  0.00000000000E+00  0.00000000000E+00  0.63080601804E+03  0.63080729648E+03  0.12699999809E+01 0.  1.
        4   -1    0    0  501    0  0.00000000000E+00  0.00000000000E+00 -0.32327633747E+03  0.32327883207E+03  0.12699999809E+01 0. -1.
    10030    2    1    2    0    0  0.00000000000E+00  0.00000000000E+00  0.30752968057E+03  0.95408612855E+03  0.90316434621E+03 0.  0.
        5    1    3    3  502    0 -0.40469244776E+03  0.11249309485E+02  0.36504601716E+03  0.54514512644E+03  0.46999998093E+01 0.  1.
       -5    1    3    3    0  502  0.40469244776E+03 -0.11249309485E+02 -0.57516336592E+02  0.40894100211E+03  0.46999998093E+01 0. -1.
</event>
<event>
 5   0  0.3998066E-03  0.8982430E+03  0.7818609E-02  0.9427780E-01
        1   -1    0    0  501    0  0.00000000000E+00  0.00000000000E+00  0.28820738647E+03  0.28820738651E+03  0.50400001928E-02 0. -1.
       -1   -1    0    0    0  501  0.00000000000E+00  0.00000000000E+00 -0.69987837374E+03  0.69987837376E+03  0.50400001928E-02 0.  1.
    10030    2    1    2    0    0  0.00000000000E+00  0.00000000000E+00 -0.41167098728E+03  0.98808576027E+03  0.89824298934E+03 0.  0.
        4    1    3    3  502    0 -0.20175579017E+03  0.14719880942E+03  0.20477673086E+03  0.32296750729E+03  0.12699999809E+01 0. -1.
       -4    1    3    3    0  502  0.20175579017E+03 -0.14719880942E+03 -0.61644771814E+03  0.66511825299E+03  0.12699999809E+01 0.  1.
</event>
<event>
 5   0  0.6724773E-03  0.8948260E+03  0.7818609E-02  0.9432072E-01
        2   -1    0    0  501    0  0.00000000000E+00  0.00000000000E+00  0.60840639907E+03  0.60840639908E+03  0.25500000920E-02 0.  1.
       -2   -1    0    0    0  501  0.00000000000E+00  0.00000000000E+00 -0.32902088089E+03  0.32902088090E+03  0.25500000920E-02 0. -1.
    10030    2    1    2    0    0  0.00000000000E+00  0.00000000000E+00  0.27938551818E+03  0.93742727997E+03  0.89482603754E+03 0.  0.
        5    1    3    3  502    0 -0.20511723422E+03  0.29727886310E+02  0.55505263851E+03  0.59250514640E+03  0.46999998093E+01 0.  1.
       -5    1    3    3    0  502  0.20511723422E+03 -0.29727886310E+02 -0.27566712033E+03  0.34492213357E+03  0.46999998093E+01 0. -1.
</event>
<event>
 5   0  0.2560250E-03  0.9011031E+03  0.7818609E-02  0.9424204E-01
       -4   -1    0    0    0  501  0.00000000000E+00  0.00000000000E+00  0.58164416329E+03  0.58164554979E+03  0.12699999809E+01 0. -1.
        4   -1    0    0  501    0  0.00000000000E+00  0.00000000000E+00 -0.34900198668E+03  0.34900429741E+03  0.12699999809E+01 0.  1.
    10030    2    1    2    0    0  0.00000000000E+00  0.00000000000E+00  0.23264217660E+03  0.93064984719E+03  0.90110307720E+03 0.  0.
        3    1    3    3  502    0  0.16166057737E+03 -0.12410882830E+03 -0.29867469750E+03  0.36158502273E+03  0.10100000352E+00 0.  1.
       -3    1    3    3    0  502 -0.16166057737E+03  0.12410882830E+03  0.53131687410E+03  0.56906482446E+03  0.10100000352E+00 0. -1.
</event>
<event>
 5   0  0.3794006E-03  0.9010252E+03  0.7818609E-02  0.9424301E-01
        1   -1    0    0  501    0  0.00000000000E+00  0.00000000000E+00  0.38841366703E+03  0.38841366706E+03  0.50400001928E-02 0.  1.
       -1   -1    0    0    0  501  0.00000000000E+00  0.00000000000E+00 -0.52253976629E+03  0.52253976632E+03  0.50400001928E-02 0. -1.
    10030    2    1    2    0    0  0.00000000000E+00  0.00000000000E+00 -0.13412609926E+03  0.91095343338E+03  0.90102516462E+03 0.  0.
        5    1    3    3  502    0 -0.44063995180E+03  0.87126260727E+02 -0.32260725984E+02  0.45035252511E+03  0.46999998093E+01 0. -1.
       -5    1    3    3    0  502  0.44063995180E+03 -0.87126260727E+02 -0.10186537328E+03  0.46060090827E+03  0.46999998093E+01 0.  1.
</event>
<event>
 5   0  0.3998066E-03  0.8808882E+03  0.7818609E-02  0.9449793E-01
       -1   -1    0    0    0  501  0.00000000000E+00  0.00000000000E+00  0.60004622230E+03  0.60004622232E+03  0.50400001928E-02 0.  1.
        1   -1    0    0  501    0  0.00000000000E+00  0.00000000000E+00 -0.32329345416E+03  0.32329345420E+03  0.50400001928E-02 0. -1.
    10030    2    1    2    0    0  0.00000000000E+00  0.00000000000E+00  0.27675276814E+03  0.92333967651E+03  0.88088822421E+03 0.  0.
        4    1    3    3  502    0  0.19373841262E+03 -0.29079520443E+03  0.41942660759E+03  0.54590907255E+03  0.12699999809E+01 0.  1.
       -4    1    3    3    0  502 -0.19373841262E+03  0.29079520443E+03 -0.14267383945E+03  0.37743060396E+03  0.12699999809E+01 0. -1.
</event>
<event>
 5   0  0.3943549E-03  0.9215650E+03  0.7818609E-02  0.9399018E-01
        1   -1    0    0  501    0  0.00000000000E+00  0.00000000000E+00  0.50731287531E+03  0.50731287533E+03  0.50400001928E-02 0.  1.
       -1   -1    0    0    0  501  0.00000000000E+00  0.00000000000E+00 -0.41851989213E+03  0.41851989216E+03  0.50400001928E-02 0. -1.
    10030    2    1    2    0    0  0.00000000000E+00  0.00000000000E+00  0.88792983176E+02  0.92583276749E+03  0.92156503813E+03 0.  0.
        3    1    3    3  502    0  0.35458232862E+03  0.27816565181E+03 -0.52046835390E+02  0.45366688318E+03  0.10100000352E+00 0. -1.
       -3    1    3    3    0  502 -0.35458232862E+03 -0.27816565181E+03  0.14083981857E+03  0.47216588431E+03  0.10100000352E+00 0.  1.
</event>
<event>
 5   0  0.2560250E-03  0.9017191E+03  0.7818609E-02  0.9423435E-01
        3   -1    0    0  501    0  0.00000000000E+00  0.00000000000E+00  0.22531181422E+03  0.22531183686E+03  0.10100000352E+00 0. -1.
       -3   -1    0    0    0  501  0.00000000000E+00  0.00000000000E+00 -0.90219107049E+03  0.90219107615E+03  0.10100000352E+00 0.  1.
    10030    2    1    2    0    0  0.00000000000E+00  0.00000000000E+00 -0.67687925627E+03  0.11275029130E+04  0.90171907558E+03 0.  0.
        5    1    3    3  502    0  0.41306616434E+03 -0.18023987639E+03 -0.35334836024E+03  0.57270168748E+03  0.46999998093E+01 0. -1.
       -5    1    3    3    0  502 -0.41306616434E+03  0.18023987639E+03 -0.32353089603E+03  0.55480122553E+03  0.46999998093E+01 0.  1.
</event>
<event>
 5   0  0.3794006E-03  0.9083164E+03  0.7818609E-02  0.9415245E-01
       -1   -1    0    0    0  501  0.00000000000E+00  0.00000000000E+00  0.14664575695E+03  0.14664575704E+03  0.50400001928E-02 0.  1.
        1   -1    0    0  501    0  0.00000000000E+00  0.00000000000E+00 -0.14065163086E+04  0.14065163086E+04  0.50400001928E-02 0. -1.
    10030    2    1    2    0    0  0.00000000000E+00  0.00000000000E+00 -0.12598705517E+04  0.15531620657E+04  0.90831635198E+03 0.  0.
        5    1    3    3  502    0  0.27095621803E+03  0.65163397451E+02 -0.16800074176E+02  0.27922727830E+03  0.46999998093E+01 0.  1.
       -5    1    3    3    0  502 -0.27095621803E+03 -0.65163397451E+02 -0.12430704775E+04  0.12739347874E+04  0.46999998093E+01 0. -1.
</event>
<event>
 5   0  0.3969536E-03  0.8743625E+03  0.7818609E-02  0.9458209E-01
       -1   -1    0    0    0  501  0.00000000000E+00  0.00000000000E+00  0.13651817157E+04  0.13651817157E+04  0.50400001928E-02 0. -1.
        1   -1    0    0  501    0  0.00000000000E+00  0.00000000000E+00 -0.14000148106E+03  0.14000148115E+03  0.50400001928E-02 0.  1.
    10030    2    1    2    0    0  0.00000000000E+00  0.00000000000E+00  0.12251802346E+04  0.15051831968E+04  0.87436253849E+03 0.  0.
        1    1    3    3  502    0 -0.29887349723E+03  0.39516163957E+02  0.11576190756E+04  0.11962310892E+04  0.50400001928E-02 0. -1.
       -1    1    3    3    0  502  0.29887349723E+03 -0.39516163957E+02  0.67561158992E+02  0.30895210760E+03  0.50400001928E-02 0.  1.
</event>
<event>
 5   0  0.2560250E-03  0.8950384E+03  0.7818609E-02  0.9431805E-01
       -3   -1    0    0    0  501  0.00000000000E+00  0.00000000000E+00  0.26663982800E+03  0.26663984713E+03  0.10100000352E+00 0. -1.
        3   -1    0    0  501    0  0.00000000000E+00  0.00000000000E+00 -0.75110095072E+03  0.75110095751E+03  0.10100000352E+00 0.  1.
    10030    2    1    2    0    0  0.00000000000E+00  0.00000000000E+00 -0.48446112271E+03  0.10177408046E+04  0.89503841594E+03 0.  0.
        1    1    3    3  502    0  0.32969596645E+03  0.10785709719E+03 -0.56372977358E+03  0.66190923951E+03  0.50400001928E-02 0.  1.
       -1    1    3    3    0  502 -0.32969596645E+03 -0.10785709719E+03  0.79268650861E+02  0.35583156513E+03  0.50400001928E-02 0. -1.
</event>
<event>
 5   0  0.6863405E-03  0.8929994E+03  0.7818609E-02  0.9434375E-01
       -2   -1    0    0    0  501  0.00000000000E+00  0.00000000000E+00  0.60621969996E+03  0.60621969996E+03  0.25500000920E-02 0. -1.
        2   -1    0    0  501    0  0.00000000000E+00  0.00000000000E+00 -0.32886094918E+03  0.32886094919E+03  0.25500000920E-02 0.  1.
    10030    2    1    2    0    0  0.00000000000E+00  0.00000000000E+00  0.27735875078E+03  0.93508064915E+03  0.89299940862E+03 0.  0.
        1    1    3    3  502    0 -0.18770352805E+03 -0.39243447677E+03  0.33316933881E+02  0.43628826607E+03  0.50400001928E-02 0.  1.
       -1    1    3    3    0  502  0.18770352805E+03  0.39243447677E+03  0.24404181690E+03  0.49879238308E+03  0.50400001928E-02 0. -1.
</event>
<event>
 5   0  0.3969536E-03  0.9100699E+03  0.7818609E-02  0.9413080E-01
       -1   -1    0    0    0  501  0.00000000000E+00  0.00000000000E+00  0.22289347664E+03  0.22289347670E+03  0.50400001928E-02 0.  1.
        1   -1    0    0  501    0  0.00000000000E+00  0.00000000000E+00 -0.92894953169E+03  0.92894953170E+03  0.50400001928E-02 0. -1.
    10030    2    1    2    0    0  0.00000000000E+00  0.00000000000E+00 -0.70605605505E+03  0.11518430084E+04  0.91006986717E+03 0.  0.
        1    1    3    3  502    0 -0.10147006657E+03 -0.41714316655E+03 -0.16211735580E+03  0.45889719207E+03  0.50400001928E-02 0. -1.
       -1    1    3    3    0  502  0.10147006657E+03  0.41714316655E+03 -0.54393869925E+03  0.69294581634E+03  0.50400001928E-02 0.  1.
</event>
<event>
 5   0  0.6534628E-03  0.8957696E+03  0.7818609E-02  0.9430885E-01
       -2   -1    0    0    0  501  0.00000000000E+00  0.00000000000E+00  0.35435118485E+03  0.35435118486E+03  0.25500000920E-02 0.  1.
        2   -1    0    0  501    0  0.00000000000E+00  0.00000000000E+00 -0.56610733479E+03  0.56610733480E+03  0.25500000920E-02 0. -1.
    10030    2    1    2    0    0  0.00000000000E+00  0.00000000000E+00 -0.21175614995E+03  0.92045851966E+03  0.89576962405E+03 0.  0.
        4    1    3    3  502    0 -0.37192325744E+03 -0.18249957629E+03 -0.28076347589E+03  0.50046253313E+03  0.12699999809E+01 0. -1.
       -4    1    3    3    0  502  0.37192325744E+03  0.18249957629E+03  0.69007325944E+02  0.41999598653E+03  0.12699999809E+01 0.  1.
</event>
<event>
 5   0  0.6724773E-03  0.9034708E+03  0.7818609E-02  0.9421253E-01
        2   -1    0    0  501    0  0.00000000000E+00  0.00000000000E+00  0.13066991224E+04  0.13066991224E+04  0.25500000920E-02 0. -1.
       -2   -1    0    0    0  501  0.00000000000E+00  0.00000000000E+00 -0.15616823382E+03  0.15616823384E+03  0.25500000920E-02 0.  1.
    10030    2    1    2    0    0  0.00000000000E+00  0.00000000000E+00  0.11505308886E+04  0.14628673562E+04  0.90347084976E+03 0.  0.
        5    1    3    3  502    0 -0.23330340512E+03 -0.38439598541E+03  0.50558396672E+03  0.67662987655E+03  0.46999998093E+01 0.  1.
       -5    1    3    3    0  502  0.23330340512E+03  0.38439598541E+03  0.64494692184E+03  0.78623747967E+03  0.46999998093E+01 0. -1.
</event>
<event>
 5   0  0.3927993E-03  0.9007344E+03  0.7818609E-02  0.9424664E-01
        1   -1    0    0  501    0  0.00000000000E+00  0.00000000000E+00  0.17283831200E+04  0.17283831200E+04  0.50400001928E-02 0. -1.
       -1   -1    0    0    0  501  0.00000000000E+00  0.00000000000E+00 -0.11735280764E+03  0.11735280775E+03  0.50400001928E-02 0.  1.
    10030    2    1    2    0    0  0.00000000000E+00  0.00000000000E+00  0.16110303124E+04  0.18457359278E+04  0.90073439352E+03 0.  0.
        2    1    3    3  502    0  0.29164198424E+03 -0.33906176994E+03  0.69683930065E+03  0.82801143817E+03  0.25500000920E-02 0. -1.
       -2    1    3    3    0  502 -0.29164198424E+03  0.33906176994E+03  0.91419101170E+03  0.10177244896E+04  0.25500000920E-02 0.  1.
</event>
<event>
 5   0  0.3969536E-03  0.8988928E+03  0.7818609E-02  0.9426966E-01
        1   -1    0    0  501    0  0.00000000000E+00  0.00000000000E+00  0.32674544455E+03  0.32674544459E+03  0.50400001928E-02 0. -1.
       -1   -1    0    0    0  501  0.00000000000E+00  0.00000000000E+00 -0.61822464587E+03  0.61822464589E+03  0.50400001928E-02 0.  1.
    10030    2    1    2    0    0  0.00000000000E+00  0.00000000000E+00 -0.29147920132E+03  0.94497009048E+03  0.89889284517E+03 0.  0.
        1    1    3    3  502    0 -0.31259852036E+03 -0.37129402263E+02  0.19149316861E+03  0.36846446381E+03  0.50400001928E-02 0. -1.
       -1    1    3    3    0  502  0.31259852036E+03  0.37129402263E+02 -0.48297236993E+03  0.57650562667E+03  0.50400001928E-02 0.  1.
</event>
<event>
 5   0  0.6609191E-03  0.8991943E+03  0.7818609E-02  0.9426589E-01
        2   -1    0    0  501    0  0.00000000000E+00  0.00000000000E+00  0.87406965957E+03  0.87406965958E+03  0.25500000920E-02 0.  1.
       -2   -1    0    0    0  501  0.00000000000E+00  0.00000000000E+00 -0.23126028562E+03  0.23126028563E+03  0.25500000920E-02 0. -1.
    10030    2    1    2    0    0  0.00000000000E+00  0.00000000000E+00  0.64280937396E+03  0.11053299452E+04  0.89919430410E+03 0.  0.
        2    1    3    3  502    0  0.11224423892E+03  0.36211737533E+03  0.24319236036E+02  0.37989365345E+03  0.25500000920E-02 0. -1.
       -2    1    3    3    0  502 -0.11224423892E+03 -0.36211737533E+03  0.61849013792E+03  0.72543629176E+03  0.25500000920E-02 0.  1.
</event>
<event>
 5   0  0.3943549E-03  0.9032830E+03  0.7818609E-02  0.9421487E-01
        1   -1    0    0  501    0  0.00000000000E+00  0.00000000000E+00  0.18117619343E+04  0.18117619343E+04  0.50400001928E-02 0. -1.
       -1   -1    0    0    0  501  0.00000000000E+00  0.00000000000E+00 -0.11258656080E+03  0.11258656091E+03  0.50400001928E-02 0.  1.
    10030    2    1    2    0    0  0.00000000000E+00  0.00000000000E+00  0.16991753735E+04  0.19243484952E+04  0.90328300168E+03 0.  0.
        3    1    3    3  502    0 -0.15834222255E+03 -0.54723055608E+02 -0.43942142745E+02  0.17319871353E+03  0.10100000352E+00 0.  1.
       -3    1    3    3    0  502  0.15834222255E+03  0.54723055608E+02  0.17431175163E+04  0.17511497817E+04  0.10100000352E+00 0. -1.
</event>
<event>
 5   0  0.3943549E-03  0.8902528E+03  0.7818609E-02  0.9437849E-01
        1   -1    0    0  501    0  0.00000000000E+00  0.00000000000E+00  0.35848088629E+03  0.35848088633E+03  0.50400001928E-02 0. -1.
       -1   -1    0    0    0  501  0.00000000000E+00  0.00000000000E+00 -0.55271423787E+03  0.55271423789E+03  0.50400001928E-02 0.  1.
    10030    2    1    2    0    0  0.00000000000E+00  0.00000000000E+00 -0.19423335158E+03  0.91119512422E+03  0.89025275037E+03 0.  0.
        3    1    3    3  502    0  0.30748154026E+03  0.18718055406E+03 -0.36510808270E+03  0.51272349241E+03  0.10100000352E+00 0. -1.
       -3    1    3    3    0  502 -0.30748154026E+03 -0.18718055406E+03  0.17087473112E+03  0.39847163181E+03  0.10100000352E+00 0.  1.
</event>
<event>
 5   0  0.6609191E-03  0.9013324E+03  0.7818609E-02  0.9423917E-01
       -2   -1    0    0    0  501  0.00000000000E+00  0.00000000000E+00  0.12523616115E+03  0.12523616117E+03  0.25500000920E-02 0. -1.
        2   -1    0    0  501    0  0.00000000000E+00  0.00000000000E+00 -0.16217363099E+04  0.16217363099E+04  0.25500000920E-02 0.  1.
    10030    2    1    2    0    0  0.00000000000E+00  0.00000000000E+00 -0.14965001488E+04  0.17469724711E+04  0.90133241342E+03 0.  0.
        2    1    3    3  502    0 -0.43597453318E+03 -0.11041327346E+03 -0.69223794286E+03  0.82550484801E+03  0.25500000920E-02 0. -1.
       -2    1    3    3    0  502  0.43597453318E+03  0.11041327346E+03 -0.80426220591E+03  0.92146762308E+03  0.25500000920E-02 0.  1.
</event>
<event>
 5   0  0.3794006E-03  0.9005373E+03  0.7818609E-02  0.9424910E-01
        1   -1    0    0  501    0  0.00000000000E+00  0.00000000000E+00  0.52259516515E+03  0.52259516518E+03  0.50400001928E-02 0.  1.
       -1   -1    0    0    0  501  0.00000000000E+00  0.00000000000E+00 -0.38795204341E+03  0.38795204344E+03  0.50400001928E-02 0. -1.
    10030    2    1    2    0    0  0.00000000000E+00  0.00000000000E+00  0.13464312175E+03  0.91054720862E+03  0.90053731121E+03 0.  0.
        5    1    3    3  502    0  0.21856999199E+03 -0.28742424988E+03 -0.20461818766E+03  0.41506172257E+03  0.46999998093E+01 0. -1.
       -5    1    3    3    0  502 -0.21856999199E+03  0.28742424988E+03  0.33926130941E+03  0.49548548605E+03  0.46999998093E+01 0.  1.
</event>
<event>
 5   0  0.6524705E-03  0.8939075E+03  0.7818609E-02  0.9433230E-01
       -2   -1    0    0    0  501  0.00000000000E+00  0.00000000000E+00  0.12562370235E+03  0.12562370238E+03  0.25500000920E-02 0. -1.
        2   -1    0    0  501    0  0.00000000000E+00  0.00000000000E+00 -0.15902068391E+04  0.15902068391E+04  0.25500000920E-02 0.  1.
    10030    2    1    2    0    0  0.00000000000E+00  0.00000000000E+00 -0.14645831368E+04  0.17158305415E+04  0.89390753584E+03 0.  0.
        3    1    3    3  502    0  0.12319855110E+03 -0.22611757835E+03 -0.31065001446E+02  0.25936863100E+03  0.10100000352E+00 0. -1.
       -3    1    3    3    0  502 -0.12319855110E+03  0.22611757835E+03 -0.14335181353E+04  0.14564619105E+04  0.10100000352E+00 0.  1.
</event>
<event>
 5   0  0.6524705E-03  0.8854905E+03  0.7818609E-02  0.9443903E-01
       -2   -1    0    0    0  501  0.00000000000E+00  0.00000000000E+00  0.37499217066E+03  0.37499217066E+03  0.25500000920E-02 0. -1.
        2   -1    0    0  501    0  0.00000000000E+00  0.00000000000E+00 -0.52273984557E+03  0.52273984557E+03  0.25500000920E-02 0.  1.
    10030    2    1    2    0    0  0.00000000000E+00  0.00000000000E+00 -0.14774767491E+03  0.89773201624E+03  0.88549048416E+03 0.  0.
        3    1    3    3  502    0  0.69234317287E+02 -0.32673128744E+03 -0.36854054144E+03  0.49736190622E+03  0.10100000352E+00 0.  1.
       -3    1    3    3    0  502 -0.69234317287E+02  0.32673128744E+03  0.22079286653E+03  0.40037011001E+03  0.10100000352E+00 0. -1.
</event>
<event>
 5   0  0.6609191E-03  0.9034900E+03  0.7818609E-02  0.9421229E-01
       -2   -1    0    0    0  501  0.00000000000E+00  0.00000000000E+00  0.57038877413E+03  0.57038877413E+03  0.25500000920E-02 0.  1.
        2   -1    0    0  501    0  0.00000000000E+00  0.00000000000E+00 -0.35777976819E+03  0.35777976820E+03  0.25500000920E-02 0. -1.
    10030    2    1    2    0    0  0.00000000000E+00  0.00000000000E+00  0.21260900593E+03  0.92816854234E+03  0.90349004066E+03 0.  0.
        2    1    3    3  502    0  0.27350894318E+03 -0.22257985205E+03  0.39637244519E+03  0.53052808394E+03  0.25500000920E-02 0.  1.
       -2    1    3    3    0  502 -0.27350894318E+03  0.22257985205E+03 -0.18376343926E+03  0.39764045839E+03  0.25500000920E-02 0. -1.
</event>
<event>
 5   0  0.3998066E-03  0.9008037E+03  0.7818609E-02  0.9424577E-01
        1   -1    0    0  501    0  0.00000000000E+00  0.00000000000E+00  0.11032506212E+04  0.11032506212E+04  0.50400001928E-02 0.  1.
       -1   -1    0    0    0  501  0.00000000000E+00  0.00000000000E+00 -0.18387644887E+03  0.18387644893E+03  0.50400001928E-02 0. -1.
    10030    2    1    2    0    0  0.00000000000E+00  0.00000000000E+00  0.91937417236E+03  0.12871270702E+04  0.90080365561E+03 0.  0.
        4    1    3    3  502    0  0.29014817032E+03  0.34114192352E+03  0.52815971885E+03  0.69247243573E+03  0.12699999809E+01 0.  1.
       -4    1    3    3    0  502 -0.29014817032E+03 -0.34114192352E+03  0.39121445350E+03  0.59465463444E+03  0.12699999809E+01 0. -1.
</event>
<event>
 5   0  0.6863405E-03  0.8959546E+03  0.7818609E-02  0.9430653E-01
       -2   -1    0    0    0  501  0.00000000000E+00  0.00000000000E+00  0.11017305556E+03  0.11017305559E+03  0.25500000920E-02 0. -1.
        2   -1    0    0  501    0  0.00000000000E+00  0.00000000000E+00 -0.18215311841E+04  0.18215311841E+04  0.25500000920E-02 0.  1.
    10030    2    1    2    0    0  0.00000000000E+00  0.00000000000E+00 -0.17113581285E+04  0.19317042397E+04  0.89595458898E+03 0.  0.
        1    1    3    3  502    0  0.40397958233E+03 -0.63710763055E+02 -0.12498557567E+04  0.13150657690E+04  0.50400001928E-02 0.  1.
       -1    1    3    3    0  502 -0.40397958233E+03  0.63710763055E+02 -0.46150237184E+03  0.61663847067E+03  0.50400001928E-02 0. -1.
</event>
<event>
 5   0  0.6609191E-03  0.9019496E+03  0.7818609E-02  0.9423148E-01
       -2   -1    0    0    0  501  0.00000000000E+00  0.00000000000E+00  0.11018310401E+03  0.11018310404E+03  0.25500000920E-02 0. -1.
        2   -1    0    0  501    0  0.00000000000E+00  0.00000000000E+00 -0.18458208710E+04  0.18458208710E+04  0.25500000920E-02 0.  1.
    10030    2    1    2    0    0  0.00000000000E+00  0.00000000000E+00 -0.17356377670E+04  0.19560039751E+04  0.90194960624E+03 0.  0.
        2    1    3    3  502    0  0.33766704270E+03  0.75833150298E+02 -0.24075343810E+03  0.42158263291E+03  0.25500000920E-02 0. -1.
       -2    1    3    3    0  502 -0.33766704270E+03 -0.75833150298E+02 -0.14948843289E+04  0.15344213422E+04  0.25500000920E-02 0.  1.
</event>
<event>
 5   0  0.6863405E-03  0.9110520E+03  0.7818609E-02  0.9411870E-01
       -2   -1    0    0    0  501  0.00000000000E+00  0.00000000000E+00  0.31316668242E+03  0.31316668243E+03  0.25500000920E-02 0.  1.
        2   -1    0    0  501    0  0.00000000000E+00  0.00000000000E+00 -0.66259899922E+03  0.66259899922E+03  0.25500000920E-02 0. -1.
    10030    2    1    2    0    0  0.00000000000E+00  0.00000000000E+00 -0.34943231680E+03  0.97576568165E+03  0.91105198614E+03 0.  0.
        1    1    3    3  502    0 -0.72687418490E+01  0.34032313551E+03 -0.49892451714E+03  0.60398538476E+03  0.50400001928E-02 0. -1.
       -1    1    3    3    0  502  0.72687418490E+01 -0.34032313551E+03  0.14949220034E+03  0.37178029689E+03  0.50400001928E-02 0.  1.
</event>
<event>
 5   0  0.6524705E-03  0.8886681E+03  0.7818609E-02  0.9439859E-01
        2   -1    0    0  501    0  0.00000000000E+00  0.00000000000E+00  0.75267470650E+03  0.75267470650E+03  0.25500000920E-02 0.  1.
       -2   -1    0    0    0  501  0.00000000000E+00  0.00000000000E+00 -0.26230817930E+03  0.26230817931E+03  0.25500000920E-02 0. -1.
    10030    2    1    2    0    0  0.00000000000E+00  0.00000000000E+00  0.49036652720E+03  0.10149828858E+04  0.88866806373E+03 0.  0.
        3    1    3    3  502    0 -0.46096323179E+02 -0.11330981866E+03 -0.24269714372E+03  0.27178281731E+03  0.10100000352E+00 0. -1.
       -3    1    3    3    0  502  0.46096323179E+02  0.11330981866E+03  0.73306367091E+03  0.74320006851E+03  0.10100000352E+00 0.  1.
</event>
<event>
 5   0  0.3927993E-03  0.9046227E+03  0.7818609E-02  0.9419821E-01
        1   -1    0    0  501    0  0.00000000000E+00  0.00000000000E+00  0.11257427205E+04  0.11257427205E+04  0.50400001928E-02 0. -1.
       -1   -1    0    0    0  501  0.00000000000E+00  0.00000000000E+00 -0.18173385860E+03  0.18173385867E+03  0.50400001928E-02 0.  1.
    10030    2    1    2    0    0  0.00000000000E+00  0.00000000000E+00  0.94400886192E+03  0.13074765792E+04  0.90462272456E+03 0.  0.
        2    1    3    3  502    0 -0.22701960638E+03 -0.10901676527E+03  0.10150382564E+04  0.10458131854E+04  0.25500000920E-02 0. -1.
       -2    1    3    3    0  502  0.22701960638E+03  0.10901676527E+03 -0.71029394453E+02  0.26166339383E+03  0.25500000920E-02 0.  1.
</event>
<event>
 5   0  0.6524705E-03  0.8993031E+03  0.7818609E-02  0.9426453E-01
       -2   -1    0    0    0  501  0.00000000000E+00  0.00000000000E+00  0.13028878815E+03  0.13028878817E+03  0.25500000920E-02 0.  1.
        2   -1    0    0  501    0  0.00000000000E+00  0.00000000000E+00 -0.15518336021E+04  0.15518336021E+04  0.25500000920E-02 0. -1.
    10030    2    1    2    0    0  0.00000000000E+00  0.00000000000E+00 -0.14215448139E+04  0.16821223902E+04  0.89930310673E+03 0.  0.
        3    1    3    3  502    0  0.24530795265E+03 -0.37644795349E+03 -0.67851252259E+03  0.81379868938E+03  0.10100000352E+00 0.  1.
       -3    1    3    3    0  502 -0.24530795265E+03  0.37644795349E+03 -0.74303229133E+03  0.86832370086E+03  0.10100000352E+00 0. -1.
</event>
<event>
 5   0  0.6534628E-03  0.8854633E+03  0.7818609E-02  0.9443938E-01
       -2   -1    0    0    0  501  0.00000000000E+00  0.00000000000E+00  0.99083237852E+02  0.99083237884E+02  0.25500000920E-02 0. -1.
        2   -1    0    0  501    0  0.00000000000E+00  0.00000000000E+00 -0.19782491564E+04  0.19782491564E+04  0.25500000920E-02 0.  1.
    10030    2    1    2    0    0  0.00000000000E+00  0.00000000000E+00 -0.18791659186E+04  0.20773323943E+04  0.88546334025E+03 0.  0.
        4    1    3    3  502    0  0.36469797785E+02 -0.15003169767E+03 -0.19130345359E+04  0.19192556642E+04  0.12699999809E+01 0.  1.
       -4    1    3    3    0  502 -0.36469797785E+02  0.15003169767E+03  0.33868617275E+02  0.15807673008E+03  0.12699999809E+01 0. -1.
</event>
<event>
 5   0  0.3969536E-03  0.8933193E+03  0.7818609E-02  0.9433971E-01
        1   -1    0    0  501    0  0.00000000000E+00  0.00000000000E+00  0.23791319549E+03  0.23791319554E+03  0.50400001928E-02 0. -1.
       -1   -1    0    0    0  501  0.00000000000E+00  0.00000000000E+00 -0.83856152493E+03  0.83856152494E+03  0.50400001928E-02 0.  1.
    10030    2    1    2    0    0  0.00000000000E+00  0.00000000000E+00 -0.60064832944E+03  0.10764747205E+04  0.89331932039E+03 0.  0.
        1    1    3    3  502    0 -0.18208785956E+03  0.37475193087E+03 -0.10635638741E+03  0.43000776674E+03  0.50400001928E-02 0. -1.
       -1    1    3    3    0  502  0.18208785956E+03 -0.37475193087E+03 -0.49429194203E+03  0.64646695374E+03  0.50400001928E-02 0.  1.
</event>
<event>
 5   0  0.3927993E-03  0.9178655E+03  0.7818609E-02  0.9403520E-01
        1   -1    0    0  501    0  0.00000000000E+00  0.00000000000E+00  0.56330963856E+03  0.56330963858E+03  0.50400001928E-02 0. -1.
       -1   -1    0    0    0  501  0.00000000000E+00  0.00000000000E+00 -0.37389605259E+03  0.37389605262E+03  0.50400001928E-02 0.  1.
    10030    2    1    2    0    0  0.00000000000E+00  0.00000000000E+00  0.18941358597E+03  0.93720569120E+03  0.91786545914E+03 0.  0.
        2    1    3    3  502    0  0.15654047319E+02  0.15758016101E+03  0.53452967421E+03  0.55749307525E+03  0.25500000920E-02 0. -1.
       -2    1    3    3    0  502 -0.15654047319E+02 -0.15758016101E+03 -0.34511608824E+03  0.37971261595E+03  0.25500000920E-02 0.  1.
</event>
<event>
 5   0  0.3794006E-03  0.8957125E+03  0.7818609E-02  0.9430957E-01
       -1   -1    0    0    0  501  0.00000000000E+00  0.00000000000E+00  0.51920543177E+03  0.51920543180E+03  0.50400001928E-02 0.  1.
        1   -1    0    0  501    0  0.00000000000E+00  0.00000000000E+00 -0.38631184876E+03  0.38631184879E+03  0.50400001928E-02 0. -1.
    10030    2    1    2    0    0  0.00000000000E+00  0.00000000000E+00  0.13289358301E+03  0.90551728059E+03  0.89571247677E+03 0.  0.
        5    1    3    3  502    0  0.12000194722E+03  0.42813117991E+03  0.12416973601E+02  0.44482923216E+03  0.46999998093E+01 0. -1.
       -5    1    3    3    0  502 -0.12000194722E+03 -0.42813117991E+03  0.12047660941E+03  0.46068804843E+03  0.46999998093E+01 0.  1.
</event>
<event>
 5   0  0.2560250E-03  0.8868517E+03  0.7818609E-02  0.9442168E-01
        3   -1    0    0  501    0  0.00000000000E+00  0.00000000000E+00  0.39781783090E+03  0.39781784372E+03  0.10100000352E+00 0. -1.
       -3   -1    0    0    0  501  0.00000000000E+00  0.00000000000E+00 -0.49426258098E+03  0.49426259130E+03  0.10100000352E+00 0.  1.
    10030    2    1    2    0    0  0.00000000000E+00  0.00000000000E+00 -0.96444750078E+02  0.89208043502E+03  0.88685168587E+03 0.  0.
        4    1    3    3  502    0 -0.31059702388E+02 -0.23085701552E+03  0.33131533920E+03  0.40500757230E+03  0.12699999809E+01 0. -1.
       -4    1    3    3    0  502  0.31059702388E+02  0.23085701552E+03 -0.42776008928E+03  0.48707286273E+03  0.12699999809E+01 0.  1.
</event>
<event>
 5   0  0.3943549E-03  0.9022546E+03  0.7818609E-02  0.9422767E-01
        1   -1    0    0  501    0  0.00000000000E+00  0.00000000000E+00  0.15409270305E+04  0.15409270305E+04  0.50400001928E-02 0.  1.
       -1   -1    0    0    0  501  0.00000000000E+00  0.00000000000E+00 -0.13207363464E+03  0.13207363474E+03  0.50400001928E-02 0. -1.
    10030    2    1    2    0    0  0.00000000000E+00  0.00000000000E+00  0.14088533959E+04  0.16730006652E+04  0.90225458429E+03 0.  0.
        3    1    3    3  502    0 -0.34492647441E+03  0.21885454215E+03  0.34947449439E+03  0.53759093723E+03  0.10100000352E+00 0. -1.
       -3    1    3    3    0  502  0.34492647441E+03 -0.21885454215E+03  0.10593789015E+04  0.11354097280E+04  0.10100000352E+00 0.  1.
</event>
<event>
 5   0  0.6534628E-03  0.8939287E+03  0.7818609E-02  0.9433203E-01
        2   -1    0    0  501    0  0.00000000000E+00  0.00000000000E+00  0.47981698088E+03  0.47981698089E+03  0.25500000920E-02 0.  1.
       -2   -1    0    0    0  501  0.00000000000E+00  0.00000000000E+00 -0.41636107666E+03  0.41636107666E+03  0.25500000920E-02 0. -1.
    10030    2    1    2    0    0  0.00000000000E+00  0.00000000000E+00  0.63455904225E+02  0.89617805755E+03  0.89392866553E+03 0.  0.
        4    1    3    3  502    0 -0.11740064597E+03  0.87852656304E+02  0.45501604992E+03  0.47806089516E+03  0.12699999809E+01 0.  1.
       -4    1    3    3    0  502  0.11740064597E+03 -0.87852656304E+02 -0.39156014569E+03  0.41811716239E+03  0.12699999809E+01 0. -1.
</event>
<event>
 5   0  0.3969536E-03  0.9008358E+03  0.7818609E-02  0.9424537E-01
        1   -1    0    0  501    0  0.00000000000E+00  0.00000000000E+00  0.52605602542E+03  0.52605602544E+03  0.50400001928E-02 0.  1.
       -1   -1    0    0    0  501  0.00000000000E+00  0.00000000000E+00 -0.38565530930E+03  0.38565530933E+03  0.50400001928E-02 0. -1.
    10030    2    1    2    0    0  0.00000000000E+00  0.00000000000E+00  0.14040071612E+03  0.91171133477E+03  0.90083583236E+03 0.  0.
        1    1    3    3  502    0  0.21834101848E+02  0.40839211143E+03 -0.12079857752E+03  0.42644242406E+03  0.50400001928E-02 0. -1.
       -1    1    3    3    0  502 -0.21834101848E+02 -0.40839211143E+03  0.26119929364E+03  0.48526891071E+03  0.50400001928E-02 0.  1.
</event>
<event>
 5   0  0.6724773E-03  0.8996538E+03  0.7818609E-02  0.9426014E-01
       -2   -1    0    0    0  501  0.00000000000E+00  0.00000000000E+00  0.33568145110E+03  0.33568145111E+03  0.25500000920E-02 0.  1.
        2   -1    0    0  501    0  0.00000000000E+00  0.00000000000E+00 -0.60278646356E+03  0.60278646357E+03  0.25500000920E-02 0. -1.
    10030    2    1    2    0    0  0.00000000000E+00  0.00000000000E+00 -0.26710501246E+03  0.93846791468E+03  0.89965378852E+03 0.  0.
        5    1    3    3  502    0 -0.25409678182E+03  0.33548126224E+03  0.32071905416E+02  0.42209424180E+03  0.46999998093E+01 0.  1.
       -5    1    3    3    0  502  0.25409678182E+03 -0.33548126224E+03 -0.29917691788E+03  0.51637367287E+03  0.46999998093E+01 0. -1.
</event>
<event>
 5   0  0.6724773E-03  0.9027435E+03  0.7818609E-02  0.9422158E-01
       -2   -1    0    0    0  501  0.00000000000E+00  0.00000000000E+00  0.24398140855E+03  0.24398140857E+03  0.25500000920E-02 0.  1.
        2   -1    0    0  501    0  0.00000000000E+00  0.00000000000E+00 -0.83504909211E+03  0.83504909211E+03  0.25500000920E-02 0. -1.
    10030    2    1    2    0    0  0.00000000000E+00  0.00000000000E+00 -0.59106768355E+03  0.10790305007E+04  0.90274349339E+03 0.  0.
        5    1    3    3  502    0 -0.14729979287E+03 -0.17450222766E+03  0.16980617629E+03  0.28461286679E+03  0.46999998093E+01 0.  1.
       -5    1    3    3    0  502  0.14729979287E+03  0.17450222766E+03 -0.76087385985E+03  0.79441763389E+03  0.46999998093E+01 0. -1.
</event>
<event>
 5   0  0.6724773E-03  0.8970773E+03  0.7818609E-02  0.9429242E-01
       -2   -1    0    0    0  501  0.00000000000E+00  0.00000000000E+00  0.22944191379E+03  0.22944191381E+03  0.25500000920E-02 0. -1.
        2   -1    0    0  501    0  0.00000000000E+00  0.00000000000E+00 -0.87685344054E+03  0.87685344054E+03  0.25500000920E-02 0.  1.
    10030    2    1    2    0    0  0.00000000000E+00  0.00000000000E+00 -0.64741152675E+03  0.11062953544E+04  0.89707732448E+03 0.  0.
        5    1    3    3  502    0 -0.37246261070E+03 -0.74858981777E+02 -0.61770072514E+03  0.72519551802E+03  0.46999998093E+01 0.  1.
       -5    1    3    3    0  502  0.37246261070E+03  0.74858981777E+02 -0.29710801607E+02  0.38109983633E+03  0.46999998093E+01 0. -1.
</event>
<event>
 5   0  0.6609191E-03  0.8827764E+03  0.7818609E-02  0.9447372E-01
        2   -1    0    0  501    0  0.00000000000E+00  0.00000000000E+00  0.50531594173E+03  0.50531594174E+03  0.25500000920E-02 0.  1.
       -2   -1    0    0    0  501  0.00000000000E+00  0.00000000000E+00 -0.38554795017E+03  0.38554795017E+03  0.25500000920E-02 0. -1.
    10030    2    1    2    0    0  0.00000000000E+00  0.00000000000E+00  0.11976799156E+03  0.89086389191E+03  0.88277636019E+03 0.  0.
        2    1    3    3  502    0 -0.19795787218E+03  0.39286247790E+03  0.96203713194E+02  0.45031477895E+03  0.25500000920E-02 0.  1.
       -2    1    3    3    0  502  0.19795787218E+03 -0.39286247790E+03  0.23564278371E+02  0.44054911296E+03  0.25500000920E-02 0. -1.
</event>
<event>
 5   0  0.3998066E-03  0.9244050E+03  0.7818609E-02  0.9395578E-01
       -1   -1    0    0    0  501  0.00000000000E+00  0.00000000000E+00  0.49827003479E+03  0.49827003482E+03  0.50400001928E-02 0. -1.
        1   -1    0    0  501    0  0.00000000000E+00  0.00000000000E+00 -0.42874576398E+03  0.42874576401E+03  0.50400001928E-02 0.  1.
    10030    2    1    2    0    0  0.00000000000E+00  0.00000000000E+00  0.69524270818E+02  0.92701579883E+03  0.92440503409E+03 0.  0.
        4    1    3    3  502    0  0.43172505353E+03  0.88187634280E+02 -0.10515241914E+03  0.45301459672E+03  0.12699999809E+01 0.  1.
       -4    1    3    3    0  502 -0.43172505353E+03 -0.88187634280E+02  0.17467668996E+03  0.47400120211E+03  0.12699999809E+01 0. -1.
</event>
<event>
 5   0  0.6863405E-03  0.8963954E+03  0.7818609E-02  0.9430099E-01
        2   -1    0    0  501    0  0.00000000000E+00  0.00000000000E+00  0.22047544895E+04  0.22047544895E+04  0.25500000920E-02 0.  1.
       -2   -1    0    0    0  501  0.00000000000E+00  0.00000000000E+00 -0.91112716843E+02  0.91112716879E+02  0.25500000920E-02 0. -1.
    10030    2    1    2    0    0  0.00000000000E+00  0.00000000000E+00  0.21136417726E+04  0.22958672063E+04  0.89639538497E+03 0.  0.
        1    1    3    3  502    0  0.22390407131E+03 -0.26132548322E+02  0.20489933952E+04  0.20613563197E+04  0.50400001928E-02 0.  1.
       -1    1    3    3    0  502 -0.22390407131E+03  0.26132548322E+02  0.64648377452E+02  0.23451088666E+03  0.50400001928E-02 0. -1.
</event>
<event>
 5   0  0.6724773E-03  0.9578689E+03  0.7818609E-02  0.9356000E-01
       -2   -1    0    0    0  501  0.00000000000E+00  0.00000000000E+00  0.11896353727E+04  0.11896353727E+04  0.25500000920E-02 0.  1.
        2   -1    0    0  501    0  0.00000000000E+00  0.00000000000E+00 -0.19281388809E+03  0.19281388810E+03  0.25500000920E-02 0. -1.
    10030    2    1    2    0    0  0.00000000000E+00  0.00000000000E+00  0.99682148463E+03  0.13824492608E+04  0.95786892972E+03 0.  0.
        5    1    3    3  502    0  0.42115456228E+03 -0.43448661807E+02  0.17537561208E+03  0.45829864373E+03  0.46999998093E+01 0. -1.
       -5    1    3    3    0  502 -0.42115456228E+03  0.43448661807E+02  0.82144587255E+03  0.92415061709E+03  0.46999998093E+01 0.  1.
</event>
<event>
 5   0  0.6534628E-03  0.8905890E+03  0.7818609E-02  0.9437423E-01
        2   -1    0    0  501    0  0.00000000000E+00  0.00000000000E+00  0.20857749732E+04  0.20857749732E+04  0.25500000920E-02 0. -1.
       -2   -1    0    0    0  501  0.00000000000E+00  0.00000000000E+00 -0.95066445301E+02  0.95066445335E+02  0.25500000920E-02 0.  1.
    10030    2    1    2    0    0  0.00000000000E+00  0.00000000000E+00  0.19907085279E+04  0.21808414185E+04  0.89058904650E+03 0.  0.
        4    1    3    3  502    0  0.36919964980E+02  0.25753894235E+03  0.18802905885E+04  0.18982053895E+04  0.12699999809E+01 0. -1.
       -4    1    3    3    0  502 -0.36919964980E+02 -0.25753894235E+03  0.11041793932E+03  0.28263602895E+03  0.12699999809E+01 0.  1.
</event>
<event>
 5   0  0.6724773E-03  0.9028952E+03  0.7818609E-02  0.9421970E-01
       -2   -1    0    0    0  501  0.00000000000E+00  0.00000000000E+00  0.38397958813E+03  0.38397958814E+03  0.25500000920E-02 0. -1.
        2   -1    0    0  501    0  0.00000000000E+00  0.00000000000E+00 -0.53077020922E+03  0.53077020923E+03  0.25500000920E-02 0.  1.
    10030    2    1    2    0    0  0.00000000000E+00  0.00000000000E+00 -0.14679062109E+03  0.91474979737E+03  0.90289517960E+03 0.  0.
        5    1    3    3  502    0 -0.19542663024E+03 -0.16187578467E+03 -0.45164353686E+03  0.51807268974E+03  0.46999998093E+01 0.  1.
       -5    1    3    3    0  502  0.19542663024E+03  0.16187578467E+03  0.30485291577E+03  0.39667710763E+03  0.46999998093E+01 0. -1.
</event>
<event>
 5   0  0.6724773E-03  0.9018067E+03  0.7818609E-02  0.9423326E-01
        2   -1    0    0  501    0  0.00000000000E+00  0.00000000000E+00  0.75888758289E+03  0.75888758290E+03  0.25500000920E-02 0.  1.
       -2   -1    0    0    0  501  0.00000000000E+00  0.00000000000E+00 -0.26791032646E+03  0.26791032647E+03  0.25500000920E-02 0. -1.
    10030    2    1    2    0    0  0.00000000000E+00  0.00000000000E+00  0.49097725644E+03  0.10267979094E+04  0.90180667570E+03 0.  0.
        5    1    3    3  502    0 -0.10686396467E+03 -0.43178476137E+03  0.32941937289E+03  0.55353157121E+03  0.46999998093E+01 0.  1.
       -5    1    3    3    0  502  0.10686396467E+03  0.43178476137E+03  0.16155788355E+03  0.47326633815E+03  0.46999998093E+01 0. -1.
</event>
<event>
 5   0  0.3998066E-03  0.9023077E+03  0.7818609E-02  0.9422701E-01
       -1   -1    0    0    0  501  0.00000000000E+00  0.00000000000E+00  0.38483935589E+03  0.38483935592E+03  0.50400001928E-02 0. -1.
        1   -1    0    0  501    0  0.00000000000E+00  0.00000000000E+00 -0.52889548742E+03  0.52889548744E+03  0.50400001928E-02 0.  1.
    10030    2    1    2    0    0  0.00000000000E+00  0.00000000000E+00 -0.14405613153E+03  0.91373484336E+03  0.90230770524E+03 0.  0.
        4    1    3    3  502    0  0.25188481892E+03 -0.99045601407E+00  0.30699969015E+03  0.39711127617E+03  0.12699999809E+01 0. -1.
       -4    1    3    3    0  502 -0.25188481892E+03  0.99045601407E+00 -0.45105582168E+03  0.51662356719E+03  0.12699999809E+01 0.  1.
</event>
<event>
 5   0  0.3943549E-03  0.8991372E+03  0.7818609E-02  0.9426661E-01
        1   -1    0    0  501    0  0.00000000000E+00  0.00000000000E+00  0.44170158921E+03  0.44170158923E+03  0.50400001928E-02 0. -1.
       -1   -1    0    0    0  501  0.00000000000E+00  0.00000000000E+00 -0.45757573394E+03  0.45757573396E+03  0.50400001928E-02 0.  1.
    10030    2    1    2    0    0  0.00000000000E+00  0.00000000000E+00 -0.15874144731E+02  0.89927732320E+03  0.89913720619E+03 0.  0.
        3    1    3    3  502    0 -0.33145861023E+03  0.97774020787E+02 -0.29553596391E+03  0.45471538967E+03  0.10100000352E+00 0.  1.
       -3    1    3    3    0  502  0.33145861023E+03 -0.97774020787E+02  0.27966181918E+03  0.44456193353E+03  0.10100000352E+00 0. -1.
</event>
<event>
 5   0  0.3794006E-03  0.9026475E+03  0.7818609E-02  0.9422278E-01
        1   -1    0    0  501    0  0.00000000000E+00  0.00000000000E+00  0.76972414603E+03  0.76972414605E+03  0.50400001928E-02 0.  1.
       -1   -1    0    0    0  501  0.00000000000E+00  0.00000000000E+00 -0.26463132355E+03  0.26463132360E+03  0.50400001928E-02 0. -1.
    10030    2    1    2    0    0  0.00000000000E+00  0.00000000000E+00  0.50509282248E+03  0.10343554696E+04  0.90264748284E+03 0.  0.
        5    1    3    3  502    0 -0.18883961428E+03  0.39373009259E+03  0.38313647601E+03  0.58094701563E+03  0.46999998093E+01 0.  1.
       -5    1    3    3    0  502  0.18883961428E+03 -0.39373009259E+03  0.12195634647E+03  0.45340845402E+03  0.46999998093E+01 0. -1.
</event>
<event>
 5   0  0.6863405E-03  0.8999761E+03  0.7818609E-02  0.9425611E-01
        2   -1    0    0  501    0  0.00000000000E+00  0.00000000000E+00  0.48743412459E+03  0.48743412460E+03  0.25500000920E-02 0.  1.
       -2   -1    0    0    0  501  0.00000000000E+00  0.00000000000E+00 -0.41541870128E+03  0.41541870129E+03  0.25500000920E-02 0. -1.
    10030    2    1    2    0    0  0.00000000000E+00  0.00000000000E+00  0.72015423311E+02  0.90285282588E+03  0.89997611302E+03 0.  0.
        1    1    3    3  502    0 -0.23301597884E+03 -0.33336297070E+03  0.22913783606E+03  0.46683130205E+03  0.50400001928E-02 0.  1.
       -1    1    3    3    0  502  0.23301597884E+03  0.33336297070E+03 -0.15712241275E+03  0.43602152383E+03  0.50400001928E-02 0. -1.
</event>
<event>
 5   0  0.6724773E-03  0.9141456E+03  0.7818609E-02  0.9408069E-01
        2   -1    0    0  501    0  0.00000000000E+00  0.00000000000E+00  0.19282105458E+03  0.19282105459E+03  0.25500000920E-02 0. -1.
       -2   -1    0    0    0  501  0.00000000000E+00  0.00000000000E+00 -0.10834686407E+04  0.10834686407E+04  0.25500000920E-02 0.  1.
    10030    2    1    2    0    0  0.00000000000E+00  0.00000000000E+00 -0.89064758610E+03  0.12762896953E+04  0.91414564684E+03 0.  0.
        5    1    3    3  502    0 -0.13906473500E+03 -0.58557871084E+02 -0.10476569199E+04  0.10584777450E+04  0.46999998093E+01 0.  1.
       -5    1    3    3    0  502  0.13906473500E+03  0.58557871084E+02  0.15700933381E+03  0.21781195029E+03  0.46999998093E+01 0. -1.
</event>
<event>
 5   0  0.3794006E-03  0.9182395E+03  0.7818609E-02  0.9403064E-01
        1   -1    0    0  501    0  0.00000000000E+00  0.00000000000E+00  0.20207376321E+03  0.20207376327E+03  0.50400001928E-02 0.  1.
       -1   -1    0    0    0  501  0.00000000000E+00  0.00000000000E+00 -0.10431385961E+04  0.10431385961E+04  0.50400001928E-02 0. -1.
    10030    2    1    2    0    0  0.00000000000E+00  0.00000000000E+00 -0.84106483285E+03  0.12452123593E+04  0.91823949316E+03 0.  0.
        5    1    3    3  502    0 -0.36272538735E+03  0.21141628452E+03 -0.16864209729E+03  0.45246966635E+03  0.46999998093E+01 0. -1.
       -5    1    3    3    0  502  0.36272538735E+03 -0.21141628452E+03 -0.67242273557E+03  0.79274269299E+03  0.46999998093E+01 0.  1.
</event>
<event>
 5   0  0.3969536E-03  0.8924692E+03  0.7818609E-02  0.9435045E-01
        1   -1    0    0  501    0  0.00000000000E+00  0.00000000000E+00  0.48871325044E+03  0.48871325047E+03  0.50400001928E-02 0.  1.
       -1   -1    0    0    0  501  0.00000000000E+00  0.00000000000E+00 -0.40744815624E+03  0.40744815627E+03  0.50400001928E-02 0. -1.
    10030    2    1    2    0    0  0.00000000000E+00  0.00000000000E+00  0.81265094208E+02  0.89616140674E+03  0.89246918792E+03 0.  0.
        1    1    3    3  502    0 -0.37207601522E+02 -0.34826745563E+03 -0.23700851735E+03  0.42290384673E+03  0.50400001928E-02 0. -1.
       -1    1    3    3    0  502  0.37207601522E+02  0.34826745563E+03  0.31827361156E+03  0.47325756000E+03  0.50400001928E-02 0.  1.
</event>
<event>
 5   0  0.6534628E-03  0.9011940E+03  0.7818609E-02  0.9424090E-01
        2   -1    0    0  501    0  0.00000000000E+00  0.00000000000E+00  0.18826221011E+04  0.18826221011E+04  0.25500000920E-02 0.  1.
       -2   -1    0    0    0  501  0.00000000000E+00  0.00000000000E+00 -0.10784834357E+03  0.10784834360E+03  0.25500000920E-02 0. -1.
    10030    2    1    2    0    0  0.00000000000E+00  0.00000000000E+00  0.17747737575E+04  0.19904704447E+04  0.90119404169E+03 0.  0.
        4    1    3    3  502    0 -0.16761184071E+03 -0.29427380997E+03  0.15438782817E+04  0.15805861463E+04  0.12699999809E+01 0.  1.
       -4    1    3    3    0  502  0.16761184071E+03  0.29427380997E+03  0.23089547583E+03  0.40988429836E+03  0.12699999809E+01 0. -1.
</event>
<event>
 5   0  0.3969536E-03  0.9021015E+03  0.7818609E-02  0.9422958E-01
        1   -1    0    0  501    0  0.00000000000E+00  0.00000000000E+00  0.11450232529E+04  0.11450232529E+04  0.50400001928E-02 0. -1.
       -1   -1    0    0    0  501  0.00000000000E+00  0.00000000000E+00 -0.17767917738E+03  0.17767917745E+03  0.50400001928E-02 0.  1.
    10030    2    1    2    0    0  0.00000000000E+00  0.00000000000E+00  0.96734407555E+03  0.13227024304E+04  0.90210152358E+03 0.  0.
        1    1    3    3  502    0 -0.14790654729E+03  0.26973639224E+02  0.11072021410E+04  0.11173631929E+04  0.50400001928E-02 0. -1.
       -1    1    3    3    0  502  0.14790654729E+03 -0.26973639224E+02 -0.13985806542E+03  0.20533923744E+03  0.50400001928E-02 0.  1.
</event>
<event>
 5   0  0.6534628E-03  0.9094443E+03  0.7818609E-02  0.9413852E-01
       -2   -1    0    0    0  501  0.00000000000E+00  0.00000000000E+00  0.12404865365E+03  0.12404865368E+03  0.25500000920E-02 0. -1.
        2   -1    0    0  501    0  0.00000000000E+00  0.00000000000E+00 -0.16668639565E+04  0.16668639565E+04  0.25500000920E-02 0.  1.
    10030    2    1    2    0    0  0.00000000000E+00  0.00000000000E+00 -0.15428153028E+04  0.17909126101E+04  0.90944429108E+03 0.  0.
        4    1    3    3  502    0 -0.31113013114E+03  0.28207366560E+03 -0.42804166975E+03  0.59965723148E+03  0.12699999809E+01 0. -1.
       -4    1    3    3    0  502  0.31113013114E+03 -0.28207366560E+03 -0.11147736330E+04  0.11912553786E+04  0.12699999809E+01 0.  1.
</event>
<event>
 5   0  0.6863405E-03  0.8989991E+03  0.7818609E-02  0.9426834E-01
        2   -1    0    0  501    0  0.00000000000E+00  0.00000000000E+00  0.57743540315E+03  0.57743540315E+03  0.25500000920E-02 0.  1.
       -2   -1    0    0    0  501  0.00000000000E+00  0.00000000000E+00 -0.34990896308E+03  0.34990896308E+03  0.25500000920E-02 0. -1.
    10030    2    1    2    0    0  0.00000000000E+00  0.00000000000E+00  0.22752644007E+03  0.92734436624E+03  0.89899905042E+03 0.  0.
        1    1    3    3  502    0 -0.32647249860E+03  0.18114820672E+03 -0.14443028689E+03  0.40032371019E+03  0.50400001928E-02 0. -1.
       -1    1    3    3    0  502  0.32647249860E+03 -0.18114820672E+03  0.37195672697E+03  0.52702065605E+03  0.50400001928E-02 0.  1.
</event>
<event>
 5   0  0.2560250E-03  0.9001151E+03  0.7818609E-02  0.9425438E-01
       -4   -1    0    0    0  501  0.00000000000E+00  0.00000000000E+00  0.23472768188E+03  0.23473111754E+03  0.12699999809E+01 0. -1.
        4   -1    0    0  501    0  0.00000000000E+00  0.00000000000E+00 -0.86291229530E+03  0.86291322987E+03  0.12699999809E+01 0.  1.
    10030    2    1    2    0    0  0.00000000000E+00  0.00000000000E+00 -0.62818461342E+03  0.10976443474E+04  0.90011510644E+03 0.  0.
        1    1    3    3  502    0 -0.36490916031E+03 -0.18789619848E+03 -0.53923878000E+03  0.67767406514E+03  0.50400001928E-02 0. -1.
       -1    1    3    3    0  502  0.36490916031E+03  0.18789619848E+03 -0.88945833424E+02  0.41997028227E+03  0.50400001928E-02 0.  1.
</event>
<event>
 5   0  0.3969536E-03  0.8951316E+03  0.7818609E-02  0.9431688E-01
        1   -1    0    0  501    0  0.00000000000E+00  0.00000000000E+00  0.30094061694E+03  0.30094061698E+03  0.50400001928E-02 0. -1.
       -1   -1    0    0    0  501  0.00000000000E+00  0.00000000000E+00 -0.66563017130E+03  0.66563017131E+03  0.50400001928E-02 0.  1.
    10030    2    1    2    0    0  0.00000000000E+00  0.00000000000E+00 -0.36468955436E+03  0.96657078829E+03  0.89513162034E+03 0.  0.
        1    1    3    3  502    0 -0.36721190640E+03  0.22814014670E+03 -0.57242332210E+02  0.43608393156E+03  0.50400001928E-02 0. -1.
       -1    1    3    3    0  502  0.36721190640E+03 -0.22814014670E+03 -0.30744722215E+03  0.53048685674E+03  0.50400001928E-02 0.  1.
</event>
<event>
 5   0  0.2560250E-03  0.9011568E+03  0.7818609E-02  0.9424136E-01
       -3   -1    0    0    0  501  0.00000000000E+00  0.00000000000E+00  0.27456422416E+03  0.27456424274E+03  0.10100000352E+00 0. -1.
        3   -1    0    0  501    0  0.00000000000E+00  0.00000000000E+00 -0.73942953103E+03  0.73942953792E+03  0.10100000352E+00 0.  1.
    10030    2    1    2    0    0  0.00000000000E+00  0.00000000000E+00 -0.46486530686E+03  0.10139937807E+04  0.90115683080E+03 0.  0.
        2    1    3    3  502    0  0.14819139249E+02 -0.18987831661E+03 -0.69191053737E+03  0.71764446193E+03  0.25500000920E-02 0.  1.
       -2    1    3    3    0  502 -0.14819139249E+02  0.18987831661E+03  0.22704523051E+03  0.29634931873E+03  0.25500000920E-02 0. -1.
</event>
<event>
 5   0  0.6534628E-03  0.9005506E+03  0.7818609E-02  0.9424893E-01
        2   -1    0    0  501    0  0.00000000000E+00  0.00000000000E+00  0.66713082798E+03  0.66713082799E+03  0.25500000920E-02 0.  1.
       -2   -1    0    0    0  501  0.00000000000E+00  0.00000000000E+00 -0.30391020176E+03  0.30391020177E+03  0.25500000920E-02 0. -1.
    10030    2    1    2    0    0  0.00000000000E+00  0.00000000000E+00  0.36322062623E+03  0.97104102976E+03  0.90055064164E+03 0.  0.
        4    1    3    3  502    0  0.43608876642E+03 -0.11137057514E+03  0.16757473594E+03  0.48027046779E+03  0.12699999809E+01 0.  1.
       -4    1    3    3    0  502 -0.43608876642E+03  0.11137057514E+03  0.19564589028E+03  0.49077056196E+03  0.12699999809E+01 0. -1.
</event>
<event>
 5   0  0.3998066E-03  0.9071547E+03  0.7818609E-02  0.9416682E-01
       -1   -1    0    0    0  501  0.00000000000E+00  0.00000000000E+00  0.47676918897E+03  0.47676918900E+03  0.50400001928E-02 0.  1.
        1   -1    0    0  501    0  0.00000000000E+00  0.00000000000E+00 -0.43151360725E+03  0.43151360728E+03  0.50400001928E-02 0. -1.
    10030    2    1    2    0    0  0.00000000000E+00  0.00000000000E+00  0.45255581719E+02  0.90828279628E+03  0.90715465625E+03 0.  0.
        4    1    3    3  502    0 -0.29777033108E+03 -0.10066791530E+03 -0.30477975588E+03  0.43782817604E+03  0.12699999809E+01 0. -1.
       -4    1    3    3    0  502  0.29777033108E+03  0.10066791530E+03  0.35003533759E+03  0.47045462024E+03  0.12699999809E+01 0.  1.
</event>
<event>
 5   0  0.6534628E-03  0.8973428E+03  0.7818609E-02  0.9428909E-01
       -2   -1    0    0    0  501  0.00000000000E+00  0.00000000000E+00  0.21814293066E+03  0.21814293067E+03  0.25500000920E-02 0. -1.
        2   -1    0    0  501    0  0.00000000000E+00  0.00000000000E+00 -0.92281713205E+03  0.92281713205E+03  0.25500000920E-02 0.  1.
    10030    2    1    2    0    0  0.00000000000E+00  0.00000000000E+00 -0.70467420139E+03  0.11409600627E+04  0.89734281890E+03 0.  0.
        4    1    3    3  502    0 -0.24509436141E+03 -0.26613480231E+03 -0.14960339086E+02  0.36211103772E+03  0.12699999809E+01 0. -1.
       -4    1    3    3    0  502  0.24509436141E+03  0.26613480231E+03 -0.68971386230E+03  0.77884902500E+03  0.12699999809E+01 0.  1.
</event>
<event>
 5   0  0.3927993E-03  0.9183756E+03  0.7818609E-02  0.9402898E-01
       -1   -1    0    0    0  501  0.00000000000E+00  0.00000000000E+00  0.34169596521E+03  0.34169596524E+03  0.50400001928E-02 0.  1.
        1   -1    0    0  501    0  0.00000000000E+00  0.00000000000E+00 -0.61707915181E+03  0.61707915183E+03  0.50400001928E-02 0. -1.
    10030    2    1    2    0    0  0.00000000000E+00  0.00000000000E+00 -0.27538318661E+03  0.95877511708E+03  0.91837564518E+03 0.  0.
        2    1    3    3  502    0 -0.43845838718E+03  0.10716064392E+03 -0.22581014679E+03  0.50469731849E+03  0.25500000920E-02 0. -1.
       -2    1    3    3    0  502  0.43845838718E+03 -0.10716064392E+03 -0.49573039821E+02  0.45407779859E+03  0.25500000920E-02 0.  1.
</event>
<event>
 5   0  0.6863405E-03  0.9038820E+03  0.7818609E-02  0.9420742E-01
       -2   -1    0    0    0  501  0.00000000000E+00  0.00000000000E+00  0.10437412385E+03  0.10437412388E+03  0.25500000920E-02 0. -1.
        2   -1    0    0  501    0  0.00000000000E+00  0.00000000000E+00 -0.19569088371E+04  0.19569088371E+04  0.25500000920E-02 0.  1.
    10030    2    1    2    0    0  0.00000000000E+00  0.00000000000E+00 -0.18525347133E+04  0.20612829610E+04  0.90388195106E+03 0.  0.
        1    1    3    3  502    0  0.38207053128E+03 -0.23325417680E+03 -0.78448756745E+03  0.90321987655E+03  0.50400001928E-02 0.  1.
       -1    1    3    3    0  502 -0.38207053128E+03  0.23325417680E+03 -0.10680471458E+04  0.11580630845E+04  0.50400001928E-02 0. -1.
</event>
<event>
 5   0  0.3943549E-03  0.9031225E+03  0.7818609E-02  0.9421687E-01
       -1   -1    0    0    0  501  0.00000000000E+00  0.00000000000E+00  0.31169399034E+03  0.31169399038E+03  0.50400001928E-02 0.  1.
        1   -1    0    0  501    0  0.00000000000E+00  0.00000000000E+00 -0.65419154299E+03  0.65419154301E+03  0.50400001928E-02 0. -1.
    10030    2    1    2    0    0  0.00000000000E+00  0.00000000000E+00 -0.34249755265E+03  0.96588553340E+03  0.90312252217E+03 0.  0.
        3    1    3    3  502    0 -0.27262699237E+03  0.75456464462E+01 -0.55615597907E+03  0.61942868597E+03  0.10100000352E+00 0. -1.
       -3    1    3    3    0  502  0.27262699237E+03 -0.75456464462E+01  0.21365842641E+03  0.34645684743E+03  0.10100000352E+00 0.  1.
</event>
<event>
 5   0  0.3969536E-03  0.8911586E+03  0.7818609E-02  0.9436702E-01
       -1   -1    0    0    0  501  0.00000000000E+00  0.00000000000E+00  0.64892305998E+03  0.64892306000E+03  0.50400001928E-02 0.  1.
        1   -1    0    0  501    0  0.00000000000E+00  0.00000000000E+00 -0.30595446222E+03  0.30595446226E+03  0.50400001928E-02 0. -1.
    10030    2    1    2    0    0  0.00000000000E+00  0.00000000000E+00  0.34296859776E+03  0.95487752226E+03  0.89115858491E+03 0.  0.
        1    1    3    3  502    0 -0.37136191827E+03 -0.11136741674E+02 -0.92085848372E+02  0.38277082550E+03  0.50400001928E-02 0. -1.
       -1    1    3    3    0  502  0.37136191827E+03  0.11136741674E+02  0.43505444613E+03  0.57210669676E+03  0.50400001928E-02 0.  1.
</event>
<event>
 5   0  0.3943549E-03  0.8889999E+03  0.7818609E-02  0.9439437E-01
       -1   -1    0    0    0  501  0.00000000000E+00  0.00000000000E+00  0.97347522494E+02  0.97347522624E+02  0.50400001928E-02 0. -1.
        1   -1    0    0  501    0  0.00000000000E+00  0.00000000000E+00 -0.20296378508E+04  0.20296378508E+04  0.50400001928E-02 0.  1.
    10030    2    1    2    0    0  0.00000000000E+00  0.00000000000E+00 -0.19322903283E+04  0.21269853734E+04  0.88899992458E+03 0.  0.
        3    1    3    3  502    0  0.18558170690E+03  0.40388019053E+03 -0.95533141885E+03  0.10536687849E+04  0.10100000352E+00 0.  1.
       -3    1    3    3    0  502 -0.18558170690E+03 -0.40388019053E+03 -0.97695890943E+03  0.10733165885E+04  0.10100000352E+00 0. -1.
</event>
<event>
 5   0  0.6524705E-03  0.8923139E+03  0.7818609E-02  0.9435241E-01
        2   -1    0    0  501    0  0.00000000000E+00  0.00000000000E+00  0.50679582754E+03  0.50679582755E+03  0.25500000920E-02 0.  1.
       -2   -1    0    0    0  501  0.00000000000E+00  0.00000000000E+00 -0.39277361276E+03  0.39277361277E+03  0.25500000920E-02 0. -1.
    10030    2    1    2    0    0  0.00000000000E+00  0.00000000000E+00  0.11402221478E+03  0.89956944032E+03  0.89231390917E+03 0.  0.
        3    1    3    3  502    0 -0.43939133766E+03  0.37129731305E+02 -0.11457649081E+02  0.44110616917E+03  0.10100000352E+00 0. -1.
       -3    1    3    3    0  502  0.43939133766E+03 -0.37129731305E+02  0.12547986386E+03  0.45846327115E+03  0.10100000352E+00 0.  1.
</event>
<event>
 5   0  0.6609191E-03  0.8946717E+03  0.7818609E-02  0.9432267E-01
        2   -1    0    0  501    0  0.00000000000E+00  0.00000000000E+00  0.90917577254E+03  0.90917577255E+03  0.25500000920E-02 0. -1.
       -2   -1    0    0    0  501  0.00000000000E+00  0.00000000000E+00 -0.22009973519E+03  0.22009973520E+03  0.25500000920E-02 0.  1.
    10030    2    1    2    0    0  0.00000000000E+00  0.00000000000E+00  0.68907603736E+03  0.11292755078E+04  0.89467166444E+03 0.  0.
        2    1    3    3  502    0  0.17827368884E+03  0.29731669964E+03 -0.12317825668E+02  0.34688680697E+03  0.25500000920E-02 0.  1.
       -2    1    3    3    0  502 -0.17827368884E+03 -0.29731669964E+03  0.70139386302E+03  0.78238870078E+03  0.25500000920E-02 0. -1.
</event>
<event>
 5   0  0.3998066E-03  0.8973089E+03  0.7818609E-02  0.9428952E-01
        1   -1    0    0  501    0  0.00000000000E+00  0.00000000000E+00  0.12572799349E+04  0.12572799349E+04  0.50400001928E-02 0.  1.
       -1   -1    0    0    0  501  0.00000000000E+00  0.00000000000E+00 -0.16010022351E+03  0.16010022359E+03  0.50400001928E-02 0. -1.
    10030    2    1    2    0    0  0.00000000000E+00  0.00000000000E+00  0.10971797114E+04  0.14173801585E+04  0.89730886243E+03 0.  0.
        4    1    3    3  502    0 -0.32235399737E+03 -0.16950743839E+03  0.13473631242E+03  0.38833021782E+03  0.12699999809E+01 0.  1.
       -4    1    3    3    0  502  0.32235399737E+03  0.16950743839E+03  0.96244339895E+03  0.10290499407E+04  0.12699999809E+01 0. -1.
</event>
<event>
 5   0  0.6863405E-03  0.8992542E+03  0.7818609E-02  0.9426514E-01
        2   -1    0    0  501    0  0.00000000000E+00  0.00000000000E+00  0.37605180737E+03  0.37605180738E+03  0.25500000920E-02 0.  1.
       -2   -1    0    0    0  501  0.00000000000E+00  0.00000000000E+00 -0.53759755276E+03  0.53759755276E+03  0.25500000920E-02 0. -1.
    10030    2    1    2    0    0  0.00000000000E+00  0.00000000000E+00 -0.16154574539E+03  0.91364936014E+03  0.89925420512E+03 0.  0.
        1    1    3    3  502    0  0.25968571808E+03 -0.23022251427E+02 -0.45296727050E+03  0.52263375743E+03  0.50400001928E-02 0. -1.
       -1    1    3    3    0  502 -0.25968571808E+03  0.23022251427E+02  0.29142152511E+03  0.39101560271E+03  0.50400001928E-02 0.  1.
</event>
<event>
 5   0  0.2560250E-03  0.9093924E+03  0.7818609E-02  0.9413916E-01
        4   -1    0    0  501    0  0.00000000000E+00  0.00000000000E+00  0.61359538744E+03  0.61359670174E+03  0.12699999809E+01 0. -1.
       -4   -1    0    0    0  501  0.00000000000E+00  0.00000000000E+00 -0.33694333754E+03  0.33694573096E+03  0.12699999809E+01 0.  1.
    10030    2    1    2    0    0  0.00000000000E+00  0.00000000000E+00  0.27665204990E+03  0.95054243270E+03  0.90939241236E+03 0.  0.
        2    1    3    3  502    0  0.21703274822E+03  0.30719777475E+03  0.40537656917E+03  0.55299534307E+03  0.25500000920E-02 0. -1.
       -2    1    3    3    0  502 -0.21703274822E+03 -0.30719777475E+03 -0.12872451928E+03  0.39754708964E+03  0.25500000920E-02 0.  1.
</event>
<event>
 5   0  0.3998066E-03  0.9055961E+03  0.7818609E-02  0.9418613E-01
       -1   -1    0    0    0  501  0.00000000000E+00  0.00000000000E+00  0.57945724903E+03  0.57945724905E+03  0.50400001928E-02 0. -1.
        1   -1    0    0  501    0  0.00000000000E+00  0.00000000000E+00 -0.35382429556E+03  0.35382429560E+03  0.50400001928E-02 0.  1.
    10030    2    1    2    0    0  0.00000000000E+00  0.00000000000E+00  0.22563295347E+03  0.93328154465E+03  0.90559605338E+03 0.  0.
        4    1    3    3  502    0  0.74353526554E+02 -0.24572807904E+03  0.49719854059E+03  0.55957013627E+03  0.12699999809E+01 0. -1.
       -4    1    3    3    0  502 -0.74353526554E+02  0.24572807904E+03 -0.27156558712E+03  0.37371140838E+03  0.12699999809E+01 0.  1.
</event>
<event>
 5   0  0.6863405E-03  0.8988908E+03  0.7818609E-02  0.9426969E-01
        2   -1    0    0  501    0  0.00000000000E+00  0.00000000000E+00  0.12192920471E+04  0.12192920471E+04  0.25500000920E-02 0. -1.
       -2   -1    0    0    0  501  0.00000000000E+00  0.00000000000E+00 -0.16567084773E+03  0.16567084775E+03  0.25500000920E-02 0.  1.
    10030    2    1    2    0    0  0.00000000000E+00  0.00000000000E+00  0.10536211994E+04  0.13849628949E+04  0.89889075443E+03 0.  0.
        1    1    3    3  502    0  0.14750234769E+02  0.40434190339E+03  0.22531517287E+03  0.46311647716E+03  0.50400001928E-02 0.  1.
       -1    1    3    3    0  502 -0.14750234769E+02 -0.40434190339E+03  0.82830602654E+03  0.92184641774E+03  0.50400001928E-02 0. -1.
</event>
<event>
 5   0  0.3969536E-03  0.9119338E+03  0.7818609E-02  0.9410785E-01
       -1   -1    0    0    0  501  0.00000000000E+00  0.00000000000E+00  0.25222222586E+03  0.25222222591E+03  0.50400001928E-02 0. -1.
        1   -1    0    0  501    0  0.00000000000E+00  0.00000000000E+00 -0.82429613768E+03  0.82429613769E+03  0.50400001928E-02 0.  1.
    10030    2    1    2    0    0  0.00000000000E+00  0.00000000000E+00 -0.57207391182E+03  0.10765183636E+04  0.91193378410E+03 0.  0.
        1    1    3    3  502    0 -0.81448717259E+02 -0.11819077415E+02 -0.81545527359E+03  0.81959800353E+03  0.50400001928E-02 0.  1.
       -1    1    3    3    0  502  0.81448717259E+02  0.11819077415E+02  0.24338136177E+03  0.25692036007E+03  0.50400001928E-02 0. -1.
</event>
<event>
 5   0  0.6863405E-03  0.8992475E+03  0.7818609E-02  0.9426523E-01
        2   -1    0    0  501    0  0.00000000000E+00  0.00000000000E+00  0.83235068707E+03  0.83235068708E+03  0.25500000920E-02 0.  1.
       -2   -1    0    0    0  501  0.00000000000E+00  0.00000000000E+00 -0.24288021295E+03  0.24288021297E+03  0.25500000920E-02 0. -1.
    10030    2    1    2    0    0  0.00000000000E+00  0.00000000000E+00  0.58947047412E+03  0.10752309000E+04  0.89924749015E+03 0.  0.
        1    1    3    3  502    0 -0.43241843040E+03 -0.74449223797E+02  0.17737901289E+03  0.47327761422E+03  0.50400001928E-02 0. -1.
       -1    1    3    3    0  502  0.43241843040E+03  0.74449223797E+02  0.41209146123E+03  0.60195328583E+03  0.50400001928E-02 0.  1.
</event>
<event>
 5   0  0.3998066E-03  0.8976894E+03  0.7818609E-02  0.9428474E-01
        1   -1    0    0  501    0  0.00000000000E+00  0.00000000000E+00  0.84169165929E+03  0.84169165930E+03  0.50400001928E-02 0. -1.
       -1   -1    0    0    0  501  0.00000000000E+00  0.00000000000E+00 -0.23935314995E+03  0.23935315000E+03  0.50400001928E-02 0.  1.
    10030    2    1    2    0    0  0.00000000000E+00  0.00000000000E+00  0.60233850934E+03  0.10810448093E+04  0.89768936715E+03 0.  0.
        4    1    3    3  502    0  0.12695644101E+03  0.35917213106E+02 -0.21547050987E+03  0.25266012276E+03  0.12699999809E+01 0.  1.
       -4    1    3    3    0  502 -0.12695644101E+03 -0.35917213106E+02  0.81780901920E+03  0.82838468654E+03  0.12699999809E+01 0. -1.
</event>
<event>
 5   0  0.6609191E-03  0.9086029E+03  0.7818609E-02  0.9414891E-01
        2   -1    0    0  501    0  0.00000000000E+00  0.00000000000E+00  0.30998949644E+03  0.30998949645E+03  0.25500000920E-02 0. -1.
       -2   -1    0    0    0  501  0.00000000000E+00  0.00000000000E+00 -0.66579612163E+03  0.66579612164E+03  0.25500000920E-02 0.  1.
    10030    2    1    2    0    0  0.00000000000E+00  0.00000000000E+00 -0.35580662520E+03  0.97578561809E+03  0.90860289342E+03 0.  0.
        2    1    3    3  502    0 -0.13452989876E+03 -0.40148190109E+03 -0.10979877214E+01  0.42342321163E+03  0.25500000920E-02 0. -1.
       -2    1    3    3    0  502  0.13452989876E+03  0.40148190109E+03 -0.35470863748E+03  0.55236240646E+03  0.25500000920E-02 0.  1.
</event>
<event>
 5   0  0.6609191E-03  0.8992743E+03  0.7818609E-02  0.9426489E-01
       -2   -1    0    0    0  501  0.00000000000E+00  0.00000000000E+00  0.17669098586E+03  0.17669098588E+03  0.25500000920E-02 0.  1.
        2   -1    0    0  501    0  0.00000000000E+00  0.00000000000E+00 -0.11442210985E+04  0.11442210985E+04  0.25500000920E-02 0. -1.
    10030    2    1    2    0    0  0.00000000000E+00  0.00000000000E+00 -0.96753011264E+03  0.13209120844E+04  0.89927427172E+03 0.  0.
        2    1    3    3  502    0 -0.38664050722E+03 -0.22920757838E+03 -0.46598280655E+03  0.64743105564E+03  0.25500000920E-02 0. -1.
       -2    1    3    3    0  502  0.38664050722E+03  0.22920757838E+03 -0.50154730609E+03  0.67348102873E+03  0.25500000920E-02 0.  1.
</event>
<event>
 5   0  0.3998066E-03  0.8951169E+03  0.7818609E-02  0.9431706E-01
        1   -1    0    0  501    0  0.00000000000E+00  0.00000000000E+00  0.16547022655E+04  0.16547022655E+04  0.50400001928E-02 0. -1.
       -1   -1    0    0    0  501  0.00000000000E+00  0.00000000000E+00 -0.12105413815E+03  0.12105413826E+03  0.50400001928E-02 0.  1.
    10030    2    1    2    0    0  0.00000000000E+00  0.00000000000E+00  0.15336481274E+04  0.17757564038E+04  0.89511687896E+03 0.  0.
        4    1    3    3  502    0 -0.37360409494E+03 -0.23545504073E+03  0.62256499637E+03  0.76328754973E+03  0.12699999809E+01 0.  1.
       -4    1    3    3    0  502  0.37360409494E+03  0.23545504073E+03  0.91108313100E+03  0.10124688541E+04  0.12699999809E+01 0. -1.
</event>
<event>
 5   0  0.3794006E-03  0.9027482E+03  0.7818609E-02  0.9422152E-01
       -1   -1    0    0    0  501  0.00000000000E+00  0.00000000000E+00  0.36253272141E+03  0.36253272144E+03  0.50400001928E-02 0. -1.
        1   -1    0    0  501    0  0.00000000000E+00  0.00000000000E+00 -0.56198678554E+03  0.56198678557E+03  0.50400001928E-02 0.  1.
    10030    2    1    2    0    0  0.00000000000E+00  0.00000000000E+00 -0.19945406414E+03  0.92451950701E+03  0.90274824571E+03 0.  0.
        5    1    3    3  502    0  0.35486742242E+03  0.26300011143E+03 -0.46629516210E+01  0.44175081123E+03  0.46999998093E+01 0.  1.
       -5    1    3    3    0  502 -0.35486742242E+03 -0.26300011143E+03 -0.19479111252E+03  0.48276869578E+03  0.46999998093E+01 0. -1.
</event>
<event>
 5   0  0.3927993E-03  0.9008700E+03  0.7818609E-02  0.9424494E-01
       -1   -1    0    0    0  501  0.00000000000E+00  0.00000000000E+00  0.30865046367E+03  0.30865046371E+03  0.50400001928E-02 0.  1.
        1   -1    0    0  501    0  0.00000000000E+00  0.00000000000E+00 -0.65735105030E+03  0.65735105032E+03  0.50400001928E-02 0. -1.
    10030    2    1    2    0    0  0.00000000000E+00  0.00000000000E+00 -0.34870058662E+03  0.96600151403E+03  0.90087003835E+03 0.  0.
        2    1    3    3  502    0 -0.28714550313E+03 -0.91767346638E+02 -0.53323868999E+03  0.61254982359E+03  0.25500000920E-02 0. -1.
       -2    1    3    3    0  502  0.28714550313E+03  0.91767346638E+02  0.18453810336E+03  0.35345169044E+03  0.25500000920E-02 0.  1.
</event>
<event>
 5   0  0.6524705E-03  0.8920981E+03  0.7818609E-02  0.9435513E-01
        2   -1    0    0  501    0  0.00000000000E+00  0.00000000000E+00  0.22814113889E+03  0.22814113891E+03  0.25500000920E-02 0.  1.
       -2   -1    0    0    0  501  0.00000000000E+00  0.00000000000E+00 -0.87209073294E+03  0.87209073294E+03  0.25500000920E-02 0. -1.
    10030    2    1    2    0    0  0.00000000000E+00  0.00000000000E+00 -0.64394959404E+03  0.11002318718E+04  0.89209814043E+03 0.  0.
        3    1    3    3  502    0  0.23432111874E+03 -0.32019444512E+02 -0.78840033355E+03  0.82310796841E+03  0.10100000352E+00 0. -1.
       -3    1    3    3    0  502 -0.23432111874E+03  0.32019444512E+02  0.14445073951E+03  0.27712390344E+03  0.10100000352E+00 0.  1.
</event>
<event>
 5   0  0.3927993E-03  0.9024604E+03  0.7818609E-02  0.9422511E-01
       -1   -1    0    0    0  501  0.00000000000E+00  0.00000000000E+00  0.59660400661E+03  0.59660400663E+03  0.50400001928E-02 0.  1.
        1   -1    0    0  501    0  0.00000000000E+00  0.00000000000E+00 -0.34127944306E+03  0.34127944310E+03  0.50400001928E-02 0. -1.
    10030    2    1    2    0    0  0.00000000000E+00  0.00000000000E+00  0.25532456354E+03  0.93788344973E+03  0.90246037726E+03 0.  0.
        2    1    3    3  502    0 -0.10331890065E+03 -0.21812790022E+03  0.52388044715E+03  0.57680611907E+03  0.25500000920E-02 0.  1.
       -2    1    3    3    0  502  0.10331890065E+03  0.21812790022E+03 -0.26855588361E+03  0.36107733066E+03  0.25500000920E-02 0. -1.
</event>
<event>
 5   0  0.3969536E-03  0.9003962E+03  0.7818609E-02  0.9425086E-01
       -1   -1    0    0    0  501  0.00000000000E+00  0.00000000000E+00  0.94969842687E+02  0.94969842821E+02  0.50400001928E-02 0. -1.
        1   -1    0    0  501    0  0.00000000000E+00  0.00000000000E+00 -0.21341335021E+04  0.21341335021E+04  0.50400001928E-02 0.  1.
    10030    2    1    2    0    0  0.00000000000E+00  0.00000000000E+00 -0.20391636594E+04  0.22291033449E+04  0.90039618640E+03 0.  0.
        1    1    3    3  502    0  0.41747516543E+03  0.63139052143E+02 -0.63281674833E+03  0.76074246013E+03  0.50400001928E-02 0. -1.
       -1    1    3    3    0  502 -0.41747516543E+03 -0.63139052143E+02 -0.14063469111E+04  0.14683608848E+04  0.50400001928E-02 0.  1.
</event>
<event>
 5   0  0.6863405E-03  0.9052386E+03  0.7818609E-02  0.9419056E-01
        2   -1    0    0  501    0  0.00000000000E+00  0.00000000000E+00  0.25052571940E+03  0.25052571941E+03  0.25500000920E-02 0.  1.
       -2   -1    0    0    0  501  0.00000000000E+00  0.00000000000E+00 -0.81773739540E+03  0.81773739540E+03  0.25500000920E-02 0. -1.
    10030    2    1    2    0    0  0.00000000000E+00  0.00000000000E+00 -0.56721167600E+03  0.10682631148E+04  0.90523864095E+03 0.  0.
        1    1    3    3  502    0 -0.21063495230E+03 -0.12932323062E+03  0.16385323187E+03  0.29654588638E+03  0.50400001928E-02 0.  1.
       -1    1    3    3    0  502  0.21063495230E+03  0.12932323062E+03 -0.73106490787E+03  0.77171722843E+03  0.50400001928E-02 0. -1.
</event>
<event>
 5   0  0.3794006E-03  0.8969934E+03  0.7818609E-02  0.9429348E-01
        1   -1    0    0  501    0  0.00000000000E+00  0.00000000000E+00  0.78952239013E+03  0.78952239015E+03  0.50400001928E-02 0.  1.
       -1   -1    0    0    0  501  0.00000000000E+00  0.00000000000E+00 -0.25477340233E+03  0.25477340238E+03  0.50400001928E-02 0. -1.
    10030    2    1    2    0    0  0.00000000000E+00  0.00000000000E+00  0.53474898781E+03  0.10442957925E+04  0.89699343494E+03 0.  0.
        5    1    3    3  502    0 -0.11640513508E+03 -0.31755436349E+03  0.61024858991E+03  0.69772226619E+03  0.46999998093E+01 0.  1.
       -5    1    3    3    0  502  0.11640513508E+03  0.31755436349E+03 -0.75499602107E+02  0.34657352634E+03  0.46999998093E+01 0. -1.
</event>
<event>
 5   0  0.3794006E-03  0.9014175E+03  0.7818609E-02  0.9423811E-01
       -1   -1    0    0    0  501  0.00000000000E+00  0.00000000000E+00  0.27522377959E+03  0.27522377964E+03  0.50400001928E-02 0. -1.
        1   -1    0    0  501    0  0.00000000000E+00  0.00000000000E+00 -0.73808436004E+03  0.73808436005E+03  0.50400001928E-02 0.  1.
    10030    2    1    2    0    0  0.00000000000E+00  0.00000000000E+00 -0.46286058044E+03  0.10133081397E+04  0.90141747766E+03 0.  0.
        5    1    3    3  502    0 -0.44655127908E+03 -0.22714826460E+02 -0.29494368148E+03  0.53566582253E+03  0.46999998093E+01 0.  1.
       -5    1    3    3    0  502  0.44655127908E+03  0.22714826460E+02 -0.16791689896E+03  0.47764231716E+03  0.46999998093E+01 0. -1.
</event>
<event>
 5   0  0.6609191E-03  0.8980474E+03  0.7818609E-02  0.9428026E-01
        2   -1    0    0  501    0  0.00000000000E+00  0.00000000000E+00  0.60798527802E+03  0.60798527802E+03  0.25500000920E-02 0.  1.
       -2   -1    0    0    0  501  0.00000000000E+00  0.00000000000E+00 -0.33162365713E+03  0.33162365714E+03  0.25500000920E-02 0. -1.
    10030    2    1    2    0    0  0.00000000000E+00  0.00000000000E+00  0.27636162088E+03  0.93960893517E+03  0.89804744059E+03 0.  0.
        2    1    3    3  502    0  0.58169428690E+02  0.14303636515E+03  0.57933291288E+03  0.59955792727E+03  0.25500000920E-02 0.  1.
       -2    1    3    3    0  502 -0.58169428690E+02 -0.14303636515E+03 -0.30297129200E+03  0.34005100790E+03  0.25500000920E-02 0. -1.
</event>
<event>
 5   0  0.6609191E-03  0.9346029E+03  0.7818609E-02  0.9383331E-01
        2   -1    0    0  501    0  0.00000000000E+00  0.00000000000E+00  0.66151386926E+03  0.66151386926E+03  0.25500000920E-02 0.  1.
       -2   -1    0    0    0  501  0.00000000000E+00  0.00000000000E+00 -0.33010742769E+03  0.33010742770E+03  0.25500000920E-02 0. -1.
    10030    2    1    2    0    0  0.00000000000E+00  0.00000000000E+00  0.33140644157E+03  0.99162129696E+03  0.93460289271E+03 0.  0.
        2    1    3    3  502    0  0.12800479818E+03  0.27572032889E+01  0.64254088882E+03  0.65517297284E+03  0.25500000920E-02 0.  1.
       -2    1    3    3    0  502 -0.12800479818E+03 -0.27572032889E+01 -0.31113444725E+03  0.33644832411E+03  0.25500000920E-02 0. -1.
</event>
<event>
 5   0  0.3943549E-03  0.8986284E+03  0.7818609E-02  0.9427298E-01
       -1   -1    0    0    0  501  0.00000000000E+00  0.00000000000E+00  0.27121665954E+03  0.27121665959E+03  0.50400001928E-02 0. -1.
        1   -1    0    0  501    0  0.00000000000E+00  0.00000000000E+00 -0.74436161081E+03  0.74436161083E+03  0.50400001928E-02 0.  1.
    10030    2    1    2    0    0  0.00000000000E+00  0.00000000000E+00 -0.47314495127E+03  0.10155782704E+04  0.89862844293E+03 0.  0.
        3    1    3    3  502    0  0.52323937002E+02  0.44241248737E+03 -0.30263176078E+03  0.53856531284E+03  0.10100000352E+00 0.  1.
       -3    1    3    3    0  502 -0.52323937002E+02 -0.44241248737E+03 -0.17051319049E+03  0.47701295758E+03  0.10100000352E+00 0. -1.
</event>
<event>
 5   0  0.6724773E-03  0.9062906E+03  0.7818609E-02  0.9417752E-01
        2   -1    0    0  501    0  0.00000000000E+00  0.00000000000E+00  0.10060205771E+04  0.10060205771E+04  0.25500000920E-02 0. -1.
       -2   -1    0    0    0  501  0.00000000000E+00  0.00000000000E+00 -0.20411178614E+03  0.20411178616E+03  0.25500000920E-02 0.  1.
    10030    2    1    2    0    0  0.00000000000E+00  0.00000000000E+00  0.80190879100E+03  0.12101323633E+04  0.90629058675E+03 0.  0.
        5    1    3    3  502    0 -0.30970275662E+03  0.72791068502E+02  0.83177810345E+03  0.89055670256E+03  0.46999998093E+01 0. -1.
       -5    1    3    3    0  502  0.30970275662E+03 -0.72791068502E+02 -0.29869312448E+02  0.31957566074E+03  0.46999998093E+01 0.  1.
</event>
<event>
 5   0  0.3998066E-03  0.8954750E+03  0.7818609E-02  0.9431256E-01
       -1   -1    0    0    0  501  0.00000000000E+00  0.00000000000E+00  0.44149896371E+03  0.44149896374E+03  0.50400001928E-02 0.  1.
        1   -1    0    0  501    0  0.00000000000E+00  0.00000000000E+00 -0.45406414027E+03  0.45406414030E+03  0.50400001928E-02 0. -1.
    10030    2    1    2    0    0  0.00000000000E+00  0.00000000000E+00 -0.12565176562E+02  0.89556310404E+03  0.89547495200E+03 0.  0.
        4    1    3    3  502    0 -0.20965410291E+03 -0.20320231450E+03  0.33319332733E+03  0.44301854336E+03  0.12699999809E+01 0.  1.
       -4    1    3    3    0  502  0.20965410291E+03  0.20320231450E+03 -0.34575850389E+03  0.45254456068E+03  0.12699999809E+01 0. -1.
</event>
<event>
 5   0  0.6609191E-03  0.9053888E+03  0.7818609E-02  0.9418870E-01
       -2   -1    0    0    0  501  0.00000000000E+00  0.00000000000E+00  0.22804003697E+03  0.22804003699E+03  0.25500000920E-02 0. -1.
        2   -1    0    0  501    0  0.00000000000E+00  0.00000000000E+00 -0.89866762156E+03  0.89866762156E+03  0.25500000920E-02 0.  1.
    10030    2    1    2    0    0  0.00000000000E+00  0.00000000000E+00 -0.67062758459E+03  0.11267076585E+04  0.90538875110E+03 0.  0.
        2    1    3    3  502    0  0.36040577986E+03 -0.10655472611E+03 -0.21264363280E+02  0.37642849117E+03  0.25500000920E-02 0. -1.
       -2    1    3    3    0  502 -0.36040577986E+03  0.10655472611E+03 -0.64936322131E+03  0.75027916738E+03  0.25500000920E-02 0.  1.
</event>
<event>
 5   0  0.3794006E-03  0.8980938E+03  0.7818609E-02  0.9427967E-01
       -1   -1    0    0    0  501  0.00000000000E+00  0.00000000000E+00  0.13687676612E+03  0.13687676621E+03  0.50400001928E-02 0.  1.
        1   -1    0    0  501    0  0.00000000000E+00  0.00000000000E+00 -0.14731728520E+04  0.14731728520E+04  0.50400001928E-02 0. -1.
    10030    2    1    2    0    0  0.00000000000E+00  0.00000000000E+00 -0.13362960859E+04  0.16100496182E+04  0.89809383918E+03 0.  0.
        5    1    3    3  502    0  0.78677412840E+02  0.10675250529E+03 -0.14372209912E+04  0.14433338146E+04  0.46999998093E+01 0. -1.
       -5    1    3    3    0  502 -0.78677412840E+02 -0.10675250529E+03  0.10092490533E+03  0.16671580366E+03  0.46999998093E+01 0.  1.
</event>
<event>
 5   0  0.3794006E-03  0.8868404E+03  0.7818609E-02  0.9442183E-01
       -1   -1    0    0    0  501  0.00000000000E+00  0.00000000000E+00  0.27816179143E+03  0.27816179148E+03  0.50400001928E-02 0. -1.
        1   -1    0    0  501    0  0.00000000000E+00  0.00000000000E+00 -0.70686016019E+03  0.70686016020E+03  0.50400001928E-02 0.  1.
    10030    2    1    2    0    0  0.00000000000E+00  0.00000000000E+00 -0.42869836875E+03  0.98502195168E+03  0.88684043318E+03 0.  0.
        5    1    3    3  502    0 -0.39157970601E+03  0.94970147429E+02 -0.88067163483E+01  0.40305538492E+03  0.46999998093E+01 0. -1.
       -5    1    3    3    0  502  0.39157970601E+03 -0.94970147429E+02 -0.41989165241E+03  0.58196656676E+03  0.46999998093E+01 0.  1.
</event>
<event>
 5   0  0.3927993E-03  0.9030075E+03  0.7818609E-02  0.9421830E-01
       -1   -1    0    0    0  501  0.00000000000E+00  0.00000000000E+00  0.19859393206E+03  0.19859393213E+03  0.50400001928E-02 0. -1.
        1   -1    0    0  501    0  0.00000000000E+00  0.00000000000E+00 -0.10264947366E+04  0.10264947366E+04  0.50400001928E-02 0.  1.
    10030    2    1    2    0    0  0.00000000000E+00  0.00000000000E+00 -0.82790080451E+03  0.12250886687E+04  0.90300747732E+03 0.  0.
        2    1    3    3  502    0 -0.56652599605E+02  0.37072711450E+03 -0.75503376539E+03  0.84304454055E+03  0.25500000920E-02 0. -1.
       -2    1    3    3    0  502  0.56652599605E+02 -0.37072711450E+03 -0.72867039116E+02  0.38204412816E+03  0.25500000920E-02 0.  1.
</event>
<event>
 5   0  0.3794006E-03  0.8971456E+03  0.7818609E-02  0.9429157E-01
        1   -1    0    0  501    0  0.00000000000E+00  0.00000000000E+00  0.10976480142E+04  0.10976480143E+04  0.50400001928E-02 0.  1.
       -1   -1    0    0    0  501  0.00000000000E+00  0.00000000000E+00 -0.18331702792E+03  0.18331702799E+03  0.50400001928E-02 0. -1.
    10030    2    1    2    0    0  0.00000000000E+00  0.00000000000E+00  0.91433098633E+03  0.12809650423E+04  0.89714563306E+03 0.  0.
        5    1    3    3  502    0 -0.44387832092E+03 -0.48742266408E+02  0.39672776672E+03  0.59734310342E+03  0.46999998093E+01 0. -1.
       -5    1    3    3    0  502  0.44387832092E+03  0.48742266408E+02  0.51760321961E+03  0.68362193884E+03  0.46999998093E+01 0.  1.
</event>
<event>
 5   0  0.6609191E-03  0.8972121E+03  0.7818609E-02  0.9429073E-01
       -2   -1    0    0    0  501  0.00000000000E+00  0.00000000000E+00  0.38956164064E+03  0.38956164065E+03  0.25500000920E-02 0. -1.
        2   -1    0    0  501    0  0.00000000000E+00  0.00000000000E+00 -0.51659956475E+03  0.51659956476E+03  0.25500000920E-02 0.  1.
    10030    2    1    2    0    0  0.00000000000E+00  0.00000000000E+00 -0.12703792411E+03  0.90616120541E+03  0.89721206859E+03 0.  0.
        2    1    3    3  502    0  0.25163531210E+03 -0.12452752130E+03  0.28985654112E+03  0.40353964897E+03  0.25500000920E-02 0. -1.
       -2    1    3    3    0  502 -0.25163531210E+03  0.12452752130E+03 -0.41689446522E+03  0.50262155644E+03  0.25500000920E-02 0.  1.
</event>
<event>
 5   0  0.6609191E-03  0.9204124E+03  0.7818609E-02  0.9400419E-01
       -2   -1    0    0    0  501  0.00000000000E+00  0.00000000000E+00  0.12783407850E+03  0.12783407853E+03  0.25500000920E-02 0.  1.
        2   -1    0    0  501    0  0.00000000000E+00  0.00000000000E+00 -0.16567550686E+04  0.16567550686E+04  0.25500000920E-02 0. -1.
    10030    2    1    2    0    0  0.00000000000E+00  0.00000000000E+00 -0.15289209900E+04  0.17845891471E+04  0.92041242391E+03 0.  0.
        2    1    3    3  502    0 -0.17573515024E+03 -0.39259441865E+03 -0.10817333958E+04  0.11641135512E+04  0.25500000920E-02 0. -1.
       -2    1    3    3    0  502  0.17573515024E+03  0.39259441865E+03 -0.44718759429E+03  0.62047559588E+03  0.25500000920E-02 0.  1.
</event>
<event>
 5   0  0.3998066E-03  0.8996492E+03  0.7818609E-02  0.9426020E-01
        1   -1    0    0  501    0  0.00000000000E+00  0.00000000000E+00  0.28738033935E+03  0.28738033940E+03  0.50400001928E-02 0.  1.
       -1   -1    0    0    0  501  0.00000000000E+00  0.00000000000E+00 -0.70409183090E+03  0.70409183092E+03  0.50400001928E-02 0. -1.
    10030    2    1    2    0    0  0.00000000000E+00  0.00000000000E+00 -0.41671149155E+03  0.99147217031E+03  0.89964915235E+03 0.  0.
        4    1    3    3  502    0  0.34456715851E+03 -0.49269881185E+02  0.10565841410E+03  0.36375728349E+03  0.12699999809E+01 0.  1.
       -4    1    3    3    0  502 -0.34456715851E+03  0.49269881185E+02 -0.52236990565E+03  0.62771488683E+03  0.12699999809E+01 0. -1.
</event>
<event>
 5   0  0.6534628E-03  0.9093827E+03  0.7818609E-02  0.9413928E-01
        2   -1    0    0  501    0  0.00000000000E+00  0.00000000000E+00  0.65895370192E+03  0.65895370193E+03  0.25500000920E-02 0. -1.
       -2   -1    0    0    0  501  0.00000000000E+00  0.00000000000E+00 -0.31374622824E+03  0.31374622825E+03  0.25500000920E-02 0.  1.
    10030    2    1    2    0    0  0.00000000000E+00  0.00000000000E+00  0.34520747368E+03  0.97269993018E+03  0.90938273256E+03 0.  0.
        4    1    3    3  502    0  0.12223312002E+03  0.13601020071E+03 -0.27267823837E+03  0.32832110031E+03  0.12699999809E+01 0.  1.
       -4    1    3    3    0  502 -0.12223312002E+03 -0.13601020071E+03  0.61788571205E+03  0.64437882987E+03  0.12699999809E+01 0. -1.
</event>
<event>
 5   0  0.2560250E-03  0.8993140E+03  0.7818609E-02  0.9426439E-01
       -3   -1    0    0    0  501  0.00000000000E+00  0.00000000000E+00  0.56986880609E+03  0.56986881504E+03  0.10100000352E+00 0. -1.
        3   -1    0    0  501    0  0.00000000000E+00  0.00000000000E+00 -0.35480343670E+03  0.35480345108E+03  0.10100000352E+00 0.  1.
    10030    2    1    2    0    0  0.00000000000E+00  0.00000000000E+00  0.21506536939E+03  0.92467226611E+03  0.89931400890E+03 0.  0.
        4    1    3    3  502    0  0.21505248632E+03 -0.16212265126E+03  0.47776723191E+03  0.54844732356E+03  0.12699999809E+01 0. -1.
       -4    1    3    3    0  502 -0.21505248632E+03  0.16212265126E+03 -0.26270186253E+03  0.37622494256E+03  0.12699999809E+01 0.  1.
</event>
<event>
 5   0  0.3794006E-03  0.9001996E+03  0.7818609E-02  0.9425332E-01
       -1   -1    0    0    0  501  0.00000000000E+00  0.00000000000E+00  0.35942885127E+03  0.35942885130E+03  0.50400001928E-02 0. -1.
        1   -1    0    0  501    0  0.00000000000E+00  0.00000000000E+00 -0.56364371049E+03  0.56364371052E+03  0.50400001928E-02 0.  1.
    10030    2    1    2    0    0  0.00000000000E+00  0.00000000000E+00 -0.20421485923E+03  0.92307256182E+03  0.90019955879E+03 0.  0.
        5    1    3    3  502    0  0.33625317222E+03 -0.28210652246E+03  0.92629430450E-02  0.43894461601E+03  0.46999998093E+01 0. -1.
       -5    1    3    3    0  502 -0.33625317222E+03  0.28210652246E+03 -0.20422412217E+03  0.48412794581E+03  0.46999998093E+01 0.  1.
</event>
<event>
 5   0  0.3943549E-03  0.9035323E+03  0.7818609E-02  0.9421177E-01
        1   -1    0    0  501    0  0.00000000000E+00  0.00000000000E+00  0.26344200976E+03  0.26344200981E+03  0.50400001928E-02 0.  1.
       -1   -1    0    0    0  501  0.00000000000E+00  0.00000000000E+00 -0.77471563968E+03  0.77471563970E+03  0.50400001928E-02 0. -1.
    10030    2    1    2    0    0  0.00000000000E+00  0.00000000000E+00 -0.51127362993E+03  0.10381576495E+04  0.90353227976E+03 0.  0.
        3    1    3    3  502    0 -0.15278486357E+03  0.13626495358E+02 -0.74387855547E+03  0.75952894047E+03  0.10100000352E+00 0. -1.
       -3    1    3    3    0  502  0.15278486357E+03 -0.13626495358E+02  0.23260492555E+03  0.27862870904E+03  0.10100000352E+00 0.  1.
</event>
<event>
 5   0  0.6609191E-03  0.8914864E+03  0.7818609E-02  0.9436287E-01
        2   -1    0    0  501    0  0.00000000000E+00  0.00000000000E+00  0.21591305340E+04  0.21591305340E+04  0.25500000920E-02 0. -1.
       -2   -1    0    0    0  501  0.00000000000E+00  0.00000000000E+00 -0.92021763642E+02  0.92021763677E+02  0.25500000920E-02 0.  1.
    10030    2    1    2    0    0  0.00000000000E+00  0.00000000000E+00  0.20671087704E+04  0.22511522977E+04  0.89148639859E+03 0.  0.
        2    1    3    3  502    0 -0.23080689608E+03  0.19730609247E+03  0.20953893066E+03  0.36892828690E+03  0.25500000920E-02 0.  1.
       -2    1    3    3    0  502  0.23080689608E+03 -0.19730609247E+03  0.18575698397E+04  0.18822240108E+04  0.25500000920E-02 0. -1.
</event>
<event>
 5   0  0.3969536E-03  0.8765354E+03  0.7818609E-02  0.9455398E-01
       -1   -1    0    0    0  501  0.00000000000E+00  0.00000000000E+00  0.59070573955E+03  0.59070573957E+03  0.50400001928E-02 0. -1.
        1   -1    0    0  501    0  0.00000000000E+00  0.00000000000E+00 -0.32516797129E+03  0.32516797133E+03  0.50400001928E-02 0.  1.
    10030    2    1    2    0    0  0.00000000000E+00  0.00000000000E+00  0.26553776826E+03  0.91587371089E+03  0.87653542309E+03 0.  0.
        1    1    3    3  502    0 -0.64883543221E+01  0.42448182792E+03  0.24652004121E+03  0.49091654253E+03  0.50400001928E-02 0. -1.
       -1    1    3    3    0  502  0.64883543221E+01 -0.42448182792E+03  0.19017727046E+02  0.42495716837E+03  0.50400001928E-02 0.  1.
</event>
<event>
 5   0  0.6609191E-03  0.9012076E+03  0.7818609E-02  0.9424073E-01
       -2   -1    0    0    0  501  0.00000000000E+00  0.00000000000E+00  0.90927649118E+03  0.90927649119E+03  0.25500000920E-02 0. -1.
        2   -1    0    0  501    0  0.00000000000E+00  0.00000000000E+00 -0.22330257442E+03  0.22330257444E+03  0.25500000920E-02 0.  1.
    10030    2    1    2    0    0  0.00000000000E+00  0.00000000000E+00  0.68597391676E+03  0.11325790656E+04  0.90120759285E+03 0.  0.
        2    1    3    3  502    0 -0.18019060302E+03  0.19492559518E+03  0.80058197596E+03  0.84344302790E+03  0.25500000920E-02 0. -1.
       -2    1    3    3    0  502  0.18019060302E+03 -0.19492559518E+03 -0.11460805920E+03  0.28913603772E+03  0.25500000920E-02 0.  1.
</event>
<event>
 5   0  0.6609191E-03  0.9044916E+03  0.7818609E-02  0.9419984E-01
       -2   -1    0    0    0  501  0.00000000000E+00  0.00000000000E+00  0.25222090365E+03  0.25222090367E+03  0.25500000920E-02 0.  1.
        2   -1    0    0  501    0  0.00000000000E+00  0.00000000000E+00 -0.81090123976E+03  0.81090123976E+03  0.25500000920E-02 0. -1.
    10030    2    1    2    0    0  0.00000000000E+00  0.00000000000E+00 -0.55868033610E+03  0.10631221434E+04  0.90449155546E+03 0.  0.
        2    1    3    3  502    0 -0.34120547195E+03  0.10272974925E+03  0.47981095537E+02  0.35955077667E+03  0.25500000920E-02 0.  1.
       -2    1    3    3    0  502  0.34120547195E+03 -0.10272974925E+03 -0.60666143164E+03  0.70357136676E+03  0.25500000920E-02 0. -1.
</event>
<event>
 5   0  0.3943549E-03  0.8547116E+03  0.7818609E-02  0.9484035E-01
       -1   -1    0    0    0  501  0.00000000000E+00  0.00000000000E+00  0.18008653757E+03  0.18008653764E+03  0.50400001928E-02 0.  1.
        1   -1    0    0  501    0  0.00000000000E+00  0.00000000000E+00 -0.10141400751E+04  0.10141400752E+04  0.50400001928E-02 0. -1.
    10030    2    1    2    0    0  0.00000000000E+00  0.00000000000E+00 -0.83405353758E+03  0.11942266128E+04  0.85471158829E+03 0.  0.
        3    1    3    3  502    0  0.89246497815E+02 -0.38272810169E+03 -0.18244549925E+03  0.43328063376E+03  0.10100000352E+00 0.  1.
       -3    1    3    3    0  502 -0.89246497815E+02  0.38272810169E+03 -0.65160803832E+03  0.76094597903E+03  0.10100000352E+00 0. -1.
</event>
<event>
 5   0  0.3969536E-03  0.8861359E+03  0.7818609E-02  0.9443080E-01
        1   -1    0    0  501    0  0.00000000000E+00  0.00000000000E+00  0.13355906574E+04  0.13355906574E+04  0.50400001928E-02 0. -1.
       -1   -1    0    0    0  501  0.00000000000E+00  0.00000000000E+00 -0.14698305681E+03  0.14698305690E+03  0.50400001928E-02 0.  1.
    10030    2    1    2    0    0  0.00000000000E+00  0.00000000000E+00  0.11886076006E+04  0.14825737143E+04  0.88613587569E+03 0.  0.
        1    1    3    3  502    0 -0.25080870147E+03  0.42767898059E+02 -0.12576206495E+02  0.25473959023E+03  0.50400001928E-02 0.  1.
       -1    1    3    3    0  502  0.25080870147E+03 -0.42767898059E+02  0.12011838071E+04  0.12278341241E+04  0.50400001928E-02 0. -1.
</event>
<event>
 5   0  0.3943549E-03  0.8988434E+03  0.7818609E-02  0.9427028E-01
       -1   -1    0    0    0  501  0.00000000000E+00  0.00000000000E+00  0.50048825336E+03  0.50048825338E+03  0.50400001928E-02 0.  1.
        1   -1    0    0  501    0  0.00000000000E+00  0.00000000000E+00 -0.40356566205E+03  0.40356566208E+03  0.50400001928E-02 0. -1.
    10030    2    1    2    0    0  0.00000000000E+00  0.00000000000E+00  0.96922591312E+02  0.90405391546E+03  0.89884341982E+03 0.  0.
        3    1    3    3  502    0 -0.42951412714E+03 -0.92972124972E+02 -0.46178054548E+02  0.44188078071E+03  0.10100000352E+00 0. -1.
       -3    1    3    3    0  502  0.42951412714E+03  0.92972124972E+02  0.14310064586E+03  0.46217313475E+03  0.10100000352E+00 0.  1.
</event>
<event>
 5   0  0.2560250E-03  0.8955847E+03  0.7818609E-02  0.9431118E-01
        3   -1    0    0  501    0  0.00000000000E+00  0.00000000000E+00  0.19830138820E+03  0.19830141392E+03  0.10100000352E+00 0. -1.
       -3   -1    0    0    0  501  0.00000000000E+00  0.00000000000E+00 -0.10111777361E+04  0.10111777412E+04  0.10100000352E+00 0.  1.
    10030    2    1    2    0    0  0.00000000000E+00  0.00000000000E+00 -0.81287634794E+03  0.12094791551E+04  0.89558465240E+03 0.  0.
        2    1    3    3  502    0 -0.40356385281E+03 -0.11177474543E+03 -0.19222204892E+03  0.46076750440E+03  0.25500000920E-02 0.  1.
       -2    1    3    3    0  502  0.40356385281E+03  0.11177474543E+03 -0.62065429902E+03  0.74871165072E+03  0.25500000920E-02 0. -1.
</event>
<event>
 5   0  0.3998066E-03  0.9025519E+03  0.7818609E-02  0.9422397E-01
        1   -1    0    0  501    0  0.00000000000E+00  0.00000000000E+00  0.15824965124E+04  0.15824965124E+04  0.50400001928E-02 0.  1.
       -1   -1    0    0    0  501  0.00000000000E+00  0.00000000000E+00 -0.12868906136E+03  0.12868906146E+03  0.50400001928E-02 0. -1.
    10030    2    1    2    0    0  0.00000000000E+00  0.00000000000E+00  0.14538074511E+04  0.17111855739E+04  0.90255191736E+03 0.  0.
        4    1    3    3  502    0  0.30212091539E+03 -0.44318475554E+02  0.96928281354E+02  0.32037147098E+03  0.12699999809E+01 0. -1.
       -4    1    3    3    0  502 -0.30212091539E+03  0.44318475554E+02  0.13568791697E+04  0.13908141029E+04  0.12699999809E+01 0.  1.
</event>
<event>
 5   0  0.3998066E-03  0.9023552E+03  0.7818609E-02  0.9422642E-01
       -1   -1    0    0    0  501  0.00000000000E+00  0.00000000000E+00  0.27231801091E+03  0.27231801096E+03  0.50400001928E-02 0.  1.
        1   -1    0    0  501    0  0.00000000000E+00  0.00000000000E+00 -0.74751283270E+03  0.74751283272E+03  0.50400001928E-02 0. -1.
    10030    2    1    2    0    0  0.00000000000E+00  0.00000000000E+00 -0.47519482179E+03  0.10198308437E+04  0.90235515794E+03 0.  0.
        4    1    3    3  502    0  0.20375478598E+03  0.32555853052E+03  0.29985693857E+02  0.38523385669E+03  0.12699999809E+01 0.  1.
       -4    1    3    3    0  502 -0.20375478598E+03 -0.32555853052E+03 -0.50518051565E+03  0.63459698699E+03  0.12699999809E+01 0. -1.
</event>
<event>
 5   0  0.6863405E-03  0.8118239E+03  0.7818609E-02  0.9543058E-01
        2   -1    0    0  501    0  0.00000000000E+00  0.00000000000E+00  0.35016292431E+03  0.35016292431E+03  0.25500000920E-02 0. -1.
       -2   -1    0    0    0  501  0.00000000000E+00  0.00000000000E+00 -0.47053670608E+03  0.47053670609E+03  0.25500000920E-02 0.  1.
    10030    2    1    2    0    0  0.00000000000E+00  0.00000000000E+00 -0.12037378178E+03  0.82069963040E+03  0.81182389470E+03 0.  0.
        1    1    3    3  502    0 -0.18477381626E+03 -0.13224650007E+03 -0.40021826967E+03  0.46022294962E+03  0.50400001928E-02 0.  1.
       -1    1    3    3    0  502  0.18477381626E+03  0.13224650007E+03  0.27984448789E+03  0.36047668078E+03  0.50400001928E-02 0. -1.
</event>
<event>
 5   0  0.6524705E-03  0.8979059E+03  0.7818609E-02  0.9428203E-01
        2   -1    0    0  501    0  0.00000000000E+00  0.00000000000E+00  0.46210138000E+03  0.46210138001E+03  0.25500000920E-02 0.  1.
       -2   -1    0    0    0  501  0.00000000000E+00  0.00000000000E+00 -0.43617861307E+03  0.43617861308E+03  0.25500000920E-02 0. -1.
    10030    2    1    2    0    0  0.00000000000E+00  0.00000000000E+00  0.25922766933E+02  0.89827999308E+03  0.89790587264E+03 0.  0.
        3    1    3    3  502    0  0.37546428493E+02  0.21095780000E+03  0.40764547307E+03  0.46052987915E+03  0.10100000352E+00 0.  1.
       -3    1    3    3    0  502 -0.37546428493E+02 -0.21095780000E+03 -0.38172270614E+03  0.43775011394E+03  0.10100000352E+00 0. -1.
</event>
<event>
 5   0  0.3794006E-03  0.8078384E+03  0.7818609E-02  0.9548740E-01
       -1   -1    0    0    0  501  0.00000000000E+00  0.00000000000E+00  0.39818327654E+03  0.39818327657E+03  0.50400001928E-02 0. -1.
        1   -1    0    0  501    0  0.00000000000E+00  0.00000000000E+00 -0.40973776108E+03  0.40973776111E+03  0.50400001928E-02 0.  1.
    10030    2    1    2    0    0  0.00000000000E+00  0.00000000000E+00 -0.11554484541E+02  0.80792103768E+03  0.80783841021E+03 0.  0.
        5    1    3    3  502    0  0.23546585336E+03 -0.10420819941E+03  0.30542193078E+03  0.39950990316E+03  0.46999998093E+01 0. -1.
       -5    1    3    3    0  502 -0.23546585336E+03  0.10420819941E+03 -0.31697641532E+03  0.40841113451E+03  0.46999998093E+01 0.  1.
</event>
<event>
 5   0  0.6609191E-03  0.8998993E+03  0.7818609E-02  0.9425707E-01
        2   -1    0    0  501    0  0.00000000000E+00  0.00000000000E+00  0.15400062703E+04  0.15400062703E+04  0.25500000920E-02 0. -1.
       -2   -1    0    0    0  501  0.00000000000E+00  0.00000000000E+00 -0.13146353519E+03  0.13146353521E+03  0.25500000920E-02 0.  1.
    10030    2    1    2    0    0  0.00000000000E+00  0.00000000000E+00  0.14085427351E+04  0.16714698055E+04  0.89989925775E+03 0.  0.
        2    1    3    3  502    0 -0.18817170004E+03  0.45839111392E+02 -0.50080603883E+02  0.20004469431E+03  0.25500000920E-02 0.  1.
       -2    1    3    3    0  502  0.18817170004E+03 -0.45839111392E+02  0.14586233390E+04  0.14714251112E+04  0.25500000920E-02 0. -1.
</event>
<event>
 5   0  0.6534628E-03  0.8713216E+03  0.7818609E-02  0.9462158E-01
        2   -1    0    0  501    0  0.00000000000E+00  0.00000000000E+00  0.64148363005E+03  0.64148363005E+03  0.25500000920E-02 0.  1.
       -2   -1    0    0    0  501  0.00000000000E+00  0.00000000000E+00 -0.29587714468E+03  0.29587714469E+03  0.25500000920E-02 0. -1.
    10030    2    1    2    0    0  0.00000000000E+00  0.00000000000E+00  0.34560648536E+03  0.93736077474E+03  0.87132162793E+03 0.  0.
        4    1    3    3  502    0 -0.21967451545E+03 -0.35274453925E+03  0.31353528702E+03  0.52056852749E+03  0.12699999809E+01 0.  1.
       -4    1    3    3    0  502  0.21967451545E+03  0.35274453925E+03  0.32071198345E+02  0.41679224725E+03  0.12699999809E+01 0. -1.
</event>
<event>
 5   0  0.3998066E-03  0.9272275E+03  0.7818609E-02  0.9392172E-01
       -1   -1    0    0    0  501  0.00000000000E+00  0.00000000000E+00  0.28192670562E+03  0.28192670566E+03  0.50400001928E-02 0. -1.
        1   -1    0    0  501    0  0.00000000000E+00  0.00000000000E+00 -0.76238855262E+03  0.76238855264E+03  0.50400001928E-02 0.  1.
    10030    2    1    2    0    0  0.00000000000E+00  0.00000000000E+00 -0.48046184700E+03  0.10443152583E+04  0.92722746523E+03 0.  0.
        4    1    3    3  502    0  0.12826704872E+03 -0.22765598006E+03  0.19108535057E+03  0.32372041200E+03  0.12699999809E+01 0. -1.
       -4    1    3    3    0  502 -0.12826704872E+03  0.22765598006E+03 -0.67154719757E+03  0.72059484630E+03  0.12699999809E+01 0.  1.
</event>
<event>
 5   0  0.6724773E-03  0.9009791E+03  0.7818609E-02  0.9424358E-01
       -2   -1    0    0    0  501  0.00000000000E+00  0.00000000000E+00  0.11954834434E+03  0.11954834437E+03  0.25500000920E-02 0. -1.
        2   -1    0    0  501    0  0.00000000000E+00  0.00000000000E+00 -0.16975628818E+04  0.16975628818E+04  0.25500000920E-02 0.  1.
    10030    2    1    2    0    0  0.00000000000E+00  0.00000000000E+00 -0.15780145375E+04  0.18171112262E+04  0.90097909400E+03 0.  0.
        5    1    3    3  502    0  0.30317514502E+03 -0.30795155646E+03 -0.53255064834E+03  0.68584372325E+03  0.46999998093E+01 0. -1.
       -5    1    3    3    0  502 -0.30317514502E+03  0.30795155646E+03 -0.10454638891E+04  0.11312675029E+04  0.46999998093E+01 0.  1.
</event>
<event>
 5   0  0.6524705E-03  0.8997224E+03  0.7818609E-02  0.9425928E-01
        2   -1    0    0  501    0  0.00000000000E+00  0.00000000000E+00  0.14357675944E+04  0.14357675944E+04  0.25500000920E-02 0. -1.
       -2   -1    0    0    0  501  0.00000000000E+00  0.00000000000E+00 -0.14095255635E+03  0.14095255637E+03  0.25500000920E-02 0.  1.
    10030    2    1    2    0    0  0.00000000000E+00  0.00000000000E+00  0.12948150381E+04  0.15767201508E+04  0.89972243005E+03 0.  0.
        3    1    3    3  502    0  0.15824257066E+03 -0.14436853425E+02  0.13849502544E+04  0.13940359935E+04  0.10100000352E+00 0. -1.
       -3    1    3    3    0  502 -0.15824257066E+03  0.14436853425E+02 -0.90135216306E+02  0.18268415729E+03  0.10100000352E+00 0.  1.
</event>
<event>
 5   0  0.3998066E-03  0.9009606E+03  0.7818609E-02  0.9424381E-01
        1   -1    0    0  501    0  0.00000000000E+00  0.00000000000E+00  0.53604743465E+03  0.53604743467E+03  0.50400001928E-02 0.  1.
       -1   -1    0    0    0  501  0.00000000000E+00  0.00000000000E+00 -0.37857194813E+03  0.37857194817E+03  0.50400001928E-02 0. -1.
    10030    2    1    2    0    0  0.00000000000E+00  0.00000000000E+00  0.15747548651E+03  0.91461938283E+03  0.90096064653E+03 0.  0.
        4    1    3    3  502    0  0.73389191687E+01 -0.58820235631E+02 -0.37459377799E+03  0.37925689350E+03  0.12699999809E+01 0. -1.
       -4    1    3    3    0  502 -0.73389191687E+01  0.58820235631E+02  0.53206926451E+03  0.53536248934E+03  0.12699999809E+01 0.  1.
</event>
<event>
 5   0  0.3943549E-03  0.9065404E+03  0.7818609E-02  0.9417442E-01
       -1   -1    0    0    0  501  0.00000000000E+00  0.00000000000E+00  0.13041149471E+03  0.13041149481E+03  0.50400001928E-02 0.  1.
        1   -1    0    0  501    0  0.00000000000E+00  0.00000000000E+00 -0.15754275881E+04  0.15754275881E+04  0.50400001928E-02 0. -1.
    10030    2    1    2    0    0  0.00000000000E+00  0.00000000000E+00 -0.14450160934E+04  0.17058390829E+04  0.90654038335E+03 0.  0.
        3    1    3    3  502    0 -0.51903305146E+02  0.31554917856E+03 -0.13269669876E+04  0.13649566416E+04  0.10100000352E+00 0. -1.
       -3    1    3    3    0  502  0.51903305146E+02 -0.31554917856E+03 -0.11804910576E+03  0.34088244124E+03  0.10100000352E+00 0.  1.
</event>
<event>
 5   0  0.6534628E-03  0.9064550E+03  0.7818609E-02  0.9417548E-01
       -2   -1    0    0    0  501  0.00000000000E+00  0.00000000000E+00  0.21013645499E+03  0.21013645500E+03  0.25500000920E-02 0.  1.
        2   -1    0    0  501    0  0.00000000000E+00  0.00000000000E+00 -0.97753235735E+03  0.97753235736E+03  0.25500000920E-02 0. -1.
    10030    2    1    2    0    0  0.00000000000E+00  0.00000000000E+00 -0.76739590237E+03  0.11876688124E+04  0.90645503854E+03 0.  0.
        4    1    3    3  502    0  0.41110571578E+03 -0.19079485251E+03 -0.38596205510E+03  0.59529732585E+03  0.12699999809E+01 0.  1.
       -4    1    3    3    0  502 -0.41110571578E+03  0.19079485251E+03 -0.38143384726E+03  0.59237148651E+03  0.12699999809E+01 0. -1.
</event>
<event>
 5   0  0.6524705E-03  0.8909406E+03  0.7818609E-02  0.9436978E-01
        2   -1    0    0  501    0  0.00000000000E+00  0.00000000000E+00  0.49598901103E+03  0.49598901104E+03  0.25500000920E-02 0.  1.
       -2   -1    0    0    0  501  0.00000000000E+00  0.00000000000E+00 -0.40009710882E+03  0.40009710883E+03  0.25500000920E-02 0. -1.
    10030    2    1    2    0    0  0.00000000000E+00  0.00000000000E+00  0.95891902207E+02  0.89608611987E+03  0.89094055768E+03 0.  0.
        3    1    3    3  502    0 -0.27279157934E+03 -0.21709122196E+03  0.32685586389E+03  0.47788974709E+03  0.10100000352E+00 0.  1.
       -3    1    3    3    0  502  0.27279157934E+03  0.21709122196E+03 -0.23096396168E+03  0.41819637278E+03  0.10100000352E+00 0. -1.
</event>
<event>
 5   0  0.6609191E-03  0.9030330E+03  0.7818609E-02  0.9421798E-01
        2   -1    0    0  501    0  0.00000000000E+00  0.00000000000E+00  0.44550465839E+03  0.44550465840E+03  0.25500000920E-02 0. -1.
       -2   -1    0    0    0  501  0.00000000000E+00  0.00000000000E+00 -0.45760947938E+03  0.45760947939E+03  0.25500000920E-02 0.  1.
    10030    2    1    2    0    0  0.00000000000E+00  0.00000000000E+00 -0.12104820990E+02  0.90311413778E+03  0.90303301112E+03 0.  0.
        2    1    3    3  502    0 -0.97071292734E+02  0.43188695328E+03 -0.95043428234E+02  0.45274985316E+03  0.25500000920E-02 0.  1.
       -2    1    3    3    0  502  0.97071292734E+02 -0.43188695328E+03  0.82938607244E+02  0.45036428462E+03  0.25500000920E-02 0. -1.
</event>
<event>
 5   0  0.6609191E-03  0.8866083E+03  0.7818609E-02  0.9442478E-01
        2   -1    0    0  501    0  0.00000000000E+00  0.00000000000E+00  0.55704121020E+03  0.55704121021E+03  0.25500000920E-02 0. -1.
       -2   -1    0    0    0  501  0.00000000000E+00  0.00000000000E+00 -0.35279001509E+03  0.35279001510E+03  0.25500000920E-02 0.  1.
    10030    2    1    2    0    0  0.00000000000E+00  0.00000000000E+00  0.20425119511E+03  0.90983122530E+03  0.88660831703E+03 0.  0.
        2    1    3    3  502    0  0.26047037557E+03  0.17059352711E+03 -0.22168928048E+03  0.38222127771E+03  0.25500000920E-02 0.  1.
       -2    1    3    3    0  502 -0.26047037557E+03 -0.17059352711E+03  0.42594047559E+03  0.52760994759E+03  0.25500000920E-02 0. -1.
</event>
<event>
 5   0  0.6534628E-03  0.9025912E+03  0.7818609E-02  0.9422348E-01
        2   -1    0    0  501    0  0.00000000000E+00  0.00000000000E+00  0.73737531532E+03  0.73737531532E+03  0.25500000920E-02 0.  1.
       -2   -1    0    0    0  501  0.00000000000E+00  0.00000000000E+00 -0.27620630140E+03  0.27620630141E+03  0.25500000920E-02 0. -1.
    10030    2    1    2    0    0  0.00000000000E+00  0.00000000000E+00  0.46116901391E+03  0.10135816167E+04  0.90259117788E+03 0.  0.
        4    1    3    3  502    0 -0.38082243489E+02 -0.41122433576E+03  0.43492279492E+03  0.59976258805E+03  0.12699999809E+01 0.  1.
       -4    1    3    3    0  502  0.38082243489E+02  0.41122433576E+03  0.26246218992E+02  0.41381902868E+03  0.12699999809E+01 0. -1.
</event>
<event>
 5   0  0.6724773E-03  0.8986784E+03  0.7818609E-02  0.9427235E-01
        2   -1    0    0  501    0  0.00000000000E+00  0.00000000000E+00  0.16286712790E+04  0.16286712791E+04  0.25500000920E-02 0. -1.
       -2   -1    0    0    0  501  0.00000000000E+00  0.00000000000E+00 -0.12396958738E+03  0.12396958740E+03  0.25500000920E-02 0.  1.
    10030    2    1    2    0    0  0.00000000000E+00  0.00000000000E+00  0.15047016917E+04  0.17526408665E+04  0.89867837731E+03 0.  0.
        5    1    3    3  502    0  0.10505015100E+03  0.38299320087E+03  0.34250147797E+03  0.52445083520E+03  0.46999998093E+01 0.  1.
       -5    1    3    3    0  502 -0.10505015100E+03 -0.38299320087E+03  0.11622002137E+04  0.12281900313E+04  0.46999998093E+01 0. -1.
</event>
<event>
 5   0  0.6724773E-03  0.9030414E+03  0.7818609E-02  0.9421788E-01
        2   -1    0    0  501    0  0.00000000000E+00  0.00000000000E+00  0.46866385255E+03  0.46866385256E+03  0.25500000920E-02 0. -1.
       -2   -1    0    0    0  501  0.00000000000E+00  0.00000000000E+00 -0.43500457767E+03  0.43500457768E+03  0.25500000920E-02 0.  1.
    10030    2    1    2    0    0  0.00000000000E+00  0.00000000000E+00  0.33659274876E+02  0.90366843024E+03  0.90304135288E+03 0.  0.
        5    1    3    3  502    0  0.19845896334E+02  0.28995762706E+03 -0.32892374212E+03  0.43895581010E+03  0.46999998093E+01 0.  1.
       -5    1    3    3    0  502 -0.19845896334E+02 -0.28995762706E+03  0.36258301700E+03  0.46471262013E+03  0.46999998093E+01 0. -1.
</event>
<event>
 5   0  0.6524705E-03  0.9020357E+03  0.7818609E-02  0.9423040E-01
       -2   -1    0    0    0  501  0.00000000000E+00  0.00000000000E+00  0.16014541101E+03  0.16014541103E+03  0.25500000920E-02 0.  1.
        2   -1    0    0  501    0  0.00000000000E+00  0.00000000000E+00 -0.12702025038E+04  0.12702025038E+04  0.25500000920E-02 0. -1.
    10030    2    1    2    0    0  0.00000000000E+00  0.00000000000E+00 -0.11100570928E+04  0.14303479148E+04  0.90203570228E+03 0.  0.
        3    1    3    3  502    0 -0.23970890601E+03  0.30169199274E+02 -0.11589377721E+04  0.11838527400E+04  0.10100000352E+00 0. -1.
       -3    1    3    3    0  502  0.23970890601E+03 -0.30169199274E+02  0.48880679310E+02  0.24649517483E+03  0.10100000352E+00 0.  1.
</event>
<event>
 5   0  0.3969536E-03  0.8777330E+03  0.7818609E-02  0.9453852E-01
       -1   -1    0    0    0  501  0.00000000000E+00  0.00000000000E+00  0.20135923555E+03  0.20135923561E+03  0.50400001928E-02 0. -1.
        1   -1    0    0  501    0  0.00000000000E+00  0.00000000000E+00 -0.95651846175E+03  0.95651846177E+03  0.50400001928E-02 0.  1.
    10030    2    1    2    0    0  0.00000000000E+00  0.00000000000E+00 -0.75515922621E+03  0.11578776974E+04  0.87773304891E+03 0.  0.
        1    1    3    3  502    0  0.25190595812E+03 -0.19168436939E+02  0.95815844707E+02  0.27019385047E+03  0.50400001928E-02 0. -1.
       -1    1    3    3    0  502 -0.25190595812E+03  0.19168436939E+02 -0.85097507091E+03  0.88768384690E+03  0.50400001928E-02 0.  1.
</event>
<event>
 5   0  0.3969536E-03  0.9054375E+03  0.7818609E-02  0.9418810E-01
        1   -1    0    0  501    0  0.00000000000E+00  0.00000000000E+00  0.17341235240E+03  0.17341235247E+03  0.50400001928E-02 0.  1.
       -1   -1    0    0    0  501  0.00000000000E+00  0.00000000000E+00 -0.11818897311E+04  0.11818897311E+04  0.50400001928E-02 0. -1.
    10030    2    1    2    0    0  0.00000000000E+00  0.00000000000E+00 -0.10084773787E+04  0.13553020836E+04  0.90543752651E+03 0.  0.
        1    1    3    3  502    0  0.13765183939E+03 -0.83623193702E+02 -0.11375546017E+04  0.11489000562E+04  0.50400001928E-02 0. -1.
       -1    1    3    3    0  502 -0.13765183939E+03  0.83623193702E+02  0.12907722292E+03  0.20640202739E+03  0.50400001928E-02 0.  1.
</event>
<event>
 5   0  0.6609191E-03  0.8957082E+03  0.7818609E-02  0.9430962E-01
        2   -1    0    0  501    0  0.00000000000E+00  0.00000000000E+00  0.43871309682E+03  0.43871309682E+03  0.25500000920E-02 0.  1.
       -2   -1    0    0    0  501  0.00000000000E+00  0.00000000000E+00 -0.45718556223E+03  0.45718556224E+03  0.25500000920E-02 0. -1.
    10030    2    1    2    0    0  0.00000000000E+00  0.00000000000E+00 -0.18472465415E+02  0.89589865906E+03  0.89570819765E+03 0.  0.
        2    1    3    3  502    0  0.51589846509E+02  0.26736906050E+03  0.34640310493E+03  0.44061642943E+03  0.25500000920E-02 0.  1.
       -2    1    3    3    0  502 -0.51589846509E+02 -0.26736906050E+03 -0.36487557034E+03  0.45528222963E+03  0.25500000920E-02 0. -1.
</event>
<event>
 5   0  0.6534628E-03  0.8967196E+03  0.7818609E-02  0.9429691E-01
        2   -1    0    0  501    0  0.00000000000E+00  0.00000000000E+00  0.85895520764E+03  0.85895520764E+03  0.25500000920E-02 0. -1.
       -2   -1    0    0    0  501  0.00000000000E+00  0.00000000000E+00 -0.23403609920E+03  0.23403609921E+03  0.25500000920E-02 0.  1.
    10030    2    1    2    0    0  0.00000000000E+00  0.00000000000E+00  0.62491910844E+03  0.10929913069E+04  0.89671963554E+03 0.  0.
        4    1    3    3  502    0 -0.19858031264E+03 -0.18147329328E+03  0.74965818346E+03  0.79646450119E+03  0.12699999809E+01 0. -1.
       -4    1    3    3    0  502  0.19858031264E+03  0.18147329328E+03 -0.12473907501E+03  0.29652680566E+03  0.12699999809E+01 0.  1.
</event>
<event>
 5   0  0.3794006E-03  0.8991489E+03  0.7818609E-02  0.9426646E-01
       -1   -1    0    0    0  501  0.00000000000E+00  0.00000000000E+00  0.12548758858E+03  0.12548758868E+03  0.50400001928E-02 0.  1.
        1   -1    0    0  501    0  0.00000000000E+00  0.00000000000E+00 -0.16106546765E+04  0.16106546765E+04  0.50400001928E-02 0. -1.
    10030    2    1    2    0    0  0.00000000000E+00  0.00000000000E+00 -0.14851670879E+04  0.17361422651E+04  0.89914886748E+03 0.  0.
        5    1    3    3  502    0  0.15653681925E+03  0.12010426636E+03  0.37370298931E+02  0.20086672153E+03  0.46999998093E+01 0.  1.
       -5    1    3    3    0  502 -0.15653681925E+03 -0.12010426636E+03 -0.15225373868E+04  0.15352755436E+04  0.46999998093E+01 0. -1.
</event>
<event>
 5   0  0.2560250E-03  0.9008893E+03  0.7818609E-02  0.9424470E-01
       -3   -1    0    0    0  501  0.00000000000E+00  0.00000000000E+00  0.68435730022E+03  0.68435730767E+03  0.10100000352E+00 0. -1.
        3   -1    0    0  501    0  0.00000000000E+00  0.00000000000E+00 -0.29648312023E+03  0.29648313743E+03  0.10100000352E+00 0.  1.
    10030    2    1    2    0    0  0.00000000000E+00  0.00000000000E+00  0.38787417999E+03  0.98084044510E+03  0.90088933795E+03 0.  0.
        3    1    3    3  502    0 -0.39268206569E+03 -0.19670932956E+03  0.30284783317E+03  0.53348906765E+03  0.10100000352E+00 0.  1.
       -3    1    3    3    0  502  0.39268206569E+03  0.19670932956E+03  0.85026346821E+02  0.44735137745E+03  0.10100000352E+00 0. -1.
</event>
<event>
 5   0  0.6863405E-03  0.9017821E+03  0.7818609E-02  0.9423356E-01
       -2   -1    0    0    0  501  0.00000000000E+00  0.00000000000E+00  0.49082972173E+03  0.49082972173E+03  0.25500000920E-02 0. -1.
        2   -1    0    0  501    0  0.00000000000E+00  0.00000000000E+00 -0.41420219075E+03  0.41420219076E+03  0.25500000920E-02 0.  1.
    10030    2    1    2    0    0  0.00000000000E+00  0.00000000000E+00  0.76627530974E+02  0.90503191250E+03  0.90178211567E+03 0.  0.
        1    1    3    3  502    0  0.91363641855E+02  0.30369024918E+03  0.35998037420E+03  0.47975092739E+03  0.50400001928E-02 0. -1.
       -1    1    3    3    0  502 -0.91363641855E+02 -0.30369024918E+03 -0.28335284323E+03  0.42528098510E+03  0.50400001928E-02 0.  1.
</event>
<event>
 5   0  0.3794006E-03  0.9014510E+03  0.7818609E-02  0.9423769E-01
        1   -1    0    0  501    0  0.00000000000E+00  0.00000000000E+00  0.10483351130E+04  0.10483351130E+04  0.50400001928E-02 0.  1.
       -1   -1    0    0    0  501  0.00000000000E+00  0.00000000000E+00 -0.19378675025E+03  0.19378675032E+03  0.50400001928E-02 0. -1.
    10030    2    1    2    0    0  0.00000000000E+00  0.00000000000E+00  0.85454836273E+03  0.12421218633E+04  0.90145095212E+03 0.  0.
        5    1    3    3  502    0  0.48771558454E+02 -0.28366842718E+02  0.10434159637E+04  0.10449508630E+04  0.46999998093E+01 0.  1.
       -5    1    3    3    0  502 -0.48771558454E+02  0.28366842718E+02 -0.18886760098E+03  0.19717100035E+03  0.46999998093E+01 0. -1.
</event>
<event>
 5   0  0.3998066E-03  0.8946127E+03  0.7818609E-02  0.9432341E-01
        1   -1    0    0  501    0  0.00000000000E+00  0.00000000000E+00  0.64729500339E+03  0.64729500341E+03  0.50400001928E-02 0. -1.
       -1   -1    0    0    0  501  0.00000000000E+00  0.00000000000E+00 -0.30910629067E+03  0.30910629071E+03  0.50400001928E-02 0.  1.
    10030    2    1    2    0    0  0.00000000000E+00  0.00000000000E+00  0.33818871271E+03  0.95640129412E+03  0.89461267037E+03 0.  0.
        4    1    3    3  502    0  0.15231465477E+03 -0.10617953105E+03 -0.26596158892E+03  0.32436249252E+03  0.12699999809E+01 0.  1.
       -4    1    3    3    0  502 -0.15231465477E+03  0.10617953105E+03  0.60415030163E+03  0.63203880160E+03  0.12699999809E+01 0. -1.
</event>
<event>
 5   0  0.3969536E-03  0.9059224E+03  0.7818609E-02  0.9418208E-01
        1   -1    0    0  501    0  0.00000000000E+00  0.00000000000E+00  0.54049873896E+03  0.54049873898E+03  0.50400001928E-02 0. -1.
       -1   -1    0    0    0  501  0.00000000000E+00  0.00000000000E+00 -0.37960098037E+03  0.37960098040E+03  0.50400001928E-02 0.  1.
    10030    2    1    2    0    0  0.00000000000E+00  0.00000000000E+00  0.16089775859E+03  0.92009971938E+03  0.90592240556E+03 0.  0.
        1    1    3    3  502    0  0.22016406319E+03  0.15406772912E+03 -0.28990098755E+03  0.39528681041E+03  0.50400001928E-02 0.  1.
       -1    1    3    3    0  502 -0.22016406319E+03 -0.15406772912E+03  0.45079874614E+03  0.52481290897E+03  0.50400001928E-02 0. -1.
</event>
<event>
 5   0  0.3969536E-03  0.9054048E+03  0.7818609E-02  0.9418850E-01
        1   -1    0    0  501    0  0.00000000000E+00  0.00000000000E+00  0.17486646699E+04  0.17486646699E+04  0.50400001928E-02 0. -1.
       -1   -1    0    0    0  501  0.00000000000E+00  0.00000000000E+00 -0.11719768132E+03  0.11719768143E+03  0.50400001928E-02 0.  1.
    10030    2    1    2    0    0  0.00000000000E+00  0.00000000000E+00  0.16314669885E+04  0.18658623513E+04  0.90540475992E+03 0.  0.
        1    1    3    3  502    0 -0.32875656892E+03 -0.29419941795E+03  0.60653120893E+03  0.75000952431E+03  0.50400001928E-02 0.  1.
       -1    1    3    3    0  502  0.32875656892E+03  0.29419941795E+03  0.10249357796E+04  0.11158528270E+04  0.50400001928E-02 0. -1.
</event>
<event>
 5   0  0.3969536E-03  0.8967880E+03  0.7818609E-02  0.9429605E-01
       -1   -1    0    0    0  501  0.00000000000E+00  0.00000000000E+00  0.29919881477E+03  0.29919881481E+03  0.50400001928E-02 0. -1.
        1   -1    0    0  501    0  0.00000000000E+00  0.00000000000E+00 -0.67198524226E+03  0.67198524228E+03  0.50400001928E-02 0.  1.
    10030    2    1    2    0    0  0.00000000000E+00  0.00000000000E+00 -0.37278642749E+03  0.97118405710E+03  0.89678801968E+03 0.  0.
        1    1    3    3  502    0  0.44401960786E+03  0.49754088377E+02 -0.14546503105E+03  0.46988185405E+03  0.50400001928E-02 0. -1.
       -1    1    3    3    0  502 -0.44401960786E+03 -0.49754088377E+02 -0.22732139644E+03  0.50130220305E+03  0.50400001928E-02 0.  1.
</event>
<event>
 5   0  0.3927993E-03  0.8960192E+03  0.7818609E-02  0.9430571E-01
       -1   -1    0    0    0  501  0.00000000000E+00  0.00000000000E+00  0.75119466081E+03  0.75119466083E+03  0.50400001928E-02 0. -1.
        1   -1    0    0  501    0  0.00000000000E+00  0.00000000000E+00 -0.26719121705E+03  0.26719121710E+03  0.50400001928E-02 0.  1.
    10030    2    1    2    0    0  0.00000000000E+00  0.00000000000E+00  0.48400344376E+03  0.10183858779E+04  0.89601923126E+03 0.  0.
        2    1    3    3  502    0 -0.20816657186E+03 -0.10648278446E+03  0.67634390118E+03  0.71562069401E+03  0.25500000920E-02 0. -1.
       -2    1    3    3    0  502  0.20816657186E+03  0.10648278446E+03 -0.19234045742E+03  0.30276518392E+03  0.25500000920E-02 0.  1.
</event>
<event>
 5   0  0.3794006E-03  0.9002086E+03  0.7818609E-02  0.9425321E-01
       -1   -1    0    0    0  501  0.00000000000E+00  0.00000000000E+00  0.35713522222E+03  0.35713522225E+03  0.50400001928E-02 0.  1.
        1   -1    0    0  501    0  0.00000000000E+00  0.00000000000E+00 -0.56727503308E+03  0.56727503310E+03  0.50400001928E-02 0. -1.
    10030    2    1    2    0    0  0.00000000000E+00  0.00000000000E+00 -0.21013981086E+03  0.92441025535E+03  0.90020863142E+03 0.  0.
        5    1    3    3  502    0  0.12085300937E+03  0.43334725689E+03 -0.11871279493E+03  0.46530647170E+03  0.46999998093E+01 0. -1.
       -5    1    3    3    0  502 -0.12085300937E+03 -0.43334725689E+03 -0.91427015928E+02  0.45910378365E+03  0.46999998093E+01 0.  1.
</event>
<event>
 5   0  0.6524705E-03  0.9005343E+03  0.7818609E-02  0.9424914E-01
        2   -1    0    0  501    0  0.00000000000E+00  0.00000000000E+00  0.75239426816E+03  0.75239426816E+03  0.25500000920E-02 0. -1.
       -2   -1    0    0    0  501  0.00000000000E+00  0.00000000000E+00 -0.26946046628E+03  0.26946046629E+03  0.25500000920E-02 0.  1.
    10030    2    1    2    0    0  0.00000000000E+00  0.00000000000E+00  0.48293380188E+03  0.10218547345E+04  0.90053430880E+03 0.  0.
        3    1    3    3  502    0 -0.18802607867E+03 -0.32575316631E+03 -0.39411534379E+02  0.37818277442E+03  0.10100000352E+00 0.  1.
       -3    1    3    3    0  502  0.18802607867E+03  0.32575316631E+03  0.52234533626E+03  0.64367196004E+03  0.10100000352E+00 0. -1.
</event>
<event>
 5   0  0.3943549E-03  0.8991289E+03  0.7818609E-02  0.9426671E-01
        1   -1    0    0  501    0  0.00000000000E+00  0.00000000000E+00  0.10781215477E+04  0.10781215477E+04  0.50400001928E-02 0. -1.
       -1   -1    0    0    0  501  0.00000000000E+00  0.00000000000E+00 -0.18746326611E+03  0.18746326618E+03  0.50400001928E-02 0.  1.
    10030    2    1    2    0    0  0.00000000000E+00  0.00000000000E+00  0.89065828162E+03  0.12655848139E+04  0.89912888209E+03 0.  0.
        3    1    3    3  502    0  0.24647901081E+03  0.15806273614E+03 -0.34840155465E+02  0.29487213832E+03  0.10100000352E+00 0.  1.
       -3    1    3    3    0  502 -0.24647901081E+03 -0.15806273614E+03  0.92549843709E+03  0.97071267560E+03  0.10100000352E+00 0. -1.
</event>
<event>
 5   0  0.3927993E-03  0.9035859E+03  0.7818609E-02  0.9421110E-01
       -1   -1    0    0    0  501  0.00000000000E+00  0.00000000000E+00  0.27781682365E+03  0.27781682369E+03  0.50400001928E-02 0.  1.
        1   -1    0    0  501    0  0.00000000000E+00  0.00000000000E+00 -0.73471741700E+03  0.73471741702E+03  0.50400001928E-02 0. -1.
    10030    2    1    2    0    0  0.00000000000E+00  0.00000000000E+00 -0.45690059336E+03  0.10125342407E+04  0.90358587661E+03 0.  0.
        2    1    3    3  502    0 -0.57505317786E+02  0.21059863148E+03 -0.67169082983E+03  0.70627701084E+03  0.25500000920E-02 0. -1.
       -2    1    3    3    0  502  0.57505317786E+02 -0.21059863148E+03  0.21479023648E+03  0.30625722987E+03  0.25500000920E-02 0.  1.
</event>
<event>
 5   0  0.6724773E-03  0.9008872E+03  0.7818609E-02  0.9424473E-01
       -2   -1    0    0    0  501  0.00000000000E+00  0.00000000000E+00  0.10984800052E+03  0.10984800055E+03  0.25500000920E-02 0. -1.
        2   -1    0    0  501    0  0.00000000000E+00  0.00000000000E+00 -0.18470925397E+04  0.18470925397E+04  0.25500000920E-02 0.  1.
    10030    2    1    2    0    0  0.00000000000E+00  0.00000000000E+00 -0.17372445392E+04  0.19569405402E+04  0.90088716783E+03 0.  0.
        5    1    3    3  502    0  0.18244333325E+03  0.10520001843E+03 -0.37425276388E+01  0.21068628393E+03  0.46999998093E+01 0. -1.
       -5    1    3    3    0  502 -0.18244333325E+03 -0.10520001843E+03 -0.17335020115E+04  0.17462542563E+04  0.46999998093E+01 0.  1.
</event>
<event>
 5   0  0.6524705E-03  0.8956177E+03  0.7818609E-02  0.9431076E-01
        2   -1    0    0  501    0  0.00000000000E+00  0.00000000000E+00  0.14182625584E+04  0.14182625584E+04  0.25500000920E-02 0. -1.
       -2   -1    0    0    0  501  0.00000000000E+00  0.00000000000E+00 -0.14139325347E+03  0.14139325350E+03  0.25500000920E-02 0.  1.
    10030    2    1    2    0    0  0.00000000000E+00  0.00000000000E+00  0.12768693049E+04  0.15596558119E+04  0.89561768057E+03 0.  0.
        3    1    3    3  502    0  0.22172293882E+03 -0.38845208363E+03  0.60041462298E+03  0.74870141750E+03  0.10100000352E+00 0. -1.
       -3    1    3    3    0  502 -0.22172293882E+03  0.38845208363E+03  0.67645468197E+03  0.81095439443E+03  0.10100000352E+00 0.  1.
</event>
<event>
 5   0  0.3969536E-03  0.9008482E+03  0.7818609E-02  0.9424522E-01
        1   -1    0    0  501    0  0.00000000000E+00  0.00000000000E+00  0.84573042943E+03  0.84573042945E+03  0.50400001928E-02 0. -1.
       -1   -1    0    0    0  501  0.00000000000E+00  0.00000000000E+00 -0.23988950551E+03  0.23988950557E+03  0.50400001928E-02 0.  1.
    10030    2    1    2    0    0  0.00000000000E+00  0.00000000000E+00  0.60584092392E+03  0.10856199350E+04  0.90084816601E+03 0.  0.
        1    1    3    3  502    0 -0.32088809548E+03  0.11970977910E+03 -0.49627387473E+02  0.34606715915E+03  0.50400001928E-02 0.  1.
       -1    1    3    3    0  502  0.32088809548E+03 -0.11970977910E+03  0.65546831139E+03  0.73955277587E+03  0.50400001928E-02 0. -1.
</event>
<event>
 5   0  0.6534628E-03  0.9278504E+03  0.7818609E-02  0.9391421E-01
       -2   -1    0    0    0  501  0.00000000000E+00  0.00000000000E+00  0.10530232919E+04  0.10530232919E+04  0.25500000920E-02 0.  1.
        2   -1    0    0  501    0  0.00000000000E+00  0.00000000000E+00 -0.20438919174E+03  0.20438919175E+03  0.25500000920E-02 0. -1.
    10030    2    1    2    0    0  0.00000000000E+00  0.00000000000E+00  0.84863410018E+03  0.12574124837E+04  0.92785037485E+03 0.  0.
        4    1    3    3  502    0  0.22815715258E+03  0.29387407600E+03  0.79989586878E+03  0.88218630266E+03  0.12699999809E+01 0.  1.
       -4    1    3    3    0  502 -0.22815715258E+03 -0.29387407600E+03  0.48738231407E+02  0.37522618101E+03  0.12699999809E+01 0. -1.
</event>
<event>
 5   0  0.6863405E-03  0.9079899E+03  0.7818609E-02  0.9415648E-01
       -2   -1    0    0    0  501  0.00000000000E+00  0.00000000000E+00  0.16822506937E+03  0.16822506939E+03  0.25500000920E-02 0. -1.
        2   -1    0    0  501    0  0.00000000000E+00  0.00000000000E+00 -0.12252121156E+04  0.12252121156E+04  0.25500000920E-02 0.  1.
    10030    2    1    2    0    0  0.00000000000E+00  0.00000000000E+00 -0.10569870462E+04  0.13934371850E+04  0.90798985269E+03 0.  0.
        1    1    3    3  502    0  0.38663941584E+03  0.21254870721E+03 -0.69266698600E+03  0.82125181543E+03  0.50400001928E-02 0.  1.
       -1    1    3    3    0  502 -0.38663941584E+03 -0.21254870721E+03 -0.36432006020E+03  0.57218536953E+03  0.50400001928E-02 0. -1.
</event>
<event>
 5   0  0.6524705E-03  0.9043499E+03  0.7818609E-02  0.9420160E-01
       -2   -1    0    0    0  501  0.00000000000E+00  0.00000000000E+00  0.21581683642E+03  0.21581683643E+03  0.25500000920E-02 0. -1.
        2   -1    0    0  501    0  0.00000000000E+00  0.00000000000E+00 -0.94738746627E+03  0.94738746628E+03  0.25500000920E-02 0.  1.
    10030    2    1    2    0    0  0.00000000000E+00  0.00000000000E+00 -0.73157062986E+03  0.11632043027E+04  0.90434985673E+03 0.  0.
        3    1    3    3  502    0 -0.28492470964E+03 -0.14057985276E+03 -0.77961928908E+03  0.84187352451E+03  0.10100000352E+00 0.  1.
       -3    1    3    3    0  502  0.28492470964E+03  0.14057985276E+03  0.48048659226E+02  0.32133077820E+03  0.10100000352E+00 0. -1.
</event>
<event>
 5   0  0.3794006E-03  0.8812522E+03  0.7818609E-02  0.9449325E-01
       -1   -1    0    0    0  501  0.00000000000E+00  0.00000000000E+00  0.19488909208E+03  0.19488909215E+03  0.50400001928E-02 0. -1.
        1   -1    0    0  501    0  0.00000000000E+00  0.00000000000E+00 -0.99621463312E+03  0.99621463314E+03  0.50400001928E-02 0.  1.
    10030    2    1    2    0    0  0.00000000000E+00  0.00000000000E+00 -0.80132554104E+03  0.11911037253E+04  0.88125221229E+03 0.  0.
        5    1    3    3  502    0 -0.31490378801E+03  0.70366616035E+02 -0.80617409948E+03  0.86836318728E+03  0.46999998093E+01 0.  1.
       -5    1    3    3    0  502  0.31490378801E+03 -0.70366616035E+02  0.48485584348E+01  0.32274053801E+03  0.46999998093E+01 0. -1.
</event>
<event>
 5   0  0.3927993E-03  0.9021985E+03  0.7818609E-02  0.9422837E-01
        1   -1    0    0  501    0  0.00000000000E+00  0.00000000000E+00  0.19012464054E+03  0.19012464061E+03  0.50400001928E-02 0.  1.
       -1   -1    0    0    0  501  0.00000000000E+00  0.00000000000E+00 -0.10703005752E+04  0.10703005752E+04  0.50400001928E-02 0. -1.
    10030    2    1    2    0    0  0.00000000000E+00  0.00000000000E+00 -0.88017593461E+03  0.12604252158E+04  0.90219845306E+03 0.  0.
        2    1    3    3  502    0 -0.42920872139E+03  0.13038394452E+03 -0.37351967667E+03  0.58372686110E+03  0.25500000920E-02 0.  1.
       -2    1    3    3    0  502  0.42920872139E+03 -0.13038394452E+03 -0.50665625794E+03  0.67669835468E+03  0.25500000920E-02 0. -1.
</event>
<event>
 5   0  0.3943549E-03  0.8999743E+03  0.7818609E-02  0.9425614E-01
        1   -1    0    0  501    0  0.00000000000E+00  0.00000000000E+00  0.48636522392E+03  0.48636522395E+03  0.50400001928E-02 0.  1.
       -1   -1    0    0    0  501  0.00000000000E+00  0.00000000000E+00 -0.41632999610E+03  0.41632999613E+03  0.50400001928E-02 0. -1.
    10030    2    1    2    0    0  0.00000000000E+00  0.00000000000E+00  0.70035227820E+02  0.90269522009E+03  0.89997429254E+03 0.  0.
        3    1    3    3  502    0 -0.40242846970E+03  0.78652418454E+02  0.22092507558E+03  0.46577116203E+03  0.10100000352E+00 0.  1.
       -3    1    3    3    0  502  0.40242846970E+03 -0.78652418454E+02 -0.15088984776E+03  0.43692405806E+03  0.10100000352E+00 0. -1.
</event>
<event>
 5   0  0.6609191E-03  0.8993856E+03  0.7818609E-02  0.9426350E-01
        2   -1    0    0  501    0  0.00000000000E+00  0.00000000000E+00  0.98997375173E+03  0.98997375173E+03  0.25500000920E-02 0. -1.
       -2   -1    0    0    0  501  0.00000000000E+00  0.00000000000E+00 -0.20427168589E+03  0.20427168591E+03  0.25500000920E-02 0.  1.
    10030    2    1    2    0    0  0.00000000000E+00  0.00000000000E+00  0.78570206583E+03  0.11942454376E+04  0.89938558420E+03 0.  0.
        2    1    3    3  502    0  0.24568145246E+03 -0.12612019572E+03  0.86411086218E+03  0.90716771437E+03  0.25500000920E-02 0. -1.
       -2    1    3    3    0  502 -0.24568145246E+03  0.12612019572E+03 -0.78408796347E+02  0.28707772327E+03  0.25500000920E-02 0.  1.
</event>
<event>
 5   0  0.6534628E-03  0.8983209E+03  0.7818609E-02  0.9427683E-01
       -2   -1    0    0    0  501  0.00000000000E+00  0.00000000000E+00  0.12289589578E+03  0.12289589581E+03  0.25500000920E-02 0.  1.
        2   -1    0    0  501    0  0.00000000000E+00  0.00000000000E+00 -0.16415936729E+04  0.16415936729E+04  0.25500000920E-02 0. -1.
    10030    2    1    2    0    0  0.00000000000E+00  0.00000000000E+00 -0.15186977772E+04  0.17644895687E+04  0.89832093367E+03 0.  0.
        4    1    3    3  502    0 -0.29144661179E+03  0.33503265201E+03 -0.89192214272E+03  0.99635070483E+03  0.12699999809E+01 0. -1.
       -4    1    3    3    0  502  0.29144661179E+03 -0.33503265201E+03 -0.62677563444E+03  0.76813886392E+03  0.12699999809E+01 0.  1.
</event>
<event>
 5   0  0.3927993E-03  0.8988723E+03  0.7818609E-02  0.9426992E-01
       -1   -1    0    0    0  501  0.00000000000E+00  0.00000000000E+00  0.28404487991E+03  0.28404487996E+03  0.50400001928E-02 0. -1.
        1   -1    0    0  501    0  0.00000000000E+00  0.00000000000E+00 -0.71112998653E+03  0.71112998654E+03  0.50400001928E-02 0.  1.
    10030    2    1    2    0    0  0.00000000000E+00  0.00000000000E+00 -0.42708510661E+03  0.99517486650E+03  0.89887225267E+03 0.  0.
        2    1    3    3  502    0  0.38357867364E+03  0.19657482356E+02 -0.47194422877E+03  0.60848202156E+03  0.25500000920E-02 0.  1.
       -2    1    3    3    0  502 -0.38357867364E+03 -0.19657482356E+02  0.44859122160E+02  0.38669284494E+03  0.25500000920E-02 0. -1.
</event>
<event>
 5   0  0.3794006E-03  0.9003243E+03  0.7818609E-02  0.9425176E-01
        1   -1    0    0  501    0  0.00000000000E+00  0.00000000000E+00  0.28967517241E+03  0.28967517245E+03  0.50400001928E-02 0.  1.
       -1   -1    0    0    0  501  0.00000000000E+00  0.00000000000E+00 -0.69956272138E+03  0.69956272140E+03  0.50400001928E-02 0. -1.
    10030    2    1    2    0    0  0.00000000000E+00  0.00000000000E+00 -0.40988754897E+03  0.98923789385E+03  0.90032427926E+03 0.  0.
        5    1    3    3  502    0  0.33049443378E+02 -0.23443969067E+03 -0.62559656517E+03  0.66891508177E+03  0.46999998093E+01 0. -1.
       -5    1    3    3    0  502 -0.33049443378E+02  0.23443969067E+03  0.21570901620E+03  0.32032281208E+03  0.46999998093E+01 0.  1.
</event>
<event>
 5   0  0.3927993E-03  0.8995873E+03  0.7818609E-02  0.9426098E-01
       -1   -1    0    0    0  501  0.00000000000E+00  0.00000000000E+00  0.36830834907E+03  0.36830834910E+03  0.50400001928E-02 0.  1.
        1   -1    0    0  501    0  0.00000000000E+00  0.00000000000E+00 -0.54930687676E+03  0.54930687678E+03  0.50400001928E-02 0. -1.
    10030    2    1    2    0    0  0.00000000000E+00  0.00000000000E+00 -0.18099852769E+03  0.91761522588E+03  0.89958725855E+03 0.  0.
        2    1    3    3  502    0 -0.29618448298E+03 -0.19362147340E+03  0.19273376842E+03  0.40294022933E+03  0.25500000920E-02 0.  1.
       -2    1    3    3    0  502  0.29618448298E+03  0.19362147340E+03 -0.37373229611E+03  0.51467499656E+03  0.25500000920E-02 0. -1.
</event>
<event>
 5   0  0.2560250E-03  0.8992602E+03  0.7818609E-02  0.9426507E-01
        3   -1    0    0  501    0  0.00000000000E+00  0.00000000000E+00  0.16905294754E+03  0.16905297771E+03  0.10100000352E+00 0.  1.
       -3   -1    0    0    0  501  0.00000000000E+00  0.00000000000E+00 -0.11958810648E+04  0.11958810690E+04  0.10100000352E+00 0. -1.
    10030    2    1    2    0    0  0.00000000000E+00  0.00000000000E+00 -0.10268281172E+04  0.13649340467E+04  0.89926023466E+03 0.  0.
        1    1    3    3  502    0  0.26837264034E+03 -0.13055737552E+03 -0.10238649998E+04  0.10664748662E+04  0.50400001928E-02 0. -1.
       -1    1    3    3    0  502 -0.26837264034E+03  0.13055737552E+03 -0.29631174564E+01  0.29845918058E+03  0.50400001928E-02 0.  1.
</event>
<event>
 5   0  0.6609191E-03  0.9000053E+03  0.7818609E-02  0.9425575E-01
        2   -1    0    0  501    0  0.00000000000E+00  0.00000000000E+00  0.60913247628E+03  0.60913247629E+03  0.25500000920E-02 0.  1.
       -2   -1    0    0    0  501  0.00000000000E+00  0.00000000000E+00 -0.33244392510E+03  0.33244392511E+03  0.25500000920E-02 0. -1.
    10030    2    1    2    0    0  0.00000000000E+00  0.00000000000E+00  0.27668855118E+03  0.94157640140E+03  0.90000531405E+03 0.  0.
        2    1    3    3  502    0 -0.15351942140E+03  0.14501065738E+03 -0.27738434906E+03  0.34862355143E+03  0.25500000920E-02 0. -1.
       -2    1    3    3    0  502  0.15351942140E+03 -0.14501065738E+03  0.55407290024E+03  0.59295284997E+03  0.25500000920E-02 0.  1.
</event>
<event>
 5   0  0.6524705E-03  0.8951691E+03  0.7818609E-02  0.9431641E-01
       -2   -1    0    0    0  501  0.00000000000E+00  0.00000000000E+00  0.39004133459E+03  0.39004133460E+03  0.25500000920E-02 0. -1.
        2   -1    0    0  501    0  0.00000000000E+00  0.00000000000E+00 -0.51361713848E+03  0.51361713849E+03  0.25500000920E-02 0.  1.
    10030    2    1    2    0    0  0.00000000000E+00  0.00000000000E+00 -0.12357580390E+03  0.90365847309E+03  0.89516906597E+03 0.  0.
        3    1    3    3  502    0  0.20901417246E+03  0.99967559406E+02 -0.44837064607E+03  0.50469464399E+03  0.10100000352E+00 0.  1.
       -3    1    3    3    0  502 -0.20901417246E+03 -0.99967559406E+02  0.32479484217E+03  0.39896382909E+03  0.10100000352E+00 0. -1.
</event>
<event>
 5   0  0.6609191E-03  0.9097713E+03  0.7818609E-02  0.9413449E-01
       -2   -1    0    0    0  501  0.00000000000E+00  0.00000000000E+00  0.32613761399E+03  0.32613761400E+03  0.25500000920E-02 0.  1.
        2   -1    0    0  501    0  0.00000000000E+00  0.00000000000E+00 -0.63445909064E+03  0.63445909065E+03  0.25500000920E-02 0. -1.
    10030    2    1    2    0    0  0.00000000000E+00  0.00000000000E+00 -0.30832147665E+03  0.96059670465E+03  0.90977134272E+03 0.  0.
        2    1    3    3  502    0 -0.42411149685E+01  0.26552687848E+03 -0.54411491763E+03  0.60546143878E+03  0.25500000920E-02 0. -1.
       -2    1    3    3    0  502  0.42411149685E+01 -0.26552687848E+03  0.23579344098E+03  0.35513526588E+03  0.25500000920E-02 0.  1.
</event>
<event>
 5   0  0.3943549E-03  0.8721749E+03  0.7818609E-02  0.9461049E-01
        1   -1    0    0  501    0  0.00000000000E+00  0.00000000000E+00  0.11725554616E+04  0.11725554616E+04  0.50400001928E-02 0. -1.
       -1   -1    0    0    0  501  0.00000000000E+00  0.00000000000E+00 -0.16218614403E+03  0.16218614410E+03  0.50400001928E-02 0.  1.
    10030    2    1    2    0    0  0.00000000000E+00  0.00000000000E+00  0.10103693175E+04  0.13347416057E+04  0.87217486556E+03 0.  0.
        3    1    3    3  502    0  0.29049242863E+03  0.12840319072E+02  0.10025434803E+04  0.10438602230E+04  0.10100000352E+00 0. -1.
       -3    1    3    3    0  502 -0.29049242863E+03 -0.12840319072E+02  0.78258371988E+01  0.29088138273E+03  0.10100000352E+00 0.  1.
</event>
<event>
 5   0  0.3794006E-03  0.9054868E+03  0.7818609E-02  0.9418749E-01
       -1   -1    0    0    0  501  0.00000000000E+00  0.00000000000E+00  0.23351586643E+03  0.23351586648E+03  0.50400001928E-02 0. -1.
        1   -1    0    0  501    0  0.00000000000E+00  0.00000000000E+00 -0.87778435346E+03  0.87778435347E+03  0.50400001928E-02 0.  1.
    10030    2    1    2    0    0  0.00000000000E+00  0.00000000000E+00 -0.64426848703E+03  0.11113002200E+04  0.90548677268E+03 0.  0.
        5    1    3    3  502    0  0.36382119261E+03 -0.20579435361E+03 -0.53554723304E+03  0.67937478977E+03  0.46999998093E+01 0.  1.
       -5    1    3    3    0  502 -0.36382119261E+03  0.20579435361E+03 -0.10872125399E+03  0.43192543018E+03  0.46999998093E+01 0. -1.
</event>
<event>
 5   0  0.6724773E-03  0.9066900E+03  0.7818609E-02  0.9417257E-01
       -2   -1    0    0    0  501  0.00000000000E+00  0.00000000000E+00  0.11340205431E+03  0.11340205434E+03  0.25500000920E-02 0. -1.
        2   -1    0    0  501    0  0.00000000000E+00  0.00000000000E+00 -0.18123276163E+04  0.18123276163E+04  0.25500000920E-02 0.  1.
    10030    2    1    2    0    0  0.00000000000E+00  0.00000000000E+00 -0.16989255620E+04  0.19257296707E+04  0.90668996863E+03 0.  0.
        5    1    3    3  502    0 -0.17871613727E+03 -0.27853872246E+03 -0.15074516228E+04  0.15433585983E+04  0.46999998093E+01 0.  1.
       -5    1    3    3    0  502  0.17871613727E+03  0.27853872246E+03 -0.19147393916E+03  0.38237107239E+03  0.46999998093E+01 0. -1.
</event>
<event>
 5   0  0.3794006E-03  0.8869808E+03  0.7818609E-02  0.9442004E-01
       -1   -1    0    0    0  501  0.00000000000E+00  0.00000000000E+00  0.16340492925E+03  0.16340492933E+03  0.50400001928E-02 0. -1.
        1   -1    0    0  501    0  0.00000000000E+00  0.00000000000E+00 -0.12036585519E+04  0.12036585519E+04  0.50400001928E-02 0.  1.
    10030    2    1    2    0    0  0.00000000000E+00  0.00000000000E+00 -0.10402536226E+04  0.13670634812E+04  0.88698081281E+03 0.  0.
        5    1    3    3  502    0 -0.42604099088E+02 -0.17916554539E+03  0.10164345548E+03  0.21040172042E+03  0.46999998093E+01 0. -1.
       -5    1    3    3    0  502  0.42604099088E+02  0.17916554539E+03 -0.11418970781E+04  0.11566617608E+04  0.46999998093E+01 0.  1.
</event>
<event>
 5   0  0.3927993E-03  0.8932455E+03  0.7818609E-02  0.9434064E-01
       -1   -1    0    0    0  501  0.00000000000E+00  0.00000000000E+00  0.13710890949E+03  0.13710890958E+03  0.50400001928E-02 0. -1.
        1   -1    0    0  501    0  0.00000000000E+00  0.00000000000E+00 -0.14548427247E+04  0.14548427247E+04  0.50400001928E-02 0.  1.
    10030    2    1    2    0    0  0.00000000000E+00  0.00000000000E+00 -0.13177338152E+04  0.15919516343E+04  0.89324554194E+03 0.  0.
        2    1    3    3  502    0 -0.70533832292E+02  0.75549104850E+02  0.11550144788E+03  0.15499442961E+03  0.25500000920E-02 0. -1.
       -2    1    3    3    0  502  0.70533832292E+02 -0.75549104850E+02 -0.14332352631E+04  0.14369572047E+04  0.25500000920E-02 0.  1.
</event>
<event>
 5   0  0.6724773E-03  0.8731425E+03  0.7818609E-02  0.9459792E-01
        2   -1    0    0  501    0  0.00000000000E+00  0.00000000000E+00  0.21633562804E+04  0.21633562804E+04  0.25500000920E-02 0. -1.
       -2   -1    0    0    0  501  0.00000000000E+00  0.00000000000E+00 -0.88101273635E+02  0.88101273672E+02  0.25500000920E-02 0.  1.
    10030    2    1    2    0    0  0.00000000000E+00  0.00000000000E+00  0.20752550068E+04  0.22514575541E+04  0.87314247102E+03 0.  0.
        5    1    3    3  502    0  0.18125603482E+02  0.32366602167E+03  0.17915407593E+04  0.18206396166E+04  0.46999998093E+01 0. -1.
       -5    1    3    3    0  502 -0.18125603482E+02 -0.32366602167E+03  0.28371424745E+03  0.43081793752E+03  0.46999998093E+01 0.  1.
</event>
<event>
 5   0  0.3969536E-03  0.8997311E+03  0.7818609E-02  0.9425918E-01
       -1   -1    0    0    0  501  0.00000000000E+00  0.00000000000E+00  0.11676748545E+03  0.11676748556E+03  0.50400001928E-02 0.  1.
        1   -1    0    0  501    0  0.00000000000E+00  0.00000000000E+00 -0.17331796850E+04  0.17331796850E+04  0.50400001928E-02 0. -1.
    10030    2    1    2    0    0  0.00000000000E+00  0.00000000000E+00 -0.16164121996E+04  0.18499471706E+04  0.89973114599E+03 0.  0.
        1    1    3    3  502    0 -0.78971502799E+02 -0.14729796436E+03  0.50563944108E+02  0.17461357630E+03  0.50400001928E-02 0.  1.
       -1    1    3    3    0  502  0.78971502799E+02  0.14729796436E+03 -0.16669761437E+04  0.16753335943E+04  0.50400001928E-02 0. -1.
</event>
<event>
 5   0  0.6524705E-03  0.9074636E+03  0.7818609E-02  0.9416299E-01
        2   -1    0    0  501    0  0.00000000000E+00  0.00000000000E+00  0.10114580053E+04  0.10114580053E+04  0.25500000920E-02 0. -1.
       -2   -1    0    0    0  501  0.00000000000E+00  0.00000000000E+00 -0.20354038306E+03  0.20354038307E+03  0.25500000920E-02 0.  1.
    10030    2    1    2    0    0  0.00000000000E+00  0.00000000000E+00  0.80791762223E+03  0.12149983884E+04  0.90746360777E+03 0.  0.
        3    1    3    3  502    0  0.62946307998E+02  0.55298791353E+02 -0.19309275730E+03  0.21048757003E+03  0.10100000352E+00 0.  1.
       -3    1    3    3    0  502 -0.62946307998E+02 -0.55298791353E+02  0.10010103795E+04  0.10045108183E+04  0.10100000352E+00 0. -1.
</event>
<event>
 5   0  0.6863405E-03  0.9004636E+03  0.7818609E-02  0.9425002E-01
        2   -1    0    0  501    0  0.00000000000E+00  0.00000000000E+00  0.14116401506E+04  0.14116401506E+04  0.25500000920E-02 0.  1.
       -2   -1    0    0    0  501  0.00000000000E+00  0.00000000000E+00 -0.14359798411E+03  0.14359798414E+03  0.25500000920E-02 0. -1.
    10030    2    1    2    0    0  0.00000000000E+00  0.00000000000E+00  0.12680421665E+04  0.15552381347E+04  0.90046361378E+03 0.  0.
        1    1    3    3  502    0 -0.10380369562E+03 -0.37772234289E+03  0.25068926814E+03  0.46507470875E+03  0.50400001928E-02 0. -1.
       -1    1    3    3    0  502  0.10380369562E+03  0.37772234289E+03  0.10173528983E+04  0.10901634260E+04  0.50400001928E-02 0.  1.
</event>
<event>
 5   0  0.6524705E-03  0.8933505E+03  0.7818609E-02  0.9433932E-01
        2   -1    0    0  501    0  0.00000000000E+00  0.00000000000E+00  0.24323713743E+04  0.24323713743E+04  0.25500000920E-02 0.  1.
       -2   -1    0    0    0  501  0.00000000000E+00  0.00000000000E+00 -0.82026438894E+02  0.82026438933E+02  0.25500000920E-02 0. -1.
    10030    2    1    2    0    0  0.00000000000E+00  0.00000000000E+00  0.23503449354E+04  0.25143978132E+04  0.89335046192E+03 0.  0.
        3    1    3    3  502    0  0.26469755549E+03 -0.62148642469E+02  0.21726250325E+04  0.21895722851E+04  0.10100000352E+00 0.  1.
       -3    1    3    3    0  502 -0.26469755549E+03  0.62148642469E+02  0.17771990292E+03  0.32482552815E+03  0.10100000352E+00 0. -1.
</event>
<event>
 5   0  0.3927993E-03  0.9028495E+03  0.7818609E-02  0.9422026E-01
        1   -1    0    0  501    0  0.00000000000E+00  0.00000000000E+00  0.64292734423E+03  0.64292734425E+03  0.50400001928E-02 0. -1.
       -1   -1    0    0    0  501  0.00000000000E+00  0.00000000000E+00 -0.31696319330E+03  0.31696319334E+03  0.50400001928E-02 0.  1.
    10030    2    1    2    0    0  0.00000000000E+00  0.00000000000E+00  0.32596415093E+03  0.95989053758E+03  0.90284949823E+03 0.  0.
        2    1    3    3  502    0  0.20789828930E+03  0.28935268313E+03 -0.13172687816E+03  0.37986661391E+03  0.25500000920E-02 0.  1.
       -2    1    3    3    0  502 -0.20789828930E+03 -0.28935268313E+03  0.45769102908E+03  0.58002392368E+03  0.25500000920E-02 0. -1.
</event>
<event>
 5   0  0.6534628E-03  0.8921171E+03  0.7818609E-02  0.9435489E-01
        2   -1    0    0  501    0  0.00000000000E+00  0.00000000000E+00  0.80790268536E+03  0.80790268536E+03  0.25500000920E-02 0. -1.
       -2   -1    0    0    0  501  0.00000000000E+00  0.00000000000E+00 -0.24627748060E+03  0.24627748062E+03  0.25500000920E-02 0.  1.
    10030    2    1    2    0    0  0.00000000000E+00  0.00000000000E+00  0.56162520476E+03  0.10541801660E+04  0.89211711772E+03 0.  0.
        4    1    3    3  502    0 -0.35620673537E+03  0.11343113132E+03  0.56836388427E+03  0.68028595290E+03  0.12699999809E+01 0. -1.
       -4    1    3    3    0  502  0.35620673537E+03 -0.11343113132E+03 -0.67386795128E+01  0.37389421308E+03  0.12699999809E+01 0.  1.
</event>
<event>
 5   0  0.3794006E-03  0.8990669E+03  0.7818609E-02  0.9426749E-01
       -1   -1    0    0    0  501  0.00000000000E+00  0.00000000000E+00  0.41649523174E+03  0.41649523177E+03  0.50400001928E-02 0. -1.
        1   -1    0    0  501    0  0.00000000000E+00  0.00000000000E+00 -0.48519240344E+03  0.48519240346E+03  0.50400001928E-02 0.  1.
    10030    2    1    2    0    0  0.00000000000E+00  0.00000000000E+00 -0.68697171701E+02  0.90168763523E+03  0.89906689969E+03 0.  0.
        5    1    3    3  502    0 -0.10938908295E+03  0.40599226970E+03 -0.19375382655E+03  0.46298847699E+03  0.46999998093E+01 0. -1.
       -5    1    3    3    0  502  0.10938908295E+03 -0.40599226970E+03  0.12505665484E+03  0.43869915824E+03  0.46999998093E+01 0.  1.
</event>
<event>
 5   0  0.2560250E-03  0.8637709E+03  0.7818609E-02  0.9472038E-01
        4   -1    0    0  501    0  0.00000000000E+00  0.00000000000E+00  0.74709782509E+03  0.74709890453E+03  0.12699999809E+01 0.  1.
       -4   -1    0    0    0  501  0.00000000000E+00  0.00000000000E+00 -0.24966325430E+03  0.24966648443E+03  0.12699999809E+01 0. -1.
    10030    2    1    2    0    0  0.00000000000E+00  0.00000000000E+00  0.49743457079E+03  0.99676538897E+03  0.86377085412E+03 0.  0.
        3    1    3    3  502    0 -0.36378302566E+02  0.36746762203E+03  0.50718892357E+03  0.62737265523E+03  0.10100000352E+00 0.  1.
       -3    1    3    3    0  502  0.36378302566E+02 -0.36746762203E+03 -0.97543527846E+01  0.36939273373E+03  0.10100000352E+00 0. -1.
</event>
<event>
 5   0  0.2560250E-03  0.8997578E+03  0.7818609E-02  0.9425884E-01
        3   -1    0    0  501    0  0.00000000000E+00  0.00000000000E+00  0.71573561914E+03  0.71573562626E+03  0.10100000352E+00 0. -1.
       -3   -1    0    0    0  501  0.00000000000E+00  0.00000000000E+00 -0.28277340862E+03  0.28277342665E+03  0.10100000352E+00 0.  1.
    10030    2    1    2    0    0  0.00000000000E+00  0.00000000000E+00  0.43296221052E+03  0.99850905292E+03  0.89975777464E+03 0.  0.
        5    1    3    3  502    0  0.13755512719E+03 -0.97483076442E+02 -0.24635989587E+03  0.29856264251E+03  0.46999998093E+01 0.  1.
       -5    1    3    3    0  502 -0.13755512719E+03  0.97483076442E+02  0.67932210639E+03  0.69994641041E+03  0.46999998093E+01 0. -1.
</event>
<event>
 5   0  0.2560250E-03  0.8957303E+03  0.7818609E-02  0.9430935E-01
        3   -1    0    0  501    0  0.00000000000E+00  0.00000000000E+00  0.61631649351E+03  0.61631650178E+03  0.10100000352E+00 0. -1.
       -3   -1    0    0    0  501  0.00000000000E+00  0.00000000000E+00 -0.32545485406E+03  0.32545486974E+03  0.10100000352E+00 0.  1.
    10030    2    1    2    0    0  0.00000000000E+00  0.00000000000E+00  0.29086163944E+03  0.94177137152E+03  0.89573032935E+03 0.  0.
        1    1    3    3  502    0  0.15951943256E+03 -0.37290649601E+03 -0.54273027701E+02  0.40920809583E+03  0.50400001928E-02 0.  1.
       -1    1    3    3    0  502 -0.15951943256E+03  0.37290649601E+03  0.34513466714E+03  0.53256327569E+03  0.50400001928E-02 0. -1.
</event>
<event>
 5   0  0.3927993E-03  0.8865299E+03  0.7818609E-02  0.9442578E-01
       -1   -1    0    0    0  501  0.00000000000E+00  0.00000000000E+00  0.54715449427E+03  0.54715449429E+03  0.50400001928E-02 0. -1.
        1   -1    0    0  501    0  0.00000000000E+00  0.00000000000E+00 -0.35910119173E+03  0.35910119177E+03  0.50400001928E-02 0.  1.
    10030    2    1    2    0    0  0.00000000000E+00  0.00000000000E+00  0.18805330253E+03  0.90625568606E+03  0.88652993402E+03 0.  0.
        2    1    3    3  502    0 -0.10086540525E+03  0.88819956689E+02 -0.33777106846E+03  0.36352731586E+03  0.25500000920E-02 0.  1.
       -2    1    3    3    0  502  0.10086540525E+03 -0.88819956689E+02  0.52582437099E+03  0.54272837020E+03  0.25500000920E-02 0. -1.
</event>
<event>
 5   0  0.3943549E-03  0.9022991E+03  0.7818609E-02  0.9422712E-01
       -1   -1    0    0    0  501  0.00000000000E+00  0.00000000000E+00  0.97845751804E+03  0.97845751805E+03  0.50400001928E-02 0. -1.
        1   -1    0    0  501    0  0.00000000000E+00  0.00000000000E+00 -0.20801713595E+03  0.20801713601E+03  0.50400001928E-02 0.  1.
    10030    2    1    2    0    0  0.00000000000E+00  0.00000000000E+00  0.77044038209E+03  0.11864746541E+04  0.90229913132E+03 0.  0.
        3    1    3    3  502    0 -0.31486065952E+03  0.93032700069E+01  0.80991342524E+03  0.86901297593E+03  0.10100000352E+00 0. -1.
       -3    1    3    3    0  502  0.31486065952E+03 -0.93032700069E+01 -0.39473043154E+02  0.31746167814E+03  0.10100000352E+00 0.  1.
</event>
<event>
 5   0  0.3794006E-03  0.9062362E+03  0.7818609E-02  0.9417819E-01
       -1   -1    0    0    0  501  0.00000000000E+00  0.00000000000E+00  0.34883743314E+03  0.34883743318E+03  0.50400001928E-02 0.  1.
        1   -1    0    0  501    0  0.00000000000E+00  0.00000000000E+00 -0.58857215520E+03  0.58857215522E+03  0.50400001928E-02 0. -1.
    10030    2    1    2    0    0  0.00000000000E+00  0.00000000000E+00 -0.23973472206E+03  0.93740958840E+03  0.90623617201E+03 0.  0.
        5    1    3    3  502    0 -0.40161390633E+03 -0.13817873414E+03 -0.28311507869E+03  0.51045404309E+03  0.46999998093E+01 0. -1.
       -5    1    3    3    0  502  0.40161390633E+03  0.13817873414E+03  0.43380356631E+02  0.42695554531E+03  0.46999998093E+01 0.  1.
</event>
<event>
 5   0  0.6724773E-03  0.8987712E+03  0.7818609E-02  0.9427119E-01
       -2   -1    0    0    0  501  0.00000000000E+00  0.00000000000E+00  0.20847446838E+03  0.20847446840E+03  0.25500000920E-02 0.  1.
        2   -1    0    0  501    0  0.00000000000E+00  0.00000000000E+00 -0.96869131367E+03  0.96869131368E+03  0.25500000920E-02 0. -1.
    10030    2    1    2    0    0  0.00000000000E+00  0.00000000000E+00 -0.76021684529E+03  0.11771657821E+04  0.89877117589E+03 0.  0.
        5    1    3    3  502    0  0.29956636098E+03 -0.15210428049E+02 -0.81834458691E+03  0.87159699097E+03  0.46999998093E+01 0. -1.
       -5    1    3    3    0  502 -0.29956636098E+03  0.15210428049E+02  0.58127741613E+02  0.30556879110E+03  0.46999998093E+01 0.  1.
</event>
<event>
 5   0  0.3969536E-03  0.8937164E+03  0.7818609E-02  0.9433470E-01
        1   -1    0    0  501    0  0.00000000000E+00  0.00000000000E+00  0.47108332753E+03  0.47108332755E+03  0.50400001928E-02 0.  1.
       -1   -1    0    0    0  501  0.00000000000E+00  0.00000000000E+00 -0.42387884779E+03  0.42387884782E+03  0.50400001928E-02 0. -1.
    10030    2    1    2    0    0  0.00000000000E+00  0.00000000000E+00  0.47204479740E+02  0.89496217537E+03  0.89371641612E+03 0.  0.
        1    1    3    3  502    0  0.13447017036E+02  0.31135103499E+03  0.34430161963E+03  0.46439626890E+03  0.50400001928E-02 0.  1.
       -1    1    3    3    0  502 -0.13447017036E+02 -0.31135103499E+03 -0.29709713989E+03  0.43056590647E+03  0.50400001928E-02 0. -1.
</event>
<event>
 5   0  0.3794006E-03  0.8960759E+03  0.7818609E-02  0.9430500E-01
       -1   -1    0    0    0  501  0.00000000000E+00  0.00000000000E+00  0.34116859528E+03  0.34116859532E+03  0.50400001928E-02 0. -1.
        1   -1    0    0  501    0  0.00000000000E+00  0.00000000000E+00 -0.58838354082E+03  0.58838354085E+03  0.50400001928E-02 0.  1.
    10030    2    1    2    0    0  0.00000000000E+00  0.00000000000E+00 -0.24721494554E+03  0.92955213617E+03  0.89607585870E+03 0.  0.
        5    1    3    3  502    0 -0.76156911896E+01  0.44747676219E+03 -0.14492878375E+03  0.47044648347E+03  0.46999998093E+01 0.  1.
       -5    1    3    3    0  502  0.76156911896E+01 -0.44747676219E+03 -0.10228616179E+03  0.45910565270E+03  0.46999998093E+01 0. -1.
</event>
<event>
 5   0  0.3998066E-03  0.8932619E+03  0.7818609E-02  0.9434044E-01
       -1   -1    0    0    0  501  0.00000000000E+00  0.00000000000E+00  0.64149854749E+03  0.64149854751E+03  0.50400001928E-02 0.  1.
        1   -1    0    0  501    0  0.00000000000E+00  0.00000000000E+00 -0.31095814115E+03  0.31095814119E+03  0.50400001928E-02 0. -1.
    10030    2    1    2    0    0  0.00000000000E+00  0.00000000000E+00  0.33054040634E+03  0.95245668870E+03  0.89326187852E+03 0.  0.
        4    1    3    3  502    0  0.32227350553E+03  0.33851838878E+02 -0.16246014994E+03  0.36249285866E+03  0.12699999809E+01 0. -1.
       -4    1    3    3    0  502 -0.32227350553E+03 -0.33851838878E+02  0.49300055628E+03  0.58996383004E+03  0.12699999809E+01 0.  1.
</event>
<event>
 5   0  0.3927993E-03  0.9089106E+03  0.7818609E-02  0.9414511E-01
        1   -1    0    0  501    0  0.00000000000E+00  0.00000000000E+00  0.14269786111E+04  0.14269786111E+04  0.50400001928E-02 0.  1.
       -1   -1    0    0    0  501  0.00000000000E+00  0.00000000000E+00 -0.14473209965E+03  0.14473209974E+03  0.50400001928E-02 0. -1.
    10030    2    1    2    0    0  0.00000000000E+00  0.00000000000E+00  0.12822465114E+04  0.15717107108E+04  0.90891058001E+03 0.  0.
        2    1    3    3  502    0  0.43551690935E+03  0.14193918217E+02  0.86427477399E+03  0.96790874084E+03  0.25500000920E-02 0.  1.
       -2    1    3    3    0  502 -0.43551690935E+03 -0.14193918217E+02  0.41797173743E+03  0.60380196997E+03  0.25500000920E-02 0. -1.
</event>
<event>
 5   0  0.6609191E-03  0.8971477E+03  0.7818609E-02  0.9429154E-01
        2   -1    0    0  501    0  0.00000000000E+00  0.00000000000E+00  0.44269447082E+03  0.44269447083E+03  0.25500000920E-02 0. -1.
       -2   -1    0    0    0  501  0.00000000000E+00  0.00000000000E+00 -0.45453134281E+03  0.45453134282E+03  0.25500000920E-02 0.  1.
    10030    2    1    2    0    0  0.00000000000E+00  0.00000000000E+00 -0.11836871991E+02  0.89722581365E+03  0.89714772983E+03 0.  0.
        2    1    3    3  502    0 -0.28597739201E+02 -0.67599191757E+02  0.43664807980E+03  0.44277423933E+03  0.25500000920E-02 0. -1.
       -2    1    3    3    0  502  0.28597739201E+02  0.67599191757E+02 -0.44848495179E+03  0.45445157432E+03  0.25500000920E-02 0.  1.
</event>
<event>
 5   0  0.6524705E-03  0.8977956E+03  0.7818609E-02  0.9428341E-01
       -2   -1    0    0    0  501  0.00000000000E+00  0.00000000000E+00  0.13525889459E+03  0.13525889461E+03  0.25500000920E-02 0.  1.
        2   -1    0    0  501    0  0.00000000000E+00  0.00000000000E+00 -0.14898038334E+04  0.14898038334E+04  0.25500000920E-02 0. -1.
    10030    2    1    2    0    0  0.00000000000E+00  0.00000000000E+00 -0.13545449388E+04  0.16250627280E+04  0.89779556622E+03 0.  0.
        3    1    3    3  502    0 -0.91281963747E+02  0.34583615254E+03 -0.18630201993E+03  0.40329083072E+03  0.10100000352E+00 0.  1.
       -3    1    3    3    0  502  0.91281963747E+02 -0.34583615254E+03 -0.11682429189E+04  0.12217718973E+04  0.10100000352E+00 0. -1.
</event>
<event>
 5   0  0.6534628E-03  0.8371679E+03  0.7818609E-02  0.9507723E-01
       -2   -1    0    0    0  501  0.00000000000E+00  0.00000000000E+00  0.20479678054E+03  0.20479678055E+03  0.25500000920E-02 0.  1.
        2   -1    0    0  501    0  0.00000000000E+00  0.00000000000E+00 -0.85554343872E+03  0.85554343872E+03  0.25500000920E-02 0. -1.
    10030    2    1    2    0    0  0.00000000000E+00  0.00000000000E+00 -0.65074665818E+03  0.10603402193E+04  0.83716794460E+03 0.  0.
        4    1    3    3  502    0  0.34219523490E+03 -0.22862728362E+03 -0.22855726083E+03  0.47075263991E+03  0.12699999809E+01 0. -1.
       -4    1    3    3    0  502 -0.34219523490E+03  0.22862728362E+03 -0.42218939736E+03  0.58958757937E+03  0.12699999809E+01 0.  1.
</event>
<event>
 5   0  0.3794006E-03  0.8999356E+03  0.7818609E-02  0.9425662E-01
        1   -1    0    0  501    0  0.00000000000E+00  0.00000000000E+00  0.44315536568E+03  0.44315536571E+03  0.50400001928E-02 0.  1.
       -1   -1    0    0    0  501  0.00000000000E+00  0.00000000000E+00 -0.45688498022E+03  0.45688498025E+03  0.50400001928E-02 0. -1.
    10030    2    1    2    0    0  0.00000000000E+00  0.00000000000E+00 -0.13729614534E+02  0.90004034596E+03  0.89993562105E+03 0.  0.
        5    1    3    3  502    0 -0.40146441112E+03 -0.18103346223E+03 -0.99082655682E+02  0.45142690493E+03  0.46999998093E+01 0. -1.
       -5    1    3    3    0  502  0.40146441112E+03  0.18103346223E+03  0.85353041147E+02  0.44861344103E+03  0.46999998093E+01 0.  1.
</event>
<event>
 5   0  0.6863405E-03  0.9034510E+03  0.7818609E-02  0.9421278E-01
       -2   -1    0    0    0  501  0.00000000000E+00  0.00000000000E+00  0.13127640492E+03  0.13127640494E+03  0.25500000920E-02 0.  1.
        2   -1    0    0  501    0  0.00000000000E+00  0.00000000000E+00 -0.15543991800E+04  0.15543991800E+04  0.25500000920E-02 0. -1.
    10030    2    1    2    0    0  0.00000000000E+00  0.00000000000E+00 -0.14231227751E+04  0.16856755850E+04  0.90345101956E+03 0.  0.
        1    1    3    3  502    0  0.43545683475E+03  0.58120818396E+02 -0.51538185221E+03  0.67721424828E+03  0.50400001928E-02 0. -1.
       -1    1    3    3    0  502 -0.43545683475E+03 -0.58120818396E+02 -0.90774092291E+03  0.10084613367E+04  0.50400001928E-02 0.  1.
</event>
<event>
 5   0  0.6724773E-03  0.9026089E+03  0.7818609E-02  0.9422326E-01
       -2   -1    0    0    0  501  0.00000000000E+00  0.00000000000E+00  0.13903643757E+03  0.13903643759E+03  0.25500000920E-02 0. -1.
        2   -1    0    0  501    0  0.00000000000E+00  0.00000000000E+00 -0.14649087524E+04  0.14649087524E+04  0.25500000920E-02 0.  1.
    10030    2    1    2    0    0  0.00000000000E+00  0.00000000000E+00 -0.13258723148E+04  0.16039451900E+04  0.90260887280E+03 0.  0.
        5    1    3    3  502    0 -0.13553669735E+03  0.23013982711E+03 -0.16536464185E+02  0.26763796629E+03  0.46999998093E+01 0. -1.
       -5    1    3    3    0  502  0.13553669735E+03 -0.23013982711E+03 -0.13093358506E+04  0.13363072237E+04  0.46999998093E+01 0.  1.
</event>
<event>
 5   0  0.3998066E-03  0.9030867E+03  0.7818609E-02  0.9421731E-01
       -1   -1    0    0    0  501  0.00000000000E+00  0.00000000000E+00  0.40872576235E+03  0.40872576238E+03  0.50400001928E-02 0. -1.
        1   -1    0    0  501    0  0.00000000000E+00  0.00000000000E+00 -0.49884642495E+03  0.49884642497E+03  0.50400001928E-02 0.  1.
    10030    2    1    2    0    0  0.00000000000E+00  0.00000000000E+00 -0.90120662594E+02  0.90757218735E+03  0.90308667437E+03 0.  0.
        4    1    3    3  502    0 -0.19185069836E+02  0.13068334060E+03  0.38887543705E+03  0.41069687222E+03  0.12699999809E+01 0. -1.
       -4    1    3    3    0  502  0.19185069836E+02 -0.13068334060E+03 -0.47899609964E+03  0.49687531513E+03  0.12699999809E+01 0.  1.
</event>
<event>
 5   0  0.3927993E-03  0.8975442E+03  0.7818609E-02  0.9428656E-01
       -1   -1    0    0    0  501  0.00000000000E+00  0.00000000000E+00  0.84269446309E+03  0.84269446310E+03  0.50400001928E-02 0.  1.
        1   -1    0    0  501    0  0.00000000000E+00  0.00000000000E+00 -0.23899102602E+03  0.23899102607E+03  0.50400001928E-02 0. -1.
    10030    2    1    2    0    0  0.00000000000E+00  0.00000000000E+00  0.60370343707E+03  0.10816854892E+04  0.89754423710E+03 0.  0.
        2    1    3    3  502    0  0.40530829117E+03  0.32349027721E+01  0.53401700391E+03  0.67041735953E+03  0.25500000920E-02 0.  1.
       -2    1    3    3    0  502 -0.40530829117E+03 -0.32349027721E+01  0.69686433163E+02  0.41126812964E+03  0.25500000920E-02 0. -1.
</event>
<event>
 5   0  0.3927993E-03  0.8980365E+03  0.7818609E-02  0.9428039E-01
       -1   -1    0    0    0  501  0.00000000000E+00  0.00000000000E+00  0.22826137254E+03  0.22826137259E+03  0.50400001928E-02 0. -1.
        1   -1    0    0  501    0  0.00000000000E+00  0.00000000000E+00 -0.88327429411E+03  0.88327429412E+03  0.50400001928E-02 0.  1.
    10030    2    1    2    0    0  0.00000000000E+00  0.00000000000E+00 -0.65501292157E+03  0.11115356667E+04  0.89803653097E+03 0.  0.
        2    1    3    3  502    0 -0.11213909585E+03 -0.15498657215E+02  0.21030829633E+03  0.23884087737E+03  0.25500000920E-02 0. -1.
       -2    1    3    3    0  502  0.11213909585E+03  0.15498657215E+02 -0.86532121790E+03  0.87269478934E+03  0.25500000920E-02 0.  1.
</event>
<event>
 5   0  0.3794006E-03  0.8994700E+03  0.7818609E-02  0.9426244E-01
        1   -1    0    0  501    0  0.00000000000E+00  0.00000000000E+00  0.79381841897E+03  0.79381841899E+03  0.50400001928E-02 0.  1.
       -1   -1    0    0    0  501  0.00000000000E+00  0.00000000000E+00 -0.25479578576E+03  0.25479578581E+03  0.50400001928E-02 0. -1.
    10030    2    1    2    0    0  0.00000000000E+00  0.00000000000E+00  0.53902263321E+03  0.10486142048E+04  0.89947003919E+03 0.  0.
        5    1    3    3  502    0  0.20106796138E+03 -0.30889189212E+03 -0.30890926231E+02  0.36989034244E+03  0.46999998093E+01 0. -1.
       -5    1    3    3    0  502 -0.20106796138E+03  0.30889189212E+03  0.56991355944E+03  0.67872386236E+03  0.46999998093E+01 0.  1.
</event>
<event>
 5   0  0.3927993E-03  0.9035372E+03  0.7818609E-02  0.9421171E-01
        1   -1    0    0  501    0  0.00000000000E+00  0.00000000000E+00  0.43329510722E+03  0.43329510725E+03  0.50400001928E-02 0. -1.
       -1   -1    0    0    0  501  0.00000000000E+00  0.00000000000E+00 -0.47102970190E+03  0.47102970192E+03  0.50400001928E-02 0.  1.
    10030    2    1    2    0    0  0.00000000000E+00  0.00000000000E+00 -0.37734594679E+02  0.90432480917E+03  0.90353719395E+03 0.  0.
        2    1    3    3  502    0 -0.31770270030E+03  0.29636979330E+03  0.10503401023E+03  0.44699239755E+03  0.25500000920E-02 0. -1.
       -2    1    3    3    0  502  0.31770270030E+03 -0.29636979330E+03 -0.14276860491E+03  0.45733241161E+03  0.25500000920E-02 0.  1.
</event>
<event>
 5   0  0.6609191E-03  0.9212527E+03  0.7818609E-02  0.9399398E-01
        2   -1    0    0  501    0  0.00000000000E+00  0.00000000000E+00  0.13782134763E+04  0.13782134763E+04  0.25500000920E-02 0.  1.
       -2   -1    0    0    0  501  0.00000000000E+00  0.00000000000E+00 -0.15395050006E+03  0.15395050008E+03  0.25500000920E-02 0. -1.
    10030    2    1    2    0    0  0.00000000000E+00  0.00000000000E+00  0.12242629762E+04  0.15321639764E+04  0.92125274248E+03 0.  0.
        2    1    3    3  502    0 -0.42720612854E+02  0.34901873171E+02  0.13726997827E+04  0.13738078049E+04  0.25500000920E-02 0.  1.
       -2    1    3    3    0  502  0.42720612854E+02 -0.34901873171E+02 -0.14843680646E+03  0.15835617143E+03  0.25500000920E-02 0. -1.
</event>
<event>
 5   0  0.6609191E-03  0.9023935E+03  0.7818609E-02  0.9422594E-01
       -2   -1    0    0    0  501  0.00000000000E+00  0.00000000000E+00  0.22082421427E+03  0.22082421429E+03  0.25500000920E-02 0.  1.
        2   -1    0    0  501    0  0.00000000000E+00  0.00000000000E+00 -0.92190308916E+03  0.92190308917E+03  0.25500000920E-02 0. -1.
    10030    2    1    2    0    0  0.00000000000E+00  0.00000000000E+00 -0.70107887489E+03  0.11427273035E+04  0.90239354011E+03 0.  0.
        2    1    3    3  502    0 -0.32314581393E+03 -0.19888278964E+03 -0.41386628701E+02  0.38169416307E+03  0.25500000920E-02 0.  1.
       -2    1    3    3    0  502  0.32314581393E+03  0.19888278964E+03 -0.65969224619E+03  0.76103314039E+03  0.25500000920E-02 0. -1.
</event>
<event>
 5   0  0.6524705E-03  0.8975712E+03  0.7818609E-02  0.9428623E-01
        2   -1    0    0  501    0  0.00000000000E+00  0.00000000000E+00  0.88263153522E+03  0.88263153522E+03  0.25500000920E-02 0.  1.
       -2   -1    0    0    0  501  0.00000000000E+00  0.00000000000E+00 -0.22819094500E+03  0.22819094502E+03  0.25500000920E-02 0. -1.
    10030    2    1    2    0    0  0.00000000000E+00  0.00000000000E+00  0.65444059022E+03  0.11108224802E+04  0.89757122084E+03 0.  0.
        3    1    3    3  502    0 -0.32363883139E+03 -0.61384262648E+02  0.70442738045E+03  0.77764263348E+03  0.10100000352E+00 0.  1.
       -3    1    3    3    0  502  0.32363883139E+03  0.61384262648E+02 -0.49986790231E+02  0.33317984676E+03  0.10100000352E+00 0. -1.
</event>
<event>
 5   0  0.3969536E-03  0.9090067E+03  0.7818609E-02  0.9414392E-01
       -1   -1    0    0    0  501  0.00000000000E+00  0.00000000000E+00  0.93086643922E+02  0.93086644058E+02  0.50400001928E-02 0. -1.
        1   -1    0    0  501    0  0.00000000000E+00  0.00000000000E+00 -0.22191505058E+04  0.22191505058E+04  0.50400001928E-02 0.  1.
    10030    2    1    2    0    0  0.00000000000E+00  0.00000000000E+00 -0.21260638618E+04  0.23122371498E+04  0.90900665147E+03 0.  0.
        1    1    3    3  502    0 -0.42096873563E+03 -0.57065213076E+02 -0.65206817501E+03  0.77824419035E+03  0.50400001928E-02 0. -1.
       -1    1    3    3    0  502  0.42096873563E+03  0.57065213076E+02 -0.14739956868E+04  0.15339929595E+04  0.50400001928E-02 0.  1.
</event>
<event>
 5   0  0.3927993E-03  0.8992593E+03  0.7818609E-02  0.9426508E-01
       -1   -1    0    0    0  501  0.00000000000E+00  0.00000000000E+00  0.26337167312E+03  0.26337167317E+03  0.50400001928E-02 0.  1.
        1   -1    0    0  501    0  0.00000000000E+00  0.00000000000E+00 -0.76761034469E+03  0.76761034471E+03  0.50400001928E-02 0. -1.
    10030    2    1    2    0    0  0.00000000000E+00  0.00000000000E+00 -0.50423867157E+03  0.10309820179E+04  0.89925929702E+03 0.  0.
        2    1    3    3  502    0 -0.15866951239E+03  0.33818795437E+03  0.34774815367E+02  0.37517515168E+03  0.25500000920E-02 0.  1.
       -2    1    3    3    0  502  0.15866951239E+03 -0.33818795437E+03 -0.53901348693E+03  0.65580686620E+03  0.25500000920E-02 0. -1.
</event>
<event>
 5   0  0.3927993E-03  0.9106602E+03  0.7818609E-02  0.9412353E-01
        1   -1    0    0  501    0  0.00000000000E+00  0.00000000000E+00  0.35839757396E+03  0.35839757400E+03  0.50400001928E-02 0.  1.
       -1   -1    0    0    0  501  0.00000000000E+00  0.00000000000E+00 -0.57847910023E+03  0.57847910025E+03  0.50400001928E-02 0. -1.
    10030    2    1    2    0    0  0.00000000000E+00  0.00000000000E+00 -0.22008152626E+03  0.93687667424E+03  0.91066021355E+03 0.  0.
        2    1    3    3  502    0  0.19243569544E+03 -0.58370510482E+02 -0.53031926726E+03  0.56716588279E+03  0.25500000920E-02 0. -1.
       -2    1    3    3    0  502 -0.19243569544E+03  0.58370510482E+02  0.31023774099E+03  0.36971079145E+03  0.25500000920E-02 0.  1.
</event>
<event>
 5   0  0.6524705E-03  0.9003866E+03  0.7818609E-02  0.9425098E-01
       -2   -1    0    0    0  501  0.00000000000E+00  0.00000000000E+00  0.31730319925E+03  0.31730319926E+03  0.25500000920E-02 0.  1.
        2   -1    0    0  501    0  0.00000000000E+00  0.00000000000E+00 -0.63873931837E+03  0.63873931838E+03  0.25500000920E-02 0. -1.
    10030    2    1    2    0    0  0.00000000000E+00  0.00000000000E+00 -0.32143611912E+03  0.95604251764E+03  0.90038664854E+03 0.  0.
        3    1    3    3  502    0  0.33184243341E+03  0.29931400322E+03 -0.10289312789E+03  0.45857963224E+03  0.10100000352E+00 0.  1.
       -3    1    3    3    0  502 -0.33184243341E+03 -0.29931400322E+03 -0.21854299123E+03  0.49746288540E+03  0.10100000352E+00 0. -1.
</event>
<event>
 5   0  0.6609191E-03  0.9008637E+03  0.7818609E-02  0.9424502E-01
        2   -1    0    0  501    0  0.00000000000E+00  0.00000000000E+00  0.93904092101E+03  0.93904092101E+03  0.25500000920E-02 0. -1.
       -2   -1    0    0    0  501  0.00000000000E+00  0.00000000000E+00 -0.21605965341E+03  0.21605965342E+03  0.25500000920E-02 0.  1.
    10030    2    1    2    0    0  0.00000000000E+00  0.00000000000E+00  0.72298126760E+03  0.11551005744E+04  0.90086370987E+03 0.  0.
        2    1    3    3  502    0  0.16779538037E+03  0.29449764938E+03 -0.18885835424E+02  0.33947139783E+03  0.25500000920E-02 0.  1.
       -2    1    3    3    0  502 -0.16779538037E+03 -0.29449764938E+03  0.74186710303E+03  0.81562917660E+03  0.25500000920E-02 0. -1.
</event>
<event>
 5   0  0.6609191E-03  0.9033014E+03  0.7818609E-02  0.9421464E-01
       -2   -1    0    0    0  501  0.00000000000E+00  0.00000000000E+00  0.80324050494E+02  0.80324050535E+02  0.25500000920E-02 0. -1.
        2   -1    0    0  501    0  0.00000000000E+00  0.00000000000E+00 -0.25395677050E+04  0.25395677050E+04  0.25500000920E-02 0.  1.
    10030    2    1    2    0    0  0.00000000000E+00  0.00000000000E+00 -0.24592436545E+04  0.26198917556E+04  0.90330142174E+03 0.  0.
        2    1    3    3  502    0 -0.30997647540E+03  0.19710918633E+03 -0.46748072680E+03  0.59453820447E+03  0.25500000920E-02 0. -1.
       -2    1    3    3    0  502  0.30997647540E+03 -0.19710918633E+03 -0.19917629277E+04  0.20253535511E+04  0.25500000920E-02 0.  1.
</event>
<event>
 5   0  0.3998066E-03  0.8987650E+03  0.7818609E-02  0.9427126E-01
       -1   -1    0    0    0  501  0.00000000000E+00  0.00000000000E+00  0.18206088494E+03  0.18206088501E+03  0.50400001928E-02 0. -1.
        1   -1    0    0  501    0  0.00000000000E+00  0.00000000000E+00 -0.11092149299E+04  0.11092149299E+04  0.50400001928E-02 0.  1.
    10030    2    1    2    0    0  0.00000000000E+00  0.00000000000E+00 -0.92715404498E+03  0.12912758149E+04  0.89876504557E+03 0.  0.
        4    1    3    3  502    0 -0.21193106339E+02 -0.36090317975E+02  0.17925207986E+03  0.18407764623E+03  0.12699999809E+01 0. -1.
       -4    1    3    3    0  502  0.21193106339E+02  0.36090317975E+02 -0.11064061248E+04  0.11071981687E+04  0.12699999809E+01 0.  1.
</event>
<event>
 5   0  0.2560250E-03  0.9104048E+03  0.7818609E-02  0.9412668E-01
        3   -1    0    0  501    0  0.00000000000E+00  0.00000000000E+00  0.23149062256E+03  0.23149064460E+03  0.10100000352E+00 0.  1.
       -3   -1    0    0    0  501  0.00000000000E+00  0.00000000000E+00 -0.89510834573E+03  0.89510835143E+03  0.10100000352E+00 0. -1.
    10030    2    1    2    0    0  0.00000000000E+00  0.00000000000E+00 -0.66361772317E+03  0.11265989960E+04  0.91040475358E+03 0.  0.
        2    1    3    3  502    0  0.40627945013E+03  0.10269366103E+03 -0.55178720401E+03  0.69287668321E+03  0.25500000920E-02 0. -1.
       -2    1    3    3    0  502 -0.40627945013E+03 -0.10269366103E+03 -0.11183051916E+03  0.43372231282E+03  0.25500000920E-02 0.  1.
</event>
<event>
 5   0  0.6863405E-03  0.8938434E+03  0.7818609E-02  0.9433310E-01
        2   -1    0    0  501    0  0.00000000000E+00  0.00000000000E+00  0.13479789635E+04  0.13479789635E+04  0.25500000920E-02 0.  1.
       -2   -1    0    0    0  501  0.00000000000E+00  0.00000000000E+00 -0.14817666000E+03  0.14817666002E+03  0.25500000920E-02 0. -1.
    10030    2    1    2    0    0  0.00000000000E+00  0.00000000000E+00  0.11998023035E+04  0.14961556235E+04  0.89384343275E+03 0.  0.
        1    1    3    3  502    0  0.10964921611E+03 -0.19950687312E+03 -0.43850864469E+02  0.23183796358E+03  0.50400001928E-02 0. -1.
       -1    1    3    3    0  502 -0.10964921611E+03  0.19950687312E+03  0.12436531679E+04  0.12643176599E+04  0.50400001928E-02 0.  1.
</event>
<event>
 5   0  0.6524705E-03  0.9022752E+03  0.7818609E-02  0.9422742E-01
        2   -1    0    0  501    0  0.00000000000E+00  0.00000000000E+00  0.19409681701E+04  0.19409681701E+04  0.25500000920E-02 0. -1.
       -2   -1    0    0    0  501  0.00000000000E+00  0.00000000000E+00 -0.10485752156E+03  0.10485752160E+03  0.25500000920E-02 0.  1.
    10030    2    1    2    0    0  0.00000000000E+00  0.00000000000E+00  0.18361106485E+04  0.20458256917E+04  0.90227515046E+03 0.  0.
        3    1    3    3  502    0 -0.30286040094E+03  0.19836277604E+03  0.30773549153E+03  0.47515613889E+03  0.10100000352E+00 0.  1.
       -3    1    3    3    0  502  0.30286040094E+03 -0.19836277604E+03  0.15283751570E+04  0.15706695528E+04  0.10100000352E+00 0. -1.
</event>
<event>
 5   0  0.2560250E-03  0.8896661E+03  0.7818609E-02  0.9438592E-01
        4   -1    0    0  501    0  0.00000000000E+00  0.00000000000E+00  0.21530976618E+03  0.21531351168E+03  0.12699999809E+01 0. -1.
       -4   -1    0    0    0  501  0.00000000000E+00  0.00000000000E+00 -0.91901932981E+03  0.91902020732E+03  0.12699999809E+01 0.  1.
    10030    2    1    2    0    0  0.00000000000E+00  0.00000000000E+00 -0.70370956363E+03  0.11343337190E+04  0.88966613745E+03 0.  0.
        5    1    3    3  502    0  0.89165145369E+02 -0.26540584171E+03 -0.79254329947E+03  0.84055794297E+03  0.46999998093E+01 0.  1.
       -5    1    3    3    0  502 -0.89165145369E+02  0.26540584171E+03  0.88833735840E+02  0.29377577603E+03  0.46999998093E+01 0. -1.
</event>
<event>
 5   0  0.6524705E-03  0.8960579E+03  0.7818609E-02  0.9430523E-01
        2   -1    0    0  501    0  0.00000000000E+00  0.00000000000E+00  0.60674865373E+03  0.60674865373E+03  0.25500000920E-02 0.  1.
       -2   -1    0    0    0  501  0.00000000000E+00  0.00000000000E+00 -0.33082885055E+03  0.33082885056E+03  0.25500000920E-02 0. -1.
    10030    2    1    2    0    0  0.00000000000E+00  0.00000000000E+00  0.27591980318E+03  0.93757750430E+03  0.89605794388E+03 0.  0.
        3    1    3    3  502    0  0.31979904803E+03  0.28015848941E+03  0.28582214142E+03  0.51230314955E+03  0.10100000352E+00 0.  1.
       -3    1    3    3    0  502 -0.31979904803E+03 -0.28015848941E+03 -0.99023382468E+01  0.42527435475E+03  0.10100000352E+00 0. -1.
</event>
<event>
 5   0  0.6609191E-03  0.8963814E+03  0.7818609E-02  0.9430116E-01
        2   -1    0    0  501    0  0.00000000000E+00  0.00000000000E+00  0.14512372007E+04  0.14512372007E+04  0.25500000920E-02 0. -1.
       -2   -1    0    0    0  501  0.00000000000E+00  0.00000000000E+00 -0.13841631891E+03  0.13841631893E+03  0.25500000920E-02 0.  1.
    10030    2    1    2    0    0  0.00000000000E+00  0.00000000000E+00  0.13128208818E+04  0.15896535196E+04  0.89638141704E+03 0.  0.
        2    1    3    3  502    0  0.34090402724E+03  0.28157523921E+03  0.52639696641E+03  0.68745468023E+03  0.25500000920E-02 0.  1.
       -2    1    3    3    0  502 -0.34090402724E+03 -0.28157523921E+03  0.78642391538E+03  0.90219883940E+03  0.25500000920E-02 0. -1.
</event>
<event>
 5   0  0.6724773E-03  0.8988422E+03  0.7818609E-02  0.9427030E-01
        2   -1    0    0  501    0  0.00000000000E+00  0.00000000000E+00  0.55441076192E+03  0.55441076193E+03  0.25500000920E-02 0.  1.
       -2   -1    0    0    0  501  0.00000000000E+00  0.00000000000E+00 -0.36431349802E+03  0.36431349802E+03  0.25500000920E-02 0. -1.
    10030    2    1    2    0    0  0.00000000000E+00  0.00000000000E+00  0.19009726390E+03  0.91872425995E+03  0.89884219754E+03 0.  0.
        5    1    3    3  502    0 -0.33370227594E+03  0.24045223049E+03 -0.90016423626E+02  0.42106950808E+03  0.46999998093E+01 0. -1.
       -5    1    3    3    0  502  0.33370227594E+03 -0.24045223049E+03  0.28011368753E+03  0.49765475187E+03  0.46999998093E+01 0.  1.
</event>
<event>
 5   0  0.3794006E-03  0.8974773E+03  0.7818609E-02  0.9428740E-01
       -1   -1    0    0    0  501  0.00000000000E+00  0.00000000000E+00  0.39609740328E+03  0.39609740331E+03  0.50400001928E-02 0.  1.
        1   -1    0    0  501    0  0.00000000000E+00  0.00000000000E+00 -0.50837593173E+03  0.50837593176E+03  0.50400001928E-02 0. -1.
    10030    2    1    2    0    0  0.00000000000E+00  0.00000000000E+00 -0.11227852845E+03  0.90447333507E+03  0.89747732333E+03 0.  0.
        5    1    3    3  502    0 -0.11699348372E+03  0.38229929220E+03  0.14917429888E+03  0.42674967544E+03  0.46999998093E+01 0.  1.
       -5    1    3    3    0  502  0.11699348372E+03 -0.38229929220E+03 -0.26145282733E+03  0.47772365962E+03  0.46999998093E+01 0. -1.
</event>
<event>
 5   0  0.3794006E-03  0.8997853E+03  0.7818609E-02  0.9425850E-01
       -1   -1    0    0    0  501  0.00000000000E+00  0.00000000000E+00  0.53672194222E+03  0.53672194224E+03  0.50400001928E-02 0. -1.
        1   -1    0    0  501    0  0.00000000000E+00  0.00000000000E+00 -0.37711033274E+03  0.37711033277E+03  0.50400001928E-02 0.  1.
    10030    2    1    2    0    0  0.00000000000E+00  0.00000000000E+00  0.15961160948E+03  0.91383227501E+03  0.89978528604E+03 0.  0.
        5    1    3    3  502    0 -0.25736767950E+03 -0.22602693813E+03 -0.21638906543E+03  0.40518220203E+03  0.46999998093E+01 0.  1.
       -5    1    3    3    0  502  0.25736767950E+03  0.22602693813E+03  0.37600067491E+03  0.50865007298E+03  0.46999998093E+01 0. -1.
</event>
<event>
 5   0  0.6863405E-03  0.9006808E+03  0.7818609E-02  0.9424731E-01
       -2   -1    0    0    0  501  0.00000000000E+00  0.00000000000E+00  0.13545968396E+03  0.13545968398E+03  0.25500000920E-02 0. -1.
        2   -1    0    0  501    0  0.00000000000E+00  0.00000000000E+00 -0.14971721904E+04  0.14971721904E+04  0.25500000920E-02 0.  1.
    10030    2    1    2    0    0  0.00000000000E+00  0.00000000000E+00 -0.13617125064E+04  0.16326318743E+04  0.90068079086E+03 0.  0.
        1    1    3    3  502    0  0.10642221313E+03 -0.11809858156E+01 -0.14740483672E+04  0.14778855406E+04  0.50400001928E-02 0.  1.
       -1    1    3    3    0  502 -0.10642221313E+03  0.11809858156E+01  0.11233586078E+03  0.15474633378E+03  0.50400001928E-02 0. -1.
</event>
<event>
 5   0  0.3927993E-03  0.8708084E+03  0.7818609E-02  0.9462827E-01
        1   -1    0    0  501    0  0.00000000000E+00  0.00000000000E+00  0.38554864191E+03  0.38554864194E+03  0.50400001928E-02 0. -1.
       -1   -1    0    0    0  501  0.00000000000E+00  0.00000000000E+00 -0.49170658951E+03  0.49170658953E+03  0.50400001928E-02 0.  1.
    10030    2    1    2    0    0  0.00000000000E+00  0.00000000000E+00 -0.10615794760E+03  0.87725523147E+03  0.87080837807E+03 0.  0.
        2    1    3    3  502    0 -0.15057035155E+03 -0.29250214476E+03  0.23424804534E+03  0.40385774997E+03  0.25500000920E-02 0. -1.
       -2    1    3    3    0  502  0.15057035155E+03  0.29250214476E+03 -0.34040599295E+03  0.47339748151E+03  0.25500000920E-02 0.  1.
</event>
<event>
 5   0  0.6609191E-03  0.9037229E+03  0.7818609E-02  0.9420940E-01
        2   -1    0    0  501    0  0.00000000000E+00  0.00000000000E+00  0.10658478230E+04  0.10658478230E+04  0.25500000920E-02 0. -1.
       -2   -1    0    0    0  501  0.00000000000E+00  0.00000000000E+00 -0.19156466795E+03  0.19156466796E+03  0.25500000920E-02 0.  1.
    10030    2    1    2    0    0  0.00000000000E+00  0.00000000000E+00  0.87428315507E+03  0.12574124910E+04  0.90372293168E+03 0.  0.
        2    1    3    3  502    0  0.14564951201E+03 -0.39301571214E+03  0.67204683466E+03  0.79203666476E+03  0.25500000920E-02 0. -1.
       -2    1    3    3    0  502 -0.14564951201E+03  0.39301571214E+03  0.20223632041E+03  0.46537582623E+03  0.25500000920E-02 0.  1.
</event>
<event>
 5   0  0.3969536E-03  0.8949087E+03  0.7818609E-02  0.9431968E-01
       -1   -1    0    0    0  501  0.00000000000E+00  0.00000000000E+00  0.24920291014E+03  0.24920291019E+03  0.50400001928E-02 0. -1.
        1   -1    0    0  501    0  0.00000000000E+00  0.00000000000E+00 -0.80342316509E+03  0.80342316510E+03  0.50400001928E-02 0.  1.
    10030    2    1    2    0    0  0.00000000000E+00  0.00000000000E+00 -0.55422025495E+03  0.10526260753E+04  0.89490868997E+03 0.  0.
        1    1    3    3  502    0  0.41883677354E+03  0.14701437006E+02 -0.46150222336E+03  0.62339768792E+03  0.50400001928E-02 0. -1.
       -1    1    3    3    0  502 -0.41883677354E+03 -0.14701437006E+02 -0.92718031587E+02  0.42922838737E+03  0.50400001928E-02 0.  1.
</event>
<event>
 5   0  0.6534628E-03  0.8951057E+03  0.7818609E-02  0.9431720E-01
        2   -1    0    0  501    0  0.00000000000E+00  0.00000000000E+00  0.75135007709E+03  0.75135007709E+03  0.25500000920E-02 0.  1.
       -2   -1    0    0    0  501  0.00000000000E+00  0.00000000000E+00 -0.26659153370E+03  0.26659153371E+03  0.25500000920E-02 0. -1.
    10030    2    1    2    0    0  0.00000000000E+00  0.00000000000E+00  0.48475854339E+03  0.10179416108E+04  0.89510573544E+03 0.  0.
        4    1    3    3  502    0  0.28356830200E+03  0.33196831178E+03  0.13044426759E+03  0.45566573469E+03  0.12699999809E+01 0. -1.
       -4    1    3    3    0  502 -0.28356830200E+03 -0.33196831178E+03  0.35431427580E+03  0.56227587611E+03  0.12699999809E+01 0.  1.
</event>
<event>
 5   0  0.3998066E-03  0.9007420E+03  0.7818609E-02  0.9424654E-01
       -1   -1    0    0    0  501  0.00000000000E+00  0.00000000000E+00  0.32570118652E+03  0.32570118656E+03  0.50400001928E-02 0. -1.
        1   -1    0    0  501    0  0.00000000000E+00  0.00000000000E+00 -0.62276109079E+03  0.62276109081E+03  0.50400001928E-02 0.  1.
    10030    2    1    2    0    0  0.00000000000E+00  0.00000000000E+00 -0.29705990427E+03  0.94846227737E+03  0.90074197464E+03 0.  0.
        4    1    3    3  502    0 -0.30400436647E+03 -0.26915193045E+03  0.56655072385E+02  0.40996686040E+03  0.12699999809E+01 0. -1.
       -4    1    3    3    0  502  0.30400436647E+03  0.26915193045E+03 -0.35371497665E+03  0.53849541698E+03  0.12699999809E+01 0.  1.
</event>
<event>
 5   0  0.2560250E-03  0.9052605E+03  0.7818609E-02  0.9419029E-01
       -4   -1    0    0    0  501  0.00000000000E+00  0.00000000000E+00  0.30396430270E+03  0.30396695580E+03  0.12699999809E+01 0. -1.
        4   -1    0    0  501    0  0.00000000000E+00  0.00000000000E+00 -0.67400112520E+03  0.67400232171E+03  0.12699999809E+01 0.  1.
    10030    2    1    2    0    0  0.00000000000E+00  0.00000000000E+00 -0.37003682250E+03  0.97796927751E+03  0.90526054688E+03 0.  0.
        2    1    3    3  502    0  0.33219673381E+03  0.21320782539E+03 -0.42430804124E+03  0.57952528903E+03  0.25500000920E-02 0.  1.
       -2    1    3    3    0  502 -0.33219673381E+03 -0.21320782539E+03  0.54271218738E+02  0.39844398848E+03  0.25500000920E-02 0. -1.
</event>
<event>
 5   0  0.3998066E-03  0.9005488E+03  0.7818609E-02  0.9424896E-01
        1   -1    0    0  501    0  0.00000000000E+00  0.00000000000E+00  0.10344266974E+04  0.10344266974E+04  0.50400001928E-02 0.  1.
       -1   -1    0    0    0  501  0.00000000000E+00  0.00000000000E+00 -0.19599942372E+03  0.19599942378E+03  0.50400001928E-02 0. -1.
    10030    2    1    2    0    0  0.00000000000E+00  0.00000000000E+00  0.83842727369E+03  0.12304261212E+04  0.90054880293E+03 0.  0.
        4    1    3    3  502    0  0.44164966536E+03  0.66843938981E+02  0.49677950686E+03  0.66806738465E+03  0.12699999809E+01 0.  1.
       -4    1    3    3    0  502 -0.44164966536E+03 -0.66843938981E+02  0.34164776683E+03  0.56235873655E+03  0.12699999809E+01 0. -1.
</event>
<event>
 5   0  0.3794006E-03  0.8998896E+03  0.7818609E-02  0.9425719E-01
        1   -1    0    0  501    0  0.00000000000E+00  0.00000000000E+00  0.51561811104E+03  0.51561811106E+03  0.50400001928E-02 0. -1.
       -1   -1    0    0    0  501  0.00000000000E+00  0.00000000000E+00 -0.39263618050E+03  0.39263618053E+03  0.50400001928E-02 0.  1.
    10030    2    1    2    0    0  0.00000000000E+00  0.00000000000E+00  0.12298193054E+03  0.90825429159E+03  0.89988960598E+03 0.  0.
        5    1    3    3  502    0  0.12563133958E+03  0.27547530054E+03  0.39738824239E+03  0.49960922717E+03  0.46999998093E+01 0. -1.
       -5    1    3    3    0  502 -0.12563133958E+03 -0.27547530054E+03 -0.27440631185E+03  0.40864506442E+03  0.46999998093E+01 0.  1.
</event>
<event>
 5   0  0.6863405E-03  0.8952207E+03  0.7818609E-02  0.9431576E-01
        2   -1    0    0  501    0  0.00000000000E+00  0.00000000000E+00  0.38791741201E+03  0.38791741201E+03  0.25500000920E-02 0. -1.
       -2   -1    0    0    0  501  0.00000000000E+00  0.00000000000E+00 -0.51648891551E+03  0.51648891552E+03  0.25500000920E-02 0.  1.
    10030    2    1    2    0    0  0.00000000000E+00  0.00000000000E+00 -0.12857150350E+03  0.90440632753E+03  0.89522074025E+03 0.  0.
        1    1    3    3  502    0 -0.14872763156E+03  0.41491551253E+02 -0.48873183095E+03  0.51254293462E+03  0.50400001928E-02 0.  1.
       -1    1    3    3    0  502  0.14872763156E+03 -0.41491551253E+02  0.36016032745E+03  0.39186339291E+03  0.50400001928E-02 0. -1.
</event>
<event>
 5   0  0.3794006E-03  0.8964064E+03  0.7818609E-02  0.9430085E-01
       -1   -1    0    0    0  501  0.00000000000E+00  0.00000000000E+00  0.22859373891E+03  0.22859373896E+03  0.50400001928E-02 0.  1.
        1   -1    0    0  501    0  0.00000000000E+00  0.00000000000E+00 -0.87879100500E+03  0.87879100502E+03  0.50400001928E-02 0. -1.
    10030    2    1    2    0    0  0.00000000000E+00  0.00000000000E+00 -0.65019726610E+03  0.11073847440E+04  0.89640642923E+03 0.  0.
        5    1    3    3  502    0  0.12925322829E+03 -0.34201043595E+03 -0.48888693337E+01  0.36568227516E+03  0.46999998093E+01 0.  1.
       -5    1    3    3    0  502 -0.12925322829E+03  0.34201043595E+03 -0.64530839676E+03  0.74170246882E+03  0.46999998093E+01 0. -1.
</event>
<event>
 5   0  0.6863405E-03  0.8983988E+03  0.7818609E-02  0.9427585E-01
        2   -1    0    0  501    0  0.00000000000E+00  0.00000000000E+00  0.11052985606E+04  0.11052985606E+04  0.25500000920E-02 0. -1.
       -2   -1    0    0    0  501  0.00000000000E+00  0.00000000000E+00 -0.18255711501E+03  0.18255711503E+03  0.25500000920E-02 0.  1.
    10030    2    1    2    0    0  0.00000000000E+00  0.00000000000E+00  0.92274144556E+03  0.12878556756E+04  0.89839883451E+03 0.  0.
        1    1    3    3  502    0 -0.94684403734E+02  0.39790138819E+02  0.10882414464E+04  0.10930772329E+04  0.50400001928E-02 0. -1.
       -1    1    3    3    0  502  0.94684403734E+02 -0.39790138819E+02 -0.16550000080E+03  0.19477844272E+03  0.50400001928E-02 0.  1.
</event>
<event>
 5   0  0.3943549E-03  0.9073455E+03  0.7818609E-02  0.9416446E-01
        1   -1    0    0  501    0  0.00000000000E+00  0.00000000000E+00  0.48581202320E+03  0.48581202323E+03  0.50400001928E-02 0. -1.
       -1   -1    0    0    0  501  0.00000000000E+00  0.00000000000E+00 -0.42365965796E+03  0.42365965799E+03  0.50400001928E-02 0.  1.
    10030    2    1    2    0    0  0.00000000000E+00  0.00000000000E+00  0.62152365244E+02  0.90947168121E+03  0.90734548129E+03 0.  0.
        3    1    3    3  502    0  0.37664361619E+03 -0.21098954762E+03 -0.10868492317E+03  0.44518470947E+03  0.10100000352E+00 0.  1.
       -3    1    3    3    0  502 -0.37664361619E+03  0.21098954762E+03  0.17083728841E+03  0.46428697174E+03  0.10100000352E+00 0. -1.
</event>
<event>
 5   0  0.3794006E-03  0.8989355E+03  0.7818609E-02  0.9426913E-01
       -1   -1    0    0    0  501  0.00000000000E+00  0.00000000000E+00  0.12678429098E+04  0.12678429098E+04  0.50400001928E-02 0. -1.
        1   -1    0    0  501    0  0.00000000000E+00  0.00000000000E+00 -0.15934250618E+03  0.15934250626E+03  0.50400001928E-02 0.  1.
    10030    2    1    2    0    0  0.00000000000E+00  0.00000000000E+00  0.11085004036E+04  0.14271854161E+04  0.89893551881E+03 0.  0.
        5    1    3    3  502    0 -0.39197358998E+02  0.12597102209E+03  0.12363700744E+04  0.12433978374E+04  0.46999998093E+01 0. -1.
       -5    1    3    3    0  502  0.39197358998E+02 -0.12597102209E+03 -0.12786967075E+03  0.18378757862E+03  0.46999998093E+01 0.  1.
</event>
<event>
 5   0  0.6534628E-03  0.9020816E+03  0.7818609E-02  0.9422983E-01
        2   -1    0    0  501    0  0.00000000000E+00  0.00000000000E+00  0.11598938343E+04  0.11598938343E+04  0.25500000920E-02 0.  1.
       -2   -1    0    0    0  501  0.00000000000E+00  0.00000000000E+00 -0.17539346006E+03  0.17539346008E+03  0.25500000920E-02 0. -1.
    10030    2    1    2    0    0  0.00000000000E+00  0.00000000000E+00  0.98450037421E+03  0.13352872944E+04  0.90208157705E+03 0.  0.
        4    1    3    3  502    0 -0.60524350315E+02 -0.34041615583E+03  0.92097986186E+03  0.98374380556E+03  0.12699999809E+01 0.  1.
       -4    1    3    3    0  502  0.60524350315E+02  0.34041615583E+03  0.63520512356E+02  0.35154348880E+03  0.12699999809E+01 0. -1.
</event>
<event>
 5   0  0.6609191E-03  0.8031718E+03  0.7818609E-02  0.9555437E-01
        2   -1    0    0  501    0  0.00000000000E+00  0.00000000000E+00  0.87380895679E+03  0.87380895680E+03  0.25500000920E-02 0.  1.
       -2   -1    0    0    0  501  0.00000000000E+00  0.00000000000E+00 -0.18456118573E+03  0.18456118575E+03  0.25500000920E-02 0. -1.
    10030    2    1    2    0    0  0.00000000000E+00  0.00000000000E+00  0.68924777106E+03  0.10583701425E+04  0.80317175544E+03 0.  0.
        2    1    3    3  502    0 -0.16617581637E+03 -0.81091609530E+02  0.81437671632E+03  0.83510459655E+03  0.25500000920E-02 0.  1.
       -2    1    3    3    0  502  0.16617581637E+03  0.81091609530E+02 -0.12512894527E+03  0.22326554600E+03  0.25500000920E-02 0. -1.
</event>
<event>
 5   0  0.3998066E-03  0.9058823E+03  0.7818609E-02  0.9418258E-01
       -1   -1    0    0    0  501  0.00000000000E+00  0.00000000000E+00  0.90556706786E+03  0.90556706787E+03  0.50400001928E-02 0. -1.
        1   -1    0    0  501    0  0.00000000000E+00  0.00000000000E+00 -0.22654939087E+03  0.22654939092E+03  0.50400001928E-02 0.  1.
    10030    2    1    2    0    0  0.00000000000E+00  0.00000000000E+00  0.67901767699E+03  0.11321164588E+04  0.90588226090E+03 0.  0.
        4    1    3    3  502    0  0.14791141775E+03 -0.24682291072E+03 -0.97640382804E+02  0.30386607908E+03  0.12699999809E+01 0.  1.
       -4    1    3    3    0  502 -0.14791141775E+03  0.24682291072E+03  0.77665805979E+03  0.82825037972E+03  0.12699999809E+01 0. -1.
</event>
<event>
 5   0  0.2560250E-03  0.8488069E+03  0.7818609E-02  0.9491940E-01
       -3   -1    0    0    0  501  0.00000000000E+00  0.00000000000E+00  0.11870349916E+04  0.11870349958E+04  0.10100000352E+00 0. -1.
        3   -1    0    0  501    0  0.00000000000E+00  0.00000000000E+00 -0.15173796594E+03  0.15173799955E+03  0.10100000352E+00 0.  1.
    10030    2    1    2    0    0  0.00000000000E+00  0.00000000000E+00  0.10352970256E+04  0.13387729954E+04  0.84880692857E+03 0.  0.
        5    1    3    3  502    0  0.28510502134E+02 -0.39321652997E+02  0.11825957062E+04  0.11836020173E+04  0.46999998093E+01 0. -1.
       -5    1    3    3    0  502 -0.28510502134E+02  0.39321652997E+02 -0.14729868060E+03  0.15517097806E+03  0.46999998093E+01 0.  1.
</event>
<event>
 5   0  0.6724773E-03  0.9108226E+03  0.7818609E-02  0.9412153E-01
        2   -1    0    0  501    0  0.00000000000E+00  0.00000000000E+00  0.23155831564E+04  0.23155831564E+04  0.25500000920E-02 0. -1.
       -2   -1    0    0    0  501  0.00000000000E+00  0.00000000000E+00 -0.89566834869E+02  0.89566834905E+02  0.25500000920E-02 0.  1.
    10030    2    1    2    0    0  0.00000000000E+00  0.00000000000E+00  0.22260163216E+04  0.24051499913E+04  0.91082260456E+03 0.  0.
        5    1    3    3  502    0 -0.21034672307E+03  0.68362268752E+02  0.21641607207E+04  0.21754385440E+04  0.46999998093E+01 0. -1.
       -5    1    3    3    0  502  0.21034672307E+03 -0.68362268752E+02  0.61855600901E+02  0.22971144738E+03  0.46999998093E+01 0.  1.
</event>
<event>
 5   0  0.3969536E-03  0.8872390E+03  0.7818609E-02  0.9441675E-01
        1   -1    0    0  501    0  0.00000000000E+00  0.00000000000E+00  0.37677085228E+03  0.37677085231E+03  0.50400001928E-02 0.  1.
       -1   -1    0    0    0  501  0.00000000000E+00  0.00000000000E+00 -0.52232877461E+03  0.52232877463E+03  0.50400001928E-02 0. -1.
    10030    2    1    2    0    0  0.00000000000E+00  0.00000000000E+00 -0.14555792233E+03  0.89909962694E+03  0.88723899284E+03 0.  0.
        1    1    3    3  502    0 -0.28258913850E+03  0.12227295811E+03  0.25085049045E+03  0.39715647555E+03  0.50400001928E-02 0.  1.
       -1    1    3    3    0  502  0.28258913850E+03 -0.12227295811E+03 -0.39640841278E+03  0.50194315140E+03  0.50400001928E-02 0. -1.
</event>
<event>
 5   0  0.6534628E-03  0.9053879E+03  0.7818609E-02  0.9418871E-01
       -2   -1    0    0    0  501  0.00000000000E+00  0.00000000000E+00  0.39133199989E+03  0.39133199989E+03  0.25500000920E-02 0.  1.
        2   -1    0    0  501    0  0.00000000000E+00  0.00000000000E+00 -0.52367761672E+03  0.52367761673E+03  0.25500000920E-02 0. -1.
    10030    2    1    2    0    0  0.00000000000E+00  0.00000000000E+00 -0.13234561683E+03  0.91500961662E+03  0.90538789268E+03 0.  0.
        4    1    3    3  502    0  0.42642167890E+03 -0.13066085902E+03 -0.14460221730E+03  0.46884872023E+03  0.12699999809E+01 0. -1.
       -4    1    3    3    0  502 -0.42642167890E+03  0.13066085902E+03  0.12256600464E+02  0.44616089639E+03  0.12699999809E+01 0.  1.
</event>
<event>
 5   0  0.3927993E-03  0.8295716E+03  0.7818609E-02  0.9518173E-01
        1   -1    0    0  501    0  0.00000000000E+00  0.00000000000E+00  0.50606387086E+03  0.50606387089E+03  0.50400001928E-02 0. -1.
       -1   -1    0    0    0  501  0.00000000000E+00  0.00000000000E+00 -0.33997142121E+03  0.33997142125E+03  0.50400001928E-02 0.  1.
    10030    2    1    2    0    0  0.00000000000E+00  0.00000000000E+00  0.16609244965E+03  0.84603529214E+03  0.82957158444E+03 0.  0.
        2    1    3    3  502    0  0.41318604836E+03  0.33317567943E+02  0.68110353333E+02  0.42008545694E+03  0.25500000920E-02 0.  1.
       -2    1    3    3    0  502 -0.41318604836E+03 -0.33317567943E+02  0.97982096313E+02  0.42594983519E+03  0.25500000920E-02 0. -1.
</event>
<event>
 5   0  0.3927993E-03  0.8992017E+03  0.7818609E-02  0.9426580E-01
       -1   -1    0    0    0  501  0.00000000000E+00  0.00000000000E+00  0.37026662651E+03  0.37026662655E+03  0.50400001928E-02 0.  1.
        1   -1    0    0  501    0  0.00000000000E+00  0.00000000000E+00 -0.54593340554E+03  0.54593340557E+03  0.50400001928E-02 0. -1.
    10030    2    1    2    0    0  0.00000000000E+00  0.00000000000E+00 -0.17566677903E+03  0.91620003211E+03  0.89920169127E+03 0.  0.
        2    1    3    3  502    0  0.34026019928E+03  0.24784066419E+03 -0.24873931183E+03  0.48895116658E+03  0.25500000920E-02 0. -1.
       -2    1    3    3    0  502 -0.34026019928E+03 -0.24784066419E+03  0.73072532802E+02  0.42724886553E+03  0.25500000920E-02 0.  1.
</event>
<event>
 5   0  0.6609191E-03  0.9008618E+03  0.7818609E-02  0.9424505E-01
        2   -1    0    0  501    0  0.00000000000E+00  0.00000000000E+00  0.44626287489E+03  0.44626287490E+03  0.25500000920E-02 0.  1.
       -2   -1    0    0    0  501  0.00000000000E+00  0.00000000000E+00 -0.45463784318E+03  0.45463784319E+03  0.25500000920E-02 0. -1.
    10030    2    1    2    0    0  0.00000000000E+00  0.00000000000E+00 -0.83749682853E+01  0.90090071809E+03  0.90086178948E+03 0.  0.
        2    1    3    3  502    0 -0.33075118613E+03 -0.19083300256E+02 -0.30936861101E+03  0.45328738893E+03  0.25500000920E-02 0. -1.
       -2    1    3    3    0  502  0.33075118613E+03  0.19083300256E+02  0.30099364273E+03  0.44761332916E+03  0.25500000920E-02 0.  1.
</event>
<event>
 5   0  0.3794006E-03  0.8995544E+03  0.7818609E-02  0.9426139E-01
       -1   -1    0    0    0  501  0.00000000000E+00  0.00000000000E+00  0.34028745378E+03  0.34028745381E+03  0.50400001928E-02 0.  1.
        1   -1    0    0  501    0  0.00000000000E+00  0.00000000000E+00 -0.59449603235E+03  0.59449603237E+03  0.50400001928E-02 0. -1.
    10030    2    1    2    0    0  0.00000000000E+00  0.00000000000E+00 -0.25420857857E+03  0.93478348619E+03  0.89955442561E+03 0.  0.
        5    1    3    3  502    0  0.27897661083E+03 -0.15407751929E+03  0.20267172540E+03  0.37771119869E+03  0.46999998093E+01 0.  1.
       -5    1    3    3    0  502 -0.27897661083E+03  0.15407751929E+03 -0.45688030397E+03  0.55707228750E+03  0.46999998093E+01 0. -1.
</event>
<event>
 5   0  0.3998066E-03  0.9006037E+03  0.7818609E-02  0.9424827E-01
        1   -1    0    0  501    0  0.00000000000E+00  0.00000000000E+00  0.12887725589E+04  0.12887725589E+04  0.50400001928E-02 0.  1.
       -1   -1    0    0    0  501  0.00000000000E+00  0.00000000000E+00 -0.15733712421E+03  0.15733712429E+03  0.50400001928E-02 0. -1.
    10030    2    1    2    0    0  0.00000000000E+00  0.00000000000E+00  0.11314354347E+04  0.14461096832E+04  0.90060372692E+03 0.  0.
        4    1    3    3  502    0  0.34223054348E+02 -0.97766145573E+02 -0.13794437538E+03  0.17251000049E+03  0.12699999809E+01 0. -1.
       -4    1    3    3    0  502 -0.34223054348E+02  0.97766145573E+02  0.12693798100E+04  0.12735996827E+04  0.12699999809E+01 0.  1.
</event>
<event>
 5   0  0.3794006E-03  0.8951941E+03  0.7818609E-02  0.9431609E-01
        1   -1    0    0  501    0  0.00000000000E+00  0.00000000000E+00  0.80516060944E+03  0.80516060946E+03  0.50400001928E-02 0. -1.
       -1   -1    0    0    0  501  0.00000000000E+00  0.00000000000E+00 -0.24882379818E+03  0.24882379823E+03  0.50400001928E-02 0.  1.
    10030    2    1    2    0    0  0.00000000000E+00  0.00000000000E+00  0.55633681126E+03  0.10539844077E+04  0.89519410414E+03 0.  0.
        5    1    3    3  502    0  0.35562558309E+03  0.99851012923E+02  0.57574836405E+03  0.68406728385E+03  0.46999998093E+01 0. -1.
       -5    1    3    3    0  502 -0.35562558309E+03 -0.99851012923E+02 -0.19411552787E+02  0.36991712384E+03  0.46999998093E+01 0.  1.
</event>
<event>
 5   0  0.6609191E-03  0.8907037E+03  0.7818609E-02  0.9437277E-01
       -2   -1    0    0    0  501  0.00000000000E+00  0.00000000000E+00  0.27661534027E+03  0.27661534028E+03  0.25500000920E-02 0.  1.
        2   -1    0    0  501    0  0.00000000000E+00  0.00000000000E+00 -0.71701838088E+03  0.71701838088E+03  0.25500000920E-02 0. -1.
    10030    2    1    2    0    0  0.00000000000E+00  0.00000000000E+00 -0.44040304061E+03  0.99363372117E+03  0.89070372945E+03 0.  0.
        2    1    3    3  502    0  0.13554352013E+03  0.27471018912E+03 -0.58082362046E+03  0.65665349458E+03  0.25500000920E-02 0. -1.
       -2    1    3    3    0  502 -0.13554352013E+03 -0.27471018912E+03  0.14042057985E+03  0.33698022658E+03  0.25500000920E-02 0.  1.
</event>
<event>
 5   0  0.6609191E-03  0.9148115E+03  0.7818609E-02  0.9407253E-01
        2   -1    0    0  501    0  0.00000000000E+00  0.00000000000E+00  0.51689163111E+03  0.51689163111E+03  0.25500000920E-02 0.  1.
       -2   -1    0    0    0  501  0.00000000000E+00  0.00000000000E+00 -0.40476577644E+03  0.40476577645E+03  0.25500000920E-02 0. -1.
    10030    2    1    2    0    0  0.00000000000E+00  0.00000000000E+00  0.11212585467E+03  0.92165740756E+03  0.91481154870E+03 0.  0.
        2    1    3    3  502    0 -0.29209728525E+03 -0.31031779298E+03 -0.11131910221E+03  0.44046554827E+03  0.25500000920E-02 0. -1.
       -2    1    3    3    0  502  0.29209728525E+03  0.31031779298E+03  0.22344495688E+03  0.48119185929E+03  0.25500000920E-02 0.  1.
</event>
<event>
 5   0  0.3969536E-03  0.9017868E+03  0.7818609E-02  0.9423351E-01
       -1   -1    0    0    0  501  0.00000000000E+00  0.00000000000E+00  0.17236097768E+03  0.17236097775E+03  0.50400001928E-02 0. -1.
        1   -1    0    0  501    0  0.00000000000E+00  0.00000000000E+00 -0.11795294541E+04  0.11795294541E+04  0.50400001928E-02 0.  1.
    10030    2    1    2    0    0  0.00000000000E+00  0.00000000000E+00 -0.10071684764E+04  0.13518904318E+04  0.90178678181E+03 0.  0.
        1    1    3    3  502    0 -0.18183781053E+03  0.62330789783E+02  0.10785768161E+03  0.22041641545E+03  0.50400001928E-02 0. -1.
       -1    1    3    3    0  502  0.18183781053E+03 -0.62330789783E+02 -0.11150261580E+04  0.11314740164E+04  0.50400001928E-02 0.  1.
</event>
<event>
 5   0  0.6524705E-03  0.9003263E+03  0.7818609E-02  0.9425174E-01
       -2   -1    0    0    0  501  0.00000000000E+00  0.00000000000E+00  0.67655995149E+03  0.67655995149E+03  0.25500000920E-02 0. -1.
        2   -1    0    0  501    0  0.00000000000E+00  0.00000000000E+00 -0.29952537741E+03  0.29952537742E+03  0.25500000920E-02 0.  1.
    10030    2    1    2    0    0  0.00000000000E+00  0.00000000000E+00  0.37703457407E+03  0.97608532891E+03  0.90032632932E+03 0.  0.
        3    1    3    3  502    0  0.19952848350E+03  0.37955519355E+03  0.33706154770E+03  0.54542117471E+03  0.10100000352E+00 0. -1.
       -3    1    3    3    0  502 -0.19952848350E+03 -0.37955519355E+03  0.39973026369E+02  0.43066415420E+03  0.10100000352E+00 0.  1.
</event>
<event>
 5   0  0.6524705E-03  0.8897883E+03  0.7818609E-02  0.9438437E-01
       -2   -1    0    0    0  501  0.00000000000E+00  0.00000000000E+00  0.12815323517E+03  0.12815323519E+03  0.25500000920E-02 0.  1.
        2   -1    0    0  501    0  0.00000000000E+00  0.00000000000E+00 -0.15444853800E+04  0.15444853800E+04  0.25500000920E-02 0. -1.
    10030    2    1    2    0    0  0.00000000000E+00  0.00000000000E+00 -0.14163321449E+04  0.16726386152E+04  0.88978828525E+03 0.  0.
        3    1    3    3  502    0  0.41268408820E+03  0.68562611572E+02 -0.99276928016E+03  0.10773113952E+04  0.10100000352E+00 0. -1.
       -3    1    3    3    0  502 -0.41268408820E+03 -0.68562611572E+02 -0.42356286469E+03  0.59532722002E+03  0.10100000352E+00 0.  1.
</event>
<event>
 5   0  0.6534628E-03  0.9039776E+03  0.7818609E-02  0.9420623E-01
        2   -1    0    0  501    0  0.00000000000E+00  0.00000000000E+00  0.13004355543E+04  0.13004355543E+04  0.25500000920E-02 0. -1.
       -2   -1    0    0    0  501  0.00000000000E+00  0.00000000000E+00 -0.15709651631E+03  0.15709651633E+03  0.25500000920E-02 0.  1.
    10030    2    1    2    0    0  0.00000000000E+00  0.00000000000E+00  0.11433390380E+04  0.14575320707E+04  0.90397764416E+03 0.  0.
        4    1    3    3  502    0 -0.34551308398E+03  0.26599533435E+03  0.37980972292E+03  0.57826451354E+03  0.12699999809E+01 0.  1.
       -4    1    3    3    0  502  0.34551308398E+03 -0.26599533435E+03  0.76352931510E+03  0.87926755712E+03  0.12699999809E+01 0. -1.
</event>
<event>
 5   0  0.3998066E-03  0.8880698E+03  0.7818609E-02  0.9440619E-01
       -1   -1    0    0    0  501  0.00000000000E+00  0.00000000000E+00  0.10823888997E+03  0.10823889009E+03  0.50400001928E-02 0.  1.
        1   -1    0    0  501    0  0.00000000000E+00  0.00000000000E+00 -0.18215909269E+04  0.18215909269E+04  0.50400001928E-02 0. -1.
    10030    2    1    2    0    0  0.00000000000E+00  0.00000000000E+00 -0.17133520369E+04  0.19298298169E+04  0.88806977208E+03 0.  0.
        4    1    3    3  502    0  0.22226291067E+03  0.20968535357E+03 -0.15567815777E+04  0.15864864457E+04  0.12699999809E+01 0. -1.
       -4    1    3    3    0  502 -0.22226291067E+03 -0.20968535357E+03 -0.15657045919E+03  0.34334337121E+03  0.12699999809E+01 0.  1.
</event>
<event>
 5   0  0.3998066E-03  0.8988863E+03  0.7818609E-02  0.9426975E-01
        1   -1    0    0  501    0  0.00000000000E+00  0.00000000000E+00  0.76359073734E+03  0.76359073736E+03  0.50400001928E-02 0. -1.
       -1   -1    0    0    0  501  0.00000000000E+00  0.00000000000E+00 -0.26453852054E+03  0.26453852059E+03  0.50400001928E-02 0.  1.
    10030    2    1    2    0    0  0.00000000000E+00  0.00000000000E+00  0.49905221680E+03  0.10281292579E+04  0.89888634206E+03 0.  0.
        4    1    3    3  502    0 -0.37681878694E+03  0.17832512672E+03  0.57434534823E+02  0.42082370145E+03  0.12699999809E+01 0. -1.
       -4    1    3    3    0  502  0.37681878694E+03 -0.17832512672E+03  0.44161768198E+03  0.60730555649E+03  0.12699999809E+01 0.  1.
</event>
<event>
 5   0  0.6724773E-03  0.9120439E+03  0.7818609E-02  0.9410650E-01
       -2   -1    0    0    0  501  0.00000000000E+00  0.00000000000E+00  0.19464582987E+03  0.19464582988E+03  0.25500000920E-02 0.  1.
        2   -1    0    0  501    0  0.00000000000E+00  0.00000000000E+00 -0.10683815521E+04  0.10683815521E+04  0.25500000920E-02 0. -1.
    10030    2    1    2    0    0  0.00000000000E+00  0.00000000000E+00 -0.87373572221E+03  0.12630273820E+04  0.91204388893E+03 0.  0.
        5    1    3    3  502    0 -0.71779240994E+02 -0.21809375810E+03  0.10872208535E+03  0.25408606534E+03  0.46999998093E+01 0.  1.
       -5    1    3    3    0  502  0.71779240994E+02  0.21809375810E+03 -0.98245780756E+03  0.10089413166E+04  0.46999998093E+01 0. -1.
</event>
<event>
 5   0  0.3998066E-03  0.9119817E+03  0.7818609E-02  0.9410726E-01
       -1   -1    0    0    0  501  0.00000000000E+00  0.00000000000E+00  0.17088155740E+03  0.17088155747E+03  0.50400001928E-02 0.  1.
        1   -1    0    0  501    0  0.00000000000E+00  0.00000000000E+00 -0.12167940084E+04  0.12167940084E+04  0.50400001928E-02 0. -1.
    10030    2    1    2    0    0  0.00000000000E+00  0.00000000000E+00 -0.10459124510E+04  0.13876755659E+04  0.91198169992E+03 0.  0.
        4    1    3    3  502    0  0.21821720683E+03  0.92146857324E+02 -0.11158282349E+04  0.11406945496E+04  0.12699999809E+01 0. -1.
       -4    1    3    3    0  502 -0.21821720683E+03 -0.92146857324E+02  0.69915783931E+02  0.24698101630E+03  0.12699999809E+01 0.  1.
</event>
<event>
 5   0  0.6524705E-03  0.9017671E+03  0.7818609E-02  0.9423375E-01
       -2   -1    0    0    0  501  0.00000000000E+00  0.00000000000E+00  0.42585477154E+03  0.42585477155E+03  0.25500000920E-02 0. -1.
        2   -1    0    0  501    0  0.00000000000E+00  0.00000000000E+00 -0.47738336319E+03  0.47738336319E+03  0.25500000920E-02 0.  1.
    10030    2    1    2    0    0  0.00000000000E+00  0.00000000000E+00 -0.51528591642E+02  0.90323813474E+03  0.90176711644E+03 0.  0.
        3    1    3    3  502    0 -0.17122018314E+03 -0.34864680581E+03 -0.25510291872E+03  0.46470254535E+03  0.10100000352E+00 0.  1.
       -3    1    3    3    0  502  0.17122018314E+03  0.34864680581E+03  0.20357432708E+03  0.43853558939E+03  0.10100000352E+00 0. -1.
</event>
<event>
 5   0  0.6724773E-03  0.9011612E+03  0.7818609E-02  0.9424131E-01
        2   -1    0    0  501    0  0.00000000000E+00  0.00000000000E+00  0.36093959864E+03  0.36093959865E+03  0.25500000920E-02 0. -1.
       -2   -1    0    0    0  501  0.00000000000E+00  0.00000000000E+00 -0.56248435830E+03  0.56248435831E+03  0.25500000920E-02 0.  1.
    10030    2    1    2    0    0  0.00000000000E+00  0.00000000000E+00 -0.20154475966E+03  0.92342395696E+03  0.90116120319E+03 0.  0.
        5    1    3    3  502    0  0.37736963400E+03 -0.13857100819E+03 -0.30924630069E+03  0.50721310064E+03  0.46999998093E+01 0.  1.
       -5    1    3    3    0  502 -0.37736963400E+03  0.13857100819E+03  0.10770154103E+03  0.41621085632E+03  0.46999998093E+01 0. -1.
</event>
<event>
 5   0  0.3998066E-03  0.8848399E+03  0.7818609E-02  0.9444733E-01
       -1   -1    0    0    0  501  0.00000000000E+00  0.00000000000E+00  0.62780305187E+03  0.62780305189E+03  0.50400001928E-02 0.  1.
        1   -1    0    0  501    0  0.00000000000E+00  0.00000000000E+00 -0.31177835373E+03  0.31177835377E+03  0.50400001928E-02 0. -1.
    10030    2    1    2    0    0  0.00000000000E+00  0.00000000000E+00  0.31602469815E+03  0.93958140566E+03  0.88483987706E+03 0.  0.
        4    1    3    3  502    0 -0.74154522233E+02  0.16893001378E+03 -0.26898132572E+03  0.32617297437E+03  0.12699999809E+01 0. -1.
       -4    1    3    3    0  502  0.74154522233E+02 -0.16893001378E+03  0.58500602387E+03  0.61340843129E+03  0.12699999809E+01 0.  1.
</event>
<event>
 5   0  0.3943549E-03  0.8719325E+03  0.7818609E-02  0.9461364E-01
        1   -1    0    0  501    0  0.00000000000E+00  0.00000000000E+00  0.19246209238E+03  0.19246209245E+03  0.50400001928E-02 0. -1.
       -1   -1    0    0    0  501  0.00000000000E+00  0.00000000000E+00 -0.98755322497E+03  0.98755322498E+03  0.50400001928E-02 0.  1.
    10030    2    1    2    0    0  0.00000000000E+00  0.00000000000E+00 -0.79509113259E+03  0.11800153174E+04  0.87193247459E+03 0.  0.
        3    1    3    3  502    0 -0.16523469024E+03 -0.37925751017E+03 -0.58373486799E+03  0.71546150713E+03  0.10100000352E+00 0.  1.
       -3    1    3    3    0  502  0.16523469024E+03  0.37925751017E+03 -0.21135626459E+03  0.46455381030E+03  0.10100000352E+00 0. -1.
</event>
<event>
 5   0  0.3998066E-03  0.8992726E+03  0.7818609E-02  0.9426491E-01
        1   -1    0    0  501    0  0.00000000000E+00  0.00000000000E+00  0.18705273275E+04  0.18705273275E+04  0.50400001928E-02 0. -1.
       -1   -1    0    0    0  501  0.00000000000E+00  0.00000000000E+00 -0.10808332923E+03  0.10808332935E+03  0.50400001928E-02 0.  1.
    10030    2    1    2    0    0  0.00000000000E+00  0.00000000000E+00  0.17624439983E+04  0.19786106569E+04  0.89927264186E+03 0.  0.
        4    1    3    3  502    0  0.34613815529E+02  0.32146941150E+03  0.19373935233E+03  0.37693135754E+03  0.12699999809E+01 0.  1.
       -4    1    3    3    0  502 -0.34613815529E+02 -0.32146941150E+03  0.15687046459E+04  0.16016792993E+04  0.12699999809E+01 0. -1.
</event>
<event>
 5   0  0.6724773E-03  0.9090542E+03  0.7818609E-02  0.9414333E-01
       -2   -1    0    0    0  501  0.00000000000E+00  0.00000000000E+00  0.62657450153E+03  0.62657450153E+03  0.25500000920E-02 0.  1.
        2   -1    0    0  501    0  0.00000000000E+00  0.00000000000E+00 -0.32972119088E+03  0.32972119089E+03  0.25500000920E-02 0. -1.
    10030    2    1    2    0    0  0.00000000000E+00  0.00000000000E+00  0.29685331065E+03  0.95629569242E+03  0.90905421362E+03 0.  0.
        5    1    3    3  502    0 -0.32903391206E+03 -0.31345582423E+03  0.15622341821E+03  0.48056811736E+03  0.46999998093E+01 0.  1.
       -5    1    3    3    0  502  0.32903391206E+03  0.31345582423E+03  0.14062989244E+03  0.47572757506E+03  0.46999998093E+01 0. -1.
</event>
<event>
 5   0  0.3998066E-03  0.8991829E+03  0.7818609E-02  0.9426603E-01
       -1   -1    0    0    0  501  0.00000000000E+00  0.00000000000E+00  0.28483140420E+03  0.28483140425E+03  0.50400001928E-02 0. -1.
        1   -1    0    0  501    0  0.00000000000E+00  0.00000000000E+00 -0.70965652596E+03  0.70965652598E+03  0.50400001928E-02 0.  1.
    10030    2    1    2    0    0  0.00000000000E+00  0.00000000000E+00 -0.42482512176E+03  0.99448793023E+03  0.89918288423E+03 0.  0.
        4    1    3    3  502    0 -0.25245496518E+03  0.20004356932E+02 -0.62326566468E+03  0.67275209804E+03  0.12699999809E+01 0.  1.
       -4    1    3    3    0  502  0.25245496518E+03 -0.20004356932E+02  0.19844054292E+03  0.32173583219E+03  0.12699999809E+01 0. -1.
</event>
<event>
 5   0  0.2560250E-03  0.9031611E+03  0.7818609E-02  0.9421639E-01
       -3   -1    0    0    0  501  0.00000000000E+00  0.00000000000E+00  0.21805626527E+03  0.21805628866E+03  0.10100000352E+00 0. -1.
        3   -1    0    0  501    0  0.00000000000E+00  0.00000000000E+00 -0.93519426218E+03  0.93519426764E+03  0.10100000352E+00 0.  1.
    10030    2    1    2    0    0  0.00000000000E+00  0.00000000000E+00 -0.71713799691E+03  0.11532505563E+04  0.90316108142E+03 0.  0.
        3    1    3    3  502    0 -0.38975318297E+03  0.22524475286E+03 -0.40429274419E+03  0.60505815880E+03  0.10100000352E+00 0.  1.
       -3    1    3    3    0  502  0.38975318297E+03 -0.22524475286E+03 -0.31284525273E+03  0.54819239750E+03  0.10100000352E+00 0. -1.
</event>
<event>
 5   0  0.3927993E-03  0.8736185E+03  0.7818609E-02  0.9459174E-01
        1   -1    0    0  501    0  0.00000000000E+00  0.00000000000E+00  0.75226386508E+03  0.75226386510E+03  0.50400001928E-02 0. -1.
       -1   -1    0    0    0  501  0.00000000000E+00  0.00000000000E+00 -0.25363750170E+03  0.25363750175E+03  0.50400001928E-02 0.  1.
    10030    2    1    2    0    0  0.00000000000E+00  0.00000000000E+00  0.49862636338E+03  0.10059013668E+04  0.87361851489E+03 0.  0.
        2    1    3    3  502    0  0.10118915807E+03  0.25404971274E+03  0.64150941215E+03  0.69736276653E+03  0.25500000920E-02 0. -1.
       -2    1    3    3    0  502 -0.10118915807E+03 -0.25404971274E+03 -0.14288304877E+03  0.30853860031E+03  0.25500000920E-02 0.  1.
</event>
<event>
 5   0  0.3794006E-03  0.8983067E+03  0.7818609E-02  0.9427701E-01
        1   -1    0    0  501    0  0.00000000000E+00  0.00000000000E+00  0.71374991092E+03  0.71374991094E+03  0.50400001928E-02 0.  1.
       -1   -1    0    0    0  501  0.00000000000E+00  0.00000000000E+00 -0.28264624009E+03  0.28264624013E+03  0.50400001928E-02 0. -1.
    10030    2    1    2    0    0  0.00000000000E+00  0.00000000000E+00  0.43110367084E+03  0.99639615107E+03  0.89830669309E+03 0.  0.
        5    1    3    3  502    0  0.19174495061E+02  0.33028052413E+03  0.55246886533E+03  0.64396958239E+03  0.46999998093E+01 0.  1.
       -5    1    3    3    0  502 -0.19174495061E+02 -0.33028052413E+03 -0.12136519449E+03  0.35242656868E+03  0.46999998093E+01 0. -1.
</event>
<event>
 5   0  0.6609191E-03  0.8901166E+03  0.7818609E-02  0.9438021E-01
        2   -1    0    0  501    0  0.00000000000E+00  0.00000000000E+00  0.14253614266E+04  0.14253614266E+04  0.25500000920E-02 0.  1.
       -2   -1    0    0    0  501  0.00000000000E+00  0.00000000000E+00 -0.13896606592E+03  0.13896606594E+03  0.25500000920E-02 0. -1.
    10030    2    1    2    0    0  0.00000000000E+00  0.00000000000E+00  0.12863953607E+04  0.15643274925E+04  0.89011655413E+03 0.  0.
        2    1    3    3  502    0 -0.67803509580E+02  0.71991422187E+02  0.14058072614E+04  0.14092814257E+04  0.25500000920E-02 0.  1.
       -2    1    3    3    0  502  0.67803509580E+02 -0.71991422187E+02 -0.11941190073E+03  0.15504606677E+03  0.25500000920E-02 0. -1.
</event>
<event>
 5   0  0.6534628E-03  0.8993790E+03  0.7818609E-02  0.9426358E-01
        2   -1    0    0  501    0  0.00000000000E+00  0.00000000000E+00  0.98492581730E+03  0.98492581731E+03  0.25500000920E-02 0.  1.
       -2   -1    0    0    0  501  0.00000000000E+00  0.00000000000E+00 -0.20531562350E+03  0.20531562352E+03  0.25500000920E-02 0. -1.
    10030    2    1    2    0    0  0.00000000000E+00  0.00000000000E+00  0.77961019380E+03  0.11902414408E+04  0.89937902642E+03 0.  0.
        4    1    3    3  502    0  0.23033106527E+03 -0.56879806607E+02  0.89535797460E+03  0.92625872607E+03  0.12699999809E+01 0.  1.
       -4    1    3    3    0  502 -0.23033106527E+03  0.56879806607E+02 -0.11574778080E+03  0.26398271475E+03  0.12699999809E+01 0. -1.
</event>
<event>
 5   0  0.6524705E-03  0.8949548E+03  0.7818609E-02  0.9431910E-01
       -2   -1    0    0    0  501  0.00000000000E+00  0.00000000000E+00  0.13141457884E+03  0.13141457887E+03  0.25500000920E-02 0.  1.
        2   -1    0    0  501    0  0.00000000000E+00  0.00000000000E+00 -0.15236972019E+04  0.15236972019E+04  0.25500000920E-02 0. -1.
    10030    2    1    2    0    0  0.00000000000E+00  0.00000000000E+00 -0.13922826231E+04  0.16551117808E+04  0.89495480577E+03 0.  0.
        3    1    3    3  502    0 -0.39237706857E+03  0.20665589762E+03 -0.58564812171E+03  0.73460884600E+03  0.10100000352E+00 0.  1.
       -3    1    3    3    0  502  0.39237706857E+03 -0.20665589762E+03 -0.80663450134E+03  0.92050293477E+03  0.10100000352E+00 0. -1.
</event>
<event>
 5   0  0.3969536E-03  0.8997778E+03  0.7818609E-02  0.9425859E-01
       -1   -1    0    0    0  501  0.00000000000E+00  0.00000000000E+00  0.14751909230E+03  0.14751909239E+03  0.50400001928E-02 0. -1.
        1   -1    0    0  501    0  0.00000000000E+00  0.00000000000E+00 -0.13720258754E+04  0.13720258754E+04  0.50400001928E-02 0.  1.
    10030    2    1    2    0    0  0.00000000000E+00  0.00000000000E+00 -0.12245067831E+04  0.15195449678E+04  0.89977777664E+03 0.  0.
        1    1    3    3  502    0  0.11297812025E+03  0.42247450615E+03 -0.43391697832E+03  0.61606225992E+03  0.50400001928E-02 0.  1.
       -1    1    3    3    0  502 -0.11297812025E+03 -0.42247450615E+03 -0.79058980479E+03  0.90348270790E+03  0.50400001928E-02 0. -1.
</event>
<event>
 5   0  0.3943549E-03  0.8921665E+03  0.7818609E-02  0.9435427E-01
       -1   -1    0    0    0  501  0.00000000000E+00  0.00000000000E+00  0.53590670094E+03  0.53590670097E+03  0.50400001928E-02 0.  1.
        1   -1    0    0  501    0  0.00000000000E+00  0.00000000000E+00 -0.37131516409E+03  0.37131516412E+03  0.50400001928E-02 0. -1.
    10030    2    1    2    0    0  0.00000000000E+00  0.00000000000E+00  0.16459153685E+03  0.90722186509E+03  0.89216654191E+03 0.  0.
        3    1    3    3  502    0  0.27275605310E+02  0.61471937252E+02  0.53072210433E+03  0.53496609233E+03  0.10100000352E+00 0.  1.
       -3    1    3    3    0  502 -0.27275605310E+02 -0.61471937252E+02 -0.36613056748E+03  0.37225577276E+03  0.10100000352E+00 0. -1.
</event>
<event>
 5   0  0.3794006E-03  0.9033502E+03  0.7818609E-02  0.9421403E-01
        1   -1    0    0  501    0  0.00000000000E+00  0.00000000000E+00  0.93290374838E+03  0.93290374840E+03  0.50400001928E-02 0. -1.
       -1   -1    0    0    0  501  0.00000000000E+00  0.00000000000E+00 -0.21868323253E+03  0.21868323259E+03  0.50400001928E-02 0.  1.
    10030    2    1    2    0    0  0.00000000000E+00  0.00000000000E+00  0.71422051585E+03  0.11515869810E+04  0.90335022528E+03 0.  0.
        5    1    3    3  502    0 -0.25113991058E+03 -0.21784919739E+03 -0.32607922282E+02  0.33408815316E+03  0.46999998093E+01 0.  1.
       -5    1    3    3    0  502  0.25113991058E+03  0.21784919739E+03  0.74682843813E+03  0.81749882782E+03  0.46999998093E+01 0. -1.
</event>
<event>
 5   0  0.3794006E-03  0.8988049E+03  0.7818609E-02  0.9427077E-01
       -1   -1    0    0    0  501  0.00000000000E+00  0.00000000000E+00  0.29503850147E+03  0.29503850152E+03  0.50400001928E-02 0. -1.
        1   -1    0    0  501    0  0.00000000000E+00  0.00000000000E+00 -0.68452947092E+03  0.68452947094E+03  0.50400001928E-02 0.  1.
    10030    2    1    2    0    0  0.00000000000E+00  0.00000000000E+00 -0.38949096945E+03  0.97956797245E+03  0.89880487169E+03 0.  0.
        5    1    3    3  502    0  0.19076890439E+03 -0.32191180775E+03  0.76452395301E+02  0.38195162730E+03  0.46999998093E+01 0. -1.
       -5    1    3    3    0  502 -0.19076890439E+03  0.32191180775E+03 -0.46594336475E+03  0.59761634516E+03  0.46999998093E+01 0.  1.
</event>
<event>
 5   0  0.6609191E-03  0.8925997E+03  0.7818609E-02  0.9434880E-01
        2   -1    0    0  501    0  0.00000000000E+00  0.00000000000E+00  0.32091421833E+03  0.32091421834E+03  0.25500000920E-02 0.  1.
       -2   -1    0    0    0  501  0.00000000000E+00  0.00000000000E+00 -0.62067541202E+03  0.62067541202E+03  0.25500000920E-02 0. -1.
    10030    2    1    2    0    0  0.00000000000E+00  0.00000000000E+00 -0.29976119369E+03  0.94158963036E+03  0.89259971922E+03 0.  0.
        2    1    3    3  502    0 -0.13148511643E+03  0.36559772752E+02 -0.59812412179E+03  0.61349606185E+03  0.25500000920E-02 0. -1.
       -2    1    3    3    0  502  0.13148511643E+03 -0.36559772752E+02  0.29836292810E+03  0.32809356851E+03  0.25500000920E-02 0.  1.
</event>
<event>
 5   0  0.6609191E-03  0.9059673E+03  0.7818609E-02  0.9418153E-01
        2   -1    0    0  501    0  0.00000000000E+00  0.00000000000E+00  0.11787289701E+04  0.11787289701E+04  0.25500000920E-02 0. -1.
       -2   -1    0    0    0  501  0.00000000000E+00  0.00000000000E+00 -0.17408088456E+03  0.17408088458E+03  0.25500000920E-02 0.  1.
    10030    2    1    2    0    0  0.00000000000E+00  0.00000000000E+00  0.10046480856E+04  0.13528098547E+04  0.90596728813E+03 0.  0.
        2    1    3    3  502    0  0.22967365110E+03 -0.37829402647E+03  0.35803042779E+03  0.56924699710E+03  0.25500000920E-02 0. -1.
       -2    1    3    3    0  502 -0.22967365110E+03  0.37829402647E+03  0.64661765778E+03  0.78356285761E+03  0.25500000920E-02 0.  1.
</event>
<event>
 5   0  0.3943549E-03  0.9010774E+03  0.7818609E-02  0.9424236E-01
       -1   -1    0    0    0  501  0.00000000000E+00  0.00000000000E+00  0.16893492613E+03  0.16893492621E+03  0.50400001928E-02 0.  1.
        1   -1    0    0  501    0  0.00000000000E+00  0.00000000000E+00 -0.12015581507E+04  0.12015581507E+04  0.50400001928E-02 0. -1.
    10030    2    1    2    0    0  0.00000000000E+00  0.00000000000E+00 -0.10326232246E+04  0.13704930769E+04  0.90107743839E+03 0.  0.
        3    1    3    3  502    0  0.35505583014E+03 -0.18008918614E+03 -0.83711428391E+03  0.92696121387E+03  0.10100000352E+00 0. -1.
       -3    1    3    3    0  502 -0.35505583014E+03  0.18008918614E+03 -0.19550894068E+03  0.44353186308E+03  0.10100000352E+00 0.  1.
</event>
<event>
 5   0  0.3969536E-03  0.8975011E+03  0.7818609E-02  0.9428711E-01
        1   -1    0    0  501    0  0.00000000000E+00  0.00000000000E+00  0.19021151491E+04  0.19021151491E+04  0.50400001928E-02 0.  1.
       -1   -1    0    0    0  501  0.00000000000E+00  0.00000000000E+00 -0.10587005842E+03  0.10587005854E+03  0.50400001928E-02 0. -1.
    10030    2    1    2    0    0  0.00000000000E+00  0.00000000000E+00  0.17962450907E+04  0.20079852076E+04  0.89750106870E+03 0.  0.
        1    1    3    3  502    0 -0.21505168537E+03  0.29255899461E+03  0.14881061043E+04  0.15317629616E+04  0.50400001928E-02 0.  1.
       -1    1    3    3    0  502  0.21505168537E+03 -0.29255899461E+03  0.30813898635E+03  0.47622224606E+03  0.50400001928E-02 0. -1.
</event>
<event>
 5   0  0.6524705E-03  0.9029356E+03  0.7818609E-02  0.9421919E-01
       -2   -1    0    0    0  501  0.00000000000E+00  0.00000000000E+00  0.85093372496E+02  0.85093372535E+02  0.25500000920E-02 0.  1.
        2   -1    0    0  501    0  0.00000000000E+00  0.00000000000E+00 -0.23952882392E+04  0.23952882392E+04  0.25500000920E-02 0. -1.
    10030    2    1    2    0    0  0.00000000000E+00  0.00000000000E+00 -0.23101948667E+04  0.24803816117E+04  0.90293555567E+03 0.  0.
        3    1    3    3  502    0 -0.38549816198E+03  0.48899601482E+02 -0.52374209605E+03  0.65215473416E+03  0.10100000352E+00 0.  1.
       -3    1    3    3    0  502  0.38549816198E+03 -0.48899601482E+02 -0.17864527707E+04  0.18282268776E+04  0.10100000352E+00 0. -1.
</event>
<event>
 5   0  0.6724773E-03  0.8989213E+03  0.7818609E-02  0.9426931E-01
       -2   -1    0    0    0  501  0.00000000000E+00  0.00000000000E+00  0.16140301569E+03  0.16140301571E+03  0.25500000920E-02 0. -1.
        2   -1    0    0  501    0  0.00000000000E+00  0.00000000000E+00 -0.12516178209E+04  0.12516178209E+04  0.25500000920E-02 0.  1.
    10030    2    1    2    0    0  0.00000000000E+00  0.00000000000E+00 -0.10902148052E+04  0.14130208366E+04  0.89892133317E+03 0.  0.
        5    1    3    3  502    0 -0.31371859796E+03 -0.31680720459E+03 -0.45609473967E+03  0.63783278776E+03  0.46999998093E+01 0.  1.
       -5    1    3    3    0  502  0.31371859796E+03  0.31680720459E+03 -0.63412006556E+03  0.77518804888E+03  0.46999998093E+01 0. -1.
</event>
<event>
 5   0  0.3927993E-03  0.9009141E+03  0.7818609E-02  0.9424439E-01
        1   -1    0    0  501    0  0.00000000000E+00  0.00000000000E+00  0.16889059820E+03  0.16889059827E+03  0.50400001928E-02 0.  1.
       -1   -1    0    0    0  501  0.00000000000E+00  0.00000000000E+00 -0.12014378312E+04  0.12014378312E+04  0.50400001928E-02 0. -1.
    10030    2    1    2    0    0  0.00000000000E+00  0.00000000000E+00 -0.10325472330E+04  0.13703284295E+04  0.90091410037E+03 0.  0.
        2    1    3    3  502    0 -0.40991869395E+03  0.18099814344E+03 -0.44627442365E+03  0.63241957971E+03  0.25500000920E-02 0.  1.
       -2    1    3    3    0  502  0.40991869395E+03 -0.18099814344E+03 -0.58627280932E+03  0.73790884974E+03  0.25500000920E-02 0. -1.
</event>
<event>
 5   0  0.3927993E-03  0.8974384E+03  0.7818609E-02  0.9428789E-01
        1   -1    0    0  501    0  0.00000000000E+00  0.00000000000E+00  0.13191661440E+04  0.13191661440E+04  0.50400001928E-02 0.  1.
       -1   -1    0    0    0  501  0.00000000000E+00  0.00000000000E+00 -0.15263347690E+03  0.15263347698E+03  0.50400001928E-02 0. -1.
    10030    2    1    2    0    0  0.00000000000E+00  0.00000000000E+00  0.11665326671E+04  0.14717996210E+04  0.89743838838E+03 0.  0.
        2    1    3    3  502    0  0.17750665670E+03 -0.34217141515E+03  0.95996356068E+03  0.10344660112E+04  0.25500000920E-02 0.  1.
       -2    1    3    3    0  502 -0.17750665670E+03  0.34217141515E+03  0.20656910645E+03  0.43733360980E+03  0.25500000920E-02 0. -1.
</event>
<event>
 5   0  0.3943549E-03  0.8940318E+03  0.7818609E-02  0.9433073E-01
        1   -1    0    0  501    0  0.00000000000E+00  0.00000000000E+00  0.94788162665E+03  0.94788162666E+03  0.50400001928E-02 0.  1.
       -1   -1    0    0    0  501  0.00000000000E+00  0.00000000000E+00 -0.21081028442E+03  0.21081028448E+03  0.50400001928E-02 0. -1.
    10030    2    1    2    0    0  0.00000000000E+00  0.00000000000E+00  0.73707134223E+03  0.11586919111E+04  0.89403175637E+03 0.  0.
        3    1    3    3  502    0  0.18278335626E+03 -0.28079942149E+03 -0.14977770734E+02  0.33538398032E+03  0.10100000352E+00 0. -1.
       -3    1    3    3    0  502 -0.18278335626E+03  0.28079942149E+03  0.75204911297E+03  0.82330793082E+03  0.10100000352E+00 0.  1.
</event>
<event>
 5   0  0.6524705E-03  0.9053638E+03  0.7818609E-02  0.9418901E-01
        2   -1    0    0  501    0  0.00000000000E+00  0.00000000000E+00  0.13738937844E+04  0.13738937844E+04  0.25500000920E-02 0. -1.
       -2   -1    0    0    0  501  0.00000000000E+00  0.00000000000E+00 -0.14915336998E+03  0.14915337000E+03  0.25500000920E-02 0.  1.
    10030    2    1    2    0    0  0.00000000000E+00  0.00000000000E+00  0.12247404144E+04  0.15230471544E+04  0.90536376768E+03 0.  0.
        3    1    3    3  502    0  0.25246800649E+03  0.13413601248E+03  0.21931263881E+02  0.28672906145E+03  0.10100000352E+00 0.  1.
       -3    1    3    3    0  502 -0.25246800649E+03 -0.13413601248E+03  0.12028091505E+04  0.12363180930E+04  0.10100000352E+00 0. -1.
</event>
<event>
 5   0  0.3794006E-03  0.8955742E+03  0.7818609E-02  0.9431131E-01
        1   -1    0    0  501    0  0.00000000000E+00  0.00000000000E+00  0.12443322963E+04  0.12443322963E+04  0.50400001928E-02 0. -1.
       -1   -1    0    0    0  501  0.00000000000E+00  0.00000000000E+00 -0.16114128403E+03  0.16114128411E+03  0.50400001928E-02 0.  1.
    10030    2    1    2    0    0  0.00000000000E+00  0.00000000000E+00  0.10831910123E+04  0.14054735804E+04  0.89557423823E+03 0.  0.
        5    1    3    3  502    0  0.16114160643E+03 -0.26401483052E+03  0.10496903158E+04  0.10943227573E+04  0.46999998093E+01 0. -1.
       -5    1    3    3    0  502 -0.16114160643E+03  0.26401483052E+03  0.33500696453E+02  0.31115082310E+03  0.46999998093E+01 0.  1.
</event>
<event>
 5   0  0.3927993E-03  0.8878636E+03  0.7818609E-02  0.9440881E-01
       -1   -1    0    0    0  501  0.00000000000E+00  0.00000000000E+00  0.24894542154E+03  0.24894542159E+03  0.50400001928E-02 0.  1.
        1   -1    0    0  501    0  0.00000000000E+00  0.00000000000E+00 -0.79164117172E+03  0.79164117174E+03  0.50400001928E-02 0. -1.
    10030    2    1    2    0    0  0.00000000000E+00  0.00000000000E+00 -0.54269575018E+03  0.10405865933E+04  0.88786360493E+03 0.  0.
        2    1    3    3  502    0 -0.28233784677E+03 -0.27215865413E+01 -0.67284253275E+03  0.72968427463E+03  0.25500000920E-02 0. -1.
       -2    1    3    3    0  502  0.28233784677E+03  0.27215865413E+01  0.13014678257E+03  0.31090231870E+03  0.25500000920E-02 0.  1.
</event>
<event>
 5   0  0.6524705E-03  0.8896986E+03  0.7818609E-02  0.9438551E-01
       -2   -1    0    0    0  501  0.00000000000E+00  0.00000000000E+00  0.40354840789E+03  0.40354840790E+03  0.25500000920E-02 0.  1.
        2   -1    0    0  501    0  0.00000000000E+00  0.00000000000E+00 -0.49037714523E+03  0.49037714524E+03  0.25500000920E-02 0. -1.
    10030    2    1    2    0    0  0.00000000000E+00  0.00000000000E+00 -0.86828737337E+02  0.89392555313E+03  0.88969863713E+03 0.  0.
        3    1    3    3  502    0 -0.10767442183E+03 -0.42165006400E+03  0.49264571823E+02  0.43796068981E+03  0.10100000352E+00 0. -1.
       -3    1    3    3    0  502  0.10767442183E+03  0.42165006400E+03 -0.13609330916E+03  0.45596486332E+03  0.10100000352E+00 0.  1.
</event>
<event>
 5   0  0.6724773E-03  0.9024490E+03  0.7818609E-02  0.9422525E-01
        2   -1    0    0  501    0  0.00000000000E+00  0.00000000000E+00  0.14373998320E+04  0.14373998320E+04  0.25500000920E-02 0.  1.
       -2   -1    0    0    0  501  0.00000000000E+00  0.00000000000E+00 -0.14164710819E+03  0.14164710821E+03  0.25500000920E-02 0. -1.
    10030    2    1    2    0    0  0.00000000000E+00  0.00000000000E+00  0.12957527239E+04  0.15790469403E+04  0.90244895598E+03 0.  0.
        5    1    3    3  502    0 -0.41818362873E+03  0.15874134112E+03  0.75146718604E+03  0.87452923474E+03  0.46999998093E+01 0. -1.
       -5    1    3    3    0  502  0.41818362873E+03 -0.15874134112E+03  0.54428553781E+03  0.70451770552E+03  0.46999998093E+01 0.  1.
</event>
<event>
 5   0  0.6724773E-03  0.8928136E+03  0.7818609E-02  0.9434610E-01
       -2   -1    0    0    0  501  0.00000000000E+00  0.00000000000E+00  0.37554574815E+03  0.37554574816E+03  0.25500000920E-02 0. -1.
        2   -1    0    0  501    0  0.00000000000E+00  0.00000000000E+00 -0.53063853206E+03  0.53063853207E+03  0.25500000920E-02 0.  1.
    10030    2    1    2    0    0  0.00000000000E+00  0.00000000000E+00 -0.15509278392E+03  0.90618428023E+03  0.89281363011E+03 0.  0.
        5    1    3    3  502    0 -0.27326616998E+03 -0.32335237096E+03 -0.22117820399E+03  0.47767462082E+03  0.46999998093E+01 0.  1.
       -5    1    3    3    0  502  0.27326616998E+03  0.32335237096E+03  0.66085420076E+02  0.42850965941E+03  0.46999998093E+01 0. -1.
</event>
<event>
 5   0  0.6724773E-03  0.8984888E+03  0.7818609E-02  0.9427473E-01
        2   -1    0    0  501    0  0.00000000000E+00  0.00000000000E+00  0.10608016532E+04  0.10608016532E+04  0.25500000920E-02 0.  1.
       -2   -1    0    0    0  501  0.00000000000E+00  0.00000000000E+00 -0.19025282722E+03  0.19025282724E+03  0.25500000920E-02 0. -1.
    10030    2    1    2    0    0  0.00000000000E+00  0.00000000000E+00  0.87054882602E+03  0.12510544805E+04  0.89848876157E+03 0.  0.
        5    1    3    3  502    0  0.38506923377E+03 -0.23036936026E+03  0.40573498879E+03  0.60497217132E+03  0.46999998093E+01 0. -1.
       -5    1    3    3    0  502 -0.38506923377E+03  0.23036936026E+03  0.46481383723E+03  0.64608230917E+03  0.46999998093E+01 0.  1.
</event>
<event>
 5   0  0.6609191E-03  0.8980288E+03  0.7818609E-02  0.9428049E-01
        2   -1    0    0  501    0  0.00000000000E+00  0.00000000000E+00  0.37210942687E+03  0.37210942688E+03  0.25500000920E-02 0. -1.
       -2   -1    0    0    0  501  0.00000000000E+00  0.00000000000E+00 -0.54181355633E+03  0.54181355634E+03  0.25500000920E-02 0.  1.
    10030    2    1    2    0    0  0.00000000000E+00  0.00000000000E+00 -0.16970412946E+03  0.91392298322E+03  0.89802880115E+03 0.  0.
        2    1    3    3  502    0  0.10474697209E+03 -0.59237488520E+02 -0.52509706766E+03  0.53870951233E+03  0.25500000920E-02 0.  1.
       -2    1    3    3    0  502 -0.10474697209E+03  0.59237488520E+02  0.35539293820E+03  0.37521347089E+03  0.25500000920E-02 0. -1.
</event>
<event>
 5   0  0.6534628E-03  0.8947103E+03  0.7818609E-02  0.9432218E-01
       -2   -1    0    0    0  501  0.00000000000E+00  0.00000000000E+00  0.36063536466E+03  0.36063536467E+03  0.25500000920E-02 0.  1.
        2   -1    0    0  501    0  0.00000000000E+00  0.00000000000E+00 -0.55492789744E+03  0.55492789745E+03  0.25500000920E-02 0. -1.
    10030    2    1    2    0    0  0.00000000000E+00  0.00000000000E+00 -0.19429253279E+03  0.91556326212E+03  0.89471028755E+03 0.  0.
        4    1    3    3  502    0  0.24510734632E+03 -0.29642477519E+03 -0.33089912852E+03  0.50738654369E+03  0.12699999809E+01 0. -1.
       -4    1    3    3    0  502 -0.24510734632E+03  0.29642477519E+03  0.13660659573E+03  0.40817671842E+03  0.12699999809E+01 0.  1.
</event>
<event>
 5   0  0.6724773E-03  0.8991650E+03  0.7818609E-02  0.9426626E-01
       -2   -1    0    0    0  501  0.00000000000E+00  0.00000000000E+00  0.24699822311E+03  0.24699822312E+03  0.25500000920E-02 0. -1.
        2   -1    0    0  501    0  0.00000000000E+00  0.00000000000E+00 -0.81832334138E+03  0.81832334138E+03  0.25500000920E-02 0.  1.
    10030    2    1    2    0    0  0.00000000000E+00  0.00000000000E+00 -0.57132511827E+03  0.10653215645E+04  0.89916497098E+03 0.  0.
        5    1    3    3  502    0  0.14574240425E+03 -0.37423258082E+03 -0.46313159626E+02  0.40429923534E+03  0.46999998093E+01 0.  1.
       -5    1    3    3    0  502 -0.14574240425E+03  0.37423258082E+03 -0.52501195864E+03  0.66102232917E+03  0.46999998093E+01 0. -1.
</event>
<event>
 5   0  0.6724773E-03  0.9086947E+03  0.7818609E-02  0.9414777E-01
       -2   -1    0    0    0  501  0.00000000000E+00  0.00000000000E+00  0.42753917092E+03  0.42753917093E+03  0.25500000920E-02 0. -1.
        2   -1    0    0  501    0  0.00000000000E+00  0.00000000000E+00 -0.48283652026E+03  0.48283652027E+03  0.25500000920E-02 0.  1.
    10030    2    1    2    0    0  0.00000000000E+00  0.00000000000E+00 -0.55297349342E+02  0.91037569120E+03  0.90869472447E+03 0.  0.
        5    1    3    3  502    0 -0.37624321434E+03  0.12215361294E+03  0.19621259737E+03  0.44159023410E+03  0.46999998093E+01 0. -1.
       -5    1    3    3    0  502  0.37624321434E+03 -0.12215361294E+03 -0.25150994672E+03  0.46878545709E+03  0.46999998093E+01 0.  1.
</event>
<event>
 5   0  0.6863405E-03  0.8299596E+03  0.7818609E-02  0.9517636E-01
        2   -1    0    0  501    0  0.00000000000E+00  0.00000000000E+00  0.57684093894E+03  0.57684093895E+03  0.25500000920E-02 0.  1.
       -2   -1    0    0    0  501  0.00000000000E+00  0.00000000000E+00 -0.29853678060E+03  0.29853678061E+03  0.25500000920E-02 0. -1.
    10030    2    1    2    0    0  0.00000000000E+00  0.00000000000E+00  0.27830415834E+03  0.87537771956E+03  0.82995960586E+03 0.  0.
        1    1    3    3  502    0  0.40430623222E+02 -0.36457445776E+02  0.57305818220E+03  0.57563830732E+03  0.50400001928E-02 0.  1.
       -1    1    3    3    0  502 -0.40430623222E+02  0.36457445776E+02 -0.29475402385E+03  0.29973941224E+03  0.50400001928E-02 0. -1.
</event>
<event>
 5   0  0.2560250E-03  0.7874981E+03  0.7818609E-02  0.9578291E-01
        3   -1    0    0  501    0  0.00000000000E+00  0.00000000000E+00  0.60657623936E+03  0.60657624777E+03  0.10100000352E+00 0. -1.
       -3   -1    0    0    0  501  0.00000000000E+00  0.00000000000E+00 -0.25559573481E+03  0.25559575477E+03  0.10100000352E+00 0.  1.
    10030    2    1    2    0    0  0.00000000000E+00  0.00000000000E+00  0.35098050455E+03  0.86217200254E+03  0.78749809357E+03 0.  0.
        1    1    3    3  502    0 -0.26264069341E+03 -0.18218932343E+02 -0.14506383155E+03  0.30059204676E+03  0.50400001928E-02 0.  1.
       -1    1    3    3    0  502  0.26264069341E+03  0.18218932343E+02  0.49604433610E+03  0.56157995578E+03  0.50400001928E-02 0. -1.
</event>
<event>
 5   0  0.6863405E-03  0.9001069E+03  0.7818609E-02  0.9425448E-01
       -2   -1    0    0    0  501  0.00000000000E+00  0.00000000000E+00  0.98781462989E+02  0.98781463022E+02  0.25500000920E-02 0. -1.
        2   -1    0    0  501    0  0.00000000000E+00  0.00000000000E+00 -0.20504669964E+04  0.20504669964E+04  0.25500000920E-02 0.  1.
    10030    2    1    2    0    0  0.00000000000E+00  0.00000000000E+00 -0.19516855334E+04  0.21492484594E+04  0.90010694864E+03 0.  0.
        1    1    3    3  502    0 -0.15790687507E+03  0.26605090931E+03 -0.17562837427E+04  0.17833256159E+04  0.50400001928E-02 0.  1.
       -1    1    3    3    0  502  0.15790687507E+03 -0.26605090931E+03 -0.19540179068E+03  0.36592284346E+03  0.50400001928E-02 0. -1.
</event>
<event>
 5   0  0.3927993E-03  0.9053807E+03  0.7818609E-02  0.9418880E-01
       -1   -1    0    0    0  501  0.00000000000E+00  0.00000000000E+00  0.84413541995E+02  0.84413542145E+02  0.50400001928E-02 0. -1.
        1   -1    0    0  501    0  0.00000000000E+00  0.00000000000E+00 -0.24276736693E+04  0.24276736693E+04  0.50400001928E-02 0.  1.
    10030    2    1    2    0    0  0.00000000000E+00  0.00000000000E+00 -0.23432601273E+04  0.25120872115E+04  0.90538065681E+03 0.  0.
        2    1    3    3  502    0  0.23641746670E+03 -0.42644306374E+02 -0.22362195066E+04  0.22490863561E+04  0.25500000920E-02 0.  1.
       -2    1    3    3    0  502 -0.23641746670E+03  0.42644306374E+02 -0.10704062068E+03  0.26300085534E+03  0.25500000920E-02 0. -1.
</event>
<event>
 5   0  0.6524705E-03  0.8986965E+03  0.7818609E-02  0.9427212E-01
       -2   -1    0    0    0  501  0.00000000000E+00  0.00000000000E+00  0.13479429671E+03  0.13479429674E+03  0.25500000920E-02 0. -1.
        2   -1    0    0  501    0  0.00000000000E+00  0.00000000000E+00 -0.14979406754E+04  0.14979406754E+04  0.25500000920E-02 0.  1.
    10030    2    1    2    0    0  0.00000000000E+00  0.00000000000E+00 -0.13631463787E+04  0.16327349721E+04  0.89869652247E+03 0.  0.
        3    1    3    3  502    0 -0.89830598624E+02 -0.36280045969E+03 -0.22839591309E+03  0.43801645325E+03  0.10100000352E+00 0. -1.
       -3    1    3    3    0  502  0.89830598624E+02  0.36280045969E+03 -0.11347504656E+04  0.11947185189E+04  0.10100000352E+00 0.  1.
</event>
<event>
 5   0  0.3998066E-03  0.9007873E+03  0.7818609E-02  0.9424598E-01
       -1   -1    0    0    0  501  0.00000000000E+00  0.00000000000E+00  0.13371281477E+03  0.13371281487E+03  0.50400001928E-02 0. -1.
        1   -1    0    0  501    0  0.00000000000E+00  0.00000000000E+00 -0.15170904260E+04  0.15170904260E+04  0.50400001928E-02 0.  1.
    10030    2    1    2    0    0  0.00000000000E+00  0.00000000000E+00 -0.13833776112E+04  0.16508032409E+04  0.90078728058E+03 0.  0.
        4    1    3    3  502    0 -0.28486587471E+03  0.34203427413E+03 -0.81755152870E+03  0.93087492513E+03  0.12699999809E+01 0.  1.
       -4    1    3    3    0  502  0.28486587471E+03 -0.34203427413E+03 -0.56582608255E+03  0.71992831577E+03  0.12699999809E+01 0. -1.
</event>
<event>
 5   0  0.3969536E-03  0.9010820E+03  0.7818609E-02  0.9424230E-01
       -1   -1    0    0    0  501  0.00000000000E+00  0.00000000000E+00  0.63660404278E+03  0.63660404280E+03  0.50400001928E-02 0.  1.
        1   -1    0    0  501    0  0.00000000000E+00  0.00000000000E+00 -0.31885944075E+03  0.31885944079E+03  0.50400001928E-02 0. -1.
    10030    2    1    2    0    0  0.00000000000E+00  0.00000000000E+00  0.31774460204E+03  0.95546348359E+03  0.90108203642E+03 0.  0.
        1    1    3    3  502    0  0.16684837774E+03  0.41261927709E+03  0.23305264574E+03  0.50240082075E+03  0.50400001928E-02 0.  1.
       -1    1    3    3    0  502 -0.16684837774E+03 -0.41261927709E+03  0.84691956298E+02  0.45306266284E+03  0.50400001928E-02 0. -1.
</event>
<event>
 5   0  0.3794006E-03  0.9204821E+03  0.7818609E-02  0.9400334E-01
        1   -1    0    0  501    0  0.00000000000E+00  0.00000000000E+00  0.92197479531E+03  0.92197479533E+03  0.50400001928E-02 0. -1.
       -1   -1    0    0    0  501  0.00000000000E+00  0.00000000000E+00 -0.22974794257E+03  0.22974794263E+03  0.50400001928E-02 0.  1.
    10030    2    1    2    0    0  0.00000000000E+00  0.00000000000E+00  0.69222685274E+03  0.11517227380E+04  0.92048207450E+03 0.  0.
        5    1    3    3  502    0 -0.65009353558E+02  0.41581273414E+03  0.57909954512E+03  0.71589441895E+03  0.46999998093E+01 0.  1.
       -5    1    3    3    0  502  0.65009353558E+02 -0.41581273414E+03  0.11312730762E+03  0.43582831901E+03  0.46999998093E+01 0. -1.
</event>
<event>
 5   0  0.6534628E-03  0.8850937E+03  0.7818609E-02  0.9444409E-01
        2   -1    0    0  501    0  0.00000000000E+00  0.00000000000E+00  0.39015908304E+03  0.39015908305E+03  0.25500000920E-02 0. -1.
       -2   -1    0    0    0  501  0.00000000000E+00  0.00000000000E+00 -0.50196885852E+03  0.50196885852E+03  0.25500000920E-02 0.  1.
    10030    2    1    2    0    0  0.00000000000E+00  0.00000000000E+00 -0.11180977548E+03  0.89212794157E+03  0.88509368896E+03 0.  0.
        4    1    3    3  502    0 -0.10890201511E+03 -0.42808885665E+03 -0.83070494597E+02  0.44946861743E+03  0.12699999809E+01 0.  1.
       -4    1    3    3    0  502  0.10890201511E+03  0.42808885665E+03 -0.28739280881E+02  0.44265932414E+03  0.12699999809E+01 0. -1.
</event>
<event>
 5   0  0.3927993E-03  0.9503884E+03  0.7818609E-02  0.9364697E-01
        1   -1    0    0  501    0  0.00000000000E+00  0.00000000000E+00  0.63317071717E+03  0.63317071719E+03  0.50400001928E-02 0.  1.
       -1   -1    0    0    0  501  0.00000000000E+00  0.00000000000E+00 -0.35663294980E+03  0.35663294983E+03  0.50400001928E-02 0. -1.
    10030    2    1    2    0    0  0.00000000000E+00  0.00000000000E+00  0.27653776737E+03  0.98980366702E+03  0.95038842715E+03 0.  0.
        2    1    3    3  502    0 -0.93386773949E+02 -0.23290905473E+02 -0.34637527972E+03  0.35949880422E+03  0.25500000920E-02 0. -1.
       -2    1    3    3    0  502  0.93386773949E+02  0.23290905473E+02  0.62291304709E+03  0.63030486280E+03  0.25500000920E-02 0.  1.
</event>
<event>
 5   0  0.6609191E-03  0.9020439E+03  0.7818609E-02  0.9423030E-01
       -2   -1    0    0    0  501  0.00000000000E+00  0.00000000000E+00  0.33715198367E+03  0.33715198368E+03  0.25500000920E-02 0.  1.
        2   -1    0    0  501    0  0.00000000000E+00  0.00000000000E+00 -0.60335048633E+03  0.60335048634E+03  0.25500000920E-02 0. -1.
    10030    2    1    2    0    0  0.00000000000E+00  0.00000000000E+00 -0.26619850266E+03  0.94050247002E+03  0.90204393091E+03 0.  0.
        2    1    3    3  502    0 -0.20620158889E+03  0.39262392727E+03 -0.47449668430E+02  0.44600909695E+03  0.25500000920E-02 0.  1.
       -2    1    3    3    0  502  0.20620158889E+03 -0.39262392727E+03 -0.21874883423E+03  0.49449337307E+03  0.25500000920E-02 0. -1.
</event>
<event>
 5   0  0.6863405E-03  0.9065855E+03  0.7818609E-02  0.9417386E-01
       -2   -1    0    0    0  501  0.00000000000E+00  0.00000000000E+00  0.37561356081E+03  0.37561356081E+03  0.25500000920E-02 0. -1.
        2   -1    0    0  501    0  0.00000000000E+00  0.00000000000E+00 -0.54703646239E+03  0.54703646239E+03  0.25500000920E-02 0.  1.
    10030    2    1    2    0    0  0.00000000000E+00  0.00000000000E+00 -0.17142290158E+03  0.92265002321E+03  0.90658549191E+03 0.  0.
        1    1    3    3  502    0 -0.21489541785E+03  0.10638613068E+03  0.30578178395E+03  0.38858789075E+03  0.50400001928E-02 0. -1.
       -1    1    3    3    0  502  0.21489541785E+03 -0.10638613068E+03 -0.47720468553E+03  0.53406213246E+03  0.50400001928E-02 0.  1.
</event>
<event>
 5   0  0.6724773E-03  0.8910706E+03  0.7818609E-02  0.9436813E-01
        2   -1    0    0  501    0  0.00000000000E+00  0.00000000000E+00  0.16814323730E+04  0.16814323730E+04  0.25500000920E-02 0.  1.
       -2   -1    0    0    0  501  0.00000000000E+00  0.00000000000E+00 -0.11805513272E+03  0.11805513274E+03  0.25500000920E-02 0. -1.
    10030    2    1    2    0    0  0.00000000000E+00  0.00000000000E+00  0.15633772403E+04  0.17994875057E+04  0.89107064136E+03 0.  0.
        5    1    3    3  502    0 -0.20851582183E+03  0.26667157694E+03  0.19678518463E+03  0.39158533782E+03  0.46999998093E+01 0. -1.
       -5    1    3    3    0  502  0.20851582183E+03 -0.26667157694E+03  0.13665920556E+04  0.14079021679E+04  0.46999998093E+01 0.  1.
</event>
<event>
 5   0  0.3927993E-03  0.8932093E+03  0.7818609E-02  0.9434110E-01
       -1   -1    0    0    0  501  0.00000000000E+00  0.00000000000E+00  0.43683468867E+03  0.43683468870E+03  0.50400001928E-02 0. -1.
        1   -1    0    0  501    0  0.00000000000E+00  0.00000000000E+00 -0.45659312572E+03  0.45659312575E+03  0.50400001928E-02 0.  1.
    10030    2    1    2    0    0  0.00000000000E+00  0.00000000000E+00 -0.19758437049E+02  0.89342781444E+03  0.89320930570E+03 0.  0.
        2    1    3    3  502    0  0.10826525080E+03  0.18944967871E+03 -0.39964513741E+03  0.45533370308E+03  0.25500000920E-02 0.  1.
       -2    1    3    3    0  502 -0.10826525080E+03 -0.18944967871E+03  0.37988670036E+03  0.43809411137E+03  0.25500000920E-02 0. -1.
</event>
<event>
 5   0  0.3998066E-03  0.9028904E+03  0.7818609E-02  0.9421975E-01
       -1   -1    0    0    0  501  0.00000000000E+00  0.00000000000E+00  0.65562240116E+03  0.65562240118E+03  0.50400001928E-02 0.  1.
        1   -1    0    0  501    0  0.00000000000E+00  0.00000000000E+00 -0.31085389948E+03  0.31085389952E+03  0.50400001928E-02 0. -1.
    10030    2    1    2    0    0  0.00000000000E+00  0.00000000000E+00  0.34476850168E+03  0.96647630071E+03  0.90289042529E+03 0.  0.
        4    1    3    3  502    0 -0.30595234648E+03 -0.71884380666E+02 -0.17451756130E+03  0.35948879622E+03  0.12699999809E+01 0. -1.
       -4    1    3    3    0  502  0.30595234648E+03  0.71884380666E+02  0.51928606298E+03  0.60698750449E+03  0.12699999809E+01 0.  1.
</event>
<event>
 5   0  0.6534628E-03  0.9031550E+03  0.7818609E-02  0.9421646E-01
        2   -1    0    0  501    0  0.00000000000E+00  0.00000000000E+00  0.93034457077E+03  0.93034457078E+03  0.25500000920E-02 0. -1.
       -2   -1    0    0    0  501  0.00000000000E+00  0.00000000000E+00 -0.21919003360E+03  0.21919003361E+03  0.25500000920E-02 0.  1.
    10030    2    1    2    0    0  0.00000000000E+00  0.00000000000E+00  0.71115453718E+03  0.11495346044E+04  0.90315504258E+03 0.  0.
        4    1    3    3  502    0 -0.12589983749E+03 -0.24259418842E+02 -0.19553335350E+03  0.23382513491E+03  0.12699999809E+01 0.  1.
       -4    1    3    3    0  502  0.12589983749E+03  0.24259418842E+02  0.90668789068E+03  0.91570946948E+03  0.12699999809E+01 0. -1.
</event>
<event>
 5   0  0.6524705E-03  0.9079355E+03  0.7818609E-02  0.9415716E-01
       -2   -1    0    0    0  501  0.00000000000E+00  0.00000000000E+00  0.42966095711E+03  0.42966095711E+03  0.25500000920E-02 0.  1.
        2   -1    0    0  501    0  0.00000000000E+00  0.00000000000E+00 -0.47964959037E+03  0.47964959038E+03  0.25500000920E-02 0. -1.
    10030    2    1    2    0    0  0.00000000000E+00  0.00000000000E+00 -0.49988633269E+02  0.90931054749E+03  0.90793546485E+03 0.  0.
        3    1    3    3  502    0 -0.34592122783E+03  0.16685551020E+03 -0.26740311025E+03  0.46798150681E+03  0.10100000352E+00 0. -1.
       -3    1    3    3    0  502  0.34592122783E+03 -0.16685551020E+03  0.21741447698E+03  0.44132904068E+03  0.10100000352E+00 0.  1.
</event>
<event>
 5   0  0.3969536E-03  0.8989970E+03  0.7818609E-02  0.9426836E-01
       -1   -1    0    0    0  501  0.00000000000E+00  0.00000000000E+00  0.21134433123E+03  0.21134433129E+03  0.50400001928E-02 0.  1.
        1   -1    0    0  501    0  0.00000000000E+00  0.00000000000E+00 -0.95601759195E+03  0.95601759197E+03  0.50400001928E-02 0. -1.
    10030    2    1    2    0    0  0.00000000000E+00  0.00000000000E+00 -0.74467326072E+03  0.11673619233E+04  0.89899699368E+03 0.  0.
        1    1    3    3  502    0 -0.29374506700E+03  0.31723151058E+03 -0.21263023989E+03  0.48180246433E+03  0.50400001928E-02 0.  1.
       -1    1    3    3    0  502  0.29374506700E+03 -0.31723151058E+03 -0.53204302083E+03  0.68555945893E+03  0.50400001928E-02 0. -1.
</event>
<event>
 5   0  0.3943549E-03  0.9024549E+03  0.7818609E-02  0.9422518E-01
       -1   -1    0    0    0  501  0.00000000000E+00  0.00000000000E+00  0.82212538983E+03  0.82212538985E+03  0.50400001928E-02 0.  1.
        1   -1    0    0  501    0  0.00000000000E+00  0.00000000000E+00 -0.24765834638E+03  0.24765834643E+03  0.50400001928E-02 0. -1.
    10030    2    1    2    0    0  0.00000000000E+00  0.00000000000E+00  0.57446704345E+03  0.10697837363E+04  0.90245490657E+03 0.  0.
        3    1    3    3  502    0 -0.37722417075E+03  0.23470015706E+03  0.38075343059E+03  0.58511146274E+03  0.10100000352E+00 0. -1.
       -3    1    3    3    0  502  0.37722417075E+03 -0.23470015706E+03  0.19371361286E+03  0.48467227354E+03  0.10100000352E+00 0.  1.
</event>
<event>
 5   0  0.3927993E-03  0.9018118E+03  0.7818609E-02  0.9423319E-01
        1   -1    0    0  501    0  0.00000000000E+00  0.00000000000E+00  0.25863135846E+04  0.25863135846E+04  0.50400001928E-02 0. -1.
       -1   -1    0    0    0  501  0.00000000000E+00  0.00000000000E+00 -0.78612323698E+02  0.78612323859E+02  0.50400001928E-02 0.  1.
    10030    2    1    2    0    0  0.00000000000E+00  0.00000000000E+00  0.25077012609E+04  0.26649259084E+04  0.90181177840E+03 0.  0.
        2    1    3    3  502    0  0.10500707397E+03  0.29423615346E+03  0.29304183407E+03  0.42833972044E+03  0.25500000920E-02 0.  1.
       -2    1    3    3    0  502 -0.10500707397E+03 -0.29423615346E+03  0.22146594268E+04  0.22365861880E+04  0.25500000920E-02 0. -1.
</event>
<event>
 5   0  0.3927993E-03  0.8874721E+03  0.7818609E-02  0.9441379E-01
        1   -1    0    0  501    0  0.00000000000E+00  0.00000000000E+00  0.42769378846E+03  0.42769378849E+03  0.50400001928E-02 0.  1.
       -1   -1    0    0    0  501  0.00000000000E+00  0.00000000000E+00 -0.46038003155E+03  0.46038003158E+03  0.50400001928E-02 0. -1.
    10030    2    1    2    0    0  0.00000000000E+00  0.00000000000E+00 -0.32686243093E+02  0.88807382007E+03  0.88747209500E+03 0.  0.
        2    1    3    3  502    0 -0.23053778605E+03 -0.36193604666E+03  0.96677279872E+02  0.43987710684E+03  0.25500000920E-02 0.  1.
       -2    1    3    3    0  502  0.23053778605E+03  0.36193604666E+03 -0.12936352297E+03  0.44819671323E+03  0.25500000920E-02 0. -1.
</event>
<event>
 5   0  0.6724773E-03  0.9001550E+03  0.7818609E-02  0.9425388E-01
       -2   -1    0    0    0  501  0.00000000000E+00  0.00000000000E+00  0.23484436090E+03  0.23484436092E+03  0.25500000920E-02 0. -1.
        2   -1    0    0  501    0  0.00000000000E+00  0.00000000000E+00 -0.86257030834E+03  0.86257030835E+03  0.25500000920E-02 0.  1.
    10030    2    1    2    0    0  0.00000000000E+00  0.00000000000E+00 -0.62772594744E+03  0.10974146693E+04  0.90015503733E+03 0.  0.
        5    1    3    3  502    0  0.33729973231E+03 -0.26731142016E+03 -0.15341207356E+03  0.45692872428E+03  0.46999998093E+01 0.  1.
       -5    1    3    3    0  502 -0.33729973231E+03  0.26731142016E+03 -0.47431387388E+03  0.64048594498E+03  0.46999998093E+01 0. -1.
</event>
<event>
 5   0  0.3794006E-03  0.9024015E+03  0.7818609E-02  0.9422584E-01
       -1   -1    0    0    0  501  0.00000000000E+00  0.00000000000E+00  0.13043661034E+03  0.13043661043E+03  0.50400001928E-02 0. -1.
        1   -1    0    0  501    0  0.00000000000E+00  0.00000000000E+00 -0.15607742866E+04  0.15607742867E+04  0.50400001928E-02 0.  1.
    10030    2    1    2    0    0  0.00000000000E+00  0.00000000000E+00 -0.14303376763E+04  0.16912108971E+04  0.90240147948E+03 0.  0.
        5    1    3    3  502    0  0.40068797148E+02 -0.34707248707E+03 -0.12501813993E+04  0.12980910758E+04  0.46999998093E+01 0.  1.
       -5    1    3    3    0  502 -0.40068797148E+02  0.34707248707E+03 -0.18015627701E+03  0.39311982134E+03  0.46999998093E+01 0. -1.
</event>
<event>
 5   0  0.3943549E-03  0.8969699E+03  0.7818609E-02  0.9429377E-01
        1   -1    0    0  501    0  0.00000000000E+00  0.00000000000E+00  0.80381970078E+03  0.80381970080E+03  0.50400001928E-02 0.  1.
       -1   -1    0    0    0  501  0.00000000000E+00  0.00000000000E+00 -0.25022866972E+03  0.25022866977E+03  0.50400001928E-02 0. -1.
    10030    2    1    2    0    0  0.00000000000E+00  0.00000000000E+00  0.55359103106E+03  0.10540483706E+04  0.89696986451E+03 0.  0.
        3    1    3    3  502    0 -0.11718758869E+03 -0.39826068000E+03  0.47620021023E+03  0.63175244408E+03  0.10100000352E+00 0. -1.
       -3    1    3    3    0  502  0.11718758869E+03  0.39826068000E+03  0.77390820831E+02  0.42229592649E+03  0.10100000352E+00 0.  1.
</event>
<event>
 5   0  0.3794006E-03  0.8970748E+03  0.7818609E-02  0.9429245E-01
       -1   -1    0    0    0  501  0.00000000000E+00  0.00000000000E+00  0.54817910287E+03  0.54817910289E+03  0.50400001928E-02 0.  1.
        1   -1    0    0  501    0  0.00000000000E+00  0.00000000000E+00 -0.36700744682E+03  0.36700744685E+03  0.50400001928E-02 0. -1.
    10030    2    1    2    0    0  0.00000000000E+00  0.00000000000E+00  0.18117165605E+03  0.91518654975E+03  0.89707483070E+03 0.  0.
        5    1    3    3  502    0  0.50149408174E+02 -0.35017524406E+03 -0.19070928947E+03  0.40190768564E+03  0.46999998093E+01 0.  1.
       -5    1    3    3    0  502 -0.50149408174E+02  0.35017524406E+03  0.37188094553E+03  0.51327886410E+03  0.46999998093E+01 0. -1.
</event>
<event>
 5   0  0.3969536E-03  0.9002604E+03  0.7818609E-02  0.9425256E-01
        1   -1    0    0  501    0  0.00000000000E+00  0.00000000000E+00  0.32157559384E+03  0.32157559388E+03  0.50400001928E-02 0.  1.
       -1   -1    0    0    0  501  0.00000000000E+00  0.00000000000E+00 -0.63007642328E+03  0.63007642330E+03  0.50400001928E-02 0. -1.
    10030    2    1    2    0    0  0.00000000000E+00  0.00000000000E+00 -0.30850082944E+03  0.95165201718E+03  0.90026040680E+03 0.  0.
        1    1    3    3  502    0 -0.42284068873E+03  0.38269902907E+01 -0.31735804224E+03  0.52870125865E+03  0.50400001928E-02 0. -1.
       -1    1    3    3    0  502  0.42284068873E+03 -0.38269902907E+01  0.88572128014E+01  0.42295075853E+03  0.50400001928E-02 0.  1.
</event>
<event>
 5   0  0.6609191E-03  0.8987367E+03  0.7818609E-02  0.9427162E-01
       -2   -1    0    0    0  501  0.00000000000E+00  0.00000000000E+00  0.18665587966E+03  0.18665587968E+03  0.25500000920E-02 0.  1.
        2   -1    0    0  501    0  0.00000000000E+00  0.00000000000E+00 -0.10818407165E+04  0.10818407165E+04  0.25500000920E-02 0. -1.
    10030    2    1    2    0    0  0.00000000000E+00  0.00000000000E+00 -0.89518483686E+03  0.12684965962E+04  0.89873673701E+03 0.  0.
        2    1    3    3  502    0 -0.11331953309E+03  0.26387570845E+03  0.40237548535E+02  0.28998407958E+03  0.25500000920E-02 0.  1.
       -2    1    3    3    0  502  0.11331953309E+03 -0.26387570845E+03 -0.93542238539E+03  0.97851251663E+03  0.25500000920E-02 0. -1.
</event>
<event>
 5   0  0.6863405E-03  0.9017816E+03  0.7818609E-02  0.9423357E-01
       -2   -1    0    0    0  501  0.00000000000E+00  0.00000000000E+00  0.47356741811E+03  0.47356741812E+03  0.25500000920E-02 0.  1.
        2   -1    0    0  501    0  0.00000000000E+00  0.00000000000E+00 -0.42930000390E+03  0.42930000391E+03  0.25500000920E-02 0. -1.
    10030    2    1    2    0    0  0.00000000000E+00  0.00000000000E+00  0.44267414206E+02  0.90286742203E+03  0.90178155770E+03 0.  0.
        1    1    3    3  502    0  0.33892990478E+03  0.28986741492E+03 -0.44323141983E+02  0.44817534462E+03  0.50400001928E-02 0. -1.
       -1    1    3    3    0  502 -0.33892990478E+03 -0.28986741492E+03  0.88590556189E+02  0.45469207741E+03  0.50400001928E-02 0.  1.
</event>
<event>
 5   0  0.3794006E-03  0.9036173E+03  0.7818609E-02  0.9421071E-01
        1   -1    0    0  501    0  0.00000000000E+00  0.00000000000E+00  0.38422118288E+03  0.38422118291E+03  0.50400001928E-02 0. -1.
       -1   -1    0    0    0  501  0.00000000000E+00  0.00000000000E+00 -0.53128533083E+03  0.53128533085E+03  0.50400001928E-02 0.  1.
    10030    2    1    2    0    0  0.00000000000E+00  0.00000000000E+00 -0.14706414795E+03  0.91550651376E+03  0.90361734884E+03 0.  0.
        5    1    3    3  502    0 -0.90813702745E+02  0.42613726875E+03 -0.19455619595E+03  0.47719419926E+03  0.46999998093E+01 0.  1.
       -5    1    3    3    0  502  0.90813702745E+02 -0.42613726875E+03  0.47492048003E+02  0.43831231450E+03  0.46999998093E+01 0. -1.
</event>
<event>
 5   0  0.3927993E-03  0.8772924E+03  0.7818609E-02  0.9454421E-01
       -1   -1    0    0    0  501  0.00000000000E+00  0.00000000000E+00  0.78009846157E+03  0.78009846159E+03  0.50400001928E-02 0.  1.
        1   -1    0    0  501    0  0.00000000000E+00  0.00000000000E+00 -0.24664896804E+03  0.24664896809E+03  0.50400001928E-02 0. -1.
    10030    2    1    2    0    0  0.00000000000E+00  0.00000000000E+00  0.53344949353E+03  0.10267474297E+04  0.87729238124E+03 0.  0.
        2    1    3    3  502    0 -0.97932334959E+02 -0.30689787975E+03  0.61515675495E+03  0.69440253743E+03  0.25500000920E-02 0.  1.
       -2    1    3    3    0  502  0.97932334959E+02  0.30689787975E+03 -0.81707261417E+02  0.33234489224E+03  0.25500000920E-02 0. -1.
</event>
<event>
 5   0  0.3943549E-03  0.8778548E+03  0.7818609E-02  0.9453695E-01
       -1   -1    0    0    0  501  0.00000000000E+00  0.00000000000E+00  0.37832694356E+03  0.37832694359E+03  0.50400001928E-02 0.  1.
        1   -1    0    0  501    0  0.00000000000E+00  0.00000000000E+00 -0.50923488189E+03  0.50923488191E+03  0.50400001928E-02 0. -1.
    10030    2    1    2    0    0  0.00000000000E+00  0.00000000000E+00 -0.13090793833E+03  0.88756182550E+03  0.87785483183E+03 0.  0.
        3    1    3    3  502    0 -0.29860669854E+03  0.23095756626E+03  0.16096404808E+03  0.41038615085E+03  0.10100000352E+00 0.  1.
       -3    1    3    3    0  502  0.29860669854E+03 -0.23095756626E+03 -0.29187198642E+03  0.47717567466E+03  0.10100000352E+00 0. -1.
</event>
<event>
 5   0  0.6609191E-03  0.9090468E+03  0.7818609E-02  0.9414343E-01
       -2   -1    0    0    0  501  0.00000000000E+00  0.00000000000E+00  0.16693265459E+03  0.16693265461E+03  0.25500000920E-02 0. -1.
        2   -1    0    0  501    0  0.00000000000E+00  0.00000000000E+00 -0.12375739706E+04  0.12375739706E+04  0.25500000920E-02 0.  1.
    10030    2    1    2    0    0  0.00000000000E+00  0.00000000000E+00 -0.10706413160E+04  0.14045066252E+04  0.90904677146E+03 0.  0.
        2    1    3    3  502    0 -0.12878938244E+03  0.16702534168E+02 -0.12082985422E+04  0.12152576051E+04  0.25500000920E-02 0.  1.
       -2    1    3    3    0  502  0.12878938244E+03 -0.16702534168E+02  0.13765722620E+03  0.18924902009E+03  0.25500000920E-02 0. -1.
</event>
<event>
 5   0  0.6524705E-03  0.9191362E+03  0.7818609E-02  0.9401971E-01
       -2   -1    0    0    0  501  0.00000000000E+00  0.00000000000E+00  0.74339749830E+03  0.74339749831E+03  0.25500000920E-02 0. -1.
        2   -1    0    0  501    0  0.00000000000E+00  0.00000000000E+00 -0.28410486711E+03  0.28410486712E+03  0.25500000920E-02 0.  1.
    10030    2    1    2    0    0  0.00000000000E+00  0.00000000000E+00  0.45929263119E+03  0.10275023654E+04  0.91913621944E+03 0.  0.
        3    1    3    3  502    0 -0.20577143750E+03  0.40775282999E+03  0.17265991887E+03  0.48827831474E+03  0.10100000352E+00 0. -1.
       -3    1    3    3    0  502  0.20577143750E+03 -0.40775282999E+03  0.28663271233E+03  0.53922405068E+03  0.10100000352E+00 0.  1.
</event>
<event>
 5   0  0.3969536E-03  0.9034060E+03  0.7818609E-02  0.9421334E-01
       -1   -1    0    0    0  501  0.00000000000E+00  0.00000000000E+00  0.84666371405E+03  0.84666371406E+03  0.50400001928E-02 0.  1.
        1   -1    0    0  501    0  0.00000000000E+00  0.00000000000E+00 -0.24098776534E+03  0.24098776539E+03  0.50400001928E-02 0. -1.
    10030    2    1    2    0    0  0.00000000000E+00  0.00000000000E+00  0.60567594871E+03  0.10876514795E+04  0.90340599174E+03 0.  0.
        1    1    3    3  502    0 -0.21483942944E+03  0.99370154764E+02 -0.16033718355E+03  0.28589931891E+03  0.50400001928E-02 0. -1.
       -1    1    3    3    0  502  0.21483942944E+03 -0.99370154764E+02  0.76601313226E+03  0.80175216054E+03  0.50400001928E-02 0.  1.
</event>
<event>
 5   0  0.6609191E-03  0.9146372E+03  0.7818609E-02  0.9407467E-01
       -2   -1    0    0    0  501  0.00000000000E+00  0.00000000000E+00  0.12187795350E+03  0.12187795353E+03  0.25500000920E-02 0.  1.
        2   -1    0    0  501    0  0.00000000000E+00  0.00000000000E+00 -0.17159815499E+04  0.17159815499E+04  0.25500000920E-02 0. -1.
    10030    2    1    2    0    0  0.00000000000E+00  0.00000000000E+00 -0.15941035964E+04  0.18378595035E+04  0.91463723865E+03 0.  0.
        2    1    3    3  502    0  0.12239555600E+03  0.13410939304E+03 -0.16404539966E+04  0.16504712407E+04  0.25500000920E-02 0. -1.
       -2    1    3    3    0  502 -0.12239555600E+03 -0.13410939304E+03  0.46350400142E+02  0.18738826279E+03  0.25500000920E-02 0.  1.
</event>
<event>
 5   0  0.3998066E-03  0.8961947E+03  0.7818609E-02  0.9430351E-01
       -1   -1    0    0    0  501  0.00000000000E+00  0.00000000000E+00  0.50411737883E+03  0.50411737885E+03  0.50400001928E-02 0.  1.
        1   -1    0    0  501    0  0.00000000000E+00  0.00000000000E+00 -0.39830255004E+03  0.39830255007E+03  0.50400001928E-02 0. -1.
    10030    2    1    2    0    0  0.00000000000E+00  0.00000000000E+00  0.10581482879E+03  0.90241992892E+03  0.89619470548E+03 0.  0.
        4    1    3    3  502    0  0.44500981254E+03  0.48012634654E+02  0.74284063213E+02  0.45371652085E+03  0.12699999809E+01 0. -1.
       -4    1    3    3    0  502 -0.44500981254E+03 -0.48012634654E+02  0.31530765576E+02  0.44870340808E+03  0.12699999809E+01 0.  1.
</event>
<event>
 5   0  0.2560250E-03  0.8834888E+03  0.7818609E-02  0.9446460E-01
       -3   -1    0    0    0  501  0.00000000000E+00  0.00000000000E+00  0.46394142899E+03  0.46394143998E+03  0.10100000352E+00 0.  1.
        3   -1    0    0  501    0  0.00000000000E+00  0.00000000000E+00 -0.42060939402E+03  0.42060940614E+03  0.10100000352E+00 0. -1.
    10030    2    1    2    0    0  0.00000000000E+00  0.00000000000E+00  0.43332034970E+02  0.88455084612E+03  0.88348884210E+03 0.  0.
        3    1    3    3  502    0 -0.36461073544E+03  0.23531884723E+03 -0.61029727376E+02  0.43822435587E+03  0.10100000352E+00 0.  1.
       -3    1    3    3    0  502  0.36461073544E+03 -0.23531884723E+03  0.10436176235E+03  0.44632649025E+03  0.10100000352E+00 0. -1.
</event>
<event>
 5   0  0.3943549E-03  0.8987007E+03  0.7818609E-02  0.9427207E-01
       -1   -1    0    0    0  501  0.00000000000E+00  0.00000000000E+00  0.15912912310E+03  0.15912912318E+03  0.50400001928E-02 0. -1.
        1   -1    0    0  501    0  0.00000000000E+00  0.00000000000E+00 -0.12688797631E+04  0.12688797631E+04  0.50400001928E-02 0.  1.
    10030    2    1    2    0    0  0.00000000000E+00  0.00000000000E+00 -0.11097506400E+04  0.14280088863E+04  0.89870067116E+03 0.  0.
        3    1    3    3  502    0 -0.38983030466E+02 -0.26388003857E+03  0.19715765373E+02  0.26747163032E+03  0.10100000352E+00 0. -1.
       -3    1    3    3    0  502  0.38983030466E+02  0.26388003857E+03 -0.11294664054E+04  0.11605372560E+04  0.10100000352E+00 0.  1.
</event>
<event>
 5   0  0.6724773E-03  0.9160056E+03  0.7818609E-02  0.9405792E-01
        2   -1    0    0  501    0  0.00000000000E+00  0.00000000000E+00  0.81647833563E+03  0.81647833563E+03  0.25500000920E-02 0. -1.
       -2   -1    0    0    0  501  0.00000000000E+00  0.00000000000E+00 -0.25691627636E+03  0.25691627637E+03  0.25500000920E-02 0.  1.
    10030    2    1    2    0    0  0.00000000000E+00  0.00000000000E+00  0.55956205927E+03  0.10733946120E+04  0.91600561947E+03 0.  0.
        5    1    3    3  502    0 -0.14379033208E+00  0.33888799707E+03  0.64076920810E+03  0.72488093041E+03  0.46999998093E+01 0. -1.
       -5    1    3    3    0  502  0.14379033208E+00 -0.33888799707E+03 -0.81207148832E+02  0.34851368159E+03  0.46999998093E+01 0.  1.
</event>
<event>
 5   0  0.6609191E-03  0.9036484E+03  0.7818609E-02  0.9421032E-01
       -2   -1    0    0    0  501  0.00000000000E+00  0.00000000000E+00  0.12704244005E+03  0.12704244008E+03  0.25500000920E-02 0. -1.
        2   -1    0    0  501    0  0.00000000000E+00  0.00000000000E+00 -0.16069048169E+04  0.16069048169E+04  0.25500000920E-02 0.  1.
    10030    2    1    2    0    0  0.00000000000E+00  0.00000000000E+00 -0.14798623768E+04  0.17339472569E+04  0.90364840263E+03 0.  0.
        2    1    3    3  502    0 -0.76283630897E+02 -0.42254260537E+02  0.11074136254E+03  0.14095483056E+03  0.25500000920E-02 0. -1.
       -2    1    3    3    0  502  0.76283630897E+02  0.42254260537E+02 -0.15906037393E+04  0.15929924264E+04  0.25500000920E-02 0.  1.
</event>
<event>
 5   0  0.2560250E-03  0.9104158E+03  0.7818609E-02  0.9412654E-01
        3   -1    0    0  501    0  0.00000000000E+00  0.00000000000E+00  0.17437316288E+03  0.17437319213E+03  0.10100000352E+00 0. -1.
       -3   -1    0    0    0  501  0.00000000000E+00  0.00000000000E+00 -0.11883378484E+04  0.11883378527E+04  0.10100000352E+00 0.  1.
    10030    2    1    2    0    0  0.00000000000E+00  0.00000000000E+00 -0.10139646855E+04  0.13627110448E+04  0.91041584356E+03 0.  0.
        4    1    3    3  502    0 -0.39469127009E+01 -0.41542813050E+03 -0.22849482697E+03  0.47413880729E+03  0.12699999809E+01 0. -1.
       -4    1    3    3    0  502  0.39469127009E+01  0.41542813050E+03 -0.78546985853E+03  0.88857223752E+03  0.12699999809E+01 0.  1.
</event>
<event>
 5   0  0.3794006E-03  0.9000046E+03  0.7818609E-02  0.9425576E-01
       -1   -1    0    0    0  501  0.00000000000E+00  0.00000000000E+00  0.10795220758E+04  0.10795220758E+04  0.50400001928E-02 0.  1.
        1   -1    0    0  501    0  0.00000000000E+00  0.00000000000E+00 -0.18758491564E+03  0.18758491570E+03  0.50400001928E-02 0. -1.
    10030    2    1    2    0    0  0.00000000000E+00  0.00000000000E+00  0.89193716018E+03  0.12671069915E+04  0.90000457237E+03 0.  0.
        5    1    3    3  502    0 -0.17391773682E+03 -0.28008426646E+03  0.14810856213E+02  0.33005458179E+03  0.46999998093E+01 0. -1.
       -5    1    3    3    0  502  0.17391773682E+03  0.28008426646E+03  0.87712630397E+03  0.93705240975E+03  0.46999998093E+01 0.  1.
</event>
<event>
 5   0  0.3927993E-03  0.9100707E+03  0.7818609E-02  0.9413079E-01
        1   -1    0    0  501    0  0.00000000000E+00  0.00000000000E+00  0.77408942930E+03  0.77408942931E+03  0.50400001928E-02 0. -1.
       -1   -1    0    0    0  501  0.00000000000E+00  0.00000000000E+00 -0.26748481527E+03  0.26748481531E+03  0.50400001928E-02 0.  1.
    10030    2    1    2    0    0  0.00000000000E+00  0.00000000000E+00  0.50660461403E+03  0.10415742446E+04  0.91007069622E+03 0.  0.
        2    1    3    3  502    0 -0.29579927888E+03  0.29480420480E+03  0.46010661948E+03  0.62137334498E+03  0.25500000920E-02 0. -1.
       -2    1    3    3    0  502  0.29579927888E+03 -0.29480420480E+03  0.46497994546E+02  0.42020089964E+03  0.25500000920E-02 0.  1.
</event>
<event>
 5   0  0.3969536E-03  0.9015253E+03  0.7818609E-02  0.9423677E-01
       -1   -1    0    0    0  501  0.00000000000E+00  0.00000000000E+00  0.35251767451E+03  0.35251767455E+03  0.50400001928E-02 0. -1.
        1   -1    0    0  501    0  0.00000000000E+00  0.00000000000E+00 -0.57638802034E+03  0.57638802036E+03  0.50400001928E-02 0.  1.
    10030    2    1    2    0    0  0.00000000000E+00  0.00000000000E+00 -0.22387034583E+03  0.92890569490E+03  0.90152529542E+03 0.  0.
        1    1    3    3  502    0 -0.83260298373E+01  0.23093581106E+03 -0.51071184512E+03  0.56055977413E+03  0.50400001928E-02 0.  1.
       -1    1    3    3    0  502  0.83260298373E+01 -0.23093581106E+03  0.28684149930E+03  0.36834592077E+03  0.50400001928E-02 0. -1.
</event>
<event>
 5   0  0.6609191E-03  0.9010395E+03  0.7818609E-02  0.9424283E-01
        2   -1    0    0  501    0  0.00000000000E+00  0.00000000000E+00  0.69972145859E+03  0.69972145859E+03  0.25500000920E-02 0.  1.
       -2   -1    0    0    0  501  0.00000000000E+00  0.00000000000E+00 -0.29006977523E+03  0.29006977525E+03  0.25500000920E-02 0. -1.
    10030    2    1    2    0    0  0.00000000000E+00  0.00000000000E+00  0.40965168335E+03  0.98979123384E+03  0.90103950241E+03 0.  0.
        2    1    3    3  502    0 -0.13600582354E+03 -0.18860760191E+03  0.62870656940E+03  0.67033003957E+03  0.25500000920E-02 0.  1.
       -2    1    3    3    0  502  0.13600582354E+03  0.18860760191E+03 -0.21905488605E+03  0.31946119427E+03  0.25500000920E-02 0. -1.
</event>
<event>
 5   0  0.3969536E-03  0.9014202E+03  0.7818609E-02  0.9423808E-01
       -1   -1    0    0    0  501  0.00000000000E+00  0.00000000000E+00  0.31236387133E+03  0.31236387137E+03  0.50400001928E-02 0. -1.
        1   -1    0    0  501    0  0.00000000000E+00  0.00000000000E+00 -0.65032993669E+03  0.65032993671E+03  0.50400001928E-02 0.  1.
    10030    2    1    2    0    0  0.00000000000E+00  0.00000000000E+00 -0.33796606536E+03  0.96269380808E+03  0.90142016107E+03 0.  0.
        1    1    3    3  502    0  0.28188680535E+03 -0.28230627103E+03  0.54992839859E+02  0.40271728812E+03  0.50400001928E-02 0. -1.
       -1    1    3    3    0  502 -0.28188680535E+03  0.28230627103E+03 -0.39295890522E+03  0.55997651996E+03  0.50400001928E-02 0.  1.
</event>
<event>
 5   0  0.2560250E-03  0.9047166E+03  0.7818609E-02  0.9419705E-01
       -4   -1    0    0    0  501  0.00000000000E+00  0.00000000000E+00  0.54034141562E+03  0.54034290810E+03  0.12699999809E+01 0.  1.
        4   -1    0    0  501    0  0.00000000000E+00  0.00000000000E+00 -0.37869827487E+03  0.37870040439E+03  0.12699999809E+01 0. -1.
    10030    2    1    2    0    0  0.00000000000E+00  0.00000000000E+00  0.16164314075E+03  0.91904331249E+03  0.90471658838E+03 0.  0.
        2    1    3    3  502    0 -0.22445120839E+03 -0.37652302858E+03 -0.32661816850E+02  0.43956197547E+03  0.25500000920E-02 0.  1.
       -2    1    3    3    0  502  0.22445120839E+03  0.37652302858E+03  0.19430495760E+03  0.47948133702E+03  0.25500000920E-02 0. -1.
</event>
<event>
 5   0  0.3943549E-03  0.8985461E+03  0.7818609E-02  0.9427401E-01
        1   -1    0    0  501    0  0.00000000000E+00  0.00000000000E+00  0.59858421687E+03  0.59858421689E+03  0.50400001928E-02 0. -1.
       -1   -1    0    0    0  501  0.00000000000E+00  0.00000000000E+00 -0.33720614790E+03  0.33720614794E+03  0.50400001928E-02 0.  1.
    10030    2    1    2    0    0  0.00000000000E+00  0.00000000000E+00  0.26137806896E+03  0.93579036483E+03  0.89854611009E+03 0.  0.
        3    1    3    3  502    0 -0.44210870697E+01 -0.29552389842E+02 -0.33617009552E+03  0.33749553046E+03  0.10100000352E+00 0.  1.
       -3    1    3    3    0  502  0.44210870697E+01  0.29552389842E+02  0.59754816448E+03  0.59829483437E+03  0.10100000352E+00 0. -1.
</event>
<event>
 5   0  0.2560250E-03  0.9003331E+03  0.7818609E-02  0.9425165E-01
        3   -1    0    0  501    0  0.00000000000E+00  0.00000000000E+00  0.24465603646E+03  0.24465605731E+03  0.10100000352E+00 0.  1.
       -3   -1    0    0    0  501  0.00000000000E+00  0.00000000000E+00 -0.82830534097E+03  0.82830534713E+03  0.10100000352E+00 0. -1.
    10030    2    1    2    0    0  0.00000000000E+00  0.00000000000E+00 -0.58364930451E+03  0.10729614044E+04  0.90033308544E+03 0.  0.
        2    1    3    3  502    0 -0.94499158345E+02 -0.43363891478E+03 -0.20203117159E+03  0.48763653846E+03  0.25500000920E-02 0.  1.
       -2    1    3    3    0  502  0.94499158345E+02  0.43363891478E+03 -0.38161813292E+03  0.58532486597E+03  0.25500000920E-02 0. -1.
</event>
<event>
 5   0  0.3794006E-03  0.8984430E+03  0.7818609E-02  0.9427530E-01
        1   -1    0    0  501    0  0.00000000000E+00  0.00000000000E+00  0.64887488540E+03  0.64887488542E+03  0.50400001928E-02 0.  1.
       -1   -1    0    0    0  501  0.00000000000E+00  0.00000000000E+00 -0.31099976498E+03  0.31099976502E+03  0.50400001928E-02 0. -1.
    10030    2    1    2    0    0  0.00000000000E+00  0.00000000000E+00  0.33787512043E+03  0.95987465044E+03  0.89844295732E+03 0.  0.
        5    1    3    3  502    0 -0.13362896140E+03 -0.16064494110E+03  0.59376216092E+03  0.62947524984E+03  0.46999998093E+01 0.  1.
       -5    1    3    3    0  502  0.13362896140E+03  0.16064494110E+03 -0.25588704049E+03  0.33039940060E+03  0.46999998093E+01 0. -1.
</event>
<event>
 5   0  0.6609191E-03  0.9065389E+03  0.7818609E-02  0.9417444E-01
        2   -1    0    0  501    0  0.00000000000E+00  0.00000000000E+00  0.12003043834E+04  0.12003043834E+04  0.25500000920E-02 0. -1.
       -2   -1    0    0    0  501  0.00000000000E+00  0.00000000000E+00 -0.17116756273E+03  0.17116756275E+03  0.25500000920E-02 0.  1.
    10030    2    1    2    0    0  0.00000000000E+00  0.00000000000E+00  0.10291368206E+04  0.13714719461E+04  0.90653885929E+03 0.  0.
        2    1    3    3  502    0 -0.89143160656E+02 -0.26019192019E+03 -0.30497834737E+02  0.27672451347E+03  0.25500000920E-02 0.  1.
       -2    1    3    3    0  502  0.89143160656E+02  0.26019192019E+03  0.10596346554E+04  0.10947474326E+04  0.25500000920E-02 0. -1.
</event>
<event>
 5   0  0.2560250E-03  0.9030512E+03  0.7818609E-02  0.9421775E-01
        3   -1    0    0  501    0  0.00000000000E+00  0.00000000000E+00  0.30076238510E+03  0.30076240205E+03  0.10100000352E+00 0.  1.
       -3   -1    0    0    0  501  0.00000000000E+00  0.00000000000E+00 -0.67786193568E+03  0.67786194321E+03  0.10100000352E+00 0. -1.
    10030    2    1    2    0    0  0.00000000000E+00  0.00000000000E+00 -0.37709955059E+03  0.97862434526E+03  0.90305123780E+03 0.  0.
        4    1    3    3  502    0 -0.25624724429E+03  0.29576592824E+03  0.55541143604E+02  0.39525506454E+03  0.12699999809E+01 0.  1.
       -4    1    3    3    0  502  0.25624724429E+03 -0.29576592824E+03 -0.43264069419E+03  0.58336928072E+03  0.12699999809E+01 0. -1.
</event>
<event>
 5   0  0.3969536E-03  0.8929995E+03  0.7818609E-02  0.9434375E-01
       -1   -1    0    0    0  501  0.00000000000E+00  0.00000000000E+00  0.32475287714E+03  0.32475287718E+03  0.50400001928E-02 0.  1.
        1   -1    0    0  501    0  0.00000000000E+00  0.00000000000E+00 -0.61388842628E+03  0.61388842630E+03  0.50400001928E-02 0. -1.
    10030    2    1    2    0    0  0.00000000000E+00  0.00000000000E+00 -0.28913554914E+03  0.93864130348E+03  0.89299951333E+03 0.  0.
        1    1    3    3  502    0  0.17334981733E+03  0.38869871241E+03 -0.28646843121E+03  0.51303119817E+03  0.50400001928E-02 0. -1.
       -1    1    3    3    0  502 -0.17334981733E+03 -0.38869871241E+03 -0.26671179369E+01  0.42561010531E+03  0.50400001928E-02 0.  1.
</event>
<event>
 5   0  0.6609191E-03  0.9024104E+03  0.7818609E-02  0.9422573E-01
        2   -1    0    0  501    0  0.00000000000E+00  0.00000000000E+00  0.21175492748E+04  0.21175492748E+04  0.25500000920E-02 0. -1.
       -2   -1    0    0    0  501  0.00000000000E+00  0.00000000000E+00 -0.96142330176E+02  0.96142330210E+02  0.25500000920E-02 0.  1.
    10030    2    1    2    0    0  0.00000000000E+00  0.00000000000E+00  0.20214069446E+04  0.22136916050E+04  0.90241037578E+03 0.  0.
        2    1    3    3  502    0 -0.43666121587E+02 -0.14714454264E+03  0.20515409355E+04  0.20572745214E+04  0.25500000920E-02 0. -1.
       -2    1    3    3    0  502  0.43666121587E+02  0.14714454264E+03 -0.30133990906E+02  0.15641708352E+03  0.25500000920E-02 0.  1.
</event>
<event>
 5   0  0.3927993E-03  0.8970092E+03  0.7818609E-02  0.9429328E-01
       -1   -1    0    0    0  501  0.00000000000E+00  0.00000000000E+00  0.29241700741E+03  0.29241700746E+03  0.50400001928E-02 0.  1.
        1   -1    0    0  501    0  0.00000000000E+00  0.00000000000E+00 -0.68790926321E+03  0.68790926323E+03  0.50400001928E-02 0. -1.
    10030    2    1    2    0    0  0.00000000000E+00  0.00000000000E+00 -0.39549225579E+03  0.98032627068E+03  0.89700918200E+03 0.  0.
        2    1    3    3  502    0  0.23891118532E+03  0.72950834080E+02  0.20935248418E+03  0.32592766269E+03  0.25500000920E-02 0.  1.
       -2    1    3    3    0  502 -0.23891118532E+03 -0.72950834080E+02 -0.60484473998E+03  0.65439860800E+03  0.25500000920E-02 0. -1.
</event>
<event>
 5   0  0.3927993E-03  0.9036594E+03  0.7818609E-02  0.9421019E-01
       -1   -1    0    0    0  501  0.00000000000E+00  0.00000000000E+00  0.13439646112E+03  0.13439646122E+03  0.50400001928E-02 0.  1.
        1   -1    0    0  501    0  0.00000000000E+00  0.00000000000E+00 -0.15190136398E+04  0.15190136398E+04  0.50400001928E-02 0. -1.
    10030    2    1    2    0    0  0.00000000000E+00  0.00000000000E+00 -0.13846171787E+04  0.16534101011E+04  0.90365935545E+03 0.  0.
        2    1    3    3  502    0 -0.25875555736E+03 -0.87676390654E+02 -0.33855373249E+02  0.27529579410E+03  0.25500000920E-02 0.  1.
       -2    1    3    3    0  502  0.25875555736E+03  0.87676390654E+02 -0.13507618055E+04  0.13781143070E+04  0.25500000920E-02 0. -1.
</event>
<event>
 5   0  0.3998066E-03  0.9002587E+03  0.7818609E-02  0.9425258E-01
       -1   -1    0    0    0  501  0.00000000000E+00  0.00000000000E+00  0.28217704755E+03  0.28217704759E+03  0.50400001928E-02 0.  1.
        1   -1    0    0  501    0  0.00000000000E+00  0.00000000000E+00 -0.71804714882E+03  0.71804714884E+03  0.50400001928E-02 0. -1.
    10030    2    1    2    0    0  0.00000000000E+00  0.00000000000E+00 -0.43587010127E+03  0.10002241964E+04  0.90025868391E+03 0.  0.
        4    1    3    3  502    0 -0.38952953042E+03 -0.20560225235E+03 -0.32102426024E+03  0.54503553078E+03  0.12699999809E+01 0.  1.
       -4    1    3    3    0  502  0.38952953042E+03  0.20560225235E+03 -0.11484584103E+03  0.45518866566E+03  0.12699999809E+01 0. -1.
</event>
<event>
 5   0  0.3998066E-03  0.8878237E+03  0.7818609E-02  0.9440932E-01
        1   -1    0    0  501    0  0.00000000000E+00  0.00000000000E+00  0.52006994079E+03  0.52006994082E+03  0.50400001928E-02 0.  1.
       -1   -1    0    0    0  501  0.00000000000E+00  0.00000000000E+00 -0.37890620483E+03  0.37890620486E+03  0.50400001928E-02 0. -1.
    10030    2    1    2    0    0  0.00000000000E+00  0.00000000000E+00  0.14116373597E+03  0.89897614568E+03  0.88782369316E+03 0.  0.
        4    1    3    3  502    0  0.30071798376E+03  0.25181017686E+03 -0.13991515110E+03  0.41643430854E+03  0.12699999809E+01 0. -1.
       -4    1    3    3    0  502 -0.30071798376E+03 -0.25181017686E+03  0.28107888707E+03  0.48254183713E+03  0.12699999809E+01 0.  1.
</event>
<event>
 5   0  0.3794006E-03  0.9069190E+03  0.7818609E-02  0.9416973E-01
        1   -1    0    0  501    0  0.00000000000E+00  0.00000000000E+00  0.87272466156E+03  0.87272466157E+03  0.50400001928E-02 0.  1.
       -1   -1    0    0    0  501  0.00000000000E+00  0.00000000000E+00 -0.23561327995E+03  0.23561328000E+03  0.50400001928E-02 0. -1.
    10030    2    1    2    0    0  0.00000000000E+00  0.00000000000E+00  0.63711138161E+03  0.11083379416E+04  0.90691900419E+03 0.  0.
        5    1    3    3  502    0  0.45155555376E+02  0.32577148927E+03  0.70003098244E+03  0.77345429974E+03  0.46999998093E+01 0.  1.
       -5    1    3    3    0  502 -0.45155555376E+02 -0.32577148927E+03 -0.62919600829E+02  0.33488364184E+03  0.46999998093E+01 0. -1.
</event>
<event>
 5   0  0.3943549E-03  0.9136800E+03  0.7818609E-02  0.9408641E-01
       -1   -1    0    0    0  501  0.00000000000E+00  0.00000000000E+00  0.59137250072E+03  0.59137250075E+03  0.50400001928E-02 0.  1.
        1   -1    0    0  501    0  0.00000000000E+00  0.00000000000E+00 -0.35291256376E+03  0.35291256380E+03  0.50400001928E-02 0. -1.
    10030    2    1    2    0    0  0.00000000000E+00  0.00000000000E+00  0.23845993696E+03  0.94428506454E+03  0.91367999955E+03 0.  0.
        3    1    3    3  502    0  0.92989889883E+02  0.23724712308E+03  0.51110024226E+03  0.57110137880E+03  0.10100000352E+00 0.  1.
       -3    1    3    3    0  502 -0.92989889883E+02 -0.23724712308E+03 -0.27264030530E+03  0.37318368574E+03  0.10100000352E+00 0. -1.
</event>
<event>
 5   0  0.6724773E-03  0.9060583E+03  0.7818609E-02  0.9418040E-01
       -2   -1    0    0    0  501  0.00000000000E+00  0.00000000000E+00  0.15511081285E+03  0.15511081287E+03  0.25500000920E-02 0.  1.
        2   -1    0    0  501    0  0.00000000000E+00  0.00000000000E+00 -0.13231536039E+04  0.13231536040E+04  0.25500000920E-02 0. -1.
    10030    2    1    2    0    0  0.00000000000E+00  0.00000000000E+00 -0.11680427911E+04  0.14782644168E+04  0.90605834481E+03 0.  0.
        5    1    3    3  502    0 -0.15583605828E+03 -0.34033017952E+03 -0.10003145194E+04  0.10680640130E+04  0.46999998093E+01 0. -1.
       -5    1    3    3    0  502  0.15583605828E+03  0.34033017952E+03 -0.16772827167E+03  0.41020040379E+03  0.46999998093E+01 0.  1.
</event>
<event>
 5   0  0.3794006E-03  0.9076797E+03  0.7818609E-02  0.9416032E-01
        1   -1    0    0  501    0  0.00000000000E+00  0.00000000000E+00  0.76769903706E+03  0.76769903707E+03  0.50400001928E-02 0.  1.
       -1   -1    0    0    0  501  0.00000000000E+00  0.00000000000E+00 -0.26829603990E+03  0.26829603995E+03  0.50400001928E-02 0. -1.
    10030    2    1    2    0    0  0.00000000000E+00  0.00000000000E+00  0.49940299715E+03  0.10359950770E+04  0.90767970455E+03 0.  0.
        5    1    3    3  502    0  0.84995125800E+02  0.11916621293E+02  0.75832378216E+03  0.76317968124E+03  0.46999998093E+01 0.  1.
       -5    1    3    3    0  502 -0.84995125800E+02 -0.11916621293E+02 -0.25892078500E+03  0.27281539578E+03  0.46999998093E+01 0. -1.
</event>
<event>
 5   0  0.6863405E-03  0.8997712E+03  0.7818609E-02  0.9425867E-01
        2   -1    0    0  501    0  0.00000000000E+00  0.00000000000E+00  0.54570795055E+03  0.54570795056E+03  0.25500000920E-02 0.  1.
       -2   -1    0    0    0  501  0.00000000000E+00  0.00000000000E+00 -0.37088899333E+03  0.37088899334E+03  0.25500000920E-02 0. -1.
    10030    2    1    2    0    0  0.00000000000E+00  0.00000000000E+00  0.17481895723E+03  0.91659694389E+03  0.89977124301E+03 0.  0.
        1    1    3    3  502    0 -0.34647377123E+03  0.20276845792E+03  0.29427820171E+03  0.49775373600E+03  0.50400001928E-02 0.  1.
       -1    1    3    3    0  502  0.34647377123E+03 -0.20276845792E+03 -0.11945924449E+03  0.41884320789E+03  0.50400001928E-02 0. -1.
</event>
<event>
 5   0  0.3943549E-03  0.9213065E+03  0.7818609E-02  0.9399332E-01
        1   -1    0    0  501    0  0.00000000000E+00  0.00000000000E+00  0.43363211928E+03  0.43363211931E+03  0.50400001928E-02 0.  1.
       -1   -1    0    0    0  501  0.00000000000E+00  0.00000000000E+00 -0.48935817381E+03  0.48935817383E+03  0.50400001928E-02 0. -1.
    10030    2    1    2    0    0  0.00000000000E+00  0.00000000000E+00 -0.55726054526E+02  0.92299029314E+03  0.92130651147E+03 0.  0.
        3    1    3    3  502    0 -0.80898004230E+01  0.22853088617E+03 -0.42848084684E+03  0.48568267121E+03  0.10100000352E+00 0. -1.
       -3    1    3    3    0  502  0.80898004230E+01 -0.22853088617E+03  0.37275479232E+03  0.43730762193E+03  0.10100000352E+00 0.  1.
</event>
<event>
 5   0  0.3927993E-03  0.8941650E+03  0.7818609E-02  0.9432905E-01
       -1   -1    0    0    0  501  0.00000000000E+00  0.00000000000E+00  0.16400957313E+03  0.16400957321E+03  0.50400001928E-02 0.  1.
        1   -1    0    0  501    0  0.00000000000E+00  0.00000000000E+00 -0.12187262516E+04  0.12187262517E+04  0.50400001928E-02 0. -1.
    10030    2    1    2    0    0  0.00000000000E+00  0.00000000000E+00 -0.10547166785E+04  0.13827358249E+04  0.89416502359E+03 0.  0.
        2    1    3    3  502    0  0.44505466043E+03  0.72638220139E+01 -0.59216626429E+03  0.74080179430E+03  0.25500000920E-02 0.  1.
       -2    1    3    3    0  502 -0.44505466043E+03 -0.72638220139E+01 -0.46255041422E+03  0.64193403055E+03  0.25500000920E-02 0. -1.
</event>
<event>
 5   0  0.2560250E-03  0.8863279E+03  0.7818609E-02  0.9442835E-01
       -3   -1    0    0    0  501  0.00000000000E+00  0.00000000000E+00  0.52636087692E+03  0.52636088661E+03  0.10100000352E+00 0.  1.
        3   -1    0    0  501    0  0.00000000000E+00  0.00000000000E+00 -0.37311713166E+03  0.37311714533E+03  0.10100000352E+00 0. -1.
    10030    2    1    2    0    0  0.00000000000E+00  0.00000000000E+00  0.15324374526E+03  0.89947803194E+03  0.88632786512E+03 0.  0.
        5    1    3    3  502    0  0.15609233452E+03 -0.34803972682E+03  0.30552483394E+03  0.48873713026E+03  0.46999998093E+01 0.  1.
       -5    1    3    3    0  502 -0.15609233452E+03  0.34803972682E+03 -0.15228108869E+03  0.41074090168E+03  0.46999998093E+01 0. -1.
</event>
<event>
 5   0  0.6863405E-03  0.8996382E+03  0.7818609E-02  0.9426034E-01
       -2   -1    0    0    0  501  0.00000000000E+00  0.00000000000E+00  0.15329540786E+04  0.15329540786E+04  0.25500000920E-02 0.  1.
        2   -1    0    0  501    0  0.00000000000E+00  0.00000000000E+00 -0.13199170291E+03  0.13199170294E+03  0.25500000920E-02 0. -1.
    10030    2    1    2    0    0  0.00000000000E+00  0.00000000000E+00  0.14009623757E+04  0.16649457816E+04  0.89963819248E+03 0.  0.
        1    1    3    3  502    0 -0.40471064125E+02 -0.10127704970E+03  0.15081138746E+04  0.15120523822E+04  0.50400001928E-02 0.  1.
       -1    1    3    3    0  502  0.40471064125E+02  0.10127704970E+03 -0.10715149887E+03  0.15289339934E+03  0.50400001928E-02 0. -1.
</event>
<event>
 5   0  0.6524705E-03  0.8955597E+03  0.7818609E-02  0.9431149E-01
       -2   -1    0    0    0  501  0.00000000000E+00  0.00000000000E+00  0.14417230098E+03  0.14417230101E+03  0.25500000920E-02 0. -1.
        2   -1    0    0  501    0  0.00000000000E+00  0.00000000000E+00 -0.13907442067E+04  0.13907442067E+04  0.25500000920E-02 0.  1.
    10030    2    1    2    0    0  0.00000000000E+00  0.00000000000E+00 -0.12465719057E+04  0.15349165077E+04  0.89555969623E+03 0.  0.
        3    1    3    3  502    0 -0.32428726020E+03 -0.18368906377E+03 -0.19789256520E+03  0.42197793406E+03  0.10100000352E+00 0. -1.
       -3    1    3    3    0  502  0.32428726020E+03  0.18368906377E+03 -0.10486793405E+04  0.11129385736E+04  0.10100000352E+00 0.  1.
</event>
<event>
 5   0  0.6863405E-03  0.8957170E+03  0.7818609E-02  0.9430951E-01
        2   -1    0    0  501    0  0.00000000000E+00  0.00000000000E+00  0.73355909491E+03  0.73355909491E+03  0.25500000920E-02 0.  1.
       -2   -1    0    0    0  501  0.00000000000E+00  0.00000000000E+00 -0.27343022407E+03  0.27343022408E+03  0.25500000920E-02 0. -1.
    10030    2    1    2    0    0  0.00000000000E+00  0.00000000000E+00  0.46012887084E+03  0.10069893190E+04  0.89571698141E+03 0.  0.
        1    1    3    3  502    0  0.30063350793E+03  0.22915037836E+03  0.50008222463E+03  0.62687529334E+03  0.50400001928E-02 0.  1.
       -1    1    3    3    0  502 -0.30063350793E+03 -0.22915037836E+03 -0.39953353791E+02  0.38011402565E+03  0.50400001928E-02 0. -1.
</event>
<event>
 5   0  0.6524705E-03  0.8871708E+03  0.7818609E-02  0.9441762E-01
       -2   -1    0    0    0  501  0.00000000000E+00  0.00000000000E+00  0.27053387027E+03  0.27053387029E+03  0.25500000920E-02 0.  1.
        2   -1    0    0  501    0  0.00000000000E+00  0.00000000000E+00 -0.72733218754E+03  0.72733218754E+03  0.25500000920E-02 0. -1.
    10030    2    1    2    0    0  0.00000000000E+00  0.00000000000E+00 -0.45679831726E+03  0.99786605783E+03  0.88717076525E+03 0.  0.
        3    1    3    3  502    0  0.29221807395E+03  0.17867942702E+03  0.88639803780E+02  0.35380045987E+03  0.10100000352E+00 0.  1.
       -3    1    3    3    0  502 -0.29221807395E+03 -0.17867942702E+03 -0.54543812104E+03  0.64406559796E+03  0.10100000352E+00 0. -1.
</event>
<event>
 5   0  0.6609191E-03  0.9089215E+03  0.7818609E-02  0.9414497E-01
        2   -1    0    0  501    0  0.00000000000E+00  0.00000000000E+00  0.82478158241E+03  0.82478158241E+03  0.25500000920E-02 0.  1.
       -2   -1    0    0    0  501  0.00000000000E+00  0.00000000000E+00 -0.25041122942E+03  0.25041122943E+03  0.25500000920E-02 0. -1.
    10030    2    1    2    0    0  0.00000000000E+00  0.00000000000E+00  0.57437035299E+03  0.10751928118E+04  0.90892149289E+03 0.  0.
        2    1    3    3  502    0 -0.27634340166E+03 -0.74981658484E+02 -0.13028551977E+03  0.31458264640E+03  0.25500000920E-02 0. -1.
       -2    1    3    3    0  502  0.27634340166E+03  0.74981658484E+02  0.70465587275E+03  0.76061016544E+03  0.25500000920E-02 0.  1.
</event>
<event>
 5   0  0.6863405E-03  0.9034052E+03  0.7818609E-02  0.9421335E-01
        2   -1    0    0  501    0  0.00000000000E+00  0.00000000000E+00  0.12576606928E+04  0.12576606928E+04  0.25500000920E-02 0.  1.
       -2   -1    0    0    0  501  0.00000000000E+00  0.00000000000E+00 -0.16223392180E+03  0.16223392182E+03  0.25500000920E-02 0. -1.
    10030    2    1    2    0    0  0.00000000000E+00  0.00000000000E+00  0.10954267710E+04  0.14198946146E+04  0.90340517266E+03 0.  0.
        1    1    3    3  502    0  0.18665908963E+03 -0.33010046940E+03  0.16199512181E+03  0.41237162264E+03  0.50400001928E-02 0. -1.
       -1    1    3    3    0  502 -0.18665908963E+03  0.33010046940E+03  0.93343164916E+03  0.10075229920E+04  0.50400001928E-02 0.  1.
</event>
<event>
 5   0  0.3794006E-03  0.8853085E+03  0.7818609E-02  0.9444135E-01
        1   -1    0    0  501    0  0.00000000000E+00  0.00000000000E+00  0.23680095291E+03  0.23680095296E+03  0.50400001928E-02 0.  1.
       -1   -1    0    0    0  501  0.00000000000E+00  0.00000000000E+00 -0.82745770518E+03  0.82745770520E+03  0.50400001928E-02 0. -1.
    10030    2    1    2    0    0  0.00000000000E+00  0.00000000000E+00 -0.59065675227E+03  0.10642586582E+04  0.88530847306E+03 0.  0.
        5    1    3    3  502    0 -0.17422777832E+03  0.19471315066E+03 -0.72483181349E+03  0.77050099132E+03  0.46999998093E+01 0. -1.
       -5    1    3    3    0  502  0.17422777832E+03 -0.19471315066E+03  0.13417506121E+03  0.29375766685E+03  0.46999998093E+01 0.  1.
</event>
<event>
 5   0  0.3794006E-03  0.8995254E+03  0.7818609E-02  0.9426175E-01
       -1   -1    0    0    0  501  0.00000000000E+00  0.00000000000E+00  0.14615450245E+03  0.14615450254E+03  0.50400001928E-02 0.  1.
        1   -1    0    0  501    0  0.00000000000E+00  0.00000000000E+00 -0.13840591893E+04  0.13840591893E+04  0.50400001928E-02 0. -1.
    10030    2    1    2    0    0  0.00000000000E+00  0.00000000000E+00 -0.12379046868E+04  0.15302136918E+04  0.89952539097E+03 0.  0.
        5    1    3    3  502    0 -0.85106203242E+02 -0.38401279150E+03 -0.24798212661E+03  0.46500119890E+03  0.46999998093E+01 0.  1.
       -5    1    3    3    0  502  0.85106203242E+02  0.38401279150E+03 -0.98992256023E+03  0.10652124929E+04  0.46999998093E+01 0. -1.
</event>
<event>
 5   0  0.6609191E-03  0.8979454E+03  0.7818609E-02  0.9428153E-01
       -2   -1    0    0    0  501  0.00000000000E+00  0.00000000000E+00  0.13036850016E+03  0.13036850018E+03  0.25500000920E-02 0.  1.
        2   -1    0    0  501    0  0.00000000000E+00  0.00000000000E+00 -0.15462055511E+04  0.15462055511E+04  0.25500000920E-02 0. -1.
    10030    2    1    2    0    0  0.00000000000E+00  0.00000000000E+00 -0.14158370510E+04  0.16765740513E+04  0.89794542964E+03 0.  0.
        2    1    3    3  502    0 -0.23504476797E+03  0.22138773306E+02 -0.14209547856E+04  0.14404335011E+04  0.25500000920E-02 0. -1.
       -2    1    3    3    0  502  0.23504476797E+03 -0.22138773306E+02  0.51177346889E+01  0.23614055020E+03  0.25500000920E-02 0.  1.
</event>
<event>
 5   0  0.3943549E-03  0.9085454E+03  0.7818609E-02  0.9414962E-01
       -1   -1    0    0    0  501  0.00000000000E+00  0.00000000000E+00  0.15357639124E+04  0.15357639124E+04  0.50400001928E-02 0. -1.
        1   -1    0    0  501    0  0.00000000000E+00  0.00000000000E+00 -0.13437199674E+03  0.13437199683E+03  0.50400001928E-02 0.  1.
    10030    2    1    2    0    0  0.00000000000E+00  0.00000000000E+00  0.14013919157E+04  0.16701359093E+04  0.90854535057E+03 0.  0.
        3    1    3    3  502    0  0.41914271555E+03  0.93081205251E+02  0.97347014786E+03  0.10639496538E+04  0.10100000352E+00 0. -1.
       -3    1    3    3    0  502 -0.41914271555E+03 -0.93081205251E+02  0.42792176783E+03  0.60618625549E+03  0.10100000352E+00 0.  1.
</event>
<event>
 5   0  0.3794006E-03  0.8958290E+03  0.7818609E-02  0.9430810E-01
        1   -1    0    0  501    0  0.00000000000E+00  0.00000000000E+00  0.51078693431E+03  0.51078693434E+03  0.50400001928E-02 0.  1.
       -1   -1    0    0    0  501  0.00000000000E+00  0.00000000000E+00 -0.39278100898E+03  0.39278100901E+03  0.50400001928E-02 0. -1.
    10030    2    1    2    0    0  0.00000000000E+00  0.00000000000E+00  0.11800592533E+03  0.90356794335E+03  0.89582901820E+03 0.  0.
        5    1    3    3  502    0 -0.60822225824E+02 -0.48117989516E+02 -0.38593212361E+03  0.39367547308E+03  0.46999998093E+01 0. -1.
       -5    1    3    3    0  502  0.60822225824E+02  0.48117989516E+02  0.50393804895E+03  0.50989247028E+03  0.46999998093E+01 0.  1.
</event>
<event>
 5   0  0.2560250E-03  0.8458193E+03  0.7818609E-02  0.9495965E-01
        4   -1    0    0  501    0  0.00000000000E+00  0.00000000000E+00  0.71247153495E+03  0.71247266686E+03  0.12699999809E+01 0.  1.
       -4   -1    0    0    0  501  0.00000000000E+00  0.00000000000E+00 -0.25102827400E+03  0.25103148657E+03  0.12699999809E+01 0. -1.
    10030    2    1    2    0    0  0.00000000000E+00  0.00000000000E+00  0.46144326095E+03  0.96350415342E+03  0.84581934867E+03 0.  0.
        4    1    3    3  502    0  0.21895651750E+02  0.29606144304E+02 -0.24919862681E+03  0.25190774472E+03  0.12699999809E+01 0. -1.
       -4    1    3    3    0  502 -0.21895651750E+02 -0.29606144304E+02  0.71064188776E+03  0.71159640871E+03  0.12699999809E+01 0.  1.
</event>
<event>
 5   0  0.6524705E-03  0.9025615E+03  0.7818609E-02  0.9422385E-01
       -2   -1    0    0    0  501  0.00000000000E+00  0.00000000000E+00  0.16331472060E+03  0.16331472062E+03  0.25500000920E-02 0.  1.
        2   -1    0    0  501    0  0.00000000000E+00  0.00000000000E+00 -0.12470051659E+04  0.12470051659E+04  0.25500000920E-02 0. -1.
    10030    2    1    2    0    0  0.00000000000E+00  0.00000000000E+00 -0.10836904453E+04  0.14103198865E+04  0.90256146664E+03 0.  0.
        3    1    3    3  502    0  0.28449158006E+03  0.20187283505E+03 -0.94484125981E+02  0.36140747214E+03  0.10100000352E+00 0.  1.
       -3    1    3    3    0  502 -0.28449158006E+03 -0.20187283505E+03 -0.98920631930E+03  0.10489124144E+04  0.10100000352E+00 0. -1.
</event>
<event>
 5   0  0.3794006E-03  0.8993748E+03  0.7818609E-02  0.9426363E-01
       -1   -1    0    0    0  501  0.00000000000E+00  0.00000000000E+00  0.36287409585E+03  0.36287409588E+03  0.50400001928E-02 0.  1.
        1   -1    0    0  501    0  0.00000000000E+00  0.00000000000E+00 -0.55726975460E+03  0.55726975463E+03  0.50400001928E-02 0. -1.
    10030    2    1    2    0    0  0.00000000000E+00  0.00000000000E+00 -0.19439565876E+03  0.92014385051E+03  0.89937480145E+03 0.  0.
        5    1    3    3  502    0 -0.19105618760E+03  0.54074583631E+02 -0.50996237106E+03  0.54727528476E+03  0.46999998093E+01 0. -1.
       -5    1    3    3    0  502  0.19105618760E+03 -0.54074583631E+02  0.31556671230E+03  0.37286856575E+03  0.46999998093E+01 0.  1.
</event>
<event>
 5   0  0.6609191E-03  0.9000009E+03  0.7818609E-02  0.9425580E-01
       -2   -1    0    0    0  501  0.00000000000E+00  0.00000000000E+00  0.14316601211E+03  0.14316601213E+03  0.25500000920E-02 0. -1.
        2   -1    0    0  501    0  0.00000000000E+00  0.00000000000E+00 -0.14144448336E+04  0.14144448336E+04  0.25500000920E-02 0.  1.
    10030    2    1    2    0    0  0.00000000000E+00  0.00000000000E+00 -0.12712788215E+04  0.15576108457E+04  0.90000094708E+03 0.  0.
        2    1    3    3  502    0 -0.58525071765E+02  0.39896615860E+03 -0.98134724970E+03  0.10609625838E+04  0.25500000920E-02 0.  1.
       -2    1    3    3    0  502  0.58525071765E+02 -0.39896615860E+03 -0.28993157176E+03  0.49664826189E+03  0.25500000920E-02 0. -1.
</event>
<event>
 5   0  0.3969536E-03  0.8790253E+03  0.7818609E-02  0.9452187E-01
        1   -1    0    0  501    0  0.00000000000E+00  0.00000000000E+00  0.77725219189E+03  0.77725219191E+03  0.50400001928E-02 0.  1.
       -1   -1    0    0    0  501  0.00000000000E+00  0.00000000000E+00 -0.24853114410E+03  0.24853114415E+03  0.50400001928E-02 0. -1.
    10030    2    1    2    0    0  0.00000000000E+00  0.00000000000E+00  0.52872104780E+03  0.10257833361E+04  0.87902531599E+03 0.  0.
        1    1    3    3  502    0 -0.33791850025E+03  0.22907254473E+03  0.74364441611E+02  0.41496170156E+03  0.50400001928E-02 0.  1.
       -1    1    3    3    0  502  0.33791850025E+03 -0.22907254473E+03  0.45435660619E+03  0.61082163450E+03  0.50400001928E-02 0. -1.
</event>
<event>
 5   0  0.2560250E-03  0.8931378E+03  0.7818609E-02  0.9434200E-01
        3   -1    0    0  501    0  0.00000000000E+00  0.00000000000E+00  0.43605354471E+03  0.43605355641E+03  0.10100000352E+00 0. -1.
       -3   -1    0    0    0  501  0.00000000000E+00  0.00000000000E+00 -0.45733777607E+03  0.45733778723E+03  0.10100000352E+00 0.  1.
    10030    2    1    2    0    0  0.00000000000E+00  0.00000000000E+00 -0.21284231364E+02  0.89339134363E+03  0.89313776898E+03 0.  0.
        1    1    3    3  502    0 -0.33669075317E+03  0.28113071780E+03  0.73218580879E+02  0.44469776745E+03  0.50400001928E-02 0.  1.
       -1    1    3    3    0  502  0.33669075317E+03 -0.28113071780E+03 -0.94502812243E+02  0.44869357618E+03  0.50400001928E-02 0. -1.
</event>
<event>
 5   0  0.6524705E-03  0.8919293E+03  0.7818609E-02  0.9435727E-01
        2   -1    0    0  501    0  0.00000000000E+00  0.00000000000E+00  0.71622060700E+03  0.71622060700E+03  0.25500000920E-02 0. -1.
       -2   -1    0    0    0  501  0.00000000000E+00  0.00000000000E+00 -0.27768607794E+03  0.27768607796E+03  0.25500000920E-02 0.  1.
    10030    2    1    2    0    0  0.00000000000E+00  0.00000000000E+00  0.43853452906E+03  0.99390668496E+03  0.89192934991E+03 0.  0.
        3    1    3    3  502    0  0.26472869179E+03  0.32526480395E+03  0.38828636705E+03  0.57152846472E+03  0.10100000352E+00 0. -1.
       -3    1    3    3    0  502 -0.26472869179E+03 -0.32526480395E+03  0.50248162009E+02  0.42237822024E+03  0.10100000352E+00 0.  1.
</event>
<event>
 5   0  0.3927993E-03  0.8997332E+03  0.7818609E-02  0.9425915E-01
        1   -1    0    0  501    0  0.00000000000E+00  0.00000000000E+00  0.33176084522E+03  0.33176084526E+03  0.50400001928E-02 0.  1.
       -1   -1    0    0    0  501  0.00000000000E+00  0.00000000000E+00 -0.61001756162E+03  0.61001756164E+03  0.50400001928E-02 0. -1.
    10030    2    1    2    0    0  0.00000000000E+00  0.00000000000E+00 -0.27825671640E+03  0.94177840690E+03  0.89973316460E+03 0.  0.
        2    1    3    3  502    0 -0.23111076850E+03  0.21721218392E+02  0.26423114578E+03  0.35171308911E+03  0.25500000920E-02 0.  1.
       -2    1    3    3    0  502  0.23111076850E+03 -0.21721218392E+02 -0.54248786217E+03  0.59006531779E+03  0.25500000920E-02 0. -1.
</event>
<event>
 5   0  0.3943549E-03  0.9056045E+03  0.7818609E-02  0.9418602E-01
        1   -1    0    0  501    0  0.00000000000E+00  0.00000000000E+00  0.11170590887E+04  0.11170590887E+04  0.50400001928E-02 0.  1.
       -1   -1    0    0    0  501  0.00000000000E+00  0.00000000000E+00 -0.18354435594E+03  0.18354435601E+03  0.50400001928E-02 0. -1.
    10030    2    1    2    0    0  0.00000000000E+00  0.00000000000E+00  0.93351473274E+03  0.13006034447E+04  0.90560452965E+03 0.  0.
        3    1    3    3  502    0 -0.87474526885E+02 -0.16524004138E+03 -0.12551987214E+03  0.22519172417E+03  0.10100000352E+00 0. -1.
       -3    1    3    3    0  502  0.87474526885E+02  0.16524004138E+03  0.10590346049E+04  0.10754117205E+04  0.10100000352E+00 0.  1.
</event>
<event>
 5   0  0.3794006E-03  0.9035343E+03  0.7818609E-02  0.9421174E-01
        1   -1    0    0  501    0  0.00000000000E+00  0.00000000000E+00  0.48818893770E+03  0.48818893773E+03  0.50400001928E-02 0.  1.
       -1   -1    0    0    0  501  0.00000000000E+00  0.00000000000E+00 -0.41806268666E+03  0.41806268669E+03  0.50400001928E-02 0. -1.
    10030    2    1    2    0    0  0.00000000000E+00  0.00000000000E+00  0.70126251045E+02  0.90625162442E+03  0.90353434670E+03 0.  0.
        5    1    3    3  502    0  0.73146303085E+02 -0.34953962201E+03 -0.24243325653E+03  0.43165298896E+03  0.46999998093E+01 0. -1.
       -5    1    3    3    0  502 -0.73146303085E+02  0.34953962201E+03  0.31255950757E+03  0.47459863546E+03  0.46999998093E+01 0.  1.
</event>
<event>
 5   0  0.3927993E-03  0.9046193E+03  0.7818609E-02  0.9419825E-01
        1   -1    0    0  501    0  0.00000000000E+00  0.00000000000E+00  0.48593418259E+03  0.48593418261E+03  0.50400001928E-02 0.  1.
       -1   -1    0    0    0  501  0.00000000000E+00  0.00000000000E+00 -0.42101182754E+03  0.42101182757E+03  0.50400001928E-02 0. -1.
    10030    2    1    2    0    0  0.00000000000E+00  0.00000000000E+00  0.64922355044E+02  0.90694601019E+03  0.90461934161E+03 0.  0.
        2    1    3    3  502    0 -0.35883881035E+03  0.19370923915E+03  0.22865679767E+03  0.46751737109E+03  0.25500000920E-02 0.  1.
       -2    1    3    3    0  502  0.35883881035E+03 -0.19370923915E+03 -0.16373444262E+03  0.43942863909E+03  0.25500000920E-02 0. -1.
</event>
<event>
 5   0  0.6534628E-03  0.8882006E+03  0.7818609E-02  0.9440453E-01
       -2   -1    0    0    0  501  0.00000000000E+00  0.00000000000E+00  0.26397706516E+03  0.26397706517E+03  0.25500000920E-02 0.  1.
        2   -1    0    0  501    0  0.00000000000E+00  0.00000000000E+00 -0.74712953793E+03  0.74712953793E+03  0.25500000920E-02 0. -1.
    10030    2    1    2    0    0  0.00000000000E+00  0.00000000000E+00 -0.48315247277E+03  0.10111066031E+04  0.88820056907E+03 0.  0.
        4    1    3    3  502    0  0.31151696638E+03 -0.27100712428E+03 -0.42771303152E+03  0.59449788224E+03  0.12699999809E+01 0. -1.
       -4    1    3    3    0  502 -0.31151696638E+03  0.27100712428E+03 -0.55439441249E+02  0.41660872086E+03  0.12699999809E+01 0.  1.
</event>
<event>
 5   0  0.3998066E-03  0.9033684E+03  0.7818609E-02  0.9421380E-01
        1   -1    0    0  501    0  0.00000000000E+00  0.00000000000E+00  0.75658610993E+03  0.75658610995E+03  0.50400001928E-02 0. -1.
       -1   -1    0    0    0  501  0.00000000000E+00  0.00000000000E+00 -0.26965685346E+03  0.26965685350E+03  0.50400001928E-02 0.  1.
    10030    2    1    2    0    0  0.00000000000E+00  0.00000000000E+00  0.48692925647E+03  0.10262429635E+04  0.90336842939E+03 0.  0.
        4    1    3    3  502    0  0.38831765705E+03  0.17865635340E+03  0.77635848840E+02  0.43443944723E+03  0.12699999809E+01 0. -1.
       -4    1    3    3    0  502 -0.38831765705E+03 -0.17865635340E+03  0.40929340763E+03  0.59180351623E+03  0.12699999809E+01 0.  1.
</event>
<event>
 5   0  0.3794006E-03  0.9130642E+03  0.7818609E-02  0.9409396E-01
        1   -1    0    0  501    0  0.00000000000E+00  0.00000000000E+00  0.15423568591E+03  0.15423568600E+03  0.50400001928E-02 0. -1.
       -1   -1    0    0    0  501  0.00000000000E+00  0.00000000000E+00 -0.13513186894E+04  0.13513186894E+04  0.50400001928E-02 0.  1.
    10030    2    1    2    0    0  0.00000000000E+00  0.00000000000E+00 -0.11970830035E+04  0.15055543754E+04  0.91306421465E+03 0.  0.
        5    1    3    3  502    0  0.27433134970E+03 -0.26865623929E+03 -0.10056757038E+04  0.10764941131E+04  0.46999998093E+01 0.  1.
       -5    1    3    3    0  502 -0.27433134970E+03  0.26865623929E+03 -0.19140729974E+03  0.42906026235E+03  0.46999998093E+01 0. -1.
</event>
<event>
 5   0  0.2560250E-03  0.8959941E+03  0.7818609E-02  0.9430603E-01
        4   -1    0    0  501    0  0.00000000000E+00  0.00000000000E+00  0.46395142618E+03  0.46395316440E+03  0.12699999809E+01 0.  1.
       -4   -1    0    0    0  501  0.00000000000E+00  0.00000000000E+00 -0.43258781524E+03  0.43258967948E+03  0.12699999809E+01 0. -1.
    10030    2    1    2    0    0  0.00000000000E+00  0.00000000000E+00  0.31363610941E+02  0.89654284388E+03  0.89599408192E+03 0.  0.
        3    1    3    3  502    0 -0.98668439058E+02  0.19964940448E+03  0.40464342677E+03  0.46187840241E+03  0.10100000352E+00 0.  1.
       -3    1    3    3    0  502  0.98668439058E+02 -0.19964940448E+03 -0.37327981583E+03  0.43466444148E+03  0.10100000352E+00 0. -1.
</event>
<event>
 5   0  0.6863405E-03  0.9011531E+03  0.7818609E-02  0.9424141E-01
        2   -1    0    0  501    0  0.00000000000E+00  0.00000000000E+00  0.15410864773E+04  0.15410864773E+04  0.25500000920E-02 0.  1.
       -2   -1    0    0    0  501  0.00000000000E+00  0.00000000000E+00 -0.13173771114E+03  0.13173771117E+03  0.25500000920E-02 0. -1.
    10030    2    1    2    0    0  0.00000000000E+00  0.00000000000E+00  0.14093487662E+04  0.16728241885E+04  0.90115305074E+03 0.  0.
        1    1    3    3  502    0  0.27823802333E+02 -0.13610738908E+03 -0.90989688385E+02  0.16606778362E+03  0.50400001928E-02 0. -1.
       -1    1    3    3    0  502 -0.27823802333E+02  0.13610738908E+03  0.15003384546E+04  0.15067564049E+04  0.50400001928E-02 0.  1.
</event>
<event>
 5   0  0.6524705E-03  0.9067503E+03  0.7818609E-02  0.9417182E-01
       -2   -1    0    0    0  501  0.00000000000E+00  0.00000000000E+00  0.60531158657E+03  0.60531158657E+03  0.25500000920E-02 0.  1.
        2   -1    0    0  501    0  0.00000000000E+00  0.00000000000E+00 -0.33957558727E+03  0.33957558728E+03  0.25500000920E-02 0. -1.
    10030    2    1    2    0    0  0.00000000000E+00  0.00000000000E+00  0.26573599930E+03  0.94488717385E+03  0.90675032395E+03 0.  0.
        3    1    3    3  502    0  0.20765755081E+03 -0.98937762627E+01 -0.28697888589E+03  0.35436765705E+03  0.10100000352E+00 0. -1.
       -3    1    3    3    0  502 -0.20765755081E+03  0.98937762627E+01  0.55271488518E+03  0.59051951680E+03  0.10100000352E+00 0.  1.
</event>
<event>
 5   0  0.6524705E-03  0.8963274E+03  0.7818609E-02  0.9430184E-01
       -2   -1    0    0    0  501  0.00000000000E+00  0.00000000000E+00  0.44880072680E+03  0.44880072681E+03  0.25500000920E-02 0.  1.
        2   -1    0    0  501    0  0.00000000000E+00  0.00000000000E+00 -0.44752753435E+03  0.44752753436E+03  0.25500000920E-02 0. -1.
    10030    2    1    2    0    0  0.00000000000E+00  0.00000000000E+00  0.12731924503E+01  0.89632826117E+03  0.89632735691E+03 0.  0.
        3    1    3    3  502    0 -0.16964157044E+03  0.29875383629E+03  0.28841901832E+03  0.44857291208E+03  0.10100000352E+00 0.  1.
       -3    1    3    3    0  502  0.16964157044E+03 -0.29875383629E+03 -0.28714582587E+03  0.44775534909E+03  0.10100000352E+00 0. -1.
</event>
<event>
 5   0  0.3998066E-03  0.9069801E+03  0.7818609E-02  0.9416898E-01
        1   -1    0    0  501    0  0.00000000000E+00  0.00000000000E+00  0.60444477741E+03  0.60444477743E+03  0.50400001928E-02 0.  1.
       -1   -1    0    0    0  501  0.00000000000E+00  0.00000000000E+00 -0.34023494619E+03  0.34023494623E+03  0.50400001928E-02 0. -1.
    10030    2    1    2    0    0  0.00000000000E+00  0.00000000000E+00  0.26420983122E+03  0.94467972365E+03  0.90698012402E+03 0.  0.
        4    1    3    3  502    0  0.41994344463E+03  0.16633306036E+03  0.90022039875E+02  0.46057004268E+03  0.12699999809E+01 0. -1.
       -4    1    3    3    0  502 -0.41994344463E+03 -0.16633306036E+03  0.17418779134E+03  0.48410968097E+03  0.12699999809E+01 0.  1.
</event>
<event>
 5   0  0.6863405E-03  0.8958040E+03  0.7818609E-02  0.9430842E-01
       -2   -1    0    0    0  501  0.00000000000E+00  0.00000000000E+00  0.30219539112E+03  0.30219539113E+03  0.25500000920E-02 0.  1.
        2   -1    0    0  501    0  0.00000000000E+00  0.00000000000E+00 -0.66386250239E+03  0.66386250239E+03  0.25500000920E-02 0. -1.
    10030    2    1    2    0    0  0.00000000000E+00  0.00000000000E+00 -0.36166711126E+03  0.96605789352E+03  0.89580397089E+03 0.  0.
        1    1    3    3  502    0 -0.34905323759E+03 -0.27911168896E+03 -0.14893893150E+03  0.47108842368E+03  0.50400001928E-02 0.  1.
       -1    1    3    3    0  502  0.34905323759E+03  0.27911168896E+03 -0.21272817976E+03  0.49496946984E+03  0.50400001928E-02 0. -1.
</event>
<event>
 5   0  0.3927993E-03  0.9007909E+03  0.7818609E-02  0.9424593E-01
       -1   -1    0    0    0  501  0.00000000000E+00  0.00000000000E+00  0.43959517815E+03  0.43959517817E+03  0.50400001928E-02 0. -1.
        1   -1    0    0  501    0  0.00000000000E+00  0.00000000000E+00 -0.46146106799E+03  0.46146106801E+03  0.50400001928E-02 0.  1.
    10030    2    1    2    0    0  0.00000000000E+00  0.00000000000E+00 -0.21865889841E+02  0.90105624619E+03  0.90079089785E+03 0.  0.
        2    1    3    3  502    0  0.15809217931E+03 -0.32014378562E+03  0.26368550077E+03  0.44386397010E+03  0.25500000920E-02 0. -1.
       -2    1    3    3    0  502 -0.15809217931E+03  0.32014378562E+03 -0.28555139061E+03  0.45719227609E+03  0.25500000920E-02 0.  1.
</event>
<event>
 5   0  0.3969536E-03  0.8982709E+03  0.7818609E-02  0.9427745E-01
       -1   -1    0    0    0  501  0.00000000000E+00  0.00000000000E+00  0.14298247622E+04  0.14298247622E+04  0.50400001928E-02 0. -1.
        1   -1    0    0  501    0  0.00000000000E+00  0.00000000000E+00 -0.14108208137E+03  0.14108208146E+03  0.50400001928E-02 0.  1.
    10030    2    1    2    0    0  0.00000000000E+00  0.00000000000E+00  0.12887426809E+04  0.15709068437E+04  0.89827090240E+03 0.  0.
        1    1    3    3  502    0 -0.47120526104E+02 -0.27257106272E+03  0.12631822604E+04  0.12931143612E+04  0.50400001928E-02 0.  1.
       -1    1    3    3    0  502  0.47120526104E+02  0.27257106272E+03  0.25560420509E+02  0.27779248251E+03  0.50400001928E-02 0. -1.
</event>
<event>
 5   0  0.3794006E-03  0.9016799E+03  0.7818609E-02  0.9423484E-01
        1   -1    0    0  501    0  0.00000000000E+00  0.00000000000E+00  0.13957656734E+04  0.13957656734E+04  0.50400001928E-02 0.  1.
       -1   -1    0    0    0  501  0.00000000000E+00  0.00000000000E+00 -0.14562378421E+03  0.14562378430E+03  0.50400001928E-02 0. -1.
    10030    2    1    2    0    0  0.00000000000E+00  0.00000000000E+00  0.12501418892E+04  0.15413894577E+04  0.90167994169E+03 0.  0.
        5    1    3    3  502    0 -0.91212874425E+02 -0.22931276943E+03 -0.19853582540E+02  0.24762954069E+03  0.46999998093E+01 0. -1.
       -5    1    3    3    0  502  0.91212874425E+02  0.22931276943E+03  0.12699954717E+04  0.12937599170E+04  0.46999998093E+01 0.  1.
</event>
<event>
 5   0  0.6609191E-03  0.8947931E+03  0.7818609E-02  0.9432114E-01
       -2   -1    0    0    0  501  0.00000000000E+00  0.00000000000E+00  0.16509723114E+03  0.16509723116E+03  0.25500000920E-02 0. -1.
        2   -1    0    0  501    0  0.00000000000E+00  0.00000000000E+00 -0.12123986976E+04  0.12123986976E+04  0.25500000920E-02 0.  1.
    10030    2    1    2    0    0  0.00000000000E+00  0.00000000000E+00 -0.10473014664E+04  0.13774959287E+04  0.89479308897E+03 0.  0.
        2    1    3    3  502    0  0.24979832663E+03 -0.18807054801E+03 -0.10162625383E+04  0.10632776128E+04  0.25500000920E-02 0.  1.
       -2    1    3    3    0  502 -0.24979832663E+03  0.18807054801E+03 -0.31038928106E+02  0.31421831595E+03  0.25500000920E-02 0. -1.
</event>
<event>
 5   0  0.6863405E-03  0.8918087E+03  0.7818609E-02  0.9435879E-01
        2   -1    0    0  501    0  0.00000000000E+00  0.00000000000E+00  0.48323906172E+03  0.48323906172E+03  0.25500000920E-02 0.  1.
       -2   -1    0    0    0  501  0.00000000000E+00  0.00000000000E+00 -0.41145406108E+03  0.41145406108E+03  0.25500000920E-02 0. -1.
    10030    2    1    2    0    0  0.00000000000E+00  0.00000000000E+00  0.71785000642E+02  0.89469312281E+03  0.89180866652E+03 0.  0.
        1    1    3    3  502    0 -0.88921995550E+02  0.43586174267E+03  0.66783232109E+02  0.44982505503E+03  0.50400001928E-02 0.  1.
       -1    1    3    3    0  502  0.88921995550E+02 -0.43586174267E+03  0.50017685329E+01  0.44486806778E+03  0.50400001928E-02 0. -1.
</event>
<event>
 5   0  0.6724773E-03  0.9033826E+03  0.7818609E-02  0.9421363E-01
        2   -1    0    0  501    0  0.00000000000E+00  0.00000000000E+00  0.28415589408E+03  0.28415589409E+03  0.25500000920E-02 0.  1.
       -2   -1    0    0    0  501  0.00000000000E+00  0.00000000000E+00 -0.71800380210E+03  0.71800380211E+03  0.25500000920E-02 0. -1.
    10030    2    1    2    0    0  0.00000000000E+00  0.00000000000E+00 -0.43384790802E+03  0.10021596962E+04  0.90338255982E+03 0.  0.
        5    1    3    3  502    0  0.26849223395E+03 -0.36115527419E+03 -0.25962582674E+03  0.51956604169E+03  0.46999998093E+01 0. -1.
       -5    1    3    3    0  502 -0.26849223395E+03  0.36115527419E+03 -0.17422208129E+03  0.48259365451E+03  0.46999998093E+01 0.  1.
</event>
<event>
 5   0  0.2560250E-03  0.8868523E+03  0.7818609E-02  0.9442168E-01
       -3   -1    0    0    0  501  0.00000000000E+00  0.00000000000E+00  0.40521879818E+03  0.40521881077E+03  0.10100000352E+00 0.  1.
        3   -1    0    0  501    0  0.00000000000E+00  0.00000000000E+00 -0.48523601556E+03  0.48523602608E+03  0.10100000352E+00 0. -1.
    10030    2    1    2    0    0  0.00000000000E+00  0.00000000000E+00 -0.80017217384E+02  0.89045483684E+03  0.88685233347E+03 0.  0.
        1    1    3    3  502    0 -0.19420758608E+03  0.12168097101E+03  0.34114363608E+03  0.41097667289E+03  0.50400001928E-02 0.  1.
       -1    1    3    3    0  502  0.19420758608E+03 -0.12168097101E+03 -0.42116085346E+03  0.47947816396E+03  0.50400001928E-02 0. -1.
</event>
<event>
 5   0  0.2560250E-03  0.9047686E+03  0.7818609E-02  0.9419640E-01
        4   -1    0    0  501    0  0.00000000000E+00  0.00000000000E+00  0.26073314728E+03  0.26073624027E+03  0.12699999809E+01 0. -1.
       -4   -1    0    0    0  501  0.00000000000E+00  0.00000000000E+00 -0.78489974591E+03  0.78490077337E+03  0.12699999809E+01 0.  1.
    10030    2    1    2    0    0  0.00000000000E+00  0.00000000000E+00 -0.52416659863E+03  0.10456370136E+04  0.90476855668E+03 0.  0.
        3    1    3    3  502    0  0.28602479299E+03  0.18438248021E+02 -0.66657901741E+03  0.72558786363E+03  0.10100000352E+00 0.  1.
       -3    1    3    3    0  502 -0.28602479299E+03 -0.18438248021E+02  0.14241241878E+03  0.32004915000E+03  0.10100000352E+00 0. -1.
</event>
<event>
 5   0  0.6534628E-03  0.9008753E+03  0.7818609E-02  0.9424488E-01
       -2   -1    0    0    0  501  0.00000000000E+00  0.00000000000E+00  0.14252923562E+03  0.14252923565E+03  0.25500000920E-02 0. -1.
        2   -1    0    0  501    0  0.00000000000E+00  0.00000000000E+00 -0.14235259560E+04  0.14235259560E+04  0.25500000920E-02 0.  1.
    10030    2    1    2    0    0  0.00000000000E+00  0.00000000000E+00 -0.12809967203E+04  0.15660551916E+04  0.90087527752E+03 0.  0.
        4    1    3    3  502    0  0.11307795478E+03 -0.33589359503E+03 -0.15723967561E+03  0.38773323242E+03  0.12699999809E+01 0.  1.
       -4    1    3    3    0  502 -0.11307795478E+03  0.33589359503E+03 -0.11237570447E+04  0.11783219592E+04  0.12699999809E+01 0. -1.
</event>
<event>
 5   0  0.6863405E-03  0.8960401E+03  0.7818609E-02  0.9430545E-01
        2   -1    0    0  501    0  0.00000000000E+00  0.00000000000E+00  0.55100601229E+03  0.55100601229E+03  0.25500000920E-02 0. -1.
       -2   -1    0    0    0  501  0.00000000000E+00  0.00000000000E+00 -0.36428269216E+03  0.36428269217E+03  0.25500000920E-02 0.  1.
    10030    2    1    2    0    0  0.00000000000E+00  0.00000000000E+00  0.18672332013E+03  0.91528870446E+03  0.89604007401E+03 0.  0.
        1    1    3    3  502    0  0.40216879193E+03 -0.18032338098E+03  0.11224768476E+02  0.44088802930E+03  0.50400001928E-02 0.  1.
       -1    1    3    3    0  502 -0.40216879193E+03  0.18032338098E+03  0.17549855165E+03  0.47440067516E+03  0.50400001928E-02 0. -1.
</event>
<event>
 5   0  0.3969536E-03  0.8916539E+03  0.7818609E-02  0.9436075E-01
       -1   -1    0    0    0  501  0.00000000000E+00  0.00000000000E+00  0.20330914162E+03  0.20330914168E+03  0.50400001928E-02 0.  1.
        1   -1    0    0  501    0  0.00000000000E+00  0.00000000000E+00 -0.97763273089E+03  0.97763273091E+03  0.50400001928E-02 0. -1.
    10030    2    1    2    0    0  0.00000000000E+00  0.00000000000E+00 -0.77432358928E+03  0.11809418726E+04  0.89165390456E+03 0.  0.
        1    1    3    3  502    0 -0.24564725514E+03  0.22530448275E+03 -0.77928764763E+03  0.84758121833E+03  0.50400001928E-02 0. -1.
       -1    1    3    3    0  502  0.24564725514E+03 -0.22530448275E+03  0.49640583496E+01  0.33336065425E+03  0.50400001928E-02 0.  1.
</event>
<event>
 5   0  0.3794006E-03  0.9061131E+03  0.7818609E-02  0.9417972E-01
        1   -1    0    0  501    0  0.00000000000E+00  0.00000000000E+00  0.46573715839E+03  0.46573715842E+03  0.50400001928E-02 0.  1.
       -1   -1    0    0    0  501  0.00000000000E+00  0.00000000000E+00 -0.44072121372E+03  0.44072121375E+03  0.50400001928E-02 0. -1.
    10030    2    1    2    0    0  0.00000000000E+00  0.00000000000E+00  0.25015944671E+02  0.90645837216E+03  0.90611311820E+03 0.  0.
        5    1    3    3  502    0  0.18139236758E+03  0.26248983169E+03 -0.30922621986E+03  0.44435014100E+03  0.46999998093E+01 0. -1.
       -5    1    3    3    0  502 -0.18139236758E+03 -0.26248983169E+03  0.33424216453E+03  0.46210823116E+03  0.46999998093E+01 0.  1.
</event>
<event>
 5   0  0.6724773E-03  0.8967633E+03  0.7818609E-02  0.9429636E-01
       -2   -1    0    0    0  501  0.00000000000E+00  0.00000000000E+00  0.29865661566E+03  0.29865661567E+03  0.25500000920E-02 0. -1.
        2   -1    0    0  501    0  0.00000000000E+00  0.00000000000E+00 -0.67316816098E+03  0.67316816099E+03  0.25500000920E-02 0.  1.
    10030    2    1    2    0    0  0.00000000000E+00  0.00000000000E+00 -0.37451154532E+03  0.97182477665E+03  0.89676334612E+03 0.  0.
        5    1    3    3  502    0  0.12519091511E+01  0.28930874782E+03 -0.55845028109E+03  0.62895939876E+03  0.46999998093E+01 0.  1.
       -5    1    3    3    0  502 -0.12519091511E+01 -0.28930874782E+03  0.18393873576E+03  0.34286537789E+03  0.46999998093E+01 0. -1.
</event>
<event>
 5   0  0.6724773E-03  0.8660287E+03  0.7818609E-02  0.9469073E-01
       -2   -1    0    0    0  501  0.00000000000E+00  0.00000000000E+00  0.49901142659E+03  0.49901142660E+03  0.25500000920E-02 0.  1.
        2   -1    0    0  501    0  0.00000000000E+00  0.00000000000E+00 -0.37574577850E+03  0.37574577851E+03  0.25500000920E-02 0. -1.
    10030    2    1    2    0    0  0.00000000000E+00  0.00000000000E+00  0.12326564810E+03  0.87475720511E+03  0.86602872232E+03 0.  0.
        5    1    3    3  502    0  0.29574321882E+02 -0.31252084980E+03 -0.23959329372E+03  0.39493158707E+03  0.46999998093E+01 0. -1.
       -5    1    3    3    0  502 -0.29574321882E+02  0.31252084980E+03  0.36285894181E+03  0.47982561804E+03  0.46999998093E+01 0.  1.
</event>
<event>
 5   0  0.6724773E-03  0.9132493E+03  0.7818609E-02  0.9409169E-01
       -2   -1    0    0    0  501  0.00000000000E+00  0.00000000000E+00  0.21928069976E+03  0.21928069977E+03  0.25500000920E-02 0. -1.
        2   -1    0    0  501    0  0.00000000000E+00  0.00000000000E+00 -0.95086367060E+03  0.95086367060E+03  0.25500000920E-02 0.  1.
    10030    2    1    2    0    0  0.00000000000E+00  0.00000000000E+00 -0.73158297084E+03  0.11701443704E+04  0.91324925639E+03 0.  0.
        5    1    3    3  502    0 -0.19933846332E+03  0.31918049252E+03 -0.34452820262E+02  0.37791678527E+03  0.46999998093E+01 0. -1.
       -5    1    3    3    0  502  0.19933846332E+03 -0.31918049252E+03 -0.69713015058E+03  0.79222758511E+03  0.46999998093E+01 0.  1.
</event>
<event>
 5   0  0.6534628E-03  0.8964736E+03  0.7818609E-02  0.9430000E-01
       -2   -1    0    0    0  501  0.00000000000E+00  0.00000000000E+00  0.15360796709E+03  0.15360796711E+03  0.25500000920E-02 0. -1.
        2   -1    0    0  501    0  0.00000000000E+00  0.00000000000E+00 -0.13079805710E+04  0.13079805710E+04  0.25500000920E-02 0.  1.
    10030    2    1    2    0    0  0.00000000000E+00  0.00000000000E+00 -0.11543726040E+04  0.14615885382E+04  0.89647361707E+03 0.  0.
        4    1    3    3  502    0  0.15280858368E+03 -0.66358925238E+02  0.10125491364E+03  0.19495676608E+03  0.12699999809E+01 0. -1.
       -4    1    3    3    0  502 -0.15280858368E+03  0.66358925238E+02 -0.12556275176E+04  0.12666317721E+04  0.12699999809E+01 0.  1.
</event>
<event>
 5   0  0.6534628E-03  0.8943192E+03  0.7818609E-02  0.9432711E-01
       -2   -1    0    0    0  501  0.00000000000E+00  0.00000000000E+00  0.78158851879E+03  0.78158851880E+03  0.25500000920E-02 0.  1.
        2   -1    0    0  501    0  0.00000000000E+00  0.00000000000E+00 -0.25582734352E+03  0.25582734353E+03  0.25500000920E-02 0. -1.
    10030    2    1    2    0    0  0.00000000000E+00  0.00000000000E+00  0.52576117528E+03  0.10374158623E+04  0.89431921481E+03 0.  0.
        4    1    3    3  502    0  0.10647960478E+03  0.77047480976E+02 -0.23291302525E+03  0.26744029388E+03  0.12699999809E+01 0. -1.
       -4    1    3    3    0  502 -0.10647960478E+03 -0.77047480976E+02  0.75867420053E+03  0.76997556845E+03  0.12699999809E+01 0.  1.
</event>
<event>
 5   0  0.3794006E-03  0.8527702E+03  0.7818609E-02  0.9486626E-01
       -1   -1    0    0    0  501  0.00000000000E+00  0.00000000000E+00  0.73950356917E+02  0.73950357088E+02  0.50400001928E-02 0. -1.
        1   -1    0    0  501    0  0.00000000000E+00  0.00000000000E+00 -0.24584637871E+04  0.24584637871E+04  0.50400001928E-02 0.  1.
    10030    2    1    2    0    0  0.00000000000E+00  0.00000000000E+00 -0.23845134302E+04  0.25324141442E+04  0.85277024983E+03 0.  0.
        5    1    3    3  502    0 -0.55688800054E+02  0.42152567700E+03 -0.12860259284E+04  0.13544998772E+04  0.46999998093E+01 0.  1.
       -5    1    3    3    0  502  0.55688800054E+02 -0.42152567700E+03 -0.10984875018E+04  0.11779142670E+04  0.46999998093E+01 0. -1.
</event>
<event>
 5   0  0.6524705E-03  0.8991986E+03  0.7818609E-02  0.9426584E-01
       -2   -1    0    0    0  501  0.00000000000E+00  0.00000000000E+00  0.34946537048E+03  0.34946537049E+03  0.25500000920E-02 0.  1.
        2   -1    0    0  501    0  0.00000000000E+00  0.00000000000E+00 -0.57842511878E+03  0.57842511878E+03  0.25500000920E-02 0. -1.
    10030    2    1    2    0    0  0.00000000000E+00  0.00000000000E+00 -0.22895974830E+03  0.92789048927E+03  0.89919863976E+03 0.  0.
        3    1    3    3  502    0  0.16582772496E+03  0.33270313439E+03  0.14647119192E+03  0.39955479006E+03  0.10100000352E+00 0.  1.
       -3    1    3    3    0  502 -0.16582772496E+03 -0.33270313439E+03 -0.37543094021E+03  0.52833569922E+03  0.10100000352E+00 0. -1.
</event>
<event>
 5   0  0.6609191E-03  0.9018861E+03  0.7818609E-02  0.9423227E-01
        2   -1    0    0  501    0  0.00000000000E+00  0.00000000000E+00  0.51701837997E+03  0.51701837998E+03  0.25500000920E-02 0. -1.
       -2   -1    0    0    0  501  0.00000000000E+00  0.00000000000E+00 -0.39331223293E+03  0.39331223294E+03  0.25500000920E-02 0.  1.
    10030    2    1    2    0    0  0.00000000000E+00  0.00000000000E+00  0.12370614704E+03  0.91033061292E+03  0.90188614248E+03 0.  0.
        2    1    3    3  502    0 -0.47743953188E+02 -0.13270814023E+03  0.49418430570E+03  0.51391542451E+03  0.25500000920E-02 0. -1.
       -2    1    3    3    0  502  0.47743953188E+02  0.13270814023E+03 -0.37047815866E+03  0.39641518840E+03  0.25500000920E-02 0.  1.
</event>
<event>
 5   0  0.3943549E-03  0.8991522E+03  0.7818609E-02  0.9426642E-01
       -1   -1    0    0    0  501  0.00000000000E+00  0.00000000000E+00  0.34333011398E+03  0.34333011402E+03  0.50400001928E-02 0. -1.
        1   -1    0    0  501    0  0.00000000000E+00  0.00000000000E+00 -0.58870063124E+03  0.58870063126E+03  0.50400001928E-02 0.  1.
    10030    2    1    2    0    0  0.00000000000E+00  0.00000000000E+00 -0.24537051726E+03  0.93203074528E+03  0.89915216699E+03 0.  0.
        3    1    3    3  502    0 -0.86676804019E+02  0.39372882015E+03 -0.32891606970E+03  0.52030860389E+03  0.10100000352E+00 0.  1.
       -3    1    3    3    0  502  0.86676804019E+02 -0.39372882015E+03  0.83545552443E+02  0.41172214139E+03  0.10100000352E+00 0. -1.
</event>
<event>
 5   0  0.6724773E-03  0.9006486E+03  0.7818609E-02  0.9424771E-01
        2   -1    0    0  501    0  0.00000000000E+00  0.00000000000E+00  0.15939802663E+04  0.15939802663E+04  0.25500000920E-02 0.  1.
       -2   -1    0    0    0  501  0.00000000000E+00  0.00000000000E+00 -0.12722364215E+03  0.12722364218E+03  0.25500000920E-02 0. -1.
    10030    2    1    2    0    0  0.00000000000E+00  0.00000000000E+00  0.14667566242E+04  0.17212039085E+04  0.90064859968E+03 0.  0.
        5    1    3    3  502    0  0.28184301042E+03 -0.85623817802E+02  0.13842741419E+04  0.14152752067E+04  0.46999998093E+01 0.  1.
       -5    1    3    3    0  502 -0.28184301042E+03  0.85623817802E+02  0.82482482209E+02  0.30592870177E+03  0.46999998093E+01 0. -1.
</event>
<event>
 5   0  0.6609191E-03  0.8991024E+03  0.7818609E-02  0.9426704E-01
       -2   -1    0    0    0  501  0.00000000000E+00  0.00000000000E+00  0.43980019629E+03  0.43980019630E+03  0.25500000920E-02 0.  1.
        2   -1    0    0  501    0  0.00000000000E+00  0.00000000000E+00 -0.45951838087E+03  0.45951838088E+03  0.25500000920E-02 0. -1.
    10030    2    1    2    0    0  0.00000000000E+00  0.00000000000E+00 -0.19718184585E+02  0.89931857718E+03  0.89910238374E+03 0.  0.
        2    1    3    3  502    0 -0.24040059394E+03 -0.35623165690E+03  0.12209243425E+03  0.44676615970E+03  0.25500000920E-02 0. -1.
       -2    1    3    3    0  502  0.24040059394E+03  0.35623165690E+03 -0.14181061883E+03  0.45255241748E+03  0.25500000920E-02 0.  1.
</event>
<event>
 5   0  0.3969536E-03  0.9531504E+03  0.7818609E-02  0.9361476E-01
       -1   -1    0    0    0  501  0.00000000000E+00  0.00000000000E+00  0.15333883277E+03  0.15333883285E+03  0.50400001928E-02 0.  1.
        1   -1    0    0  501    0  0.00000000000E+00  0.00000000000E+00 -0.14811897264E+04  0.14811897264E+04  0.50400001928E-02 0. -1.
    10030    2    1    2    0    0  0.00000000000E+00  0.00000000000E+00 -0.13278508937E+04  0.16345285593E+04  0.95315036343E+03 0.  0.
        1    1    3    3  502    0 -0.11511133106E+03  0.24974034641E+03 -0.13314108544E+04  0.13595130461E+04  0.50400001928E-02 0. -1.
       -1    1    3    3    0  502  0.11511133106E+03 -0.24974034641E+03  0.35599607443E+01  0.27501551322E+03  0.50400001928E-02 0.  1.
</event>
<event>
 5   0  0.6724773E-03  0.8989336E+03  0.7818609E-02  0.9426915E-01
       -2   -1    0    0    0  501  0.00000000000E+00  0.00000000000E+00  0.83262425793E+02  0.83262425832E+02  0.25500000920E-02 0.  1.
        2   -1    0    0  501    0  0.00000000000E+00  0.00000000000E+00 -0.24263092813E+04  0.24263092813E+04  0.25500000920E-02 0. -1.
    10030    2    1    2    0    0  0.00000000000E+00  0.00000000000E+00 -0.23430468555E+04  0.25095717071E+04  0.89893358272E+03 0.  0.
        5    1    3    3  502    0 -0.16305901865E+03 -0.26521941348E+03 -0.26660644930E+03  0.40991544208E+03  0.46999998093E+01 0.  1.
       -5    1    3    3    0  502  0.16305901865E+03  0.26521941348E+03 -0.20764404062E+04  0.20996562651E+04  0.46999998093E+01 0. -1.
</event>
<event>
 5   0  0.2560250E-03  0.9036048E+03  0.7818609E-02  0.9421086E-01
        4   -1    0    0  501    0  0.00000000000E+00  0.00000000000E+00  0.36747299013E+03  0.36747518471E+03  0.12699999809E+01 0.  1.
       -4   -1    0    0    0  501  0.00000000000E+00  0.00000000000E+00 -0.55547951675E+03  0.55548096856E+03  0.12699999809E+01 0. -1.
    10030    2    1    2    0    0  0.00000000000E+00  0.00000000000E+00 -0.18800652662E+03  0.92295615327E+03  0.90360478463E+03 0.  0.
        4    1    3    3  502    0 -0.32922180121E+03  0.16195169638E+03  0.17528741865E+03  0.40662346021E+03  0.12699999809E+01 0.  1.
       -4    1    3    3    0  502  0.32922180121E+03 -0.16195169638E+03 -0.36329394527E+03  0.51633269306E+03  0.12699999809E+01 0. -1.
</event>
<event>
 5   0  0.6524705E-03  0.8869170E+03  0.7818609E-02  0.9442085E-01
        2   -1    0    0  501    0  0.00000000000E+00  0.00000000000E+00  0.19499751275E+04  0.19499751275E+04  0.25500000920E-02 0.  1.
       -2   -1    0    0    0  501  0.00000000000E+00  0.00000000000E+00 -0.10085023924E+03  0.10085023928E+03  0.25500000920E-02 0. -1.
    10030    2    1    2    0    0  0.00000000000E+00  0.00000000000E+00  0.18491248882E+04  0.20508253668E+04  0.88691703820E+03 0.  0.
        3    1    3    3  502    0 -0.40714002611E+03 -0.16436728312E+03  0.78060676920E+03  0.89561517570E+03  0.10100000352E+00 0. -1.
       -3    1    3    3    0  502  0.40714002611E+03  0.16436728312E+03  0.10685181190E+04  0.11552101911E+04  0.10100000352E+00 0.  1.
</event>
<event>
 5   0  0.3927993E-03  0.8975928E+03  0.7818609E-02  0.9428595E-01
        1   -1    0    0  501    0  0.00000000000E+00  0.00000000000E+00  0.47189799343E+03  0.47189799346E+03  0.50400001928E-02 0. -1.
       -1   -1    0    0    0  501  0.00000000000E+00  0.00000000000E+00 -0.42682578130E+03  0.42682578133E+03  0.50400001928E-02 0.  1.
    10030    2    1    2    0    0  0.00000000000E+00  0.00000000000E+00  0.45072212130E+02  0.89872377479E+03  0.89759284704E+03 0.  0.
        2    1    3    3  502    0  0.81211366441E+02  0.65480226389E+02  0.45958955634E+03  0.47128070870E+03  0.25500000920E-02 0. -1.
       -2    1    3    3    0  502 -0.81211366441E+02 -0.65480226389E+02 -0.41451734421E+03  0.42744306609E+03  0.25500000920E-02 0.  1.
</event>
<event>
 5   0  0.3794006E-03  0.8943528E+03  0.7818609E-02  0.9432668E-01
        1   -1    0    0  501    0  0.00000000000E+00  0.00000000000E+00  0.23038709812E+03  0.23038709817E+03  0.50400001928E-02 0.  1.
       -1   -1    0    0    0  501  0.00000000000E+00  0.00000000000E+00 -0.86795983915E+03  0.86795983916E+03  0.50400001928E-02 0. -1.
    10030    2    1    2    0    0  0.00000000000E+00  0.00000000000E+00 -0.63757274103E+03  0.10983469373E+04  0.89435283566E+03 0.  0.
        5    1    3    3  502    0  0.11992272326E+03 -0.33561097086E+03  0.12863034253E+02  0.35665632051E+03  0.46999998093E+01 0.  1.
       -5    1    3    3    0  502 -0.11992272326E+03  0.33561097086E+03 -0.65043577529E+03  0.74169061682E+03  0.46999998093E+01 0. -1.
</event>
<event>
 5   0  0.6609191E-03  0.8925423E+03  0.7818609E-02  0.9434952E-01
       -2   -1    0    0    0  501  0.00000000000E+00  0.00000000000E+00  0.17894206821E+04  0.17894206821E+04  0.25500000920E-02 0. -1.
        2   -1    0    0  501    0  0.00000000000E+00  0.00000000000E+00 -0.11129745124E+03  0.11129745127E+03  0.25500000920E-02 0.  1.
    10030    2    1    2    0    0  0.00000000000E+00  0.00000000000E+00  0.16781232309E+04  0.19007181334E+04  0.89254234888E+03 0.  0.
        2    1    3    3  502    0 -0.57860369403E+02 -0.36101180752E+03  0.13839973109E+04  0.14314768262E+04  0.25500000920E-02 0. -1.
       -2    1    3    3    0  502  0.57860369403E+02  0.36101180752E+03  0.29412592001E+03  0.46924130716E+03  0.25500000920E-02 0.  1.
</event>
<event>
 5   0  0.6863405E-03  0.9032540E+03  0.7818609E-02  0.9421523E-01
       -2   -1    0    0    0  501  0.00000000000E+00  0.00000000000E+00  0.20453944240E+03  0.20453944242E+03  0.25500000920E-02 0.  1.
        2   -1    0    0  501    0  0.00000000000E+00  0.00000000000E+00 -0.99720098292E+03  0.99720098293E+03  0.25500000920E-02 0. -1.
    10030    2    1    2    0    0  0.00000000000E+00  0.00000000000E+00 -0.79266154052E+03  0.12017404253E+04  0.90325396876E+03 0.  0.
        1    1    3    3  502    0 -0.19903500754E+03 -0.15973544786E+03  0.99407850617E+02  0.27388367662E+03  0.50400001928E-02 0.  1.
       -1    1    3    3    0  502  0.19903500754E+03  0.15973544786E+03 -0.89206939114E+03  0.92785674873E+03  0.50400001928E-02 0. -1.
</event>
<event>
 5   0  0.3927993E-03  0.9009992E+03  0.7818609E-02  0.9424333E-01
        1   -1    0    0  501    0  0.00000000000E+00  0.00000000000E+00  0.22098907220E+03  0.22098907225E+03  0.50400001928E-02 0. -1.
       -1   -1    0    0    0  501  0.00000000000E+00  0.00000000000E+00 -0.91837066506E+03  0.91837066507E+03  0.50400001928E-02 0.  1.
    10030    2    1    2    0    0  0.00000000000E+00  0.00000000000E+00 -0.69738159286E+03  0.11393597373E+04  0.90099918145E+03 0.  0.
        2    1    3    3  502    0 -0.33011711883E+03  0.29314498435E+03 -0.23531343733E+03  0.50028362734E+03  0.25500000920E-02 0. -1.
       -2    1    3    3    0  502  0.33011711883E+03 -0.29314498435E+03 -0.46206815553E+03  0.63907610998E+03  0.25500000920E-02 0.  1.
</event>
<event>
 5   0  0.3943549E-03  0.8995529E+03  0.7818609E-02  0.9426140E-01
       -1   -1    0    0    0  501  0.00000000000E+00  0.00000000000E+00  0.12799272553E+03  0.12799272562E+03  0.50400001928E-02 0.  1.
        1   -1    0    0  501    0  0.00000000000E+00  0.00000000000E+00 -0.15805496355E+04  0.15805496355E+04  0.50400001928E-02 0. -1.
    10030    2    1    2    0    0  0.00000000000E+00  0.00000000000E+00 -0.14525569100E+04  0.17085423611E+04  0.89955290176E+03 0.  0.
        3    1    3    3  502    0 -0.14858087719E+03 -0.19623597275E+03 -0.14412774611E+04  0.14621441667E+04  0.10100000352E+00 0. -1.
       -3    1    3    3    0  502  0.14858087719E+03  0.19623597275E+03 -0.11279448885E+02  0.24639819447E+03  0.10100000352E+00 0.  1.
</event>
<event>
 5   0  0.6609191E-03  0.9036122E+03  0.7818609E-02  0.9421077E-01
       -2   -1    0    0    0  501  0.00000000000E+00  0.00000000000E+00  0.10780152004E+04  0.10780152004E+04  0.25500000920E-02 0. -1.
        2   -1    0    0  501    0  0.00000000000E+00  0.00000000000E+00 -0.18935609547E+03  0.18935609549E+03  0.25500000920E-02 0.  1.
    10030    2    1    2    0    0  0.00000000000E+00  0.00000000000E+00  0.88865910491E+03  0.12673712959E+04  0.90361219384E+03 0.  0.
        2    1    3    3  502    0  0.65661152400E+02  0.63097583914E+02 -0.17635096318E+03  0.19847507211E+03  0.25500000920E-02 0.  1.
       -2    1    3    3    0  502 -0.65661152400E+02 -0.63097583914E+02  0.10650100681E+04  0.10688962238E+04  0.25500000920E-02 0. -1.
</event>
<event>
 5   0  0.3969536E-03  0.9014745E+03  0.7818609E-02  0.9423740E-01
        1   -1    0    0  501    0  0.00000000000E+00  0.00000000000E+00  0.20845929955E+03  0.20845929962E+03  0.50400001928E-02 0. -1.
       -1   -1    0    0    0  501  0.00000000000E+00  0.00000000000E+00 -0.97459817895E+03  0.97459817896E+03  0.50400001928E-02 0.  1.
    10030    2    1    2    0    0  0.00000000000E+00  0.00000000000E+00 -0.76613887939E+03  0.11830574786E+04  0.90147446725E+03 0.  0.
        1    1    3    3  502    0  0.34745162699E+03 -0.87475425655E+02 -0.24170112592E+02  0.35910830895E+03  0.50400001928E-02 0. -1.
       -1    1    3    3    0  502 -0.34745162699E+03  0.87475425655E+02 -0.74196876680E+03  0.82394916962E+03  0.50400001928E-02 0.  1.
</event>
<event>
 5   0  0.3969536E-03  0.8982697E+03  0.7818609E-02  0.9427747E-01
        1   -1    0    0  501    0  0.00000000000E+00  0.00000000000E+00  0.10028479632E+04  0.10028479632E+04  0.50400001928E-02 0.  1.
       -1   -1    0    0    0  501  0.00000000000E+00  0.00000000000E+00 -0.20114926883E+03  0.20114926889E+03  0.50400001928E-02 0. -1.
    10030    2    1    2    0    0  0.00000000000E+00  0.00000000000E+00  0.80169869435E+03  0.12039972321E+04  0.89826974698E+03 0.  0.
        1    1    3    3  502    0  0.99369971901E+02  0.25522399755E+03 -0.76263940434E+02  0.28430594239E+03  0.50400001928E-02 0. -1.
       -1    1    3    3    0  502 -0.99369971901E+02 -0.25522399755E+03  0.87796263479E+03  0.91969128970E+03  0.50400001928E-02 0.  1.
</event>
<event>
 5   0  0.3927993E-03  0.9566510E+03  0.7818609E-02  0.9357410E-01
        1   -1    0    0  501    0  0.00000000000E+00  0.00000000000E+00  0.10167907455E+04  0.10167907455E+04  0.50400001928E-02 0.  1.
       -1   -1    0    0    0  501  0.00000000000E+00  0.00000000000E+00 -0.22501707164E+03  0.22501707170E+03  0.50400001928E-02 0. -1.
    10030    2    1    2    0    0  0.00000000000E+00  0.00000000000E+00  0.79177367385E+03  0.12418078172E+04  0.95665098352E+03 0.  0.
        2    1    3    3  502    0 -0.46318901926E+03 -0.81365635149E+02  0.50928005886E+03  0.69320315385E+03  0.25500000920E-02 0. -1.
       -2    1    3    3    0  502  0.46318901926E+03  0.81365635149E+02  0.28249361499E+03  0.54860466336E+03  0.25500000920E-02 0.  1.
</event>
<event>
 5   0  0.6534628E-03  0.8998169E+03  0.7818609E-02  0.9425810E-01
        2   -1    0    0  501    0  0.00000000000E+00  0.00000000000E+00  0.38883352405E+03  0.38883352406E+03  0.25500000920E-02 0. -1.
       -2   -1    0    0    0  501  0.00000000000E+00  0.00000000000E+00 -0.52057652856E+03  0.52057652857E+03  0.25500000920E-02 0.  1.
    10030    2    1    2    0    0  0.00000000000E+00  0.00000000000E+00 -0.13174300451E+03  0.90941005263E+03  0.89981688392E+03 0.  0.
        4    1    3    3  502    0  0.38188020778E+03 -0.58104777392E+02  0.16725484885E+03  0.42093283979E+03  0.12699999809E+01 0. -1.
       -4    1    3    3    0  502 -0.38188020778E+03  0.58104777392E+02 -0.29899785337E+03  0.48847721284E+03  0.12699999809E+01 0.  1.
</event>
<event>
 5   0  0.2560250E-03  0.9020223E+03  0.7818609E-02  0.9423057E-01
       -4   -1    0    0    0  501  0.00000000000E+00  0.00000000000E+00  0.74880128667E+03  0.74880236365E+03  0.12699999809E+01 0. -1.
        4   -1    0    0  501    0  0.00000000000E+00  0.00000000000E+00 -0.27164613306E+03  0.27164910179E+03  0.12699999809E+01 0.  1.
    10030    2    1    2    0    0  0.00000000000E+00  0.00000000000E+00  0.47715515361E+03  0.10204514654E+04  0.90202225733E+03 0.  0.
        4    1    3    3  502    0 -0.15715853901E+03 -0.11016969245E+03  0.70029656961E+03  0.72612193592E+03  0.12699999809E+01 0. -1.
       -4    1    3    3    0  502  0.15715853901E+03  0.11016969245E+03 -0.22314141600E+03  0.29432952953E+03  0.12699999809E+01 0.  1.
</event>
<event>
 5   0  0.6534628E-03  0.9044257E+03  0.7818609E-02  0.9420066E-01
       -2   -1    0    0    0  501  0.00000000000E+00  0.00000000000E+00  0.14484058606E+03  0.14484058608E+03  0.25500000920E-02 0.  1.
        2   -1    0    0  501    0  0.00000000000E+00  0.00000000000E+00 -0.14118726786E+04  0.14118726786E+04  0.25500000920E-02 0. -1.
    10030    2    1    2    0    0  0.00000000000E+00  0.00000000000E+00 -0.12670320925E+04  0.15567132647E+04  0.90442571000E+03 0.  0.
        4    1    3    3  502    0 -0.65985223454E+02 -0.62121829752E+02 -0.13960788402E+04  0.13990178385E+04  0.12699999809E+01 0. -1.
       -4    1    3    3    0  502  0.65985223454E+02  0.62121829752E+02  0.12904674769E+03  0.15769542617E+03  0.12699999809E+01 0.  1.
</event>
<event>
 5   0  0.6863405E-03  0.9015968E+03  0.7818609E-02  0.9423588E-01
       -2   -1    0    0    0  501  0.00000000000E+00  0.00000000000E+00  0.71659714913E+03  0.71659714914E+03  0.25500000920E-02 0.  1.
        2   -1    0    0  501    0  0.00000000000E+00  0.00000000000E+00 -0.28358920078E+03  0.28358920079E+03  0.25500000920E-02 0. -1.
    10030    2    1    2    0    0  0.00000000000E+00  0.00000000000E+00  0.43300794835E+03  0.10001863499E+04  0.90159683409E+03 0.  0.
        1    1    3    3  502    0 -0.76313888296E+02  0.42411273842E+03  0.69651068260E+02  0.43651654696E+03  0.50400001928E-02 0. -1.
       -1    1    3    3    0  502  0.76313888296E+02 -0.42411273842E+03  0.36335688009E+03  0.56366980297E+03  0.50400001928E-02 0.  1.
</event>
<event>
 5   0  0.2560250E-03  0.8935718E+03  0.7818609E-02  0.9433653E-01
        4   -1    0    0  501    0  0.00000000000E+00  0.00000000000E+00  0.11715451877E+03  0.11716140221E+03  0.12699999809E+01 0. -1.
       -4   -1    0    0    0  501  0.00000000000E+00  0.00000000000E+00 -0.17038263267E+04  0.17038268000E+04  0.12699999809E+01 0.  1.
    10030    2    1    2    0    0  0.00000000000E+00  0.00000000000E+00 -0.15866718079E+04  0.18209882022E+04  0.89357182506E+03 0.  0.
        2    1    3    3  502    0  0.13776614477E+03 -0.39118048209E+03 -0.45468064227E+03  0.61541544234E+03  0.25500000920E-02 0. -1.
       -2    1    3    3    0  502 -0.13776614477E+03  0.39118048209E+03 -0.11319911656E+04  0.12055727599E+04  0.25500000920E-02 0.  1.
</event>
<event>
 5   0  0.6524705E-03  0.8962042E+03  0.7818609E-02  0.9430339E-01
        2   -1    0    0  501    0  0.00000000000E+00  0.00000000000E+00  0.46914944220E+03  0.46914944221E+03  0.25500000920E-02 0.  1.
       -2   -1    0    0    0  501  0.00000000000E+00  0.00000000000E+00 -0.42799895427E+03  0.42799895428E+03  0.25500000920E-02 0. -1.
    10030    2    1    2    0    0  0.00000000000E+00  0.00000000000E+00  0.41150487929E+02  0.89714839649E+03  0.89620415233E+03 0.  0.
        3    1    3    3  502    0 -0.30786558801E+03  0.23944280846E+03  0.24144628662E+03  0.45870513222E+03  0.10100000352E+00 0.  1.
       -3    1    3    3    0  502  0.30786558801E+03 -0.23944280846E+03 -0.20029579869E+03  0.43844326426E+03  0.10100000352E+00 0. -1.
</event>
<event>
 5   0  0.6534628E-03  0.9061714E+03  0.7818609E-02  0.9417900E-01
       -2   -1    0    0    0  501  0.00000000000E+00  0.00000000000E+00  0.26748413462E+03  0.26748413464E+03  0.25500000920E-02 0. -1.
        2   -1    0    0  501    0  0.00000000000E+00  0.00000000000E+00 -0.76747220891E+03  0.76747220891E+03  0.25500000920E-02 0.  1.
    10030    2    1    2    0    0  0.00000000000E+00  0.00000000000E+00 -0.49998807428E+03  0.10349563435E+04  0.90617137376E+03 0.  0.
        4    1    3    3  502    0  0.20174983404E+03 -0.29362586901E+03  0.69729935399E+02  0.36301931529E+03  0.12699999809E+01 0. -1.
       -4    1    3    3    0  502 -0.20174983404E+03  0.29362586901E+03 -0.56971800968E+03  0.67193702826E+03  0.12699999809E+01 0.  1.
</event>
<event>
 5   0  0.3943549E-03  0.9038241E+03  0.7818609E-02  0.9420814E-01
       -1   -1    0    0    0  501  0.00000000000E+00  0.00000000000E+00  0.46294491760E+03  0.46294491763E+03  0.50400001928E-02 0.  1.
        1   -1    0    0  501    0  0.00000000000E+00  0.00000000000E+00 -0.44114211712E+03  0.44114211715E+03  0.50400001928E-02 0. -1.
    10030    2    1    2    0    0  0.00000000000E+00  0.00000000000E+00  0.21802800478E+02  0.90408703478E+03  0.90382410034E+03 0.  0.
        3    1    3    3  502    0  0.49782608270E+02 -0.35710490957E+03 -0.26161549305E+03  0.44547154896E+03  0.10100000352E+00 0. -1.
       -3    1    3    3    0  502 -0.49782608270E+02  0.35710490957E+03  0.28341829353E+03  0.45861548582E+03  0.10100000352E+00 0.  1.
</event>
<event>
 5   0  0.3927993E-03  0.8923231E+03  0.7818609E-02  0.9435229E-01
       -1   -1    0    0    0  501  0.00000000000E+00  0.00000000000E+00  0.40039261646E+03  0.40039261649E+03  0.50400001928E-02 0. -1.
        1   -1    0    0  501    0  0.00000000000E+00  0.00000000000E+00 -0.49716229375E+03  0.49716229378E+03  0.50400001928E-02 0.  1.
    10030    2    1    2    0    0  0.00000000000E+00  0.00000000000E+00 -0.96769677287E+02  0.89755491027E+03  0.89232306174E+03 0.  0.
        2    1    3    3  502    0  0.29314344049E+03 -0.42722131089E+02  0.28719055632E+03  0.41259747071E+03  0.25500000920E-02 0. -1.
       -2    1    3    3    0  502 -0.29314344049E+03  0.42722131089E+02 -0.38396023361E+03  0.48495743956E+03  0.25500000920E-02 0.  1.
</event>
<event>
 5   0  0.3794006E-03  0.9107170E+03  0.7818609E-02  0.9412283E-01
        1   -1    0    0  501    0  0.00000000000E+00  0.00000000000E+00  0.37841932574E+03  0.37841932577E+03  0.50400001928E-02 0.  1.
       -1   -1    0    0    0  501  0.00000000000E+00  0.00000000000E+00 -0.54794072098E+03  0.54794072101E+03  0.50400001928E-02 0. -1.
    10030    2    1    2    0    0  0.00000000000E+00  0.00000000000E+00 -0.16952139524E+03  0.92636004678E+03  0.91071698833E+03 0.  0.
        5    1    3    3  502    0  0.26985369738E+03  0.35901157194E+03 -0.85135448823E+01  0.44922699966E+03  0.46999998093E+01 0. -1.
       -5    1    3    3    0  502 -0.26985369738E+03 -0.35901157194E+03 -0.16100785036E+03  0.47713304712E+03  0.46999998093E+01 0.  1.
</event>
<event>
 5   0  0.6534628E-03  0.9019897E+03  0.7818609E-02  0.9423098E-01
       -2   -1    0    0    0  501  0.00000000000E+00  0.00000000000E+00  0.21675773706E+03  0.21675773708E+03  0.25500000920E-02 0. -1.
        2   -1    0    0  501    0  0.00000000000E+00  0.00000000000E+00 -0.93835805390E+03  0.93835805390E+03  0.25500000920E-02 0.  1.
    10030    2    1    2    0    0  0.00000000000E+00  0.00000000000E+00 -0.72160031683E+03  0.11551157910E+04  0.90198973016E+03 0.  0.
        4    1    3    3  502    0  0.23345270483E+02  0.39910463378E+03 -0.93503204984E+02  0.41057760850E+03  0.12699999809E+01 0. -1.
       -4    1    3    3    0  502 -0.23345270483E+02 -0.39910463378E+03 -0.62809711185E+03  0.74453818248E+03  0.12699999809E+01 0.  1.
</event>
<event>
 5   0  0.3969536E-03  0.8828719E+03  0.7818609E-02  0.9447249E-01
       -1   -1    0    0    0  501  0.00000000000E+00  0.00000000000E+00  0.28027328963E+03  0.28027328968E+03  0.50400001928E-02 0. -1.
        1   -1    0    0  501    0  0.00000000000E+00  0.00000000000E+00 -0.69527031170E+03  0.69527031171E+03  0.50400001928E-02 0.  1.
    10030    2    1    2    0    0  0.00000000000E+00  0.00000000000E+00 -0.41499702207E+03  0.97554360139E+03  0.88287189891E+03 0.  0.
        1    1    3    3  502    0  0.25418325195E+03  0.23832030463E+03  0.91986068564E+02  0.36037082291E+03  0.50400001928E-02 0. -1.
       -1    1    3    3    0  502 -0.25418325195E+03 -0.23832030463E+03 -0.50698309063E+03  0.61517277848E+03  0.50400001928E-02 0.  1.
</event>
<event>
 5   0  0.3794006E-03  0.8961389E+03  0.7818609E-02  0.9430421E-01
       -1   -1    0    0    0  501  0.00000000000E+00  0.00000000000E+00  0.20256241110E+03  0.20256241116E+03  0.50400001928E-02 0. -1.
        1   -1    0    0  501    0  0.00000000000E+00  0.00000000000E+00 -0.99113261113E+03  0.99113261115E+03  0.50400001928E-02 0.  1.
    10030    2    1    2    0    0  0.00000000000E+00  0.00000000000E+00 -0.78857020003E+03  0.11936950223E+04  0.89613885415E+03 0.  0.
        5    1    3    3  502    0  0.42309515712E+03  0.13954225181E+03 -0.33092453579E+03  0.55499071200E+03  0.46999998093E+01 0.  1.
       -5    1    3    3    0  502 -0.42309515712E+03 -0.13954225181E+03 -0.45764566424E+03  0.63870431031E+03  0.46999998093E+01 0. -1.
</event>
<event>
 5   0  0.3969536E-03  0.9006560E+03  0.7818609E-02  0.9424762E-01
        1   -1    0    0  501    0  0.00000000000E+00  0.00000000000E+00  0.24891506215E+03  0.24891506220E+03  0.50400001928E-02 0.  1.
       -1   -1    0    0    0  501  0.00000000000E+00  0.00000000000E+00 -0.81471691959E+03  0.81471691961E+03  0.50400001928E-02 0. -1.
    10030    2    1    2    0    0  0.00000000000E+00  0.00000000000E+00 -0.56580185744E+03  0.10636319818E+04  0.90065601139E+03 0.  0.
        1    1    3    3  502    0  0.36704868640E+02  0.44328865069E+03 -0.19987032939E+03  0.48764764309E+03  0.50400001928E-02 0. -1.
       -1    1    3    3    0  502 -0.36704868640E+02 -0.44328865069E+03 -0.36593152805E+03  0.57598433873E+03  0.50400001928E-02 0.  1.
</event>
<event>
 5   0  0.3927993E-03  0.9018641E+03  0.7818609E-02  0.9423254E-01
        1   -1    0    0  501    0  0.00000000000E+00  0.00000000000E+00  0.11333615812E+04  0.11333615813E+04  0.50400001928E-02 0.  1.
       -1   -1    0    0    0  501  0.00000000000E+00  0.00000000000E+00 -0.17941292250E+03  0.17941292257E+03  0.50400001928E-02 0. -1.
    10030    2    1    2    0    0  0.00000000000E+00  0.00000000000E+00  0.95394865875E+03  0.13127745038E+04  0.90186409972E+03 0.  0.
        2    1    3    3  502    0 -0.27219258355E+03  0.70079610363E+02  0.99025397816E+03  0.10293701451E+04  0.25500000920E-02 0.  1.
       -2    1    3    3    0  502  0.27219258355E+03 -0.70079610363E+02 -0.36305319407E+02  0.28340435874E+03  0.25500000920E-02 0. -1.
</event>
<event>
 5   0  0.6724773E-03  0.9003961E+03  0.7818609E-02  0.9425086E-01
       -2   -1    0    0    0  501  0.00000000000E+00  0.00000000000E+00  0.30789674167E+03  0.30789674168E+03  0.25500000920E-02 0.  1.
        2   -1    0    0  501    0  0.00000000000E+00  0.00000000000E+00 -0.65826712769E+03  0.65826712769E+03  0.25500000920E-02 0. -1.
    10030    2    1    2    0    0  0.00000000000E+00  0.00000000000E+00 -0.35037038602E+03  0.96616386937E+03  0.90039614342E+03 0.  0.
        5    1    3    3  502    0 -0.21261832651E+02 -0.31307585301E+03 -0.52154325855E+03  0.60868548184E+03  0.46999998093E+01 0. -1.
       -5    1    3    3    0  502  0.21261832651E+02  0.31307585301E+03  0.17117287254E+03  0.35747838753E+03  0.46999998093E+01 0.  1.
</event>
<event>
 5   0  0.6534628E-03  0.9064973E+03  0.7818609E-02  0.9417496E-01
       -2   -1    0    0    0  501  0.00000000000E+00  0.00000000000E+00  0.13433538565E+03  0.13433538567E+03  0.25500000920E-02 0.  1.
        2   -1    0    0  501    0  0.00000000000E+00  0.00000000000E+00 -0.15292644523E+04  0.15292644523E+04  0.25500000920E-02 0. -1.
    10030    2    1    2    0    0  0.00000000000E+00  0.00000000000E+00 -0.13949290666E+04  0.16635998380E+04  0.90649728070E+03 0.  0.
        4    1    3    3  502    0  0.26905449714E+03 -0.35727229830E+03 -0.56261949037E+03  0.71873230163E+03  0.12699999809E+01 0.  1.
       -4    1    3    3    0  502 -0.26905449714E+03  0.35727229830E+03 -0.83230957625E+03  0.94486753632E+03  0.12699999809E+01 0. -1.
</event>
<event>
 5   0  0.3943549E-03  0.9049240E+03  0.7818609E-02  0.9419447E-01
        1   -1    0    0  501    0  0.00000000000E+00  0.00000000000E+00  0.64542831305E+03  0.64542831307E+03  0.50400001928E-02 0. -1.
       -1   -1    0    0    0  501  0.00000000000E+00  0.00000000000E+00 -0.31718760207E+03  0.31718760211E+03  0.50400001928E-02 0.  1.
    10030    2    1    2    0    0  0.00000000000E+00  0.00000000000E+00  0.32824071098E+03  0.96261591518E+03  0.90492399450E+03 0.  0.
        3    1    3    3  502    0  0.22269626672E+02  0.10529026438E+03  0.63161528435E+03  0.64071823266E+03  0.10100000352E+00 0. -1.
       -3    1    3    3    0  502 -0.22269626672E+02 -0.10529026438E+03 -0.30337457337E+03  0.32189768252E+03  0.10100000352E+00 0.  1.
</event>
<event>
 5   0  0.3927993E-03  0.9122490E+03  0.7818609E-02  0.9410398E-01
       -1   -1    0    0    0  501  0.00000000000E+00  0.00000000000E+00  0.17880106119E+03  0.17880106126E+03  0.50400001928E-02 0. -1.
        1   -1    0    0  501    0  0.00000000000E+00  0.00000000000E+00 -0.11635811431E+04  0.11635811431E+04  0.50400001928E-02 0.  1.
    10030    2    1    2    0    0  0.00000000000E+00  0.00000000000E+00 -0.98478008188E+03  0.13423822043E+04  0.91224896430E+03 0.  0.
        2    1    3    3  502    0 -0.94945512401E+02 -0.14496403922E+03 -0.11132556386E+04  0.11266620345E+04  0.25500000920E-02 0.  1.
       -2    1    3    3    0  502  0.94945512401E+02  0.14496403922E+03  0.12847555676E+03  0.21572016985E+03  0.25500000920E-02 0. -1.
</event>
<event>
 5   0  0.6534628E-03  0.8987130E+03  0.7818609E-02  0.9427192E-01
        2   -1    0    0  501    0  0.00000000000E+00  0.00000000000E+00  0.27134347846E+03  0.27134347847E+03  0.25500000920E-02 0. -1.
       -2   -1    0    0    0  501  0.00000000000E+00  0.00000000000E+00 -0.74415378913E+03  0.74415378914E+03  0.25500000920E-02 0.  1.
    10030    2    1    2    0    0  0.00000000000E+00  0.00000000000E+00 -0.47281031067E+03  0.10154972676E+04  0.89871303020E+03 0.  0.
        4    1    3    3  502    0  0.32356104993E+02  0.41583947931E+03 -0.42531333401E+03  0.59570331128E+03  0.12699999809E+01 0.  1.
       -4    1    3    3    0  502 -0.32356104993E+02 -0.41583947931E+03 -0.47496976661E+02  0.41979395633E+03  0.12699999809E+01 0. -1.
</event>
<event>
 5   0  0.3969536E-03  0.8974560E+03  0.7818609E-02  0.9428767E-01
        1   -1    0    0  501    0  0.00000000000E+00  0.00000000000E+00  0.36055549296E+03  0.36055549300E+03  0.50400001928E-02 0. -1.
       -1   -1    0    0    0  501  0.00000000000E+00  0.00000000000E+00 -0.55846277683E+03  0.55846277685E+03  0.50400001928E-02 0.  1.
    10030    2    1    2    0    0  0.00000000000E+00  0.00000000000E+00 -0.19790728386E+03  0.91901826985E+03  0.89745600856E+03 0.  0.
        1    1    3    3  502    0  0.20997985327E+02  0.44811946900E+03 -0.10943918372E+03  0.46176715869E+03  0.50400001928E-02 0. -1.
       -1    1    3    3    0  502 -0.20997985327E+02 -0.44811946900E+03 -0.88468100146E+02  0.45725111116E+03  0.50400001928E-02 0.  1.
</event>
<event>
 5   0  0.6863405E-03  0.9000641E+03  0.7818609E-02  0.9425501E-01
        2   -1    0    0  501    0  0.00000000000E+00  0.00000000000E+00  0.23895737040E+04  0.23895737040E+04  0.25500000920E-02 0.  1.
       -2   -1    0    0    0  501  0.00000000000E+00  0.00000000000E+00 -0.84755214722E+02  0.84755214761E+02  0.25500000920E-02 0. -1.
    10030    2    1    2    0    0  0.00000000000E+00  0.00000000000E+00  0.23048184892E+04  0.24743289187E+04  0.90006406977E+03 0.  0.
        1    1    3    3  502    0 -0.11682162856E+03  0.34491454494E+03  0.42551584079E+03  0.56006880560E+03  0.50400001928E-02 0. -1.
       -1    1    3    3    0  502  0.11682162856E+03 -0.34491454494E+03  0.18793026484E+04  0.19142601131E+04  0.50400001928E-02 0.  1.
</event>
<event>
 5   0  0.3969536E-03  0.9175699E+03  0.7818609E-02  0.9403881E-01
       -1   -1    0    0    0  501  0.00000000000E+00  0.00000000000E+00  0.26465569260E+03  0.26465569265E+03  0.50400001928E-02 0.  1.
        1   -1    0    0  501    0  0.00000000000E+00  0.00000000000E+00 -0.79531115327E+03  0.79531115328E+03  0.50400001928E-02 0. -1.
    10030    2    1    2    0    0  0.00000000000E+00  0.00000000000E+00 -0.53065546066E+03  0.10599668459E+04  0.91756988647E+03 0.  0.
        1    1    3    3  502    0  0.21358053478E+03  0.29261330964E+03  0.59862510080E+02  0.36718212641E+03  0.50400001928E-02 0.  1.
       -1    1    3    3    0  502 -0.21358053478E+03 -0.29261330964E+03 -0.59051797074E+03  0.69278471953E+03  0.50400001928E-02 0. -1.
</event>
<event>
 5   0  0.3969536E-03  0.9040503E+03  0.7818609E-02  0.9420532E-01
       -1   -1    0    0    0  501  0.00000000000E+00  0.00000000000E+00  0.87052722612E+03  0.87052722614E+03  0.50400001928E-02 0.  1.
        1   -1    0    0  501    0  0.00000000000E+00  0.00000000000E+00 -0.23471607910E+03  0.23471607915E+03  0.50400001928E-02 0. -1.
    10030    2    1    2    0    0  0.00000000000E+00  0.00000000000E+00  0.63581114702E+03  0.11052433053E+04  0.90405030237E+03 0.  0.
        1    1    3    3  502    0  0.43840156126E+03  0.13748545972E+02  0.18430757972E+03  0.47576699697E+03  0.50400001928E-02 0.  1.
       -1    1    3    3    0  502 -0.43840156126E+03 -0.13748545972E+02  0.45150356730E+03  0.62947630833E+03  0.50400001928E-02 0. -1.
</event>
<event>
 5   0  0.6724773E-03  0.9588782E+03  0.7818609E-02  0.9354833E-01
        2   -1    0    0  501    0  0.00000000000E+00  0.00000000000E+00  0.13652433510E+04  0.13652433510E+04  0.25500000920E-02 0. -1.
       -2   -1    0    0    0  501  0.00000000000E+00  0.00000000000E+00 -0.16836694271E+03  0.16836694273E+03  0.25500000920E-02 0.  1.
    10030    2    1    2    0    0  0.00000000000E+00  0.00000000000E+00  0.11968764083E+04  0.15336102937E+04  0.95887819679E+03 0.  0.
        5    1    3    3  502    0 -0.72134201423E+02  0.40044948400E+03  0.19295010735E+03  0.45034982644E+03  0.46999998093E+01 0.  1.
       -5    1    3    3    0  502  0.72134201423E+02 -0.40044948400E+03  0.10039263009E+04  0.10832604672E+04  0.46999998093E+01 0. -1.
</event>
<event>
 5   0  0.3794006E-03  0.8999642E+03  0.7818609E-02  0.9425626E-01
       -1   -1    0    0    0  501  0.00000000000E+00  0.00000000000E+00  0.11397370500E+03  0.11397370511E+03  0.50400001928E-02 0. -1.
        1   -1    0    0  501    0  0.00000000000E+00  0.00000000000E+00 -0.17765843366E+04  0.17765843366E+04  0.50400001928E-02 0.  1.
    10030    2    1    2    0    0  0.00000000000E+00  0.00000000000E+00 -0.16626106316E+04  0.18905580418E+04  0.89996421975E+03 0.  0.
        5    1    3    3  502    0  0.12189232503E+03 -0.40572798110E+02 -0.17371883160E+04  0.17419383531E+04  0.46999998093E+01 0.  1.
       -5    1    3    3    0  502 -0.12189232503E+03  0.40572798110E+02  0.74577684362E+02  0.14861968863E+03  0.46999998093E+01 0. -1.
</event>
<event>
 5   0  0.6524705E-03  0.8979742E+03  0.7818609E-02  0.9428117E-01
        2   -1    0    0  501    0  0.00000000000E+00  0.00000000000E+00  0.42161923886E+03  0.42161923886E+03  0.25500000920E-02 0. -1.
       -2   -1    0    0    0  501  0.00000000000E+00  0.00000000000E+00 -0.47813143031E+03  0.47813143031E+03  0.25500000920E-02 0.  1.
    10030    2    1    2    0    0  0.00000000000E+00  0.00000000000E+00 -0.56512191451E+02  0.89975066918E+03  0.89797418610E+03 0.  0.
        3    1    3    3  502    0 -0.28921358775E+03 -0.14789566852E+03 -0.33882375249E+03  0.46938169283E+03  0.10100000352E+00 0.  1.
       -3    1    3    3    0  502  0.28921358775E+03  0.14789566852E+03  0.28231156104E+03  0.43036897635E+03  0.10100000352E+00 0. -1.
</event>
<event>
 5   0  0.6534628E-03  0.8979184E+03  0.7818609E-02  0.9428187E-01
       -2   -1    0    0    0  501  0.00000000000E+00  0.00000000000E+00  0.10144464768E+03  0.10144464771E+03  0.25500000920E-02 0. -1.
        2   -1    0    0  501    0  0.00000000000E+00  0.00000000000E+00 -0.19869391760E+04  0.19869391760E+04  0.25500000920E-02 0.  1.
    10030    2    1    2    0    0  0.00000000000E+00  0.00000000000E+00 -0.18854945283E+04  0.20883838237E+04  0.89791835867E+03 0.  0.
        4    1    3    3  502    0 -0.20129172981E+03 -0.52191846407E+02 -0.17320864157E+02  0.20867193045E+03  0.12699999809E+01 0. -1.
       -4    1    3    3    0  502  0.20129172981E+03  0.52191846407E+02 -0.18681736642E+04  0.18797118933E+04  0.12699999809E+01 0.  1.
</event>
<event>
 5   0  0.6524705E-03  0.9057160E+03  0.7818609E-02  0.9418464E-01
        2   -1    0    0  501    0  0.00000000000E+00  0.00000000000E+00  0.16033826836E+04  0.16033826836E+04  0.25500000920E-02 0.  1.
       -2   -1    0    0    0  501  0.00000000000E+00  0.00000000000E+00 -0.12790482572E+03  0.12790482575E+03  0.25500000920E-02 0. -1.
    10030    2    1    2    0    0  0.00000000000E+00  0.00000000000E+00  0.14754778579E+04  0.17312875094E+04  0.90571603218E+03 0.  0.
        3    1    3    3  502    0  0.31837470824E+03  0.31908546198E+03  0.82111211916E+03  0.93669798192E+03  0.10100000352E+00 0.  1.
       -3    1    3    3    0  502 -0.31837470824E+03 -0.31908546198E+03  0.65436573876E+03  0.79458952747E+03  0.10100000352E+00 0. -1.
</event>
<event>
 5   0  0.6863405E-03  0.9147487E+03  0.7818609E-02  0.9407330E-01
        2   -1    0    0  501    0  0.00000000000E+00  0.00000000000E+00  0.17132659649E+04  0.17132659649E+04  0.25500000920E-02 0. -1.
       -2   -1    0    0    0  501  0.00000000000E+00  0.00000000000E+00 -0.12210088516E+03  0.12210088519E+03  0.25500000920E-02 0.  1.
    10030    2    1    2    0    0  0.00000000000E+00  0.00000000000E+00  0.15911650797E+04  0.18353668501E+04  0.91474868866E+03 0.  0.
        1    1    3    3  502    0 -0.12643711823E+03 -0.22104452529E+03  0.33291433921E+02  0.25681773036E+03  0.50400001928E-02 0.  1.
       -1    1    3    3    0  502  0.12643711823E+03  0.22104452529E+03  0.15578736458E+04  0.15785491197E+04  0.50400001928E-02 0. -1.
</event>
<event>
 5   0  0.3927993E-03  0.9027137E+03  0.7818609E-02  0.9422195E-01
       -1   -1    0    0    0  501  0.00000000000E+00  0.00000000000E+00  0.22399308433E+03  0.22399308439E+03  0.50400001928E-02 0.  1.
        1   -1    0    0  501    0  0.00000000000E+00  0.00000000000E+00 -0.90950584634E+03  0.90950584635E+03  0.50400001928E-02 0. -1.
    10030    2    1    2    0    0  0.00000000000E+00  0.00000000000E+00 -0.68551276200E+03  0.11334989307E+04  0.90271373044E+03 0.  0.
        2    1    3    3  502    0  0.19929472248E+03  0.38930364392E+03 -0.48284690287E+03  0.65147282767E+03  0.25500000920E-02 0. -1.
       -2    1    3    3    0  502 -0.19929472248E+03 -0.38930364392E+03 -0.20266585913E+03  0.48202610307E+03  0.25500000920E-02 0.  1.
</event>
<event>
 5   0  0.3998066E-03  0.8961853E+03  0.7818609E-02  0.9430363E-01
       -1   -1    0    0    0  501  0.00000000000E+00  0.00000000000E+00  0.17611764905E+03  0.17611764912E+03  0.50400001928E-02 0.  1.
        1   -1    0    0  501    0  0.00000000000E+00  0.00000000000E+00 -0.11400732386E+04  0.11400732386E+04  0.50400001928E-02 0. -1.
    10030    2    1    2    0    0  0.00000000000E+00  0.00000000000E+00 -0.96395558952E+03  0.13161908877E+04  0.89618529015E+03 0.  0.
        4    1    3    3  502    0 -0.47414873830E+02  0.20321480335E+03  0.10039883427E+03  0.23157280795E+03  0.12699999809E+01 0.  1.
       -4    1    3    3    0  502  0.47414873830E+02 -0.20321480335E+03 -0.10643544238E+04  0.10846180797E+04  0.12699999809E+01 0. -1.
</event>
<event>
 5   0  0.6724773E-03  0.9538047E+03  0.7818609E-02  0.9360714E-01
       -2   -1    0    0    0  501  0.00000000000E+00  0.00000000000E+00  0.30986395787E+03  0.30986395788E+03  0.25500000920E-02 0. -1.
        2   -1    0    0  501    0  0.00000000000E+00  0.00000000000E+00 -0.73398613482E+03  0.73398613482E+03  0.25500000920E-02 0.  1.
    10030    2    1    2    0    0  0.00000000000E+00  0.00000000000E+00 -0.42412217695E+03  0.10438500927E+04  0.95380469440E+03 0.  0.
        5    1    3    3  502    0 -0.31425471045E+03  0.15415636270E+03 -0.56650953208E+03  0.66593944705E+03  0.46999998093E+01 0.  1.
       -5    1    3    3    0  502  0.31425471045E+03 -0.15415636270E+03  0.14238735513E+03  0.37791064566E+03  0.46999998093E+01 0. -1.
</event>
<event>
 5   0  0.3969536E-03  0.8943498E+03  0.7818609E-02  0.9432672E-01
        1   -1    0    0  501    0  0.00000000000E+00  0.00000000000E+00  0.88981705074E+03  0.88981705076E+03  0.50400001928E-02 0.  1.
       -1   -1    0    0    0  501  0.00000000000E+00  0.00000000000E+00 -0.22472641232E+03  0.22472641238E+03  0.50400001928E-02 0. -1.
    10030    2    1    2    0    0  0.00000000000E+00  0.00000000000E+00  0.66509063842E+03  0.11145434631E+04  0.89434980511E+03 0.  0.
        1    1    3    3  502    0  0.15225917560E+02 -0.10875676018E+03 -0.20766064578E+03  0.23491020685E+03  0.50400001928E-02 0. -1.
       -1    1    3    3    0  502 -0.15225917560E+02  0.10875676018E+03  0.87275128420E+03  0.87963325628E+03  0.50400001928E-02 0.  1.
</event>
<event>
 5   0  0.3998066E-03  0.8997344E+03  0.7818609E-02  0.9425914E-01
        1   -1    0    0  501    0  0.00000000000E+00  0.00000000000E+00  0.12531289277E+03  0.12531289287E+03  0.50400001928E-02 0. -1.
       -1   -1    0    0    0  501  0.00000000000E+00  0.00000000000E+00 -0.16150012235E+04  0.16150012235E+04  0.50400001928E-02 0.  1.
    10030    2    1    2    0    0  0.00000000000E+00  0.00000000000E+00 -0.14896883307E+04  0.17403141164E+04  0.89973435022E+03 0.  0.
        4    1    3    3  502    0  0.39107782333E+03  0.99353928609E+02 -0.11295894373E+04  0.11994944671E+04  0.12699999809E+01 0.  1.
       -4    1    3    3    0  502 -0.39107782333E+03 -0.99353928609E+02 -0.36009889347E+03  0.54081964925E+03  0.12699999809E+01 0. -1.
</event>
<event>
 5   0  0.3794006E-03  0.9021671E+03  0.7818609E-02  0.9422877E-01
        1   -1    0    0  501    0  0.00000000000E+00  0.00000000000E+00  0.63174295531E+03  0.63174295533E+03  0.50400001928E-02 0. -1.
       -1   -1    0    0    0  501  0.00000000000E+00  0.00000000000E+00 -0.32208725860E+03  0.32208725864E+03  0.50400001928E-02 0.  1.
    10030    2    1    2    0    0  0.00000000000E+00  0.00000000000E+00  0.30965569671E+03  0.95383021397E+03  0.90216707244E+03 0.  0.
        5    1    3    3  502    0 -0.11924129130E+03 -0.29539262022E+03  0.49245661110E+03  0.58652441504E+03  0.46999998093E+01 0. -1.
       -5    1    3    3    0  502  0.11924129130E+03  0.29539262022E+03 -0.18280091439E+03  0.36730579893E+03  0.46999998093E+01 0.  1.
</event>
<event>
 5   0  0.6534628E-03  0.8868230E+03  0.7818609E-02  0.9442205E-01
       -2   -1    0    0    0  501  0.00000000000E+00  0.00000000000E+00  0.28034882031E+03  0.28034882032E+03  0.25500000920E-02 0. -1.
        2   -1    0    0  501    0  0.00000000000E+00  0.00000000000E+00 -0.70131823400E+03  0.70131823401E+03  0.25500000920E-02 0.  1.
    10030    2    1    2    0    0  0.00000000000E+00  0.00000000000E+00 -0.42096941369E+03  0.98166705433E+03  0.88682295769E+03 0.  0.
        4    1    3    3  502    0 -0.22686313755E+03  0.36344940173E+03 -0.84031800665E+02  0.43660658174E+03  0.12699999809E+01 0. -1.
       -4    1    3    3    0  502  0.22686313755E+03 -0.36344940173E+03 -0.33693761303E+03  0.54506047258E+03  0.12699999809E+01 0.  1.
</event>
<event>
 5   0  0.3969536E-03  0.9003690E+03  0.7818609E-02  0.9425120E-01
        1   -1    0    0  501    0  0.00000000000E+00  0.00000000000E+00  0.77293992084E+03  0.77293992086E+03  0.50400001928E-02 0. -1.
       -1   -1    0    0    0  501  0.00000000000E+00  0.00000000000E+00 -0.26220160410E+03  0.26220160415E+03  0.50400001928E-02 0.  1.
    10030    2    1    2    0    0  0.00000000000E+00  0.00000000000E+00  0.51073831674E+03  0.10351415250E+04  0.90036900692E+03 0.  0.
        1    1    3    3  502    0  0.20885461275E+03  0.88181296556E+02  0.70252143789E+03  0.73819547618E+03  0.50400001928E-02 0. -1.
       -1    1    3    3    0  502 -0.20885461275E+03 -0.88181296556E+02 -0.19178312115E+03  0.29694604883E+03  0.50400001928E-02 0.  1.
</event>
<event>
 5   0  0.6609191E-03  0.8914921E+03  0.7818609E-02  0.9436280E-01
       -2   -1    0    0    0  501  0.00000000000E+00  0.00000000000E+00  0.28346332939E+03  0.28346332940E+03  0.25500000920E-02 0. -1.
        2   -1    0    0  501    0  0.00000000000E+00  0.00000000000E+00 -0.70093568163E+03  0.70093568163E+03  0.25500000920E-02 0.  1.
    10030    2    1    2    0    0  0.00000000000E+00  0.00000000000E+00 -0.41747235224E+03  0.98439901103E+03  0.89149214693E+03 0.  0.
        2    1    3    3  502    0  0.13824636948E+03  0.19380806609E+01  0.25918755296E+03  0.29375840830E+03  0.25500000920E-02 0. -1.
       -2    1    3    3    0  502 -0.13824636948E+03 -0.19380806609E+01 -0.67665990520E+03  0.69064060273E+03  0.25500000920E-02 0.  1.
</event>
<event>
 5   0  0.6724773E-03  0.9002436E+03  0.7818609E-02  0.9425277E-01
       -2   -1    0    0    0  501  0.00000000000E+00  0.00000000000E+00  0.29923393745E+03  0.29923393746E+03  0.25500000920E-02 0.  1.
        2   -1    0    0  501    0  0.00000000000E+00  0.00000000000E+00 -0.67709448843E+03  0.67709448844E+03  0.25500000920E-02 0. -1.
    10030    2    1    2    0    0  0.00000000000E+00  0.00000000000E+00 -0.37786055099E+03  0.97632842589E+03  0.90024363326E+03 0.  0.
        5    1    3    3  502    0 -0.30165552851E+03 -0.26610135059E+03 -0.40794225105E+03  0.57292665923E+03  0.46999998093E+01 0. -1.
       -5    1    3    3    0  502  0.30165552851E+03  0.26610135059E+03  0.30081700065E+02  0.40340176666E+03  0.46999998093E+01 0.  1.
</event>
<event>
 5   0  0.3943549E-03  0.9199499E+03  0.7818609E-02  0.9400981E-01
        1   -1    0    0  501    0  0.00000000000E+00  0.00000000000E+00  0.37556415494E+03  0.37556415497E+03  0.50400001928E-02 0.  1.
       -1   -1    0    0    0  501  0.00000000000E+00  0.00000000000E+00 -0.56335769603E+03  0.56335769605E+03  0.50400001928E-02 0. -1.
    10030    2    1    2    0    0  0.00000000000E+00  0.00000000000E+00 -0.18779354109E+03  0.93892185102E+03  0.91994990529E+03 0.  0.
        3    1    3    3  502    0 -0.18209880127E+03  0.39389142906E+03  0.61782554786E+02  0.43832353985E+03  0.10100000352E+00 0.  1.
       -3    1    3    3    0  502  0.18209880127E+03 -0.39389142906E+03 -0.24957609588E+03  0.50059831117E+03  0.10100000352E+00 0. -1.
</event>
<event>
 5   0  0.2560250E-03  0.9039508E+03  0.7818609E-02  0.9420656E-01
        3   -1    0    0  501    0  0.00000000000E+00  0.00000000000E+00  0.23957903402E+03  0.23957905531E+03  0.10100000352E+00 0.  1.
       -3   -1    0    0    0  501  0.00000000000E+00  0.00000000000E+00 -0.85266963128E+03  0.85266963726E+03  0.10100000352E+00 0. -1.
    10030    2    1    2    0    0  0.00000000000E+00  0.00000000000E+00 -0.61309059725E+03  0.10922486926E+04  0.90395084268E+03 0.  0.
        5    1    3    3  502    0  0.37327976521E+03  0.12780544752E+03 -0.57288737603E+03  0.69562493569E+03  0.46999998093E+01 0. -1.
       -5    1    3    3    0  502 -0.37327976521E+03 -0.12780544752E+03 -0.40203221217E+02  0.39662375688E+03  0.46999998093E+01 0.  1.
</event>
<event>
 5   0  0.3794006E-03  0.8590306E+03  0.7818609E-02  0.9478296E-01
       -1   -1    0    0    0  501  0.00000000000E+00  0.00000000000E+00  0.16457167186E+03  0.16457167193E+03  0.50400001928E-02 0.  1.
        1   -1    0    0  501    0  0.00000000000E+00  0.00000000000E+00 -0.11209911388E+04  0.11209911388E+04  0.50400001928E-02 0. -1.
    10030    2    1    2    0    0  0.00000000000E+00  0.00000000000E+00 -0.95641946691E+03  0.12855628107E+04  0.85903058362E+03 0.  0.
        5    1    3    3  502    0  0.95161945570E+02  0.28490382069E+03 -0.93761028584E+03  0.98456138510E+03  0.46999998093E+01 0. -1.
       -5    1    3    3    0  502 -0.95161945570E+02 -0.28490382069E+03 -0.18809181069E+02  0.30100142561E+03  0.46999998093E+01 0.  1.
</event>
<event>
 5   0  0.6609191E-03  0.8974788E+03  0.7818609E-02  0.9428739E-01
       -2   -1    0    0    0  501  0.00000000000E+00  0.00000000000E+00  0.12544333037E+03  0.12544333039E+03  0.25500000920E-02 0.  1.
        2   -1    0    0  501    0  0.00000000000E+00  0.00000000000E+00 -0.16052431477E+04  0.16052431477E+04  0.25500000920E-02 0. -1.
    10030    2    1    2    0    0  0.00000000000E+00  0.00000000000E+00 -0.14797998173E+04  0.17306864781E+04  0.89747879422E+03 0.  0.
        2    1    3    3  502    0  0.24781148501E+03  0.29387624578E+02 -0.20704911808E+02  0.25040538725E+03  0.25500000920E-02 0.  1.
       -2    1    3    3    0  502 -0.24781148501E+03 -0.29387624578E+02 -0.14590949055E+04  0.14802810909E+04  0.25500000920E-02 0. -1.
</event>
<event>
 5   0  0.3998066E-03  0.8985885E+03  0.7818609E-02  0.9427348E-01
        1   -1    0    0  501    0  0.00000000000E+00  0.00000000000E+00  0.63281379099E+03  0.63281379101E+03  0.50400001928E-02 0.  1.
       -1   -1    0    0    0  501  0.00000000000E+00  0.00000000000E+00 -0.31899639893E+03  0.31899639897E+03  0.50400001928E-02 0. -1.
    10030    2    1    2    0    0  0.00000000000E+00  0.00000000000E+00  0.31381739207E+03  0.95181018998E+03  0.89858849435E+03 0.  0.
        4    1    3    3  502    0 -0.29126503316E+03 -0.23755532351E+03 -0.10383328464E+03  0.38993693743E+03  0.12699999809E+01 0. -1.
       -4    1    3    3    0  502  0.29126503316E+03  0.23755532351E+03  0.41765067671E+03  0.56187325255E+03  0.12699999809E+01 0.  1.
</event>
<event>
 5   0  0.6524705E-03  0.8789136E+03  0.7818609E-02  0.9452331E-01
       -2   -1    0    0    0  501  0.00000000000E+00  0.00000000000E+00  0.58222283167E+03  0.58222283167E+03  0.25500000920E-02 0.  1.
        2   -1    0    0  501    0  0.00000000000E+00  0.00000000000E+00 -0.33169822734E+03  0.33169822735E+03  0.25500000920E-02 0. -1.
    10030    2    1    2    0    0  0.00000000000E+00  0.00000000000E+00  0.25052460433E+03  0.91392105902E+03  0.87891360482E+03 0.  0.
        3    1    3    3  502    0  0.57786976047E+02 -0.49995903051E+02  0.57526185026E+03  0.58031468316E+03  0.10100000352E+00 0.  1.
       -3    1    3    3    0  502 -0.57786976047E+02  0.49995903051E+02 -0.32473724593E+03  0.33360637586E+03  0.10100000352E+00 0. -1.
</event>
<event>
 5   0  0.6724773E-03  0.9023270E+03  0.7818609E-02  0.9422677E-01
        2   -1    0    0  501    0  0.00000000000E+00  0.00000000000E+00  0.50585757608E+03  0.50585757609E+03  0.25500000920E-02 0.  1.
       -2   -1    0    0    0  501  0.00000000000E+00  0.00000000000E+00 -0.40238307204E+03  0.40238307205E+03  0.25500000920E-02 0. -1.
    10030    2    1    2    0    0  0.00000000000E+00  0.00000000000E+00  0.10347450404E+03  0.90824064814E+03  0.90232704822E+03 0.  0.
        5    1    3    3  502    0  0.39930624043E+03  0.20849227016E+03  0.26837808070E+02  0.45128356751E+03  0.46999998093E+01 0. -1.
       -5    1    3    3    0  502 -0.39930624043E+03 -0.20849227016E+03  0.76636695974E+02  0.45695708063E+03  0.46999998093E+01 0.  1.
</event>
<event>
 5   0  0.6863405E-03  0.9050739E+03  0.7818609E-02  0.9419261E-01
       -2   -1    0    0    0  501  0.00000000000E+00  0.00000000000E+00  0.42326196316E+03  0.42326196317E+03  0.25500000920E-02 0. -1.
        2   -1    0    0  501    0  0.00000000000E+00  0.00000000000E+00 -0.48383671122E+03  0.48383671123E+03  0.25500000920E-02 0.  1.
    10030    2    1    2    0    0  0.00000000000E+00  0.00000000000E+00 -0.60574748063E+02  0.90709867439E+03  0.90507386714E+03 0.  0.
        1    1    3    3  502    0  0.21541741410E+03 -0.28187268381E+03  0.25129098424E+03  0.43474593841E+03  0.50400001928E-02 0. -1.
       -1    1    3    3    0  502 -0.21541741410E+03  0.28187268381E+03 -0.31186573230E+03  0.47235273598E+03  0.50400001928E-02 0.  1.
</event>
<event>
 5   0  0.3998066E-03  0.8968224E+03  0.7818609E-02  0.9429562E-01
       -1   -1    0    0    0  501  0.00000000000E+00  0.00000000000E+00  0.11660325046E+04  0.11660325046E+04  0.50400001928E-02 0.  1.
        1   -1    0    0  501    0  0.00000000000E+00  0.00000000000E+00 -0.17244167374E+03  0.17244167382E+03  0.50400001928E-02 0. -1.
    10030    2    1    2    0    0  0.00000000000E+00  0.00000000000E+00  0.99359083083E+03  0.13384741784E+04  0.89682238327E+03 0.  0.
        4    1    3    3  502    0 -0.13890692174E+03 -0.20297468709E+03  0.10563737488E+04  0.10846294144E+04  0.12699999809E+01 0.  1.
       -4    1    3    3    0  502  0.13890692174E+03  0.20297468709E+03 -0.62782918006E+02  0.25384476398E+03  0.12699999809E+01 0. -1.
</event>
<event>
 5   0  0.6863405E-03  0.9015950E+03  0.7818609E-02  0.9423590E-01
        2   -1    0    0  501    0  0.00000000000E+00  0.00000000000E+00  0.78547244550E+03  0.78547244550E+03  0.25500000920E-02 0. -1.
       -2   -1    0    0    0  501  0.00000000000E+00  0.00000000000E+00 -0.25872122528E+03  0.25872122529E+03  0.25500000920E-02 0.  1.
    10030    2    1    2    0    0  0.00000000000E+00  0.00000000000E+00  0.52675122022E+03  0.10441936708E+04  0.90159501669E+03 0.  0.
        1    1    3    3  502    0  0.27784360652E+02 -0.25651548188E+02  0.78363230156E+03  0.78454417128E+03  0.50400001928E-02 0. -1.
       -1    1    3    3    0  502 -0.27784360652E+02  0.25651548188E+02 -0.25688108134E+03  0.25964949951E+03  0.50400001928E-02 0.  1.
</event>
<event>
 5   0  0.3998066E-03  0.9118085E+03  0.7818609E-02  0.9410939E-01
        1   -1    0    0  501    0  0.00000000000E+00  0.00000000000E+00  0.15848556412E+04  0.15848556412E+04  0.50400001928E-02 0.  1.
       -1   -1    0    0    0  501  0.00000000000E+00  0.00000000000E+00 -0.13114677324E+03  0.13114677333E+03  0.50400001928E-02 0. -1.
    10030    2    1    2    0    0  0.00000000000E+00  0.00000000000E+00  0.14537088679E+04  0.17160024145E+04  0.91180854015E+03 0.  0.
        4    1    3    3  502    0 -0.20945788750E+03  0.22509023159E+03  0.13603538170E+04  0.13946692581E+04  0.12699999809E+01 0.  1.
       -4    1    3    3    0  502  0.20945788750E+03 -0.22509023159E+03  0.93355050889E+02  0.32133315643E+03  0.12699999809E+01 0. -1.
</event>
<event>
 5   0  0.6534628E-03  0.8987798E+03  0.7818609E-02  0.9427108E-01
        2   -1    0    0  501    0  0.00000000000E+00  0.00000000000E+00  0.37916170169E+03  0.37916170170E+03  0.25500000920E-02 0. -1.
       -2   -1    0    0    0  501  0.00000000000E+00  0.00000000000E+00 -0.53262569475E+03  0.53262569475E+03  0.25500000920E-02 0.  1.
    10030    2    1    2    0    0  0.00000000000E+00  0.00000000000E+00 -0.15346399306E+03  0.91178739645E+03  0.89877976121E+03 0.  0.
        4    1    3    3  502    0  0.29930392044E+03 -0.33209052135E+03 -0.12302909086E+03  0.46368601581E+03  0.12699999809E+01 0. -1.
       -4    1    3    3    0  502 -0.29930392044E+03  0.33209052135E+03 -0.30434902195E+02  0.44810138064E+03  0.12699999809E+01 0.  1.
</event>
<event>
 5   0  0.3969536E-03  0.8908609E+03  0.7818609E-02  0.9437078E-01
       -1   -1    0    0    0  501  0.00000000000E+00  0.00000000000E+00  0.21239373756E+03  0.21239373762E+03  0.50400001928E-02 0. -1.
        1   -1    0    0  501    0  0.00000000000E+00  0.00000000000E+00 -0.93415315585E+03  0.93415315587E+03  0.50400001928E-02 0.  1.
    10030    2    1    2    0    0  0.00000000000E+00  0.00000000000E+00 -0.72175941830E+03  0.11465468935E+04  0.89086088760E+03 0.  0.
        1    1    3    3  502    0 -0.41447161692E+03 -0.34565524018E+02 -0.56610347042E+03  0.70246326305E+03  0.50400001928E-02 0.  1.
       -1    1    3    3    0  502  0.41447161692E+03  0.34565524018E+02 -0.15565594787E+03  0.44408363043E+03  0.50400001928E-02 0. -1.
</event>
<event>
 5   0  0.6724773E-03  0.8951728E+03  0.7818609E-02  0.9431636E-01
        2   -1    0    0  501    0  0.00000000000E+00  0.00000000000E+00  0.97486846480E+03  0.97486846481E+03  0.25500000920E-02 0.  1.
       -2   -1    0    0    0  501  0.00000000000E+00  0.00000000000E+00 -0.20549805524E+03  0.20549805525E+03  0.25500000920E-02 0. -1.
    10030    2    1    2    0    0  0.00000000000E+00  0.00000000000E+00  0.76937040957E+03  0.11803665201E+04  0.89517277359E+03 0.  0.
        5    1    3    3  502    0 -0.44616989435E+02  0.49314586182E+02  0.96828470176E+03  0.97057712616E+03  0.46999998093E+01 0.  1.
       -5    1    3    3    0  502  0.44616989435E+02 -0.49314586182E+02 -0.19891429220E+03  0.20978939390E+03  0.46999998093E+01 0. -1.
</event>
<event>
 5   0  0.6724773E-03  0.8900320E+03  0.7818609E-02  0.9438128E-01
        2   -1    0    0  501    0  0.00000000000E+00  0.00000000000E+00  0.19690845101E+03  0.19690845103E+03  0.25500000920E-02 0.  1.
       -2   -1    0    0    0  501  0.00000000000E+00  0.00000000000E+00 -0.10057427529E+04  0.10057427529E+04  0.25500000920E-02 0. -1.
    10030    2    1    2    0    0  0.00000000000E+00  0.00000000000E+00 -0.80883430193E+03  0.12026512040E+04  0.89003201652E+03 0.  0.
        5    1    3    3  502    0  0.43358076153E+03 -0.41160545575E+02 -0.52774880513E+03  0.68427140711E+03  0.46999998093E+01 0. -1.
       -5    1    3    3    0  502 -0.43358076153E+03  0.41160545575E+02 -0.28108549680E+03  0.51837979686E+03  0.46999998093E+01 0.  1.
</event>
<event>
 5   0  0.6609191E-03  0.9001477E+03  0.7818609E-02  0.9425397E-01
       -2   -1    0    0    0  501  0.00000000000E+00  0.00000000000E+00  0.72720344913E+03  0.72720344914E+03  0.25500000920E-02 0. -1.
        2   -1    0    0  501    0  0.00000000000E+00  0.00000000000E+00 -0.27855542678E+03  0.27855542679E+03  0.25500000920E-02 0.  1.
    10030    2    1    2    0    0  0.00000000000E+00  0.00000000000E+00  0.44864802235E+03  0.10057588759E+04  0.90014769264E+03 0.  0.
        2    1    3    3  502    0 -0.29353346603E+02  0.10939794222E+03 -0.26237004864E+03  0.28577538584E+03  0.25500000920E-02 0.  1.
       -2    1    3    3    0  502  0.29353346603E+02 -0.10939794222E+03  0.71101807099E+03  0.71998349009E+03  0.25500000920E-02 0. -1.
</event>
<event>
 5   0  0.6609191E-03  0.8945223E+03  0.7818609E-02  0.9432455E-01
       -2   -1    0    0    0  501  0.00000000000E+00  0.00000000000E+00  0.26092785219E+03  0.26092785220E+03  0.25500000920E-02 0.  1.
        2   -1    0    0  501    0  0.00000000000E+00  0.00000000000E+00 -0.76665847578E+03  0.76665847578E+03  0.25500000920E-02 0. -1.
    10030    2    1    2    0    0  0.00000000000E+00  0.00000000000E+00 -0.50573062358E+03  0.10275863280E+04  0.89452232942E+03 0.  0.
        2    1    3    3  502    0  0.27803339502E+03  0.21927751723E+02 -0.65453385868E+03  0.71147590768E+03  0.25500000920E-02 0. -1.
       -2    1    3    3    0  502 -0.27803339502E+03 -0.21927751723E+02  0.14880323510E+03  0.31611042030E+03  0.25500000920E-02 0.  1.
</event>
<event>
 5   0  0.6863405E-03  0.9122178E+03  0.7818609E-02  0.9410436E-01
       -2   -1    0    0    0  501  0.00000000000E+00  0.00000000000E+00  0.71017287984E+03  0.71017287984E+03  0.25500000920E-02 0.  1.
        2   -1    0    0  501    0  0.00000000000E+00  0.00000000000E+00 -0.29293615547E+03  0.29293615548E+03  0.25500000920E-02 0. -1.
    10030    2    1    2    0    0  0.00000000000E+00  0.00000000000E+00  0.41723672437E+03  0.10031090353E+04  0.91221776599E+03 0.  0.
        1    1    3    3  502    0  0.18368789909E+03 -0.41748250921E+03  0.20690654215E+03  0.50084249717E+03  0.50400001928E-02 0. -1.
       -1    1    3    3    0  502 -0.18368789909E+03  0.41748250921E+03  0.21033018222E+03  0.50226653815E+03  0.50400001928E-02 0.  1.
</event>
<event>
 5   0  0.3794006E-03  0.8987090E+03  0.7818609E-02  0.9427197E-01
       -1   -1    0    0    0  501  0.00000000000E+00  0.00000000000E+00  0.76818264467E+03  0.76818264468E+03  0.50400001928E-02 0. -1.
        1   -1    0    0  501    0  0.00000000000E+00  0.00000000000E+00 -0.26285344309E+03  0.26285344314E+03  0.50400001928E-02 0.  1.
    10030    2    1    2    0    0  0.00000000000E+00  0.00000000000E+00  0.50532920158E+03  0.10310360878E+04  0.89870896982E+03 0.  0.
        5    1    3    3  502    0  0.31732478257E+03 -0.27483146355E+03  0.68855154371E+02  0.42542975128E+03  0.46999998093E+01 0.  1.
       -5    1    3    3    0  502 -0.31732478257E+03  0.27483146355E+03  0.43647404720E+03  0.60560633655E+03  0.46999998093E+01 0. -1.
</event>
<event>
 5   0  0.3943549E-03  0.9057413E+03  0.7818609E-02  0.9418433E-01
       -1   -1    0    0    0  501  0.00000000000E+00  0.00000000000E+00  0.73522055495E+03  0.73522055496E+03  0.50400001928E-02 0.  1.
        1   -1    0    0  501    0  0.00000000000E+00  0.00000000000E+00 -0.27895278539E+03  0.27895278543E+03  0.50400001928E-02 0. -1.
    10030    2    1    2    0    0  0.00000000000E+00  0.00000000000E+00  0.45626776956E+03  0.10141733404E+04  0.90574129134E+03 0.  0.
        3    1    3    3  502    0  0.21057762515E+03  0.39998459432E+03  0.25902668676E+03  0.52098507326E+03  0.10100000352E+00 0. -1.
       -3    1    3    3    0  502 -0.21057762515E+03 -0.39998459432E+03  0.19724108280E+03  0.49318826714E+03  0.10100000352E+00 0.  1.
</event>
<event>
 5   0  0.2560250E-03  0.8963932E+03  0.7818609E-02  0.9430101E-01
       -3   -1    0    0    0  501  0.00000000000E+00  0.00000000000E+00  0.30330271056E+03  0.30330272737E+03  0.10100000352E+00 0.  1.
        3   -1    0    0  501    0  0.00000000000E+00  0.00000000000E+00 -0.66230925527E+03  0.66230926297E+03  0.10100000352E+00 0. -1.
    10030    2    1    2    0    0  0.00000000000E+00  0.00000000000E+00 -0.35900654472E+03  0.96561199035E+03  0.89639322663E+03 0.  0.
        1    1    3    3  502    0  0.16929322168E+03 -0.14363638019E+03  0.23990534945E+03  0.32687334143E+03  0.50400001928E-02 0.  1.
       -1    1    3    3    0  502 -0.16929322168E+03  0.14363638019E+03 -0.59891189416E+03  0.63873864891E+03  0.50400001928E-02 0. -1.
</event>
<event>
 5   0  0.6524705E-03  0.8994484E+03  0.7818609E-02  0.9426271E-01
        2   -1    0    0  501    0  0.00000000000E+00  0.00000000000E+00  0.33647187627E+03  0.33647187628E+03  0.25500000920E-02 0.  1.
       -2   -1    0    0    0  501  0.00000000000E+00  0.00000000000E+00 -0.60109588472E+03  0.60109588472E+03  0.25500000920E-02 0. -1.
    10030    2    1    2    0    0  0.00000000000E+00  0.00000000000E+00 -0.26462400844E+03  0.93756776100E+03  0.89944840910E+03 0.  0.
        3    1    3    3  502    0 -0.29523546432E+03 -0.14671777929E+03 -0.45115406513E+03  0.55877552455E+03  0.10100000352E+00 0. -1.
       -3    1    3    3    0  502  0.29523546432E+03  0.14671777929E+03  0.18653005668E+03  0.37879223646E+03  0.10100000352E+00 0.  1.
</event>
<event>
 5   0  0.3969536E-03  0.8981394E+03  0.7818609E-02  0.9427910E-01
        1   -1    0    0  501    0  0.00000000000E+00  0.00000000000E+00  0.47495360126E+03  0.47495360129E+03  0.50400001928E-02 0.  1.
       -1   -1    0    0    0  501  0.00000000000E+00  0.00000000000E+00 -0.42459645186E+03  0.42459645189E+03  0.50400001928E-02 0. -1.
    10030    2    1    2    0    0  0.00000000000E+00  0.00000000000E+00  0.50357149402E+02  0.89955005318E+03  0.89813944111E+03 0.  0.
        1    1    3    3  502    0 -0.61246821000E+02 -0.41949330169E+03 -0.12316823361E+03  0.44147051662E+03  0.50400001928E-02 0. -1.
       -1    1    3    3    0  502  0.61246821000E+02  0.41949330169E+03  0.17352538301E+03  0.45807953657E+03  0.50400001928E-02 0.  1.
</event>
<event>
 5   0  0.6609191E-03  0.8962952E+03  0.7818609E-02  0.9430224E-01
       -2   -1    0    0    0  501  0.00000000000E+00  0.00000000000E+00  0.18619764389E+03  0.18619764391E+03  0.25500000920E-02 0. -1.
        2   -1    0    0  501    0  0.00000000000E+00  0.00000000000E+00 -0.10786187769E+04  0.10786187769E+04  0.25500000920E-02 0.  1.
    10030    2    1    2    0    0  0.00000000000E+00  0.00000000000E+00 -0.89242113301E+03  0.12648164208E+04  0.89629520792E+03 0.  0.
        2    1    3    3  502    0 -0.80290357583E+02 -0.55777985665E+02 -0.10633873149E+04  0.10678718587E+04  0.25500000920E-02 0.  1.
       -2    1    3    3    0  502  0.80290357583E+02  0.55777985665E+02  0.17096618185E+03  0.19694456212E+03  0.25500000920E-02 0. -1.
</event>
<event>
 5   0  0.3998066E-03  0.9056898E+03  0.7818609E-02  0.9418497E-01
        1   -1    0    0  501    0  0.00000000000E+00  0.00000000000E+00  0.59602114116E+03  0.59602114118E+03  0.50400001928E-02 0. -1.
       -1   -1    0    0    0  501  0.00000000000E+00  0.00000000000E+00 -0.34406246126E+03  0.34406246129E+03  0.50400001928E-02 0.  1.
    10030    2    1    2    0    0  0.00000000000E+00  0.00000000000E+00  0.25195867990E+03  0.94008360247E+03  0.90568979417E+03 0.  0.
        4    1    3    3  502    0 -0.33026563232E+03 -0.12214921583E+03 -0.16956316752E+03  0.39083129289E+03  0.12699999809E+01 0.  1.
       -4    1    3    3    0  502  0.33026563232E+03  0.12214921583E+03  0.42152184742E+03  0.54925230958E+03  0.12699999809E+01 0. -1.
</event>
<event>
 5   0  0.3969536E-03  0.8143719E+03  0.7818609E-02  0.9539444E-01
       -1   -1    0    0    0  501  0.00000000000E+00  0.00000000000E+00  0.26615708905E+03  0.26615708909E+03  0.50400001928E-02 0. -1.
        1   -1    0    0  501    0  0.00000000000E+00  0.00000000000E+00 -0.62294191497E+03  0.62294191499E+03  0.50400001928E-02 0.  1.
    10030    2    1    2    0    0  0.00000000000E+00  0.00000000000E+00 -0.35678482592E+03  0.88909900408E+03  0.81437192182E+03 0.  0.
        1    1    3    3  502    0 -0.25388668834E+03 -0.13826959078E+03 -0.49145073265E+03  0.57017607184E+03  0.50400001928E-02 0.  1.
       -1    1    3    3    0  502  0.25388668834E+03  0.13826959078E+03  0.13466590673E+03  0.31892293224E+03  0.50400001928E-02 0. -1.
</event>
<event>
 5   0  0.3927993E-03  0.9081884E+03  0.7818609E-02  0.9415403E-01
       -1   -1    0    0    0  501  0.00000000000E+00  0.00000000000E+00  0.24607586629E+03  0.24607586635E+03  0.50400001928E-02 0.  1.
        1   -1    0    0  501    0  0.00000000000E+00  0.00000000000E+00 -0.83795928866E+03  0.83795928868E+03  0.50400001928E-02 0. -1.
    10030    2    1    2    0    0  0.00000000000E+00  0.00000000000E+00 -0.59188342237E+03  0.10840351550E+04  0.90818843400E+03 0.  0.
        2    1    3    3  502    0  0.18040092963E+03 -0.41346534424E+03 -0.23387934828E+03  0.50813151433E+03  0.25500000920E-02 0.  1.
       -2    1    3    3    0  502 -0.18040092963E+03  0.41346534424E+03 -0.35800407409E+03  0.57590364069E+03  0.25500000920E-02 0. -1.
</event>
<event>
 5   0  0.3943549E-03  0.8986558E+03  0.7818609E-02  0.9427263E-01
        1   -1    0    0  501    0  0.00000000000E+00  0.00000000000E+00  0.52958731944E+03  0.52958731946E+03  0.50400001928E-02 0. -1.
       -1   -1    0    0    0  501  0.00000000000E+00  0.00000000000E+00 -0.38123187621E+03  0.38123187624E+03  0.50400001928E-02 0.  1.
    10030    2    1    2    0    0  0.00000000000E+00  0.00000000000E+00  0.14835544323E+03  0.91081919570E+03  0.89865581271E+03 0.  0.
        3    1    3    3  502    0  0.15904888053E+03  0.39893111316E+03  0.20807555666E+03  0.47721905549E+03  0.10100000352E+00 0. -1.
       -3    1    3    3    0  502 -0.15904888053E+03 -0.39893111316E+03 -0.59720113427E+02  0.43360014021E+03  0.10100000352E+00 0.  1.
</event>
<event>
 5   0  0.6534628E-03  0.8989730E+03  0.7818609E-02  0.9426866E-01
       -2   -1    0    0    0  501  0.00000000000E+00  0.00000000000E+00  0.11268403647E+03  0.11268403650E+03  0.25500000920E-02 0. -1.
        2   -1    0    0  501    0  0.00000000000E+00  0.00000000000E+00 -0.17929614345E+04  0.17929614345E+04  0.25500000920E-02 0.  1.
    10030    2    1    2    0    0  0.00000000000E+00  0.00000000000E+00 -0.16802773981E+04  0.19056454710E+04  0.89897304012E+03 0.  0.
        4    1    3    3  502    0  0.17781320726E+03 -0.14331270919E+03 -0.16608075182E+04  0.16764364869E+04  0.12699999809E+01 0.  1.
       -4    1    3    3    0  502 -0.17781320726E+03  0.14331270919E+03 -0.19469879899E+02  0.22920898415E+03  0.12699999809E+01 0. -1.
</event>
<event>
 5   0  0.6534628E-03  0.9096679E+03  0.7818609E-02  0.9413576E-01
        2   -1    0    0  501    0  0.00000000000E+00  0.00000000000E+00  0.40704163975E+03  0.40704163976E+03  0.25500000920E-02 0. -1.
       -2   -1    0    0    0  501  0.00000000000E+00  0.00000000000E+00 -0.50823773336E+03  0.50823773336E+03  0.25500000920E-02 0.  1.
    10030    2    1    2    0    0  0.00000000000E+00  0.00000000000E+00 -0.10119609360E+03  0.91527937312E+03  0.90966789627E+03 0.  0.
        4    1    3    3  502    0 -0.30395042414E+03 -0.20582679580E+03 -0.32080966440E+03  0.48751511143E+03  0.12699999809E+01 0.  1.
       -4    1    3    3    0  502  0.30395042414E+03  0.20582679580E+03  0.21961357080E+03  0.42776426169E+03  0.12699999809E+01 0. -1.
</event>
<event>
 5   0  0.3927993E-03  0.9018841E+03  0.7818609E-02  0.9423229E-01
       -1   -1    0    0    0  501  0.00000000000E+00  0.00000000000E+00  0.17873440879E+03  0.17873440886E+03  0.50400001928E-02 0. -1.
        1   -1    0    0  501    0  0.00000000000E+00  0.00000000000E+00 -0.11377143973E+04  0.11377143973E+04  0.50400001928E-02 0.  1.
    10030    2    1    2    0    0  0.00000000000E+00  0.00000000000E+00 -0.95897998850E+03  0.13164488062E+04  0.90188405070E+03 0.  0.
        2    1    3    3  502    0 -0.22318218612E+03 -0.35424930099E+03 -0.72393862483E+03  0.83629539517E+03  0.25500000920E-02 0.  1.
       -2    1    3    3    0  502  0.22318218612E+03  0.35424930099E+03 -0.23504136367E+03  0.48015341100E+03  0.25500000920E-02 0. -1.
</event>
<event>
 5   0  0.6534628E-03  0.9047498E+03  0.7818609E-02  0.9419663E-01
        2   -1    0    0  501    0  0.00000000000E+00  0.00000000000E+00  0.69634273583E+03  0.69634273584E+03  0.25500000920E-02 0. -1.
       -2   -1    0    0    0  501  0.00000000000E+00  0.00000000000E+00 -0.29388266277E+03  0.29388266278E+03  0.25500000920E-02 0.  1.
    10030    2    1    2    0    0  0.00000000000E+00  0.00000000000E+00  0.40246007306E+03  0.99022539862E+03  0.90474981606E+03 0.  0.
        4    1    3    3  502    0 -0.39795913370E+03  0.20297147790E+03  0.12327955650E+03  0.46343106811E+03  0.12699999809E+01 0. -1.
       -4    1    3    3    0  502  0.39795913370E+03 -0.20297147790E+03  0.27918051656E+03  0.52679433051E+03  0.12699999809E+01 0.  1.
</event>
<event>
 5   0  0.6863405E-03  0.8921094E+03  0.7818609E-02  0.9435499E-01
        2   -1    0    0  501    0  0.00000000000E+00  0.00000000000E+00  0.15211293756E+04  0.15211293756E+04  0.25500000920E-02 0.  1.
       -2   -1    0    0    0  501  0.00000000000E+00  0.00000000000E+00 -0.13080069154E+03  0.13080069156E+03  0.25500000920E-02 0. -1.
    10030    2    1    2    0    0  0.00000000000E+00  0.00000000000E+00  0.13903286841E+04  0.16519300672E+04  0.89210935266E+03 0.  0.
        1    1    3    3  502    0 -0.23288272799E+03  0.28118020483E+03  0.22064841235E+03  0.42659394567E+03  0.50400001928E-02 0. -1.
       -1    1    3    3    0  502  0.23288272799E+03 -0.28118020483E+03  0.11696802717E+04  0.12253361215E+04  0.50400001928E-02 0.  1.
</event>
<event>
 5   0  0.6534628E-03  0.9003563E+03  0.7818609E-02  0.9425136E-01
       -2   -1    0    0    0  501  0.00000000000E+00  0.00000000000E+00  0.35192681664E+03  0.35192681665E+03  0.25500000920E-02 0. -1.
        2   -1    0    0  501    0  0.00000000000E+00  0.00000000000E+00 -0.57585935350E+03  0.57585935351E+03  0.25500000920E-02 0.  1.
    10030    2    1    2    0    0  0.00000000000E+00  0.00000000000E+00 -0.22393253687E+03  0.92778617016E+03  0.90035626086E+03 0.  0.
        4    1    3    3  502    0  0.53912991378E+02  0.44686445177E+03 -0.10370405945E+03  0.46189889991E+03  0.12699999809E+01 0.  1.
       -4    1    3    3    0  502 -0.53912991378E+02 -0.44686445177E+03 -0.12022847742E+03  0.46588727024E+03  0.12699999809E+01 0. -1.
</event>
<event>
 5   0  0.3794006E-03  0.9087086E+03  0.7818609E-02  0.9414760E-01
       -1   -1    0    0    0  501  0.00000000000E+00  0.00000000000E+00  0.40027673818E+03  0.40027673822E+03  0.50400001928E-02 0. -1.
        1   -1    0    0  501    0  0.00000000000E+00  0.00000000000E+00 -0.51573776713E+03  0.51573776715E+03  0.50400001928E-02 0.  1.
    10030    2    1    2    0    0  0.00000000000E+00  0.00000000000E+00 -0.11546102894E+03  0.91601450537E+03  0.90870860282E+03 0.  0.
        5    1    3    3  502    0 -0.19450832390E+03  0.39939467779E+03 -0.15371234531E+03  0.47010549008E+03  0.46999998093E+01 0.  1.
       -5    1    3    3    0  502  0.19450832390E+03 -0.39939467779E+03  0.38251316364E+02  0.44590901528E+03  0.46999998093E+01 0. -1.
</event>
<event>
 5   0  0.6724773E-03  0.8833557E+03  0.7818609E-02  0.9446630E-01
        2   -1    0    0  501    0  0.00000000000E+00  0.00000000000E+00  0.94030465668E+03  0.94030465669E+03  0.25500000920E-02 0. -1.
       -2   -1    0    0    0  501  0.00000000000E+00  0.00000000000E+00 -0.20746393330E+03  0.20746393332E+03  0.25500000920E-02 0.  1.
    10030    2    1    2    0    0  0.00000000000E+00  0.00000000000E+00  0.73284072338E+03  0.11477685900E+04  0.88335565338E+03 0.  0.
        5    1    3    3  502    0  0.40440794552E+03 -0.61159340340E+02  0.58294842889E+03  0.71213566970E+03  0.46999998093E+01 0. -1.
       -5    1    3    3    0  502 -0.40440794552E+03  0.61159340340E+02  0.14989229449E+03  0.43563292031E+03  0.46999998093E+01 0.  1.
</event>
<event>
 5   0  0.3794006E-03  0.8991065E+03  0.7818609E-02  0.9426699E-01
        1   -1    0    0  501    0  0.00000000000E+00  0.00000000000E+00  0.60712513660E+03  0.60712513662E+03  0.50400001928E-02 0. -1.
       -1   -1    0    0    0  501  0.00000000000E+00  0.00000000000E+00 -0.33287723129E+03  0.33287723133E+03  0.50400001928E-02 0.  1.
    10030    2    1    2    0    0  0.00000000000E+00  0.00000000000E+00  0.27424790531E+03  0.94000236796E+03  0.89910652216E+03 0.  0.
        5    1    3    3  502    0 -0.33229517400E+03 -0.24496397896E+03  0.32311632162E+03  0.52426489579E+03  0.46999998093E+01 0. -1.
       -5    1    3    3    0  502  0.33229517400E+03  0.24496397896E+03 -0.48868416312E+02  0.41573747217E+03  0.46999998093E+01 0.  1.
</event>
<event>
 5   0  0.3943549E-03  0.8958895E+03  0.7818609E-02  0.9430734E-01
        1   -1    0    0  501    0  0.00000000000E+00  0.00000000000E+00  0.89190395110E+03  0.89190395111E+03  0.50400001928E-02 0. -1.
       -1   -1    0    0    0  501  0.00000000000E+00  0.00000000000E+00 -0.22497322308E+03  0.22497322314E+03  0.50400001928E-02 0.  1.
    10030    2    1    2    0    0  0.00000000000E+00  0.00000000000E+00  0.66693072802E+03  0.11168771742E+04  0.89588951684E+03 0.  0.
        3    1    3    3  502    0 -0.31609997410E+02 -0.34895067407E+03  0.68139247912E+03  0.76619937723E+03  0.10100000352E+00 0. -1.
       -3    1    3    3    0  502  0.31609997410E+02  0.34895067407E+03 -0.14461751099E+02  0.35067779702E+03  0.10100000352E+00 0.  1.
</event>
<event>
 5   0  0.6724773E-03  0.8872290E+03  0.7818609E-02  0.9441688E-01
        2   -1    0    0  501    0  0.00000000000E+00  0.00000000000E+00  0.48097043654E+03  0.48097043654E+03  0.25500000920E-02 0. -1.
       -2   -1    0    0    0  501  0.00000000000E+00  0.00000000000E+00 -0.40915987812E+03  0.40915987813E+03  0.25500000920E-02 0.  1.
    10030    2    1    2    0    0  0.00000000000E+00  0.00000000000E+00  0.71810558415E+02  0.89013031467E+03  0.88722895624E+03 0.  0.
        5    1    3    3  502    0 -0.28512370412E+03 -0.23522974350E+03  0.28194826723E+03  0.46491448060E+03  0.46999998093E+01 0. -1.
       -5    1    3    3    0  502  0.28512370412E+03  0.23522974350E+03 -0.21013770881E+03  0.42521583407E+03  0.46999998093E+01 0.  1.
</event>
<event>
 5   0  0.3969536E-03  0.9176419E+03  0.7818609E-02  0.9403793E-01
        1   -1    0    0  501    0  0.00000000000E+00  0.00000000000E+00  0.45102090749E+03  0.45102090752E+03  0.50400001928E-02 0.  1.
       -1   -1    0    0    0  501  0.00000000000E+00  0.00000000000E+00 -0.46675593551E+03  0.46675593554E+03  0.50400001928E-02 0. -1.
    10030    2    1    2    0    0  0.00000000000E+00  0.00000000000E+00 -0.15735028022E+02  0.91777684306E+03  0.91764194681E+03 0.  0.
        1    1    3    3  502    0 -0.32922891864E+03 -0.28638596684E+03  0.13395630302E+03  0.45645689174E+03  0.50400001928E-02 0.  1.
       -1    1    3    3    0  502  0.32922891864E+03  0.28638596684E+03 -0.14969133104E+03  0.46131995132E+03  0.50400001928E-02 0. -1.
</event>
<event>
 5   0  0.3998066E-03  0.8908597E+03  0.7818609E-02  0.9437080E-01
       -1   -1    0    0    0  501  0.00000000000E+00  0.00000000000E+00  0.14959203532E+03  0.14959203540E+03  0.50400001928E-02 0. -1.
        1   -1    0    0  501    0  0.00000000000E+00  0.00000000000E+00 -0.13263257101E+04  0.13263257101E+04  0.50400001928E-02 0.  1.
    10030    2    1    2    0    0  0.00000000000E+00  0.00000000000E+00 -0.11767336748E+04  0.14759177455E+04  0.89085972531E+03 0.  0.
        4    1    3    3  502    0  0.13363226579E+03  0.27117199156E+03 -0.11303349979E+04  0.11700643794E+04  0.12699999809E+01 0.  1.
       -4    1    3    3    0  502 -0.13363226579E+03 -0.27117199156E+03 -0.46398676873E+02  0.30585336615E+03  0.12699999809E+01 0. -1.
</event>
<event>
 5   0  0.3794006E-03  0.9134019E+03  0.7818609E-02  0.9408982E-01
       -1   -1    0    0    0  501  0.00000000000E+00  0.00000000000E+00  0.15774503758E+03  0.15774503766E+03  0.50400001928E-02 0.  1.
        1   -1    0    0  501    0  0.00000000000E+00  0.00000000000E+00 -0.13222333146E+04  0.13222333146E+04  0.50400001928E-02 0. -1.
    10030    2    1    2    0    0  0.00000000000E+00  0.00000000000E+00 -0.11644882770E+04  0.14799783522E+04  0.91340186986E+03 0.  0.
        5    1    3    3  502    0  0.34094930395E+03  0.20495205090E+03 -0.21884358224E+03  0.45405547515E+03  0.46999998093E+01 0.  1.
       -5    1    3    3    0  502 -0.34094930395E+03 -0.20495205090E+03 -0.94564469476E+03  0.10259228771E+04  0.46999998093E+01 0. -1.
</event>
<event>
 5   0  0.3998066E-03  0.9074141E+03  0.7818609E-02  0.9416361E-01
       -1   -1    0    0    0  501  0.00000000000E+00  0.00000000000E+00  0.27902867260E+03  0.27902867264E+03  0.50400001928E-02 0. -1.
        1   -1    0    0  501    0  0.00000000000E+00  0.00000000000E+00 -0.73773808878E+03  0.73773808880E+03  0.50400001928E-02 0.  1.
    10030    2    1    2    0    0  0.00000000000E+00  0.00000000000E+00 -0.45870941619E+03  0.10167667614E+04  0.90741408336E+03 0.  0.
        4    1    3    3  502    0  0.45085458169E+03  0.21033798835E+02 -0.17756589093E+03  0.48501910586E+03  0.12699999809E+01 0.  1.
       -4    1    3    3    0  502 -0.45085458169E+03 -0.21033798835E+02 -0.28114352526E+03  0.53174765559E+03  0.12699999809E+01 0. -1.
</event>
<event>
 5   0  0.3969536E-03  0.8968308E+03  0.7818609E-02  0.9429552E-01
       -1   -1    0    0    0  501  0.00000000000E+00  0.00000000000E+00  0.92633368970E+02  0.92633369107E+02  0.50400001928E-02 0. -1.
        1   -1    0    0  501    0  0.00000000000E+00  0.00000000000E+00 -0.21706686691E+04  0.21706686691E+04  0.50400001928E-02 0.  1.
    10030    2    1    2    0    0  0.00000000000E+00  0.00000000000E+00 -0.20780353002E+04  0.22633020382E+04  0.89683075750E+03 0.  0.
        1    1    3    3  502    0  0.24269087022E+03  0.36150231189E+03 -0.13095751196E+04  0.13800615109E+04  0.50400001928E-02 0.  1.
       -1    1    3    3    0  502 -0.24269087022E+03 -0.36150231189E+03 -0.76846018054E+03  0.88324052731E+03  0.50400001928E-02 0. -1.
</event>
<event>
 5   0  0.6534628E-03  0.9012131E+03  0.7818609E-02  0.9424066E-01
        2   -1    0    0  501    0  0.00000000000E+00  0.00000000000E+00  0.22388166175E+04  0.22388166175E+04  0.25500000920E-02 0. -1.
       -2   -1    0    0    0  501  0.00000000000E+00  0.00000000000E+00 -0.90693572447E+02  0.90693572483E+02  0.25500000920E-02 0.  1.
    10030    2    1    2    0    0  0.00000000000E+00  0.00000000000E+00  0.21481230451E+04  0.23295101900E+04  0.90121313160E+03 0.  0.
        4    1    3    3  502    0  0.26882244404E+03 -0.36117781038E+03  0.10271231956E+04  0.11214716175E+04  0.12699999809E+01 0.  1.
       -4    1    3    3    0  502 -0.26882244404E+03  0.36117781038E+03  0.11209998495E+04  0.12080385725E+04  0.12699999809E+01 0. -1.
</event>
<event>
 5   0  0.3998066E-03  0.9019358E+03  0.7818609E-02  0.9423165E-01
        1   -1    0    0  501    0  0.00000000000E+00  0.00000000000E+00  0.93646283022E+03  0.93646283024E+03  0.50400001928E-02 0.  1.
       -1   -1    0    0    0  501  0.00000000000E+00  0.00000000000E+00 -0.21717046363E+03  0.21717046369E+03  0.50400001928E-02 0. -1.
    10030    2    1    2    0    0  0.00000000000E+00  0.00000000000E+00  0.71929236660E+03  0.11536332939E+04  0.90193584484E+03 0.  0.
        4    1    3    3  502    0 -0.38482889452E+03  0.80284670798E+02  0.64229188089E+03  0.75304673134E+03  0.12699999809E+01 0.  1.
       -4    1    3    3    0  502  0.38482889452E+03 -0.80284670798E+02  0.77000485702E+02  0.40058656258E+03  0.12699999809E+01 0. -1.
</event>
<event>
 5   0  0.3969536E-03  0.9018761E+03  0.7818609E-02  0.9423239E-01
       -1   -1    0    0    0  501  0.00000000000E+00  0.00000000000E+00  0.20388505834E+03  0.20388505840E+03  0.50400001928E-02 0.  1.
        1   -1    0    0  501    0  0.00000000000E+00  0.00000000000E+00 -0.99735172899E+03  0.99735172900E+03  0.50400001928E-02 0. -1.
    10030    2    1    2    0    0  0.00000000000E+00  0.00000000000E+00 -0.79346667065E+03  0.12012367874E+04  0.90187607907E+03 0.  0.
        1    1    3    3  502    0 -0.22733710670E+03 -0.33753611787E+03 -0.65545841911E+03  0.77151703167E+03  0.50400001928E-02 0. -1.
       -1    1    3    3    0  502  0.22733710670E+03  0.33753611787E+03 -0.13800825154E+03  0.42971975574E+03  0.50400001928E-02 0.  1.
</event>
<event>
 5   0  0.3943549E-03  0.9103364E+03  0.7818609E-02  0.9412752E-01
        1   -1    0    0  501    0  0.00000000000E+00  0.00000000000E+00  0.13602688810E+04  0.13602688811E+04  0.50400001928E-02 0.  1.
       -1   -1    0    0    0  501  0.00000000000E+00  0.00000000000E+00 -0.15230673050E+03  0.15230673058E+03  0.50400001928E-02 0. -1.
    10030    2    1    2    0    0  0.00000000000E+00  0.00000000000E+00  0.12079621505E+04  0.15125756116E+04  0.91033643438E+03 0.  0.
        3    1    3    3  502    0  0.27823735476E+03 -0.50538814172E+02  0.11366665083E+02  0.28301838916E+03  0.10100000352E+00 0. -1.
       -3    1    3    3    0  502 -0.27823735476E+03  0.50538814172E+02  0.11965954855E+04  0.12295572225E+04  0.10100000352E+00 0.  1.
</event>
<event>
 5   0  0.3943549E-03  0.8982899E+03  0.7818609E-02  0.9427722E-01
        1   -1    0    0  501    0  0.00000000000E+00  0.00000000000E+00  0.14334328986E+04  0.14334328986E+04  0.50400001928E-02 0. -1.
       -1   -1    0    0    0  501  0.00000000000E+00  0.00000000000E+00 -0.14073290759E+03  0.14073290768E+03  0.50400001928E-02 0.  1.
    10030    2    1    2    0    0  0.00000000000E+00  0.00000000000E+00  0.12926999910E+04  0.15741658063E+04  0.89828988582E+03 0.  0.
        3    1    3    3  502    0 -0.33413747939E+03 -0.26956716945E+02  0.12251150828E+03  0.35690839103E+03  0.10100000352E+00 0. -1.
       -3    1    3    3    0  502  0.33413747939E+03  0.26956716945E+02  0.11701884827E+04  0.12172574153E+04  0.10100000352E+00 0.  1.
</event>
<event>
 5   0  0.6534628E-03  0.8993881E+03  0.7818609E-02  0.9426347E-01
       -2   -1    0    0    0  501  0.00000000000E+00  0.00000000000E+00  0.11512294242E+03  0.11512294245E+03  0.25500000920E-02 0. -1.
        2   -1    0    0  501    0  0.00000000000E+00  0.00000000000E+00 -0.17565980042E+04  0.17565980042E+04  0.25500000920E-02 0.  1.
    10030    2    1    2    0    0  0.00000000000E+00  0.00000000000E+00 -0.16414750617E+04  0.18717209466E+04  0.89938808290E+03 0.  0.
        4    1    3    3  502    0  0.33709507253E+03  0.33214897034E+02 -0.14362902292E+04  0.14756922283E+04  0.12699999809E+01 0.  1.
       -4    1    3    3    0  502 -0.33709507253E+03 -0.33214897034E+02 -0.20518483254E+03  0.39602871830E+03  0.12699999809E+01 0. -1.
</event>
<event>
 5   0  0.3927993E-03  0.8999454E+03  0.7818609E-02  0.9425650E-01
       -1   -1    0    0    0  501  0.00000000000E+00  0.00000000000E+00  0.83281796409E+02  0.83281796562E+02  0.50400001928E-02 0. -1.
        1   -1    0    0  501    0  0.00000000000E+00  0.00000000000E+00 -0.24312089532E+04  0.24312089532E+04  0.50400001928E-02 0.  1.
    10030    2    1    2    0    0  0.00000000000E+00  0.00000000000E+00 -0.23479271568E+04  0.25144907498E+04  0.89994544117E+03 0.  0.
        2    1    3    3  502    0  0.19990160584E+03 -0.33188668164E+03 -0.53458412365E+03  0.66021936259E+03  0.25500000920E-02 0. -1.
       -2    1    3    3    0  502 -0.19990160584E+03  0.33188668164E+03 -0.18133430332E+04  0.18542713872E+04  0.25500000920E-02 0.  1.
</event>
<event>
 5   0  0.3998066E-03  0.9014437E+03  0.7818609E-02  0.9423779E-01
       -1   -1    0    0    0  501  0.00000000000E+00  0.00000000000E+00  0.18113555182E+03  0.18113555189E+03  0.50400001928E-02 0. -1.
        1   -1    0    0  501    0  0.00000000000E+00  0.00000000000E+00 -0.11215368258E+04  0.11215368258E+04  0.50400001928E-02 0.  1.
    10030    2    1    2    0    0  0.00000000000E+00  0.00000000000E+00 -0.94040127402E+03  0.13026723777E+04  0.90144371292E+03 0.  0.
        4    1    3    3  502    0  0.34900525413E+03  0.10301129333E+03 -0.85868805616E+02  0.37388642478E+03  0.12699999809E+01 0. -1.
       -4    1    3    3    0  502 -0.34900525413E+03 -0.10301129333E+03 -0.85453246840E+03  0.92878595296E+03  0.12699999809E+01 0.  1.
</event>
<event>
 5   0  0.6534628E-03  0.9349606E+03  0.7818609E-02  0.9382904E-01
       -2   -1    0    0    0  501  0.00000000000E+00  0.00000000000E+00  0.27561912244E+03  0.27561912245E+03  0.25500000920E-02 0.  1.
        2   -1    0    0  501    0  0.00000000000E+00  0.00000000000E+00 -0.79289798921E+03  0.79289798922E+03  0.25500000920E-02 0. -1.
    10030    2    1    2    0    0  0.00000000000E+00  0.00000000000E+00 -0.51727886678E+03  0.10685171117E+04  0.93496063656E+03 0.  0.
        4    1    3    3  502    0 -0.13656712895E+03 -0.10590533795E+03  0.23776911322E+03  0.29394265668E+03  0.12699999809E+01 0.  1.
       -4    1    3    3    0  502  0.13656712895E+03  0.10590533795E+03 -0.75504798000E+03  0.77457445498E+03  0.12699999809E+01 0. -1.
</event>
<event>
 5   0  0.6724773E-03  0.8956994E+03  0.7818609E-02  0.9430973E-01
       -2   -1    0    0    0  501  0.00000000000E+00  0.00000000000E+00  0.37593532770E+03  0.37593532771E+03  0.25500000920E-02 0.  1.
        2   -1    0    0  501    0  0.00000000000E+00  0.00000000000E+00 -0.53352085993E+03  0.53352085993E+03  0.25500000920E-02 0. -1.
    10030    2    1    2    0    0  0.00000000000E+00  0.00000000000E+00 -0.15758553223E+03  0.90945618765E+03  0.89569936769E+03 0.  0.
        5    1    3    3  502    0  0.12734955920E+03 -0.19901033077E+03  0.30747648205E+03  0.38779749741E+03  0.46999998093E+01 0.  1.
       -5    1    3    3    0  502 -0.12734955920E+03  0.19901033077E+03 -0.46506201427E+03  0.52165869024E+03  0.46999998093E+01 0. -1.
</event>
<event>
 5   0  0.3998066E-03  0.8958695E+03  0.7818609E-02  0.9430759E-01
        1   -1    0    0  501    0  0.00000000000E+00  0.00000000000E+00  0.10282251749E+04  0.10282251749E+04  0.50400001928E-02 0.  1.
       -1   -1    0    0    0  501  0.00000000000E+00  0.00000000000E+00 -0.19513775547E+03  0.19513775553E+03  0.50400001928E-02 0. -1.
    10030    2    1    2    0    0  0.00000000000E+00  0.00000000000E+00  0.83308741939E+03  0.12233629304E+04  0.89586952796E+03 0.  0.
        4    1    3    3  502    0  0.19234593491E+03 -0.20182519453E+03 -0.62208147719E+02  0.28566034791E+03  0.12699999809E+01 0. -1.
       -4    1    3    3    0  502 -0.19234593491E+03  0.20182519453E+03  0.89529556711E+03  0.93770258249E+03  0.12699999809E+01 0.  1.
</event>
<event>
 5   0  0.6534628E-03  0.9058240E+03  0.7818609E-02  0.9418330E-01
        2   -1    0    0  501    0  0.00000000000E+00  0.00000000000E+00  0.66238735284E+03  0.66238735284E+03  0.25500000920E-02 0. -1.
       -2   -1    0    0    0  501  0.00000000000E+00  0.00000000000E+00 -0.30968176457E+03  0.30968176458E+03  0.25500000920E-02 0.  1.
    10030    2    1    2    0    0  0.00000000000E+00  0.00000000000E+00  0.35270558827E+03  0.97206911742E+03  0.90582400997E+03 0.  0.
        4    1    3    3  502    0 -0.31285574864E+03  0.32396946941E+03  0.22773706862E+03  0.50467883044E+03  0.12699999809E+01 0.  1.
       -4    1    3    3    0  502  0.31285574864E+03 -0.32396946941E+03  0.12496851965E+03  0.46739028698E+03  0.12699999809E+01 0. -1.
</event>
<event>
 5   0  0.6524705E-03  0.9032460E+03  0.7818609E-02  0.9421533E-01
        2   -1    0    0  501    0  0.00000000000E+00  0.00000000000E+00  0.16835224437E+04  0.16835224437E+04  0.25500000920E-02 0.  1.
       -2   -1    0    0    0  501  0.00000000000E+00  0.00000000000E+00 -0.12115271568E+03  0.12115271570E+03  0.25500000920E-02 0. -1.
    10030    2    1    2    0    0  0.00000000000E+00  0.00000000000E+00  0.15623697280E+04  0.18046751594E+04  0.90324595981E+03 0.  0.
        3    1    3    3  502    0  0.17828228362E+03 -0.30758727329E+03  0.13376482014E+04  0.13840871447E+04  0.10100000352E+00 0.  1.
       -3    1    3    3    0  502 -0.17828228362E+03  0.30758727329E+03  0.22472152661E+03  0.42058801465E+03  0.10100000352E+00 0. -1.
</event>
<event>
 5   0  0.3794006E-03  0.9046541E+03  0.7818609E-02  0.9419782E-01
        1   -1    0    0  501    0  0.00000000000E+00  0.00000000000E+00  0.13612802302E+03  0.13612802312E+03  0.50400001928E-02 0. -1.
       -1   -1    0    0    0  501  0.00000000000E+00  0.00000000000E+00 -0.15029950990E+04  0.15029950990E+04  0.50400001928E-02 0.  1.
    10030    2    1    2    0    0  0.00000000000E+00  0.00000000000E+00 -0.13668670760E+04  0.16391231222E+04  0.90465408091E+03 0.  0.
        5    1    3    3  502    0  0.13338890510E+03  0.94591510747E+02 -0.14475168448E+04  0.14567317048E+04  0.46999998093E+01 0.  1.
       -5    1    3    3    0  502 -0.13338890510E+03 -0.94591510747E+02  0.80649768782E+02  0.18239141732E+03  0.46999998093E+01 0. -1.
</event>
<event>
 5   0  0.6609191E-03  0.9053334E+03  0.7818609E-02  0.9418939E-01
       -2   -1    0    0    0  501  0.00000000000E+00  0.00000000000E+00  0.77823926811E+02  0.77823926853E+02  0.25500000920E-02 0.  1.
        2   -1    0    0  501    0  0.00000000000E+00  0.00000000000E+00 -0.26329584060E+04  0.26329584060E+04  0.25500000920E-02 0. -1.
    10030    2    1    2    0    0  0.00000000000E+00  0.00000000000E+00 -0.25551344792E+04  0.27107823328E+04  0.90533344650E+03 0.  0.
        2    1    3    3  502    0  0.16680954020E+03 -0.12329975996E+03 -0.24822736339E+04  0.24909256607E+04  0.25500000920E-02 0. -1.
       -2    1    3    3    0  502 -0.16680954020E+03  0.12329975996E+03 -0.72860845271E+02  0.21985667215E+03  0.25500000920E-02 0.  1.
</event>
<event>
 5   0  0.2560250E-03  0.8970529E+03  0.7818609E-02  0.9429273E-01
        3   -1    0    0  501    0  0.00000000000E+00  0.00000000000E+00  0.36756982561E+03  0.36756983949E+03  0.10100000352E+00 0. -1.
       -3   -1    0    0    0  501  0.00000000000E+00  0.00000000000E+00 -0.54731365799E+03  0.54731366731E+03  0.10100000352E+00 0.  1.
    10030    2    1    2    0    0  0.00000000000E+00  0.00000000000E+00 -0.17974383238E+03  0.91488350679E+03  0.89705294477E+03 0.  0.
        2    1    3    3  502    0  0.40945767812E+03  0.57498601784E+02 -0.26714961808E+03  0.49227085819E+03  0.25500000920E-02 0.  1.
       -2    1    3    3    0  502 -0.40945767812E+03 -0.57498601784E+02  0.87405785697E+02  0.42261264860E+03  0.25500000920E-02 0. -1.
</event>
<event>
 5   0  0.6609191E-03  0.9052482E+03  0.7818609E-02  0.9419045E-01
       -2   -1    0    0    0  501  0.00000000000E+00  0.00000000000E+00  0.46085449377E+03  0.46085449378E+03  0.25500000920E-02 0.  1.
        2   -1    0    0  501    0  0.00000000000E+00  0.00000000000E+00 -0.44454065551E+03  0.44454065552E+03  0.25500000920E-02 0. -1.
    10030    2    1    2    0    0  0.00000000000E+00  0.00000000000E+00  0.16313838263E+02  0.90539514930E+03  0.90524816214E+03 0.  0.
        2    1    3    3  502    0 -0.17129629601E+03  0.22282636166E+03 -0.34668872430E+03  0.44630379792E+03  0.25500000920E-02 0. -1.
       -2    1    3    3    0  502  0.17129629601E+03 -0.22282636166E+03  0.36300256256E+03  0.45909135138E+03  0.25500000920E-02 0.  1.
</event>
<event>
 5   0  0.3943549E-03  0.9086638E+03  0.7818609E-02  0.9414816E-01
        1   -1    0    0  501    0  0.00000000000E+00  0.00000000000E+00  0.13378224414E+04  0.13378224414E+04  0.50400001928E-02 0. -1.
       -1   -1    0    0    0  501  0.00000000000E+00  0.00000000000E+00 -0.15429361463E+03  0.15429361471E+03  0.50400001928E-02 0.  1.
    10030    2    1    2    0    0  0.00000000000E+00  0.00000000000E+00  0.11835288268E+04  0.14921160561E+04  0.90866376683E+03 0.  0.
        3    1    3    3  502    0  0.36129154002E+03 -0.18255561211E+02  0.14040331867E+03  0.38804374045E+03  0.10100000352E+00 0. -1.
       -3    1    3    3    0  502 -0.36129154002E+03  0.18255561211E+02  0.10431255081E+04  0.11040723157E+04  0.10100000352E+00 0.  1.
</event>
<event>
 5   0  0.6524705E-03  0.9001881E+03  0.7818609E-02  0.9425346E-01
       -2   -1    0    0    0  501  0.00000000000E+00  0.00000000000E+00  0.27714868146E+03  0.27714868147E+03  0.25500000920E-02 0.  1.
        2   -1    0    0  501    0  0.00000000000E+00  0.00000000000E+00 -0.73096025585E+03  0.73096025585E+03  0.25500000920E-02 0. -1.
    10030    2    1    2    0    0  0.00000000000E+00  0.00000000000E+00 -0.45381157439E+03  0.10081089373E+04  0.90018813837E+03 0.  0.
        3    1    3    3  502    0  0.41183838542E+03 -0.12826253544E+03 -0.82955539370E+02  0.43925364588E+03  0.10100000352E+00 0.  1.
       -3    1    3    3    0  502 -0.41183838542E+03  0.12826253544E+03 -0.37085603502E+03  0.56885529145E+03  0.10100000352E+00 0. -1.
</event>
<event>
 5   0  0.3927993E-03  0.9028703E+03  0.7818609E-02  0.9422000E-01
       -1   -1    0    0    0  501  0.00000000000E+00  0.00000000000E+00  0.12617779646E+03  0.12617779656E+03  0.50400001928E-02 0.  1.
        1   -1    0    0  501    0  0.00000000000E+00  0.00000000000E+00 -0.16151312509E+04  0.16151312509E+04  0.50400001928E-02 0. -1.
    10030    2    1    2    0    0  0.00000000000E+00  0.00000000000E+00 -0.14889534545E+04  0.17413090475E+04  0.90287031700E+03 0.  0.
        2    1    3    3  502    0  0.95630155983E+01 -0.63606261815E+02 -0.16062483757E+04  0.16075357080E+04  0.25500000920E-02 0. -1.
       -2    1    3    3    0  502 -0.95630155983E+01  0.63606261815E+02  0.11729492127E+03  0.13377333954E+03  0.25500000920E-02 0.  1.
</event>
<event>
 5   0  0.3969536E-03  0.9299867E+03  0.7818609E-02  0.9388854E-01
       -1   -1    0    0    0  501  0.00000000000E+00  0.00000000000E+00  0.30131842479E+03  0.30131842484E+03  0.50400001928E-02 0.  1.
        1   -1    0    0  501    0  0.00000000000E+00  0.00000000000E+00 -0.71757589024E+03  0.71757589026E+03  0.50400001928E-02 0. -1.
    10030    2    1    2    0    0  0.00000000000E+00  0.00000000000E+00 -0.41625746545E+03  0.10188943151E+04  0.92998674603E+03 0.  0.
        1    1    3    3  502    0  0.50531705621E+01  0.74270019607E+02  0.29474762423E+03  0.30400284926E+03  0.50400001928E-02 0.  1.
       -1    1    3    3    0  502 -0.50531705621E+01 -0.74270019607E+02 -0.71100508968E+03  0.71489146583E+03  0.50400001928E-02 0. -1.
</event>
<event>
 5   0  0.6609191E-03  0.9093876E+03  0.7818609E-02  0.9413922E-01
        2   -1    0    0  501    0  0.00000000000E+00  0.00000000000E+00  0.77975405876E+03  0.77975405876E+03  0.25500000920E-02 0. -1.
       -2   -1    0    0    0  501  0.00000000000E+00  0.00000000000E+00 -0.26514317250E+03  0.26514317251E+03  0.25500000920E-02 0.  1.
    10030    2    1    2    0    0  0.00000000000E+00  0.00000000000E+00  0.51461088626E+03  0.10448972313E+04  0.90938762894E+03 0.  0.
        2    1    3    3  502    0  0.41368661654E+03  0.10532346544E+02  0.47379257852E+03  0.62906832260E+03  0.25500000920E-02 0. -1.
       -2    1    3    3    0  502 -0.41368661654E+03 -0.10532346544E+02  0.40818307738E+02  0.41582890867E+03  0.25500000920E-02 0.  1.
</event>
<event>
 5   0  0.3943549E-03  0.8905187E+03  0.7818609E-02  0.9437512E-01
        1   -1    0    0  501    0  0.00000000000E+00  0.00000000000E+00  0.68523100672E+03  0.68523100674E+03  0.50400001928E-02 0.  1.
       -1   -1    0    0    0  501  0.00000000000E+00  0.00000000000E+00 -0.28932711438E+03  0.28932711442E+03  0.50400001928E-02 0. -1.
    10030    2    1    2    0    0  0.00000000000E+00  0.00000000000E+00  0.39590389234E+03  0.97455812116E+03  0.89051874744E+03 0.  0.
        3    1    3    3  502    0  0.36060565458E+03  0.21251401864E+03  0.31775883433E+02  0.41977179896E+03  0.10100000352E+00 0. -1.
       -3    1    3    3    0  502 -0.36060565458E+03 -0.21251401864E+03  0.36412800891E+03  0.55478632220E+03  0.10100000352E+00 0.  1.
</event>
<event>
 5   0  0.6534628E-03  0.8911139E+03  0.7818609E-02  0.9436758E-01
       -2   -1    0    0    0  501  0.00000000000E+00  0.00000000000E+00  0.18929574308E+03  0.18929574310E+03  0.25500000920E-02 0. -1.
        2   -1    0    0  501    0  0.00000000000E+00  0.00000000000E+00 -0.10487346816E+04  0.10487346816E+04  0.25500000920E-02 0.  1.
    10030    2    1    2    0    0  0.00000000000E+00  0.00000000000E+00 -0.85943893853E+03  0.12380304247E+04  0.89111393404E+03 0.  0.
        4    1    3    3  502    0 -0.14256255962E+02  0.50111256040E+02 -0.10444856851E+04  0.10457850343E+04  0.12699999809E+01 0.  1.
       -4    1    3    3    0  502  0.14256255962E+02 -0.50111256040E+02  0.18504674654E+03  0.19224539038E+03  0.12699999809E+01 0. -1.
</event>
<event>
 5   0  0.6524705E-03  0.8876806E+03  0.7818609E-02  0.9441114E-01
       -2   -1    0    0    0  501  0.00000000000E+00  0.00000000000E+00  0.20276290086E+03  0.20276290087E+03  0.25500000920E-02 0.  1.
        2   -1    0    0  501    0  0.00000000000E+00  0.00000000000E+00 -0.97154952901E+03  0.97154952902E+03  0.25500000920E-02 0. -1.
    10030    2    1    2    0    0  0.00000000000E+00  0.00000000000E+00 -0.76878662816E+03  0.11743124299E+04  0.88768057507E+03 0.  0.
        3    1    3    3  502    0 -0.38462762551E+02 -0.42312010243E+03 -0.55424141190E+03  0.69835059823E+03  0.10100000352E+00 0. -1.
       -3    1    3    3    0  502  0.38462762551E+02  0.42312010243E+03 -0.21454521626E+03  0.47596183166E+03  0.10100000352E+00 0.  1.
</event>
<event>
 5   0  0.2560250E-03  0.8999073E+03  0.7818609E-02  0.9425697E-01
       -4   -1    0    0    0  501  0.00000000000E+00  0.00000000000E+00  0.92335525621E+03  0.92335612960E+03  0.12699999809E+01 0.  1.
        4   -1    0    0  501    0  0.00000000000E+00  0.00000000000E+00 -0.21926089198E+03  0.21926456999E+03  0.12699999809E+01 0. -1.
    10030    2    1    2    0    0  0.00000000000E+00  0.00000000000E+00  0.70409436423E+03  0.11426206996E+04  0.89990732266E+03 0.  0.
        2    1    3    3  502    0 -0.28057286776E+03  0.93667676900E+02  0.78255827473E+03  0.83659561389E+03  0.25500000920E-02 0.  1.
       -2    1    3    3    0  502  0.28057286776E+03 -0.93667676900E+02 -0.78463910503E+02  0.30602508570E+03  0.25500000920E-02 0. -1.
</event>
<event>
 5   0  0.3998066E-03  0.8946599E+03  0.7818609E-02  0.9432281E-01
       -1   -1    0    0    0  501  0.00000000000E+00  0.00000000000E+00  0.19847132205E+03  0.19847132211E+03  0.50400001928E-02 0. -1.
        1   -1    0    0  501    0  0.00000000000E+00  0.00000000000E+00 -0.10082267960E+04  0.10082267960E+04  0.50400001928E-02 0.  1.
    10030    2    1    2    0    0  0.00000000000E+00  0.00000000000E+00 -0.80975547394E+03  0.12066981181E+04  0.89465994696E+03 0.  0.
        4    1    3    3  502    0 -0.28464583847E+03  0.89229873670E+02 -0.85448303396E+03  0.90505695508E+03  0.12699999809E+01 0.  1.
       -4    1    3    3    0  502  0.28464583847E+03 -0.89229873670E+02  0.44727560014E+02  0.30164116304E+03  0.12699999809E+01 0. -1.
</event>
<event>
 5   0  0.3943549E-03  0.8820560E+03  0.7818609E-02  0.9448295E-01
       -1   -1    0    0    0  501  0.00000000000E+00  0.00000000000E+00  0.12497077510E+03  0.12497077520E+03  0.50400001928E-02 0. -1.
        1   -1    0    0  501    0  0.00000000000E+00  0.00000000000E+00 -0.15564093837E+04  0.15564093837E+04  0.50400001928E-02 0.  1.
    10030    2    1    2    0    0  0.00000000000E+00  0.00000000000E+00 -0.14314386086E+04  0.16813801589E+04  0.88205597814E+03 0.  0.
        3    1    3    3  502    0 -0.45660687037E+02 -0.33860608235E+03 -0.18414178701E+03  0.38813294793E+03  0.10100000352E+00 0. -1.
       -3    1    3    3    0  502  0.45660687037E+02  0.33860608235E+03 -0.12472968216E+04  0.12932472110E+04  0.10100000352E+00 0.  1.
</event>
<event>
 5   0  0.3794006E-03  0.8968554E+03  0.7818609E-02  0.9429521E-01
       -1   -1    0    0    0  501  0.00000000000E+00  0.00000000000E+00  0.18217015746E+03  0.18217015753E+03  0.50400001928E-02 0.  1.
        1   -1    0    0  501    0  0.00000000000E+00  0.00000000000E+00 -0.11038437912E+04  0.11038437912E+04  0.50400001928E-02 0. -1.
    10030    2    1    2    0    0  0.00000000000E+00  0.00000000000E+00 -0.92167363377E+03  0.12860139488E+04  0.89685538926E+03 0.  0.
        5    1    3    3  502    0  0.31980625338E+03 -0.26894892352E+03 -0.22760744214E+03  0.47585375997E+03  0.46999998093E+01 0.  1.
       -5    1    3    3    0  502 -0.31980625338E+03  0.26894892352E+03 -0.69406619163E+03  0.81016018881E+03  0.46999998093E+01 0. -1.
</event>
<event>
 5   0  0.6534628E-03  0.8965922E+03  0.7818609E-02  0.9429851E-01
       -2   -1    0    0    0  501  0.00000000000E+00  0.00000000000E+00  0.92705509388E+02  0.92705509423E+02  0.25500000920E-02 0. -1.
        2   -1    0    0  501    0  0.00000000000E+00  0.00000000000E+00 -0.21678256585E+04  0.21678256585E+04  0.25500000920E-02 0.  1.
    10030    2    1    2    0    0  0.00000000000E+00  0.00000000000E+00 -0.20751201491E+04  0.22605311679E+04  0.89659217480E+03 0.  0.
        4    1    3    3  502    0 -0.27718160250E+01 -0.38130162403E+03 -0.16318966560E+04  0.16758540868E+04  0.12699999809E+01 0.  1.
       -4    1    3    3    0  502  0.27718160250E+01  0.38130162403E+03 -0.44322349311E+03  0.58467708113E+03  0.12699999809E+01 0. -1.
</event>
<event>
 5   0  0.6863405E-03  0.9014085E+03  0.7818609E-02  0.9423823E-01
       -2   -1    0    0    0  501  0.00000000000E+00  0.00000000000E+00  0.40101928373E+03  0.40101928374E+03  0.25500000920E-02 0. -1.
        2   -1    0    0  501    0  0.00000000000E+00  0.00000000000E+00 -0.50654496831E+03  0.50654496832E+03  0.25500000920E-02 0.  1.
    10030    2    1    2    0    0  0.00000000000E+00  0.00000000000E+00 -0.10552568458E+03  0.90756425206E+03  0.90140845432E+03 0.  0.
        1    1    3    3  502    0 -0.29893323103E+03 -0.19536939390E+03 -0.32960243961E+03  0.48597123877E+03  0.50400001928E-02 0.  1.
       -1    1    3    3    0  502  0.29893323103E+03  0.19536939390E+03  0.22407675503E+03  0.42159301329E+03  0.50400001928E-02 0. -1.
</event>
<event>
 5   0  0.6724773E-03  0.8887255E+03  0.7818609E-02  0.9439786E-01
        2   -1    0    0  501    0  0.00000000000E+00  0.00000000000E+00  0.47699970859E+03  0.47699970859E+03  0.25500000920E-02 0.  1.
       -2   -1    0    0    0  501  0.00000000000E+00  0.00000000000E+00 -0.41395882348E+03  0.41395882349E+03  0.25500000920E-02 0. -1.
    10030    2    1    2    0    0  0.00000000000E+00  0.00000000000E+00  0.63040885102E+02  0.89095853208E+03  0.88872546531E+03 0.  0.
        5    1    3    3  502    0  0.75530262315E+02  0.11032704560E+03 -0.39328862967E+03  0.41542136890E+03  0.46999998093E+01 0. -1.
       -5    1    3    3    0  502 -0.75530262315E+02 -0.11032704560E+03  0.45632951477E+03  0.47553716318E+03  0.46999998093E+01 0.  1.
</event>
<event>
 5   0  0.6534628E-03  0.9058118E+03  0.7818609E-02  0.9418345E-01
       -2   -1    0    0    0  501  0.00000000000E+00  0.00000000000E+00  0.11298752352E+04  0.11298752352E+04  0.25500000920E-02 0.  1.
        2   -1    0    0  501    0  0.00000000000E+00  0.00000000000E+00 -0.18154549298E+03  0.18154549300E+03  0.25500000920E-02 0. -1.
    10030    2    1    2    0    0  0.00000000000E+00  0.00000000000E+00  0.94832974225E+03  0.13114207282E+04  0.90581180519E+03 0.  0.
        4    1    3    3  502    0  0.39850386368E+03  0.87752110136E+02  0.75866983989E+03  0.86144489148E+03  0.12699999809E+01 0.  1.
       -4    1    3    3    0  502 -0.39850386368E+03 -0.87752110136E+02  0.18965990236E+03  0.44997583676E+03  0.12699999809E+01 0. -1.
</event>
<event>
 5   0  0.6609191E-03  0.8987058E+03  0.7818609E-02  0.9427201E-01
       -2   -1    0    0    0  501  0.00000000000E+00  0.00000000000E+00  0.15243966629E+03  0.15243966631E+03  0.25500000920E-02 0. -1.
        2   -1    0    0  501    0  0.00000000000E+00  0.00000000000E+00 -0.13245768282E+04  0.13245768282E+04  0.25500000920E-02 0.  1.
    10030    2    1    2    0    0  0.00000000000E+00  0.00000000000E+00 -0.11721371619E+04  0.14770164945E+04  0.89870584662E+03 0.  0.
        2    1    3    3  502    0 -0.84964108541E+02 -0.38329484747E+03 -0.22680765680E+03  0.45340440340E+03  0.25500000920E-02 0. -1.
       -2    1    3    3    0  502  0.84964108541E+02  0.38329484747E+03 -0.94532950514E+03  0.10236120911E+04  0.25500000920E-02 0.  1.
</event>
<event>
 5   0  0.6724773E-03  0.8987861E+03  0.7818609E-02  0.9427100E-01
       -2   -1    0    0    0  501  0.00000000000E+00  0.00000000000E+00  0.10635645412E+03  0.10635645415E+03  0.25500000920E-02 0.  1.
        2   -1    0    0  501    0  0.00000000000E+00  0.00000000000E+00 -0.18988420746E+04  0.18988420746E+04  0.25500000920E-02 0. -1.
    10030    2    1    2    0    0  0.00000000000E+00  0.00000000000E+00 -0.17924856205E+04  0.20051985287E+04  0.89878609250E+03 0.  0.
        5    1    3    3  502    0  0.20732998055E+03 -0.15749935939E+03 -0.17133529332E+04  0.17330297553E+04  0.46999998093E+01 0. -1.
       -5    1    3    3    0  502 -0.20732998055E+03  0.15749935939E+03 -0.79132687265E+02  0.27216877344E+03  0.46999998093E+01 0.  1.
</event>
<event>
 5   0  0.6724773E-03  0.8980611E+03  0.7818609E-02  0.9428008E-01
       -2   -1    0    0    0  501  0.00000000000E+00  0.00000000000E+00  0.11714395194E+04  0.11714395194E+04  0.25500000920E-02 0.  1.
        2   -1    0    0  501    0  0.00000000000E+00  0.00000000000E+00 -0.17212021509E+03  0.17212021511E+03  0.25500000920E-02 0. -1.
    10030    2    1    2    0    0  0.00000000000E+00  0.00000000000E+00  0.99931930429E+03  0.13435597345E+04  0.89806107154E+03 0.  0.
        5    1    3    3  502    0  0.20991749541E+03 -0.14578794758E+03  0.10519635241E+04  0.10825750905E+04  0.46999998093E+01 0.  1.
       -5    1    3    3    0  502 -0.20991749541E+03  0.14578794758E+03 -0.52644219776E+02  0.26098464402E+03  0.46999998093E+01 0. -1.
</event>
<event>
 5   0  0.3927993E-03  0.8953339E+03  0.7818609E-02  0.9431433E-01
       -1   -1    0    0    0  501  0.00000000000E+00  0.00000000000E+00  0.20123931206E+03  0.20123931212E+03  0.50400001928E-02 0.  1.
        1   -1    0    0  501    0  0.00000000000E+00  0.00000000000E+00 -0.99585754392E+03  0.99585754394E+03  0.50400001928E-02 0. -1.
    10030    2    1    2    0    0  0.00000000000E+00  0.00000000000E+00 -0.79461823187E+03  0.11970968561E+04  0.89533387536E+03 0.  0.
        2    1    3    3  502    0  0.33842513034E+03 -0.24835741742E+03 -0.18934588959E+03  0.46050498536E+03  0.25500000920E-02 0.  1.
       -2    1    3    3    0  502 -0.33842513034E+03  0.24835741742E+03 -0.60527234228E+03  0.73659187069E+03  0.25500000920E-02 0. -1.
</event>
<event>
 5   0  0.3927993E-03  0.9005952E+03  0.7818609E-02  0.9424838E-01
       -1   -1    0    0    0  501  0.00000000000E+00  0.00000000000E+00  0.60859244684E+03  0.60859244686E+03  0.50400001928E-02 0. -1.
        1   -1    0    0  501    0  0.00000000000E+00  0.00000000000E+00 -0.33317522470E+03  0.33317522474E+03  0.50400001928E-02 0.  1.
    10030    2    1    2    0    0  0.00000000000E+00  0.00000000000E+00  0.27541722214E+03  0.94176767159E+03  0.90059519264E+03 0.  0.
        2    1    3    3  502    0 -0.30766682673E+03  0.32813662147E+03  0.11588826315E+03  0.46450253838E+03  0.25500000920E-02 0.  1.
       -2    1    3    3    0  502  0.30766682673E+03 -0.32813662147E+03  0.15952895899E+03  0.47726513321E+03  0.25500000920E-02 0. -1.
</event>
<event>
 5   0  0.2560250E-03  0.9087961E+03  0.7818609E-02  0.9414652E-01
       -4   -1    0    0    0  501  0.00000000000E+00  0.00000000000E+00  0.99213131788E+03  0.99213213072E+03  0.12699999809E+01 0. -1.
        4   -1    0    0  501    0  0.00000000000E+00  0.00000000000E+00 -0.20811234887E+03  0.20811622390E+03  0.12699999809E+01 0.  1.
    10030    2    1    2    0    0  0.00000000000E+00  0.00000000000E+00  0.78401896901E+03  0.12002483546E+04  0.90879610970E+03 0.  0.
        3    1    3    3  502    0  0.30046345593E+03 -0.13783237433E+03 -0.19747724165E+02  0.33115862449E+03  0.10100000352E+00 0.  1.
       -3    1    3    3    0  502 -0.30046345593E+03  0.13783237433E+03  0.80376669317E+03  0.86908973013E+03  0.10100000352E+00 0. -1.
</event>
<event>
 5   0  0.3794006E-03  0.8971247E+03  0.7818609E-02  0.9429183E-01
        1   -1    0    0  501    0  0.00000000000E+00  0.00000000000E+00  0.69824948007E+03  0.69824948009E+03  0.50400001928E-02 0.  1.
       -1   -1    0    0    0  501  0.00000000000E+00  0.00000000000E+00 -0.28816086326E+03  0.28816086330E+03  0.50400001928E-02 0. -1.
    10030    2    1    2    0    0  0.00000000000E+00  0.00000000000E+00  0.41008861681E+03  0.98641034339E+03  0.89712468025E+03 0.  0.
        5    1    3    3  502    0 -0.42722986230E+03  0.87147599069E+02  0.32070894865E+03  0.54129139935E+03  0.46999998093E+01 0. -1.
       -5    1    3    3    0  502  0.42722986230E+03 -0.87147599069E+02  0.89379668163E+02  0.44511894404E+03  0.46999998093E+01 0.  1.
</event>
<event>
 5   0  0.6524705E-03  0.9050477E+03  0.7818609E-02  0.9419293E-01
        2   -1    0    0  501    0  0.00000000000E+00  0.00000000000E+00  0.10638527486E+04  0.10638527486E+04  0.25500000920E-02 0. -1.
       -2   -1    0    0    0  501  0.00000000000E+00  0.00000000000E+00 -0.19248699912E+03  0.19248699913E+03  0.25500000920E-02 0.  1.
    10030    2    1    2    0    0  0.00000000000E+00  0.00000000000E+00  0.87136574948E+03  0.12563397477E+04  0.90504767409E+03 0.  0.
        3    1    3    3  502    0  0.32721706777E+03 -0.10870900240E+03  0.84250523176E+03  0.91033166065E+03  0.10100000352E+00 0. -1.
       -3    1    3    3    0  502 -0.32721706777E+03  0.10870900240E+03  0.28860517720E+02  0.34600808708E+03  0.10100000352E+00 0.  1.
</event>
<event>
 5   0  0.3969536E-03  0.8984873E+03  0.7818609E-02  0.9427474E-01
        1   -1    0    0  501    0  0.00000000000E+00  0.00000000000E+00  0.45956453192E+03  0.45956453195E+03  0.50400001928E-02 0.  1.
       -1   -1    0    0    0  501  0.00000000000E+00  0.00000000000E+00 -0.43915455162E+03  0.43915455165E+03  0.50400001928E-02 0. -1.
    10030    2    1    2    0    0  0.00000000000E+00  0.00000000000E+00  0.20409980304E+02  0.89871908360E+03  0.89848729759E+03 0.  0.
        1    1    3    3  502    0 -0.29833711448E+03 -0.15941602918E+03 -0.28550847255E+03  0.44264386606E+03  0.50400001928E-02 0. -1.
       -1    1    3    3    0  502  0.29833711448E+03  0.15941602918E+03  0.30591845285E+03  0.45607521754E+03  0.50400001928E-02 0.  1.
</event>
<event>
 5   0  0.3927993E-03  0.8973248E+03  0.7818609E-02  0.9428932E-01
       -1   -1    0    0    0  501  0.00000000000E+00  0.00000000000E+00  0.56488731624E+03  0.56488731626E+03  0.50400001928E-02 0.  1.
        1   -1    0    0  501    0  0.00000000000E+00  0.00000000000E+00 -0.35635061062E+03  0.35635061065E+03  0.50400001928E-02 0. -1.
    10030    2    1    2    0    0  0.00000000000E+00  0.00000000000E+00  0.20853670562E+03  0.92123792692E+03  0.89732477978E+03 0.  0.
        2    1    3    3  502    0  0.13831052104E+03  0.10411789188E+03  0.52921638215E+03  0.55681263885E+03  0.25500000920E-02 0.  1.
       -2    1    3    3    0  502 -0.13831052104E+03 -0.10411789188E+03 -0.32067967653E+03  0.36442528807E+03  0.25500000920E-02 0. -1.
</event>
<event>
 5   0  0.3794006E-03  0.9108774E+03  0.7818609E-02  0.9412085E-01
       -1   -1    0    0    0  501  0.00000000000E+00  0.00000000000E+00  0.17496203676E+03  0.17496203684E+03  0.50400001928E-02 0. -1.
        1   -1    0    0  501    0  0.00000000000E+00  0.00000000000E+00 -0.11855395767E+04  0.11855395767E+04  0.50400001928E-02 0.  1.
    10030    2    1    2    0    0  0.00000000000E+00  0.00000000000E+00 -0.10105775400E+04  0.13605016136E+04  0.91087742109E+03 0.  0.
        5    1    3    3  502    0  0.17693473797E+03 -0.41846968248E+03 -0.45854185409E+03  0.64552730276E+03  0.46999998093E+01 0. -1.
       -5    1    3    3    0  502 -0.17693473797E+03  0.41846968248E+03 -0.55203568587E+03  0.71497431082E+03  0.46999998093E+01 0.  1.
</event>
<event>
 5   0  0.6609191E-03  0.8982748E+03  0.7818609E-02  0.9427741E-01
       -2   -1    0    0    0  501  0.00000000000E+00  0.00000000000E+00  0.24919129579E+03  0.24919129581E+03  0.25500000920E-02 0. -1.
        2   -1    0    0  501    0  0.00000000000E+00  0.00000000000E+00 -0.80951629276E+03  0.80951629277E+03  0.25500000920E-02 0.  1.
    10030    2    1    2    0    0  0.00000000000E+00  0.00000000000E+00 -0.56032499697E+03  0.10587075886E+04  0.89827482202E+03 0.  0.
        2    1    3    3  502    0 -0.35868405448E+03 -0.26955474682E+03 -0.25628596551E+03  0.51671704887E+03  0.25500000920E-02 0.  1.
       -2    1    3    3    0  502  0.35868405448E+03  0.26955474682E+03 -0.30403903146E+03  0.54199053971E+03  0.25500000920E-02 0. -1.
</event>
<event>
 5   0  0.6534628E-03  0.8989510E+03  0.7818609E-02  0.9426894E-01
       -2   -1    0    0    0  501  0.00000000000E+00  0.00000000000E+00  0.25970625053E+03  0.25970625055E+03  0.25500000920E-02 0. -1.
        2   -1    0    0  501    0  0.00000000000E+00  0.00000000000E+00 -0.77791047105E+03  0.77791047106E+03  0.25500000920E-02 0.  1.
    10030    2    1    2    0    0  0.00000000000E+00  0.00000000000E+00 -0.51820422052E+03  0.10376167216E+04  0.89895097018E+03 0.  0.
        4    1    3    3  502    0  0.33958586136E+03 -0.28869283650E+03 -0.19215059205E+03  0.48537158344E+03  0.12699999809E+01 0.  1.
       -4    1    3    3    0  502 -0.33958586136E+03  0.28869283650E+03 -0.32605362847E+03  0.55224513816E+03  0.12699999809E+01 0. -1.
</event>
<event>
 5   0  0.3943549E-03  0.8943062E+03  0.7818609E-02  0.9432727E-01
        1   -1    0    0  501    0  0.00000000000E+00  0.00000000000E+00  0.47824192905E+03  0.47824192908E+03  0.50400001928E-02 0. -1.
       -1   -1    0    0    0  501  0.00000000000E+00  0.00000000000E+00 -0.41808520383E+03  0.41808520386E+03  0.50400001928E-02 0.  1.
    10030    2    1    2    0    0  0.00000000000E+00  0.00000000000E+00  0.60156725219E+02  0.89632713294E+03  0.89430615432E+03 0.  0.
        3    1    3    3  502    0 -0.77741044695E+02  0.54709594182E+02  0.46799715977E+03  0.47755435447E+03  0.10100000352E+00 0. -1.
       -3    1    3    3    0  502  0.77741044695E+02 -0.54709594182E+02 -0.40784043455E+03  0.41877277846E+03  0.10100000352E+00 0.  1.
</event>
<event>
 5   0  0.6609191E-03  0.8943635E+03  0.7818609E-02  0.9432655E-01
       -2   -1    0    0    0  501  0.00000000000E+00  0.00000000000E+00  0.16864603781E+03  0.16864603783E+03  0.25500000920E-02 0. -1.
        2   -1    0    0  501    0  0.00000000000E+00  0.00000000000E+00 -0.11857468046E+04  0.11857468046E+04  0.25500000920E-02 0.  1.
    10030    2    1    2    0    0  0.00000000000E+00  0.00000000000E+00 -0.10171007668E+04  0.13543928425E+04  0.89436346182E+03 0.  0.
        2    1    3    3  502    0 -0.30661250229E+03  0.28262494039E+03 -0.75312582348E+03  0.86086386234E+03  0.25500000920E-02 0. -1.
       -2    1    3    3    0  502  0.30661250229E+03 -0.28262494039E+03 -0.26397494334E+03  0.49352898012E+03  0.25500000920E-02 0.  1.
</event>
<event>
 5   0  0.3794006E-03  0.8810746E+03  0.7818609E-02  0.9449553E-01
        1   -1    0    0  501    0  0.00000000000E+00  0.00000000000E+00  0.58099940197E+03  0.58099940199E+03  0.50400001928E-02 0. -1.
       -1   -1    0    0    0  501  0.00000000000E+00  0.00000000000E+00 -0.33403327254E+03  0.33403327257E+03  0.50400001928E-02 0.  1.
    10030    2    1    2    0    0  0.00000000000E+00  0.00000000000E+00  0.24696612944E+03  0.91503267457E+03  0.88107464295E+03 0.  0.
        5    1    3    3  502    0 -0.13074633966E+03 -0.39775337074E+03  0.26568627182E+03  0.49589679804E+03  0.46999998093E+01 0. -1.
       -5    1    3    3    0  502  0.13074633966E+03  0.39775337074E+03 -0.18720142389E+02  0.41913587653E+03  0.46999998093E+01 0.  1.
</event>
<event>
 5   0  0.2560250E-03  0.9007153E+03  0.7818609E-02  0.9424688E-01
        3   -1    0    0  501    0  0.00000000000E+00  0.00000000000E+00  0.10118534902E+04  0.10118534953E+04  0.10100000352E+00 0. -1.
       -3   -1    0    0    0  501  0.00000000000E+00  0.00000000000E+00 -0.20044599120E+03  0.20044601664E+03  0.10100000352E+00 0.  1.
    10030    2    1    2    0    0  0.00000000000E+00  0.00000000000E+00  0.81140749902E+03  0.12122995119E+04  0.90071525861E+03 0.  0.
        3    1    3    3  502    0 -0.19504450723E+03 -0.29355956888E+03  0.28357251237E+02  0.35358694006E+03  0.10100000352E+00 0.  1.
       -3    1    3    3    0  502  0.19504450723E+03  0.29355956888E+03  0.78305024778E+03  0.85871257184E+03  0.10100000352E+00 0. -1.
</event>
<event>
 5   0  0.3998066E-03  0.9047623E+03  0.7818609E-02  0.9419648E-01
        1   -1    0    0  501    0  0.00000000000E+00  0.00000000000E+00  0.57089369967E+03  0.57089369969E+03  0.50400001928E-02 0.  1.
       -1   -1    0    0    0  501  0.00000000000E+00  0.00000000000E+00 -0.35847079919E+03  0.35847079923E+03  0.50400001928E-02 0. -1.
    10030    2    1    2    0    0  0.00000000000E+00  0.00000000000E+00  0.21242290048E+03  0.92936449892E+03  0.90476233521E+03 0.  0.
        4    1    3    3  502    0 -0.10432021659E+03  0.17211676669E+03 -0.30994733778E+03  0.36956170535E+03  0.12699999809E+01 0. -1.
       -4    1    3    3    0  502  0.10432021659E+03 -0.17211676669E+03  0.52237023826E+03  0.55980279357E+03  0.12699999809E+01 0.  1.
</event>
<event>
 5   0  0.3927993E-03  0.9096686E+03  0.7818609E-02  0.9413575E-01
        1   -1    0    0  501    0  0.00000000000E+00  0.00000000000E+00  0.54926645544E+03  0.54926645546E+03  0.50400001928E-02 0. -1.
       -1   -1    0    0    0  501  0.00000000000E+00  0.00000000000E+00 -0.37663727907E+03  0.37663727910E+03  0.50400001928E-02 0.  1.
    10030    2    1    2    0    0  0.00000000000E+00  0.00000000000E+00  0.17262917637E+03  0.92590373456E+03  0.90966856225E+03 0.  0.
        2    1    3    3  502    0 -0.87994694663E+02 -0.13760357780E+03  0.51838618696E+03  0.54350901534E+03  0.25500000920E-02 0. -1.
       -2    1    3    3    0  502  0.87994694663E+02  0.13760357780E+03 -0.34575701059E+03  0.38239471923E+03  0.25500000920E-02 0.  1.
</event>
<event>
 5   0  0.3794006E-03  0.9016910E+03  0.7818609E-02  0.9423470E-01
       -1   -1    0    0    0  501  0.00000000000E+00  0.00000000000E+00  0.17616158701E+03  0.17616158708E+03  0.50400001928E-02 0. -1.
        1   -1    0    0  501    0  0.00000000000E+00  0.00000000000E+00 -0.11538364928E+04  0.11538364928E+04  0.50400001928E-02 0.  1.
    10030    2    1    2    0    0  0.00000000000E+00  0.00000000000E+00 -0.97767490577E+03  0.13299980799E+04  0.90169100643E+03 0.  0.
        5    1    3    3  502    0  0.10724909236E+03  0.28939087123E+02  0.15562251231E+03  0.19125975769E+03  0.46999998093E+01 0. -1.
       -5    1    3    3    0  502 -0.10724909236E+03 -0.28939087123E+02 -0.11332974181E+04  0.11387383222E+04  0.46999998093E+01 0.  1.
</event>
<event>
 5   0  0.3969536E-03  0.9004730E+03  0.7818609E-02  0.9424990E-01
        1   -1    0    0  501    0  0.00000000000E+00  0.00000000000E+00  0.11424640608E+04  0.11424640608E+04  0.50400001928E-02 0. -1.
       -1   -1    0    0    0  501  0.00000000000E+00  0.00000000000E+00 -0.17743483057E+03  0.17743483064E+03  0.50400001928E-02 0.  1.
    10030    2    1    2    0    0  0.00000000000E+00  0.00000000000E+00  0.96502923021E+03  0.13198988914E+04  0.90047302484E+03 0.  0.
        1    1    3    3  502    0 -0.96760022229E+02 -0.39440552410E+03  0.19755363554E+03  0.45160343033E+03  0.50400001928E-02 0.  1.
       -1    1    3    3    0  502  0.96760022229E+02  0.39440552410E+03  0.76747559467E+03  0.86829546111E+03  0.50400001928E-02 0. -1.
</event>
<event>
 5   0  0.6524705E-03  0.8887544E+03  0.7818609E-02  0.9439749E-01
        2   -1    0    0  501    0  0.00000000000E+00  0.00000000000E+00  0.24277123621E+03  0.24277123622E+03  0.25500000920E-02 0. -1.
       -2   -1    0    0    0  501  0.00000000000E+00  0.00000000000E+00 -0.81340400745E+03  0.81340400745E+03  0.25500000920E-02 0.  1.
    10030    2    1    2    0    0  0.00000000000E+00  0.00000000000E+00 -0.57063277124E+03  0.10561752437E+04  0.88875440125E+03 0.  0.
        3    1    3    3  502    0  0.42397492443E+03  0.64949473174E+02 -0.14725012148E+03  0.45349286553E+03  0.10100000352E+00 0. -1.
       -3    1    3    3    0  502 -0.42397492443E+03 -0.64949473174E+02 -0.42338264976E+03  0.60268237815E+03  0.10100000352E+00 0.  1.
</event>
<event>
 5   0  0.6524705E-03  0.9914038E+03  0.7818609E-02  0.9318024E-01
       -2   -1    0    0    0  501  0.00000000000E+00  0.00000000000E+00  0.16607327102E+03  0.16607327104E+03  0.25500000920E-02 0.  1.
        2   -1    0    0  501    0  0.00000000000E+00  0.00000000000E+00 -0.14795899972E+04  0.14795899972E+04  0.25500000920E-02 0. -1.
    10030    2    1    2    0    0  0.00000000000E+00  0.00000000000E+00 -0.13135167262E+04  0.16456632683E+04  0.99140375353E+03 0.  0.
        3    1    3    3  502    0 -0.10090312273E+03 -0.45867648886E+03 -0.92002793566E+03  0.10329651370E+04  0.10100000352E+00 0. -1.
       -3    1    3    3    0  502  0.10090312273E+03  0.45867648886E+03 -0.39348879057E+03  0.61269813131E+03  0.10100000352E+00 0.  1.
</event>
<event>
 5   0  0.3794006E-03  0.9002583E+03  0.7818609E-02  0.9425259E-01
       -1   -1    0    0    0  501  0.00000000000E+00  0.00000000000E+00  0.33697757477E+03  0.33697757481E+03  0.50400001928E-02 0.  1.
        1   -1    0    0  501    0  0.00000000000E+00  0.00000000000E+00 -0.60127513283E+03  0.60127513285E+03  0.50400001928E-02 0. -1.
    10030    2    1    2    0    0  0.00000000000E+00  0.00000000000E+00 -0.26429755805E+03  0.93825270766E+03  0.90025826530E+03 0.  0.
        5    1    3    3  502    0  0.80269902107E+02  0.28682525109E+03 -0.48385541692E+03  0.56819902880E+03  0.46999998093E+01 0.  1.
       -5    1    3    3    0  502 -0.80269902107E+02 -0.28682525109E+03  0.21955785887E+03  0.37005367886E+03  0.46999998093E+01 0. -1.
</event>
<event>
 5   0  0.3943549E-03  0.8995448E+03  0.7818609E-02  0.9426151E-01
        1   -1    0    0  501    0  0.00000000000E+00  0.00000000000E+00  0.58858476599E+03  0.58858476601E+03  0.50400001928E-02 0.  1.
       -1   -1    0    0    0  501  0.00000000000E+00  0.00000000000E+00 -0.34369764429E+03  0.34369764433E+03  0.50400001928E-02 0. -1.
    10030    2    1    2    0    0  0.00000000000E+00  0.00000000000E+00  0.24488712170E+03  0.93228241033E+03  0.89954476834E+03 0.  0.
        3    1    3    3  502    0  0.18926135854E+03  0.16842568865E+03  0.50759746443E+03  0.56731144051E+03  0.10100000352E+00 0.  1.
       -3    1    3    3    0  502 -0.18926135854E+03 -0.16842568865E+03 -0.26271034273E+03  0.36497096983E+03  0.10100000352E+00 0. -1.
</event>
<event>
 5   0  0.3943549E-03  0.9265636E+03  0.7818609E-02  0.9392972E-01
        1   -1    0    0  501    0  0.00000000000E+00  0.00000000000E+00  0.11183597169E+04  0.11183597169E+04  0.50400001928E-02 0. -1.
       -1   -1    0    0    0  501  0.00000000000E+00  0.00000000000E+00 -0.19191500166E+03  0.19191500173E+03  0.50400001928E-02 0.  1.
    10030    2    1    2    0    0  0.00000000000E+00  0.00000000000E+00  0.92644471525E+03  0.13102747186E+04  0.92656355849E+03 0.  0.
        3    1    3    3  502    0  0.40637024238E+03  0.15684566715E+03  0.24011042607E+03  0.49738351812E+03  0.10100000352E+00 0.  1.
       -3    1    3    3    0  502 -0.40637024238E+03 -0.15684566715E+03  0.68633428918E+03  0.81289120053E+03  0.10100000352E+00 0. -1.
</event>
<event>
 5   0  0.6609191E-03  0.9025371E+03  0.7818609E-02  0.9422415E-01
        2   -1    0    0  501    0  0.00000000000E+00  0.00000000000E+00  0.26924271942E+03  0.26924271943E+03  0.25500000920E-02 0.  1.
       -2   -1    0    0    0  501  0.00000000000E+00  0.00000000000E+00 -0.75635591890E+03  0.75635591890E+03  0.25500000920E-02 0. -1.
    10030    2    1    2    0    0  0.00000000000E+00  0.00000000000E+00 -0.48711319947E+03  0.10255986383E+04  0.90253714486E+03 0.  0.
        2    1    3    3  502    0  0.26098836898E+02  0.11486436878E+03 -0.73857830713E+03  0.74791235333E+03  0.25500000920E-02 0. -1.
       -2    1    3    3    0  502 -0.26098836898E+02 -0.11486436878E+03  0.25146510766E+03  0.27768628500E+03  0.25500000920E-02 0.  1.
</event>
<event>
 5   0  0.6609191E-03  0.9010066E+03  0.7818609E-02  0.9424324E-01
       -2   -1    0    0    0  501  0.00000000000E+00  0.00000000000E+00  0.26219515906E+03  0.26219515907E+03  0.25500000920E-02 0.  1.
        2   -1    0    0  501    0  0.00000000000E+00  0.00000000000E+00 -0.77405398703E+03  0.77405398703E+03  0.25500000920E-02 0. -1.
    10030    2    1    2    0    0  0.00000000000E+00  0.00000000000E+00 -0.51185882797E+03  0.10362491461E+04  0.90100656658E+03 0.  0.
        2    1    3    3  502    0  0.92060475233E+02 -0.14428192224E+03  0.22334818761E+03  0.28138375416E+03  0.25500000920E-02 0.  1.
       -2    1    3    3    0  502 -0.92060475233E+02  0.14428192224E+03 -0.73520701558E+03  0.75486539194E+03  0.25500000920E-02 0. -1.
</event>
<event>
 5   0  0.3998066E-03  0.9009454E+03  0.7818609E-02  0.9424400E-01
       -1   -1    0    0    0  501  0.00000000000E+00  0.00000000000E+00  0.27567905156E+03  0.27567905161E+03  0.50400001928E-02 0.  1.
        1   -1    0    0  501    0  0.00000000000E+00  0.00000000000E+00 -0.73609380259E+03  0.73609380260E+03  0.50400001928E-02 0. -1.
    10030    2    1    2    0    0  0.00000000000E+00  0.00000000000E+00 -0.46041475103E+03  0.10117728542E+04  0.90094537323E+03 0.  0.
        4    1    3    3  502    0  0.20791933690E+03 -0.16403228676E+03  0.17901777934E+03  0.31966548137E+03  0.12699999809E+01 0.  1.
       -4    1    3    3    0  502 -0.20791933690E+03  0.16403228676E+03 -0.63943253036E+03  0.69210737284E+03  0.12699999809E+01 0. -1.
</event>
<event>
 5   0  0.6863405E-03  0.9041839E+03  0.7818609E-02  0.9420366E-01
       -2   -1    0    0    0  501  0.00000000000E+00  0.00000000000E+00  0.46048196592E+03  0.46048196593E+03  0.25500000920E-02 0.  1.
        2   -1    0    0  501    0  0.00000000000E+00  0.00000000000E+00 -0.44385482562E+03  0.44385482563E+03  0.25500000920E-02 0. -1.
    10030    2    1    2    0    0  0.00000000000E+00  0.00000000000E+00  0.16627140302E+02  0.90433679156E+03  0.90418392530E+03 0.  0.
        1    1    3    3  502    0  0.27409021933E+03  0.75538717393E+02  0.35987775776E+03  0.45863225651E+03  0.50400001928E-02 0.  1.
       -1    1    3    3    0  502 -0.27409021933E+03 -0.75538717393E+02 -0.34325061746E+03  0.44570453505E+03  0.50400001928E-02 0. -1.
</event>
<event>
 5   0  0.2560250E-03  0.8727234E+03  0.7818609E-02  0.9460336E-01
        3   -1    0    0  501    0  0.00000000000E+00  0.00000000000E+00  0.84863029385E+03  0.84863029986E+03  0.10100000352E+00 0.  1.
       -3   -1    0    0    0  501  0.00000000000E+00  0.00000000000E+00 -0.22437513803E+03  0.22437516076E+03  0.10100000352E+00 0. -1.
    10030    2    1    2    0    0  0.00000000000E+00  0.00000000000E+00  0.62425515582E+03  0.10730054606E+04  0.87272344930E+03 0.  0.
        1    1    3    3  502    0 -0.13455266103E+03 -0.22491022780E+03 -0.11682646385E+03  0.28694503279E+03  0.50400001928E-02 0. -1.
       -1    1    3    3    0  502  0.13455266103E+03  0.22491022780E+03  0.74108161967E+03  0.78606042783E+03  0.50400001928E-02 0.  1.
</event>
<event>
 5   0  0.2560250E-03  0.8950116E+03  0.7818609E-02  0.9431839E-01
        4   -1    0    0  501    0  0.00000000000E+00  0.00000000000E+00  0.33106825492E+03  0.33107069082E+03  0.12699999809E+01 0.  1.
       -4   -1    0    0    0  501  0.00000000000E+00  0.00000000000E+00 -0.60488946415E+03  0.60489079736E+03  0.12699999809E+01 0. -1.
    10030    2    1    2    0    0  0.00000000000E+00  0.00000000000E+00 -0.27382120922E+03  0.93596148818E+03  0.89501164950E+03 0.  0.
        2    1    3    3  502    0  0.36062534414E+03  0.25118004114E+03 -0.22514772617E+03  0.49379504909E+03  0.25500000920E-02 0.  1.
       -2    1    3    3    0  502 -0.36062534414E+03 -0.25118004114E+03 -0.48673483052E+02  0.44216643909E+03  0.25500000920E-02 0. -1.
</event>
<event>
 5   0  0.2560250E-03  0.8985768E+03  0.7818609E-02  0.9427362E-01
        4   -1    0    0  501    0  0.00000000000E+00  0.00000000000E+00  0.80215111973E+03  0.80215212509E+03  0.12699999809E+01 0. -1.
       -4   -1    0    0    0  501  0.00000000000E+00  0.00000000000E+00 -0.25164565561E+03  0.25164886030E+03  0.12699999809E+01 0.  1.
    10030    2    1    2    0    0  0.00000000000E+00  0.00000000000E+00  0.55050546412E+03  0.10538009854E+04  0.89857679181E+03 0.  0.
        2    1    3    3  502    0 -0.47049815749E+02 -0.34993082028E+03  0.60108749877E+03  0.69711652206E+03  0.25500000920E-02 0. -1.
       -2    1    3    3    0  502  0.47049815749E+02  0.34993082028E+03 -0.50582034653E+02  0.35668446333E+03  0.25500000920E-02 0.  1.
</event>
<event>
 5   0  0.6609191E-03  0.8968548E+03  0.7818609E-02  0.9429522E-01
        2   -1    0    0  501    0  0.00000000000E+00  0.00000000000E+00  0.82351547340E+03  0.82351547341E+03  0.25500000920E-02 0. -1.
       -2   -1    0    0    0  501  0.00000000000E+00  0.00000000000E+00 -0.24418138824E+03  0.24418138826E+03  0.25500000920E-02 0.  1.
    10030    2    1    2    0    0  0.00000000000E+00  0.00000000000E+00  0.57933408516E+03  0.10676968617E+04  0.89685484120E+03 0.  0.
        2    1    3    3  502    0  0.41748611747E+03  0.13979552898E+03  0.18830253220E+03  0.47884787965E+03  0.25500000920E-02 0. -1.
       -2    1    3    3    0  502 -0.41748611747E+03 -0.13979552898E+03  0.39103155296E+03  0.58884898201E+03  0.25500000920E-02 0.  1.
</event>
<event>
 5   0  0.3794006E-03  0.9276078E+03  0.7818609E-02  0.9391714E-01
       -1   -1    0    0    0  501  0.00000000000E+00  0.00000000000E+00  0.68677056134E+03  0.68677056136E+03  0.50400001928E-02 0.  1.
        1   -1    0    0  501    0  0.00000000000E+00  0.00000000000E+00 -0.31322548539E+03  0.31322548543E+03  0.50400001928E-02 0. -1.
    10030    2    1    2    0    0  0.00000000000E+00  0.00000000000E+00  0.37354507595E+03  0.99999604679E+03  0.92760776723E+03 0.  0.
        5    1    3    3  502    0 -0.45288328318E+03  0.99282009703E+02  0.19914730247E+03  0.50462057401E+03  0.46999998093E+01 0. -1.
       -5    1    3    3    0  502  0.45288328318E+03 -0.99282009703E+02  0.17439777348E+03  0.49537547278E+03  0.46999998093E+01 0.  1.
</event>
<event>
 5   0  0.6524705E-03  0.9515577E+03  0.7818609E-02  0.9363332E-01
        2   -1    0    0  501    0  0.00000000000E+00  0.00000000000E+00  0.39911952970E+03  0.39911952971E+03  0.25500000920E-02 0.  1.
       -2   -1    0    0    0  501  0.00000000000E+00  0.00000000000E+00 -0.56716221256E+03  0.56716221257E+03  0.25500000920E-02 0. -1.
    10030    2    1    2    0    0  0.00000000000E+00  0.00000000000E+00 -0.16804268286E+03  0.96628174227E+03  0.95155770303E+03 0.  0.
        3    1    3    3  502    0 -0.31218941885E+03  0.33741368255E+03  0.40577225561E+02  0.46147236954E+03  0.10100000352E+00 0.  1.
       -3    1    3    3    0  502  0.31218941885E+03 -0.33741368255E+03 -0.20861990842E+03  0.50480937274E+03  0.10100000352E+00 0. -1.
</event>
<event>
 5   0  0.3943549E-03  0.8978723E+03  0.7818609E-02  0.9428245E-01
       -1   -1    0    0    0  501  0.00000000000E+00  0.00000000000E+00  0.19693730541E+03  0.19693730548E+03  0.50400001928E-02 0.  1.
        1   -1    0    0  501    0  0.00000000000E+00  0.00000000000E+00 -0.10233900913E+04  0.10233900913E+04  0.50400001928E-02 0. -1.
    10030    2    1    2    0    0  0.00000000000E+00  0.00000000000E+00 -0.82645278589E+03  0.12203273968E+04  0.89787234508E+03 0.  0.
        3    1    3    3  502    0 -0.10609712652E+03 -0.35930597782E+03 -0.77033266741E+02  0.38248074505E+03  0.10100000352E+00 0.  1.
       -3    1    3    3    0  502  0.10609712652E+03  0.35930597782E+03 -0.74941951915E+03  0.83784665175E+03  0.10100000352E+00 0. -1.
</event>
<event>
 5   0  0.6534628E-03  0.9086012E+03  0.7818609E-02  0.9414893E-01
        2   -1    0    0  501    0  0.00000000000E+00  0.00000000000E+00  0.17469523300E+04  0.17469523300E+04  0.25500000920E-02 0. -1.
       -2   -1    0    0    0  501  0.00000000000E+00  0.00000000000E+00 -0.11814233981E+03  0.11814233984E+03  0.25500000920E-02 0.  1.
    10030    2    1    2    0    0  0.00000000000E+00  0.00000000000E+00  0.16288099901E+04  0.18650946698E+04  0.90860120148E+03 0.  0.
        4    1    3    3  502    0 -0.32144230927E+03 -0.31696232856E+03  0.70979435939E+03  0.84118958710E+03  0.12699999809E+01 0.  1.
       -4    1    3    3    0  502  0.32144230927E+03  0.31696232856E+03  0.91901563076E+03  0.10239050827E+04  0.12699999809E+01 0. -1.
</event>
<event>
 5   0  0.3927993E-03  0.8972821E+03  0.7818609E-02  0.9428985E-01
        1   -1    0    0  501    0  0.00000000000E+00  0.00000000000E+00  0.26024372328E+03  0.26024372333E+03  0.50400001928E-02 0.  1.
       -1   -1    0    0    0  501  0.00000000000E+00  0.00000000000E+00 -0.77342426088E+03  0.77342426090E+03  0.50400001928E-02 0. -1.
    10030    2    1    2    0    0  0.00000000000E+00  0.00000000000E+00 -0.51318053760E+03  0.10336679842E+04  0.89728213927E+03 0.  0.
        2    1    3    3  502    0  0.33893847718E+03  0.88623988146E+02 -0.57944872230E+03  0.67712208971E+03  0.25500000920E-02 0. -1.
       -2    1    3    3    0  502 -0.33893847718E+03 -0.88623988146E+02  0.66268184705E+02  0.35654589452E+03  0.25500000920E-02 0.  1.
</event>
<event>
 5   0  0.3969536E-03  0.8993356E+03  0.7818609E-02  0.9426412E-01
        1   -1    0    0  501    0  0.00000000000E+00  0.00000000000E+00  0.80341493185E+03  0.80341493187E+03  0.50400001928E-02 0. -1.
       -1   -1    0    0    0  501  0.00000000000E+00  0.00000000000E+00 -0.25167711339E+03  0.25167711344E+03  0.50400001928E-02 0.  1.
    10030    2    1    2    0    0  0.00000000000E+00  0.00000000000E+00  0.55173781846E+03  0.10550920453E+04  0.89933564577E+03 0.  0.
        1    1    3    3  502    0  0.39630294863E+03  0.20956028793E+03  0.23473005851E+03  0.50603334056E+03  0.50400001928E-02 0. -1.
       -1    1    3    3    0  502 -0.39630294863E+03 -0.20956028793E+03  0.31700775994E+03  0.54905870474E+03  0.50400001928E-02 0.  1.
</event>
<event>
 5   0  0.6724773E-03  0.9276329E+03  0.7818609E-02  0.9391683E-01
        2   -1    0    0  501    0  0.00000000000E+00  0.00000000000E+00  0.10981025361E+04  0.10981025361E+04  0.25500000920E-02 0. -1.
       -2   -1    0    0    0  501  0.00000000000E+00  0.00000000000E+00 -0.19590676084E+03  0.19590676086E+03  0.25500000920E-02 0.  1.
    10030    2    1    2    0    0  0.00000000000E+00  0.00000000000E+00  0.90219577529E+03  0.12940092970E+04  0.92763292511E+03 0.  0.
        5    1    3    3  502    0  0.10695838372E+03 -0.32481637190E+01  0.10806136669E+04  0.10859091277E+04  0.46999998093E+01 0. -1.
       -5    1    3    3    0  502 -0.10695838372E+03  0.32481637190E+01 -0.17841789164E+03  0.20810016932E+03  0.46999998093E+01 0.  1.
</event>
<event>
 5   0  0.3794006E-03  0.9009100E+03  0.7818609E-02  0.9424445E-01
        1   -1    0    0  501    0  0.00000000000E+00  0.00000000000E+00  0.38252115264E+03  0.38252115267E+03  0.50400001928E-02 0.  1.
       -1   -1    0    0    0  501  0.00000000000E+00  0.00000000000E+00 -0.53045353815E+03  0.53045353817E+03  0.50400001928E-02 0. -1.
    10030    2    1    2    0    0  0.00000000000E+00  0.00000000000E+00 -0.14793238551E+03  0.91297469085E+03  0.90090998188E+03 0.  0.
        5    1    3    3  502    0 -0.13929465206E+02 -0.34703015081E+03  0.21669117469E+03  0.40939114641E+03  0.46999998093E+01 0.  1.
       -5    1    3    3    0  502  0.13929465206E+02  0.34703015081E+03 -0.36462356020E+03  0.50358354443E+03  0.46999998093E+01 0. -1.
</event>
<event>
 5   0  0.6524705E-03  0.8975026E+03  0.7818609E-02  0.9428709E-01
       -2   -1    0    0    0  501  0.00000000000E+00  0.00000000000E+00  0.13535197086E+03  0.13535197088E+03  0.25500000920E-02 0. -1.
        2   -1    0    0  501    0  0.00000000000E+00  0.00000000000E+00 -0.14878079271E+04  0.14878079271E+04  0.25500000920E-02 0.  1.
    10030    2    1    2    0    0  0.00000000000E+00  0.00000000000E+00 -0.13524559562E+04  0.16231598980E+04  0.89750261328E+03 0.  0.
        3    1    3    3  502    0 -0.17598683568E+03  0.21777801120E+03 -0.42006082033E+02  0.28313097609E+03  0.10100000352E+00 0. -1.
       -3    1    3    3    0  502  0.17598683568E+03 -0.21777801120E+03 -0.13104498742E+04  0.13400289219E+04  0.10100000352E+00 0.  1.
</event>
<event>
 5   0  0.6863405E-03  0.9024604E+03  0.7818609E-02  0.9422511E-01
       -2   -1    0    0    0  501  0.00000000000E+00  0.00000000000E+00  0.59511755596E+03  0.59511755597E+03  0.25500000920E-02 0.  1.
        2   -1    0    0  501    0  0.00000000000E+00  0.00000000000E+00 -0.34213187852E+03  0.34213187853E+03  0.25500000920E-02 0. -1.
    10030    2    1    2    0    0  0.00000000000E+00  0.00000000000E+00  0.25298567744E+03  0.93724943450E+03  0.90246038665E+03 0.  0.
        1    1    3    3  502    0  0.23866016808E+03 -0.31356702160E+03 -0.10181260715E+03  0.40699970499E+03  0.50400001928E-02 0. -1.
       -1    1    3    3    0  502 -0.23866016808E+03  0.31356702160E+03  0.35479828460E+03  0.53024972951E+03  0.50400001928E-02 0.  1.
</event>
<event>
 5   0  0.3927993E-03  0.8983522E+03  0.7818609E-02  0.9427644E-01
       -1   -1    0    0    0  501  0.00000000000E+00  0.00000000000E+00  0.62596955833E+03  0.62596955835E+03  0.50400001928E-02 0. -1.
        1   -1    0    0  501    0  0.00000000000E+00  0.00000000000E+00 -0.32231469830E+03  0.32231469834E+03  0.50400001928E-02 0.  1.
    10030    2    1    2    0    0  0.00000000000E+00  0.00000000000E+00  0.30365486003E+03  0.94828425669E+03  0.89835224576E+03 0.  0.
        2    1    3    3  502    0 -0.18616522558E+03  0.38176865853E+03 -0.24262247954E+01  0.42474779154E+03  0.25500000920E-02 0.  1.
       -2    1    3    3    0  502  0.18616522558E+03 -0.38176865853E+03  0.30608108483E+03  0.52353646515E+03  0.25500000920E-02 0. -1.
</event>
<event>
 5   0  0.3927993E-03  0.9075275E+03  0.7818609E-02  0.9416220E-01
        1   -1    0    0  501    0  0.00000000000E+00  0.00000000000E+00  0.20106814452E+04  0.20106814452E+04  0.50400001928E-02 0.  1.
       -1   -1    0    0    0  501  0.00000000000E+00  0.00000000000E+00 -0.10240386838E+03  0.10240386850E+03  0.50400001928E-02 0. -1.
    10030    2    1    2    0    0  0.00000000000E+00  0.00000000000E+00  0.19082775769E+04  0.21130853137E+04  0.90752753832E+03 0.  0.
        2    1    3    3  502    0 -0.30013871528E+03  0.28882913667E+03  0.53505276249E+03  0.67807593767E+03  0.25500000920E-02 0. -1.
       -2    1    3    3    0  502  0.30013871528E+03 -0.28882913667E+03  0.13732248144E+04  0.14350093761E+04  0.25500000920E-02 0.  1.
</event>
<event>
 5   0  0.6524705E-03  0.9011479E+03  0.7818609E-02  0.9424148E-01
        2   -1    0    0  501    0  0.00000000000E+00  0.00000000000E+00  0.14327639234E+04  0.14327639234E+04  0.25500000920E-02 0.  1.
       -2   -1    0    0    0  501  0.00000000000E+00  0.00000000000E+00 -0.14169596588E+03  0.14169596590E+03  0.25500000920E-02 0. -1.
    10030    2    1    2    0    0  0.00000000000E+00  0.00000000000E+00  0.12910679575E+04  0.15744598893E+04  0.90114786361E+03 0.  0.
        3    1    3    3  502    0 -0.13778338413E+03 -0.41736409655E+03  0.47222189206E+03  0.64511283941E+03  0.10100000352E+00 0.  1.
       -3    1    3    3    0  502  0.13778338413E+03  0.41736409655E+03  0.81884606549E+03  0.92934704992E+03  0.10100000352E+00 0. -1.
</event>
<event>
 5   0  0.6724773E-03  0.9068598E+03  0.7818609E-02  0.9417047E-01
        2   -1    0    0  501    0  0.00000000000E+00  0.00000000000E+00  0.38302181665E+03  0.38302181666E+03  0.25500000920E-02 0.  1.
       -2   -1    0    0    0  501  0.00000000000E+00  0.00000000000E+00 -0.53678059985E+03  0.53678059985E+03  0.25500000920E-02 0. -1.
    10030    2    1    2    0    0  0.00000000000E+00  0.00000000000E+00 -0.15375878320E+03  0.91980241651E+03  0.90685981387E+03 0.  0.
        5    1    3    3  502    0 -0.16486446602E+03 -0.28373170492E+03 -0.39422271132E+03  0.51294990852E+03  0.46999998093E+01 0. -1.
       -5    1    3    3    0  502  0.16486446602E+03  0.28373170492E+03  0.24046392812E+03  0.40685250799E+03  0.46999998093E+01 0.  1.
</event>
<event>
 5   0  0.3998066E-03  0.9020692E+03  0.7818609E-02  0.9422999E-01
        1   -1    0    0  501    0  0.00000000000E+00  0.00000000000E+00  0.60343894455E+03  0.60343894457E+03  0.50400001928E-02 0. -1.
       -1   -1    0    0    0  501  0.00000000000E+00  0.00000000000E+00 -0.33712144874E+03  0.33712144878E+03  0.50400001928E-02 0.  1.
    10030    2    1    2    0    0  0.00000000000E+00  0.00000000000E+00  0.26631749581E+03  0.94056039335E+03  0.90206920187E+03 0.  0.
        4    1    3    3  502    0 -0.40677018282E+03 -0.18519859514E+03  0.19632507234E+03  0.48816559506E+03  0.12699999809E+01 0.  1.
       -4    1    3    3    0  502  0.40677018282E+03  0.18519859514E+03  0.69992423467E+02  0.45239479829E+03  0.12699999809E+01 0. -1.
</event>
<event>
 5   0  0.3998066E-03  0.8978793E+03  0.7818609E-02  0.9428236E-01
        1   -1    0    0  501    0  0.00000000000E+00  0.00000000000E+00  0.44499586661E+03  0.44499586664E+03  0.50400001928E-02 0.  1.
       -1   -1    0    0    0  501  0.00000000000E+00  0.00000000000E+00 -0.45291836153E+03  0.45291836156E+03  0.50400001928E-02 0. -1.
    10030    2    1    2    0    0  0.00000000000E+00  0.00000000000E+00 -0.79224949147E+01  0.89791422820E+03  0.89787927656E+03 0.  0.
        4    1    3    3  502    0 -0.10217607628E+02 -0.72414563877E+02  0.43899720693E+03  0.44504879414E+03  0.12699999809E+01 0.  1.
       -4    1    3    3    0  502  0.10217607628E+02  0.72414563877E+02 -0.44691970185E+03  0.45286543406E+03  0.12699999809E+01 0. -1.
</event>
<event>
 5   0  0.3969536E-03  0.8987007E+03  0.7818609E-02  0.9427207E-01
        1   -1    0    0  501    0  0.00000000000E+00  0.00000000000E+00  0.46664396748E+03  0.46664396751E+03  0.50400001928E-02 0.  1.
       -1   -1    0    0    0  501  0.00000000000E+00  0.00000000000E+00 -0.43269758282E+03  0.43269758285E+03  0.50400001928E-02 0. -1.
    10030    2    1    2    0    0  0.00000000000E+00  0.00000000000E+00  0.33946384656E+02  0.89934155036E+03  0.89870065493E+03 0.  0.
        1    1    3    3  502    0  0.17799090458E+03 -0.35515295903E+03  0.22712612053E+03  0.45760316987E+03  0.50400001928E-02 0.  1.
       -1    1    3    3    0  502 -0.17799090458E+03  0.35515295903E+03 -0.19317973587E+03  0.44173838049E+03  0.50400001928E-02 0. -1.
</event>
<event>
 5   0  0.3969536E-03  0.8631947E+03  0.7818609E-02  0.9472797E-01
        1   -1    0    0  501    0  0.00000000000E+00  0.00000000000E+00  0.16763782358E+04  0.16763782358E+04  0.50400001928E-02 0. -1.
       -1   -1    0    0    0  501  0.00000000000E+00  0.00000000000E+00 -0.11111829093E+03  0.11111829105E+03  0.50400001928E-02 0.  1.
    10030    2    1    2    0    0  0.00000000000E+00  0.00000000000E+00  0.15652599449E+04  0.17874965269E+04  0.86319472804E+03 0.  0.
        1    1    3    3  502    0 -0.32117511875E+03 -0.19028064411E+03  0.12311660681E+04  0.12865185843E+04  0.50400001928E-02 0. -1.
       -1    1    3    3    0  502  0.32117511875E+03  0.19028064411E+03  0.33409387677E+03  0.50097794258E+03  0.50400001928E-02 0.  1.
</event>
<event>
 5   0  0.3927993E-03  0.8793744E+03  0.7818609E-02  0.9451738E-01
        1   -1    0    0  501    0  0.00000000000E+00  0.00000000000E+00  0.93267660772E+03  0.93267660774E+03  0.50400001928E-02 0.  1.
       -1   -1    0    0    0  501  0.00000000000E+00  0.00000000000E+00 -0.20727959083E+03  0.20727959089E+03  0.50400001928E-02 0. -1.
    10030    2    1    2    0    0  0.00000000000E+00  0.00000000000E+00  0.72539701689E+03  0.11399561986E+04  0.87937438141E+03 0.  0.
        2    1    3    3  502    0  0.42472776485E+03 -0.11245039130E+03  0.34077330528E+03  0.55602626766E+03  0.25500000920E-02 0.  1.
       -2    1    3    3    0  502 -0.42472776485E+03  0.11245039130E+03  0.38462371162E+03  0.58392993097E+03  0.25500000920E-02 0. -1.
</event>
<event>
 5   0  0.3794006E-03  0.8995363E+03  0.7818609E-02  0.9426161E-01
        1   -1    0    0  501    0  0.00000000000E+00  0.00000000000E+00  0.13748924651E+04  0.13748924651E+04  0.50400001928E-02 0. -1.
       -1   -1    0    0    0  501  0.00000000000E+00  0.00000000000E+00 -0.14713251210E+03  0.14713251218E+03  0.50400001928E-02 0.  1.
    10030    2    1    2    0    0  0.00000000000E+00  0.00000000000E+00  0.12277599530E+04  0.15220249773E+04  0.89953628572E+03 0.  0.
        5    1    3    3  502    0 -0.33107288858E+03  0.22983524142E+03  0.27617314524E+03  0.48859716731E+03  0.46999998093E+01 0.  1.
       -5    1    3    3    0  502  0.33107288858E+03 -0.22983524142E+03  0.95158680780E+03  0.10334278100E+04  0.46999998093E+01 0. -1.
</event>
<event>
 5   0  0.3927993E-03  0.8979574E+03  0.7818609E-02  0.9428138E-01
       -1   -1    0    0    0  501  0.00000000000E+00  0.00000000000E+00  0.18021853499E+03  0.18021853506E+03  0.50400001928E-02 0. -1.
        1   -1    0    0  501    0  0.00000000000E+00  0.00000000000E+00 -0.11185414119E+04  0.11185414119E+04  0.50400001928E-02 0.  1.
    10030    2    1    2    0    0  0.00000000000E+00  0.00000000000E+00 -0.93832287688E+03  0.12987599469E+04  0.89795744805E+03 0.  0.
        2    1    3    3  502    0  0.42354544479E+03 -0.57584854463E+02 -0.27045215050E+03  0.50581728419E+03  0.25500000920E-02 0.  1.
       -2    1    3    3    0  502 -0.42354544479E+03  0.57584854463E+02 -0.66787072638E+03  0.79294266276E+03  0.25500000920E-02 0. -1.
</event>
<event>
 5   0  0.6863405E-03  0.9287503E+03  0.7818609E-02  0.9390339E-01
       -2   -1    0    0    0  501  0.00000000000E+00  0.00000000000E+00  0.22498111737E+03  0.22498111739E+03  0.25500000920E-02 0.  1.
        2   -1    0    0  501    0  0.00000000000E+00  0.00000000000E+00 -0.95849938851E+03  0.95849938851E+03  0.25500000920E-02 0. -1.
    10030    2    1    2    0    0  0.00000000000E+00  0.00000000000E+00 -0.73351827114E+03  0.11834805059E+04  0.92875026447E+03 0.  0.
        1    1    3    3  502    0  0.22249761187E+03  0.15586547422E+03  0.11316127461E+03  0.29428677754E+03  0.50400001928E-02 0.  1.
       -1    1    3    3    0  502 -0.22249761187E+03 -0.15586547422E+03 -0.84667954575E+03  0.88919372836E+03  0.50400001928E-02 0. -1.
</event>
<event>
 5   0  0.6863405E-03  0.9054496E+03  0.7818609E-02  0.9418795E-01
        2   -1    0    0  501    0  0.00000000000E+00  0.00000000000E+00  0.17253333273E+03  0.17253333274E+03  0.25500000920E-02 0.  1.
       -2   -1    0    0    0  501  0.00000000000E+00  0.00000000000E+00 -0.11879428209E+04  0.11879428209E+04  0.25500000920E-02 0. -1.
    10030    2    1    2    0    0  0.00000000000E+00  0.00000000000E+00 -0.10154094881E+04  0.13604761536E+04  0.90544957670E+03 0.  0.
        1    1    3    3  502    0  0.38346595290E+03 -0.23782762761E+03 -0.45246477820E+03  0.63900899292E+03  0.50400001928E-02 0.  1.
       -1    1    3    3    0  502 -0.38346595290E+03  0.23782762761E+03 -0.56294470994E+03  0.72146716070E+03  0.50400001928E-02 0. -1.
</event>
<event>
 5   0  0.6609191E-03  0.8997333E+03  0.7818609E-02  0.9425915E-01
        2   -1    0    0  501    0  0.00000000000E+00  0.00000000000E+00  0.51265307379E+03  0.51265307379E+03  0.25500000920E-02 0.  1.
       -2   -1    0    0    0  501  0.00000000000E+00  0.00000000000E+00 -0.39476991131E+03  0.39476991132E+03  0.25500000920E-02 0. -1.
    10030    2    1    2    0    0  0.00000000000E+00  0.00000000000E+00  0.11788316247E+03  0.90742298512E+03  0.89973331267E+03 0.  0.
        2    1    3    3  502    0 -0.26663866487E+03  0.35674364407E+03  0.12286946236E+03  0.46201635250E+03  0.25500000920E-02 0.  1.
       -2    1    3    3    0  502  0.26663866487E+03 -0.35674364407E+03 -0.49862998858E+01  0.44540663262E+03  0.25500000920E-02 0. -1.
</event>
<event>
 5   0  0.3998066E-03  0.8775397E+03  0.7818609E-02  0.9454102E-01
       -1   -1    0    0    0  501  0.00000000000E+00  0.00000000000E+00  0.21616404376E+03  0.21616404382E+03  0.50400001928E-02 0.  1.
        1   -1    0    0  501    0  0.00000000000E+00  0.00000000000E+00 -0.89061527008E+03  0.89061527009E+03  0.50400001928E-02 0. -1.
    10030    2    1    2    0    0  0.00000000000E+00  0.00000000000E+00 -0.67445122632E+03  0.11067793139E+04  0.87753973872E+03 0.  0.
        4    1    3    3  502    0  0.87518059481E+02 -0.19185278356E+03  0.14806194502E+03  0.25766422677E+03  0.12699999809E+01 0.  1.
       -4    1    3    3    0  502 -0.87518059481E+02  0.19185278356E+03 -0.82251317134E+03  0.84911508714E+03  0.12699999809E+01 0. -1.
</event>
<event>
 5   0  0.3998066E-03  0.8987950E+03  0.7818609E-02  0.9427089E-01
        1   -1    0    0  501    0  0.00000000000E+00  0.00000000000E+00  0.84754854984E+03  0.84754854986E+03  0.50400001928E-02 0. -1.
       -1   -1    0    0    0  501  0.00000000000E+00  0.00000000000E+00 -0.23828499547E+03  0.23828499552E+03  0.50400001928E-02 0.  1.
    10030    2    1    2    0    0  0.00000000000E+00  0.00000000000E+00  0.60926355438E+03  0.10858335454E+04  0.89879497639E+03 0.  0.
        4    1    3    3  502    0  0.27720136596E+03  0.31731819858E+03  0.11582378411E+03  0.43697619879E+03  0.12699999809E+01 0. -1.
       -4    1    3    3    0  502 -0.27720136596E+03 -0.31731819858E+03  0.49343977027E+03  0.64885734659E+03  0.12699999809E+01 0.  1.
</event>
<event>
 5   0  0.3969536E-03  0.9044508E+03  0.7818609E-02  0.9420035E-01
        1   -1    0    0  501    0  0.00000000000E+00  0.00000000000E+00  0.13060255639E+04  0.13060255639E+04  0.50400001928E-02 0.  1.
       -1   -1    0    0    0  501  0.00000000000E+00  0.00000000000E+00 -0.15658791437E+03  0.15658791445E+03  0.50400001928E-02 0. -1.
    10030    2    1    2    0    0  0.00000000000E+00  0.00000000000E+00  0.11494376495E+04  0.14626134783E+04  0.90445081509E+03 0.  0.
        1    1    3    3  502    0  0.39394101283E+03  0.20557878627E+03  0.71055437513E+03  0.83805708576E+03  0.50400001928E-02 0.  1.
       -1    1    3    3    0  502 -0.39394101283E+03 -0.20557878627E+03  0.43888327437E+03  0.62455639257E+03  0.50400001928E-02 0. -1.
</event>
<event>
 5   0  0.3927993E-03  0.8984401E+03  0.7818609E-02  0.9427534E-01
       -1   -1    0    0    0  501  0.00000000000E+00  0.00000000000E+00  0.17323784008E+03  0.17323784015E+03  0.50400001928E-02 0. -1.
        1   -1    0    0  501    0  0.00000000000E+00  0.00000000000E+00 -0.11648646247E+04  0.11648646247E+04  0.50400001928E-02 0.  1.
    10030    2    1    2    0    0  0.00000000000E+00  0.00000000000E+00 -0.99162678459E+03  0.13381024648E+04  0.89844005168E+03 0.  0.
        2    1    3    3  502    0 -0.21663779267E+03  0.39027534619E+03 -0.57104980067E+03  0.72480663208E+03  0.25500000920E-02 0. -1.
       -2    1    3    3    0  502  0.21663779267E+03 -0.39027534619E+03 -0.42057698391E+03  0.61329583274E+03  0.25500000920E-02 0.  1.
</event>
<event>
 5   0  0.3927993E-03  0.9008806E+03  0.7818609E-02  0.9424481E-01
        1   -1    0    0  501    0  0.00000000000E+00  0.00000000000E+00  0.41305482382E+03  0.41305482385E+03  0.50400001928E-02 0.  1.
       -1   -1    0    0    0  501  0.00000000000E+00  0.00000000000E+00 -0.49120955947E+03  0.49120955949E+03  0.50400001928E-02 0. -1.
    10030    2    1    2    0    0  0.00000000000E+00  0.00000000000E+00 -0.78154735648E+02  0.90426438334E+03  0.90088063154E+03 0.  0.
        2    1    3    3  502    0 -0.60780214175E+02 -0.43736603324E+03 -0.12836764134E+03  0.45984946756E+03  0.25500000920E-02 0. -1.
       -2    1    3    3    0  502  0.60780214175E+02  0.43736603324E+03  0.50212905695E+02  0.44441491578E+03  0.25500000920E-02 0.  1.
</event>
<event>
 5   0  0.6524705E-03  0.9003521E+03  0.7818609E-02  0.9425141E-01
       -2   -1    0    0    0  501  0.00000000000E+00  0.00000000000E+00  0.21346520388E+03  0.21346520390E+03  0.25500000920E-02 0.  1.
        2   -1    0    0  501    0  0.00000000000E+00  0.00000000000E+00 -0.94937481786E+03  0.94937481786E+03  0.25500000920E-02 0. -1.
    10030    2    1    2    0    0  0.00000000000E+00  0.00000000000E+00 -0.73590961398E+03  0.11628400218E+04  0.90035212904E+03 0.  0.
        3    1    3    3  502    0  0.16179007939E+03  0.37849492527E+03 -0.60336962692E+03  0.73040355635E+03  0.10100000352E+00 0.  1.
       -3    1    3    3    0  502 -0.16179007939E+03 -0.37849492527E+03 -0.13253998706E+03  0.43243646541E+03  0.10100000352E+00 0. -1.
</event>
<event>
 5   0  0.6863405E-03  0.9200325E+03  0.7818609E-02  0.9400881E-01
        2   -1    0    0  501    0  0.00000000000E+00  0.00000000000E+00  0.15791973599E+04  0.15791973599E+04  0.25500000920E-02 0. -1.
       -2   -1    0    0    0  501  0.00000000000E+00  0.00000000000E+00 -0.13400157139E+03  0.13400157141E+03  0.25500000920E-02 0.  1.
    10030    2    1    2    0    0  0.00000000000E+00  0.00000000000E+00  0.14451957886E+04  0.17131989314E+04  0.92003245113E+03 0.  0.
        1    1    3    3  502    0  0.45304293070E+03  0.72116526461E+02  0.65900653403E+03  0.80295597785E+03  0.50400001928E-02 0.  1.
       -1    1    3    3    0  502 -0.45304293070E+03 -0.72116526461E+02  0.78618925452E+03  0.91024295350E+03  0.50400001928E-02 0. -1.
</event>
<event>
 5   0  0.6524705E-03  0.9092112E+03  0.7818609E-02  0.9414140E-01
        2   -1    0    0  501    0  0.00000000000E+00  0.00000000000E+00  0.69924583755E+03  0.69924583756E+03  0.25500000920E-02 0. -1.
       -2   -1    0    0    0  501  0.00000000000E+00  0.00000000000E+00 -0.29555592836E+03  0.29555592838E+03  0.25500000920E-02 0.  1.
    10030    2    1    2    0    0  0.00000000000E+00  0.00000000000E+00  0.40368990919E+03  0.99480176593E+03  0.90921120248E+03 0.  0.
        3    1    3    3  502    0  0.89162477657E+02 -0.13591150005E+03 -0.26267311290E+03  0.30889975349E+03  0.10100000352E+00 0.  1.
       -3    1    3    3    0  502 -0.89162477657E+02  0.13591150005E+03  0.66636302209E+03  0.68590201244E+03  0.10100000352E+00 0. -1.
</event>
<event>
 5   0  0.3969536E-03  0.8952251E+03  0.7818609E-02  0.9431570E-01
        1   -1    0    0  501    0  0.00000000000E+00  0.00000000000E+00  0.76881643315E+03  0.76881643317E+03  0.50400001928E-02 0. -1.
       -1   -1    0    0    0  501  0.00000000000E+00  0.00000000000E+00 -0.26060445210E+03  0.26060445215E+03  0.50400001928E-02 0.  1.
    10030    2    1    2    0    0  0.00000000000E+00  0.00000000000E+00  0.50821198105E+03  0.10294208853E+04  0.89522507865E+03 0.  0.
        1    1    3    3  502    0  0.72415063996E+02  0.39773641365E+03  0.47505113368E+03  0.62378824602E+03  0.50400001928E-02 0. -1.
       -1    1    3    3    0  502 -0.72415063996E+02 -0.39773641365E+03  0.33160847368E+02  0.40563263929E+03  0.50400001928E-02 0.  1.
</event>
<event>
 5   0  0.6609191E-03  0.9015341E+03  0.7818609E-02  0.9423666E-01
       -2   -1    0    0    0  501  0.00000000000E+00  0.00000000000E+00  0.27064850053E+03  0.27064850054E+03  0.25500000920E-02 0. -1.
        2   -1    0    0  501    0  0.00000000000E+00  0.00000000000E+00 -0.75075581474E+03  0.75075581474E+03  0.25500000920E-02 0.  1.
    10030    2    1    2    0    0  0.00000000000E+00  0.00000000000E+00 -0.48010731421E+03  0.10214043153E+04  0.90153410481E+03 0.  0.
        2    1    3    3  502    0 -0.31344520898E+03  0.41969542434E+02 -0.60398264037E+03  0.68176562791E+03  0.25500000920E-02 0.  1.
       -2    1    3    3    0  502  0.31344520898E+03 -0.41969542434E+02  0.12387532616E+03  0.33963868738E+03  0.25500000920E-02 0. -1.
</event>
<event>
 5   0  0.6609191E-03  0.9039554E+03  0.7818609E-02  0.9420650E-01
       -2   -1    0    0    0  501  0.00000000000E+00  0.00000000000E+00  0.12792971642E+03  0.12792971645E+03  0.25500000920E-02 0. -1.
        2   -1    0    0  501    0  0.00000000000E+00  0.00000000000E+00 -0.15968444427E+04  0.15968444427E+04  0.25500000920E-02 0.  1.
    10030    2    1    2    0    0  0.00000000000E+00  0.00000000000E+00 -0.14689147263E+04  0.17247741591E+04  0.90395543418E+03 0.  0.
        2    1    3    3  502    0 -0.42615063474E+03  0.13784295287E+03 -0.61872918715E+03  0.76382645293E+03  0.25500000920E-02 0. -1.
       -2    1    3    3    0  502  0.42615063474E+03 -0.13784295287E+03 -0.85018553910E+03  0.96094770620E+03  0.25500000920E-02 0.  1.
</event>
<event>
 5   0  0.3969536E-03  0.9007138E+03  0.7818609E-02  0.9424690E-01
        1   -1    0    0  501    0  0.00000000000E+00  0.00000000000E+00  0.72439329554E+03  0.72439329556E+03  0.50400001928E-02 0. -1.
       -1   -1    0    0    0  501  0.00000000000E+00  0.00000000000E+00 -0.27998787713E+03  0.27998787717E+03  0.50400001928E-02 0.  1.
    10030    2    1    2    0    0  0.00000000000E+00  0.00000000000E+00  0.44440541842E+03  0.10043811727E+04  0.90071380817E+03 0.  0.
        1    1    3    3  502    0 -0.36466414886E+03 -0.25631776377E+03  0.15043180318E+03  0.47043433646E+03  0.50400001928E-02 0.  1.
       -1    1    3    3    0  502  0.36466414886E+03  0.25631776377E+03  0.29397361523E+03  0.53394683627E+03  0.50400001928E-02 0. -1.
</event>
<event>
 5   0  0.3998066E-03  0.8874316E+03  0.7818609E-02  0.9441430E-01
       -1   -1    0    0    0  501  0.00000000000E+00  0.00000000000E+00  0.29040667697E+03  0.29040667701E+03  0.50400001928E-02 0. -1.
        1   -1    0    0  501    0  0.00000000000E+00  0.00000000000E+00 -0.67795868059E+03  0.67795868061E+03  0.50400001928E-02 0.  1.
    10030    2    1    2    0    0  0.00000000000E+00  0.00000000000E+00 -0.38755200362E+03  0.96836535762E+03  0.88743163699E+03 0.  0.
        4    1    3    3  502    0  0.13843571167E+02 -0.44096170813E+03 -0.14209363205E+03  0.46349874398E+03  0.12699999809E+01 0.  1.
       -4    1    3    3    0  502 -0.13843571167E+02  0.44096170813E+03 -0.24545837157E+03  0.50486661364E+03  0.12699999809E+01 0. -1.
</event>
<event>
 5   0  0.3794006E-03  0.9042397E+03  0.7818609E-02  0.9420297E-01
        1   -1    0    0  501    0  0.00000000000E+00  0.00000000000E+00  0.30314412565E+03  0.30314412569E+03  0.50400001928E-02 0. -1.
       -1   -1    0    0    0  501  0.00000000000E+00  0.00000000000E+00 -0.67430746096E+03  0.67430746098E+03  0.50400001928E-02 0.  1.
    10030    2    1    2    0    0  0.00000000000E+00  0.00000000000E+00 -0.37116333531E+03  0.97745158668E+03  0.90423967111E+03 0.  0.
        5    1    3    3  502    0  0.28620179852E+03 -0.27134417175E+03 -0.42449973424E+03  0.57944908610E+03  0.46999998093E+01 0.  1.
       -5    1    3    3    0  502 -0.28620179852E+03  0.27134417175E+03  0.53336398929E+02  0.39800250057E+03  0.46999998093E+01 0. -1.
</event>
<event>
 5   0  0.6534628E-03  0.9003436E+03  0.7818609E-02  0.9425152E-01
        2   -1    0    0  501    0  0.00000000000E+00  0.00000000000E+00  0.34420785812E+03  0.34420785813E+03  0.25500000920E-02 0. -1.
       -2   -1    0    0    0  501  0.00000000000E+00  0.00000000000E+00 -0.58875663617E+03  0.58875663617E+03  0.25500000920E-02 0.  1.
    10030    2    1    2    0    0  0.00000000000E+00  0.00000000000E+00 -0.24454877805E+03  0.93296449430E+03  0.90034362484E+03 0.  0.
        4    1    3    3  502    0 -0.92374919054E+02  0.24321766822E+03 -0.50296094817E+03  0.56626785896E+03  0.12699999809E+01 0.  1.
       -4    1    3    3    0  502  0.92374919054E+02 -0.24321766822E+03  0.25841217012E+03  0.36669663534E+03  0.12699999809E+01 0. -1.
</event>
<event>
 5   0  0.3794006E-03  0.8985718E+03  0.7818609E-02  0.9427368E-01
        1   -1    0    0  501    0  0.00000000000E+00  0.00000000000E+00  0.11137186411E+04  0.11137186411E+04  0.50400001928E-02 0.  1.
       -1   -1    0    0    0  501  0.00000000000E+00  0.00000000000E+00 -0.18124670229E+03  0.18124670236E+03  0.50400001928E-02 0. -1.
    10030    2    1    2    0    0  0.00000000000E+00  0.00000000000E+00  0.93247193883E+03  0.12949653435E+04  0.89857182471E+03 0.  0.
        5    1    3    3  502    0 -0.11668502829E+03  0.34234427407E+03  0.85029497695E+03  0.92403389312E+03  0.46999998093E+01 0.  1.
       -5    1    3    3    0  502  0.11668502829E+03 -0.34234427407E+03  0.82176961880E+02  0.37093145038E+03  0.46999998093E+01 0. -1.
</event>
<event>
 5   0  0.6524705E-03  0.8899506E+03  0.7818609E-02  0.9438232E-01
        2   -1    0    0  501    0  0.00000000000E+00  0.00000000000E+00  0.64223767505E+03  0.64223767506E+03  0.25500000920E-02 0. -1.
       -2   -1    0    0    0  501  0.00000000000E+00  0.00000000000E+00 -0.30830179417E+03  0.30830179418E+03  0.25500000920E-02 0.  1.
    10030    2    1    2    0    0  0.00000000000E+00  0.00000000000E+00  0.33393588088E+03  0.95053946924E+03  0.88995062225E+03 0.  0.
        3    1    3    3  502    0  0.23237079245E+02  0.41151785685E+03  0.34606227700E+03  0.53818771643E+03  0.10100000352E+00 0. -1.
       -3    1    3    3    0  502 -0.23237079245E+02 -0.41151785685E+03 -0.12126396120E+02  0.41235175281E+03  0.10100000352E+00 0.  1.
</event>
<event>
 5   0  0.3794006E-03  0.9047920E+03  0.7818609E-02  0.9419611E-01
       -1   -1    0    0    0  501  0.00000000000E+00  0.00000000000E+00  0.10510251578E+03  0.10510251591E+03  0.50400001928E-02 0. -1.
        1   -1    0    0  501    0  0.00000000000E+00  0.00000000000E+00 -0.19472618573E+04  0.19472618573E+04  0.50400001928E-02 0.  1.
    10030    2    1    2    0    0  0.00000000000E+00  0.00000000000E+00 -0.18421593416E+04  0.20523643732E+04  0.90479195449E+03 0.  0.
        5    1    3    3  502    0  0.27226804751E+03 -0.29236957874E+03 -0.43973349015E+03  0.59413592100E+03  0.46999998093E+01 0.  1.
       -5    1    3    3    0  502 -0.27226804751E+03  0.29236957874E+03 -0.14024258514E+04  0.14582284522E+04  0.46999998093E+01 0. -1.
</event>
<event>
 5   0  0.3943549E-03  0.8824104E+03  0.7818609E-02  0.9447840E-01
        1   -1    0    0  501    0  0.00000000000E+00  0.00000000000E+00  0.18787645983E+03  0.18787645990E+03  0.50400001928E-02 0. -1.
       -1   -1    0    0    0  501  0.00000000000E+00  0.00000000000E+00 -0.10361172853E+04  0.10361172853E+04  0.50400001928E-02 0.  1.
    10030    2    1    2    0    0  0.00000000000E+00  0.00000000000E+00 -0.84824082550E+03  0.12239937452E+04  0.88241044324E+03 0.  0.
        3    1    3    3  502    0  0.38199547366E+03  0.20795745394E+03 -0.52694572290E+03  0.68325591811E+03  0.10100000352E+00 0.  1.
       -3    1    3    3    0  502 -0.38199547366E+03 -0.20795745394E+03 -0.32129510260E+03  0.54073782714E+03  0.10100000352E+00 0. -1.
</event>
<event>
 5   0  0.3943549E-03  0.8548173E+03  0.7818609E-02  0.9483894E-01
        1   -1    0    0  501    0  0.00000000000E+00  0.00000000000E+00  0.20900818792E+03  0.20900818798E+03  0.50400001928E-02 0.  1.
       -1   -1    0    0    0  501  0.00000000000E+00  0.00000000000E+00 -0.87402381137E+03  0.87402381138E+03  0.50400001928E-02 0. -1.
    10030    2    1    2    0    0  0.00000000000E+00  0.00000000000E+00 -0.66501562345E+03  0.10830319994E+04  0.85481725078E+03 0.  0.
        3    1    3    3  502    0 -0.35443948398E+03 -0.72947111783E+02 -0.44345535867E+02  0.36457532236E+03  0.10100000352E+00 0.  1.
       -3    1    3    3    0  502  0.35443948398E+03  0.72947111783E+02 -0.62067008758E+03  0.71845667701E+03  0.10100000352E+00 0. -1.
</event>
<event>
 5   0  0.3794006E-03  0.9028098E+03  0.7818609E-02  0.9422076E-01
       -1   -1    0    0    0  501  0.00000000000E+00  0.00000000000E+00  0.40665990330E+03  0.40665990333E+03  0.50400001928E-02 0. -1.
        1   -1    0    0  501    0  0.00000000000E+00  0.00000000000E+00 -0.50107324542E+03  0.50107324544E+03  0.50400001928E-02 0.  1.
    10030    2    1    2    0    0  0.00000000000E+00  0.00000000000E+00 -0.94413342114E+02  0.90773314878E+03  0.90280983060E+03 0.  0.
        5    1    3    3  502    0 -0.42902130222E+03  0.41976940559E+02  0.87400085454E+02  0.43986612308E+03  0.46999998093E+01 0. -1.
       -5    1    3    3    0  502  0.42902130222E+03 -0.41976940559E+02 -0.18181342757E+03  0.46786702570E+03  0.46999998093E+01 0.  1.
</event>
<event>
 5   0  0.6534628E-03  0.8994258E+03  0.7818609E-02  0.9426299E-01
       -2   -1    0    0    0  501  0.00000000000E+00  0.00000000000E+00  0.84662246640E+02  0.84662246678E+02  0.25500000920E-02 0. -1.
        2   -1    0    0  501    0  0.00000000000E+00  0.00000000000E+00 -0.23888063776E+04  0.23888063776E+04  0.25500000920E-02 0.  1.
    10030    2    1    2    0    0  0.00000000000E+00  0.00000000000E+00 -0.23041441310E+04  0.24734686243E+04  0.89942584968E+03 0.  0.
        4    1    3    3  502    0 -0.19353112209E+03  0.30852000038E+03 -0.18775921747E+04  0.19125880041E+04  0.12699999809E+01 0.  1.
       -4    1    3    3    0  502  0.19353112209E+03 -0.30852000038E+03 -0.42655195624E+03  0.56088062021E+03  0.12699999809E+01 0. -1.
</event>
<event>
 5   0  0.6524705E-03  0.9067160E+03  0.7818609E-02  0.9417225E-01
       -2   -1    0    0    0  501  0.00000000000E+00  0.00000000000E+00  0.21728513558E+03  0.21728513560E+03  0.25500000920E-02 0.  1.
        2   -1    0    0  501    0  0.00000000000E+00  0.00000000000E+00 -0.94591604337E+03  0.94591604337E+03  0.25500000920E-02 0. -1.
    10030    2    1    2    0    0  0.00000000000E+00  0.00000000000E+00 -0.72863090779E+03  0.11632011790E+04  0.90671604319E+03 0.  0.
        3    1    3    3  502    0 -0.97684393475E+02 -0.28672581652E+03  0.68413187654E+02  0.31053873998E+03  0.10100000352E+00 0.  1.
       -3    1    3    3    0  502  0.97684393475E+02  0.28672581652E+03 -0.79704409544E+03  0.85266243899E+03  0.10100000352E+00 0. -1.
</event>
<event>
 5   0  0.6609191E-03  0.8980894E+03  0.7818609E-02  0.9427973E-01
        2   -1    0    0  501    0  0.00000000000E+00  0.00000000000E+00  0.73531364010E+03  0.73531364011E+03  0.25500000920E-02 0. -1.
       -2   -1    0    0    0  501  0.00000000000E+00  0.00000000000E+00 -0.27422467991E+03  0.27422467992E+03  0.25500000920E-02 0.  1.
    10030    2    1    2    0    0  0.00000000000E+00  0.00000000000E+00  0.46108896019E+03  0.10095383200E+04  0.89808941114E+03 0.  0.
        2    1    3    3  502    0 -0.43012698818E+03  0.82518394523E+01  0.37521618481E+03  0.57084542931E+03  0.25500000920E-02 0. -1.
       -2    1    3    3    0  502  0.43012698818E+03 -0.82518394523E+01  0.85872775380E+02  0.43869289072E+03  0.25500000920E-02 0.  1.
</event>
<event>
 5   0  0.6863405E-03  0.9030028E+03  0.7818609E-02  0.9421836E-01
        2   -1    0    0  501    0  0.00000000000E+00  0.00000000000E+00  0.12056220500E+04  0.12056220500E+04  0.25500000920E-02 0.  1.
       -2   -1    0    0    0  501  0.00000000000E+00  0.00000000000E+00 -0.16908576586E+03  0.16908576588E+03  0.25500000920E-02 0. -1.
    10030    2    1    2    0    0  0.00000000000E+00  0.00000000000E+00  0.10365362841E+04  0.13747078159E+04  0.90300282985E+03 0.  0.
        1    1    3    3  502    0  0.32905245610E+03 -0.14146503279E+03  0.93675662572E+03  0.10028962310E+04  0.50400001928E-02 0.  1.
       -1    1    3    3    0  502 -0.32905245610E+03  0.14146503279E+03  0.99779658414E+02  0.37181158485E+03  0.50400001928E-02 0. -1.
</event>
<event>
 5   0  0.6724773E-03  0.9240986E+03  0.7818609E-02  0.9395948E-01
       -2   -1    0    0    0  501  0.00000000000E+00  0.00000000000E+00  0.15027188401E+03  0.15027188404E+03  0.25500000920E-02 0. -1.
        2   -1    0    0  501    0  0.00000000000E+00  0.00000000000E+00 -0.14206885991E+04  0.14206885991E+04  0.25500000920E-02 0.  1.
    10030    2    1    2    0    0  0.00000000000E+00  0.00000000000E+00 -0.12704167150E+04  0.15709604831E+04  0.92409859300E+03 0.  0.
        5    1    3    3  502    0  0.37335666900E+03 -0.79480036378E+02 -0.19270332322E+03  0.42763177998E+03  0.46999998093E+01 0. -1.
       -5    1    3    3    0  502 -0.37335666900E+03  0.79480036378E+02 -0.10777133918E+04  0.11433287031E+04  0.46999998093E+01 0.  1.
</event>
<event>
 5   0  0.6524705E-03  0.9053895E+03  0.7818609E-02  0.9418869E-01
       -2   -1    0    0    0  501  0.00000000000E+00  0.00000000000E+00  0.90818434640E+02  0.90818434676E+02  0.25500000920E-02 0.  1.
        2   -1    0    0  501    0  0.00000000000E+00  0.00000000000E+00 -0.22565083563E+04  0.22565083563E+04  0.25500000920E-02 0. -1.
    10030    2    1    2    0    0  0.00000000000E+00  0.00000000000E+00 -0.21656899216E+04  0.23473267910E+04  0.90538954426E+03 0.  0.
        3    1    3    3  502    0  0.12751726574E+03 -0.41843324261E+03 -0.78065771336E+03  0.89485949020E+03  0.10100000352E+00 0.  1.
       -3    1    3    3    0  502 -0.12751726574E+03  0.41843324261E+03 -0.13850322083E+04  0.14524673008E+04  0.10100000352E+00 0. -1.
</event>
<event>
 5   0  0.3969536E-03  0.8927297E+03  0.7818609E-02  0.9434716E-01
        1   -1    0    0  501    0  0.00000000000E+00  0.00000000000E+00  0.27816157134E+03  0.27816157138E+03  0.50400001928E-02 0.  1.
       -1   -1    0    0    0  501  0.00000000000E+00  0.00000000000E+00 -0.71628000679E+03  0.71628000681E+03  0.50400001928E-02 0. -1.
    10030    2    1    2    0    0  0.00000000000E+00  0.00000000000E+00 -0.43811843546E+03  0.99444157820E+03  0.89272968415E+03 0.  0.
        1    1    3    3  502    0  0.53232417356E+02  0.24473498541E+03  0.19251274041E+03  0.31589564509E+03  0.50400001928E-02 0.  1.
       -1    1    3    3    0  502 -0.53232417356E+02 -0.24473498541E+03 -0.63063117587E+03  0.67854593311E+03  0.50400001928E-02 0. -1.
</event>
<event>
 5   0  0.3943549E-03  0.9013087E+03  0.7818609E-02  0.9423947E-01
        1   -1    0    0  501    0  0.00000000000E+00  0.00000000000E+00  0.25445455271E+03  0.25445455276E+03  0.50400001928E-02 0.  1.
       -1   -1    0    0    0  501  0.00000000000E+00  0.00000000000E+00 -0.79813605579E+03  0.79813605581E+03  0.50400001928E-02 0. -1.
    10030    2    1    2    0    0  0.00000000000E+00  0.00000000000E+00 -0.54368150308E+03  0.10525906086E+04  0.90130872206E+03 0.  0.
        3    1    3    3  502    0 -0.36870322582E+02 -0.40774780982E+03 -0.51889424414E+02  0.41268658770E+03  0.10100000352E+00 0.  1.
       -3    1    3    3    0  502  0.36870322582E+02  0.40774780982E+03 -0.49179207867E+03  0.63990402088E+03  0.10100000352E+00 0. -1.
</event>
<event>
 5   0  0.3794006E-03  0.8951085E+03  0.7818609E-02  0.9431717E-01
        1   -1    0    0  501    0  0.00000000000E+00  0.00000000000E+00  0.10709329049E+04  0.10709329049E+04  0.50400001928E-02 0. -1.
       -1   -1    0    0    0  501  0.00000000000E+00  0.00000000000E+00 -0.18703769078E+03  0.18703769085E+03  0.50400001928E-02 0.  1.
    10030    2    1    2    0    0  0.00000000000E+00  0.00000000000E+00  0.88389521408E+03  0.12579705957E+04  0.89510852427E+03 0.  0.
        5    1    3    3  502    0  0.10589135230E+03  0.92987660827E+02 -0.15500630101E+03  0.20954409300E+03  0.46999998093E+01 0.  1.
       -5    1    3    3    0  502 -0.10589135230E+03 -0.92987660827E+02  0.10389015151E+04  0.10484265027E+04  0.46999998093E+01 0. -1.
</event>
<event>
 5   0  0.3943549E-03  0.8307385E+03  0.7818609E-02  0.9516560E-01
        1   -1    0    0  501    0  0.00000000000E+00  0.00000000000E+00  0.72466934469E+03  0.72466934471E+03  0.50400001928E-02 0.  1.
       -1   -1    0    0    0  501  0.00000000000E+00  0.00000000000E+00 -0.23808321958E+03  0.23808321963E+03  0.50400001928E-02 0. -1.
    10030    2    1    2    0    0  0.00000000000E+00  0.00000000000E+00  0.48658612512E+03  0.96275256434E+03  0.83073849254E+03 0.  0.
        3    1    3    3  502    0 -0.30222725876E+03 -0.23732578413E+02 -0.85778787752E+02  0.31505961633E+03  0.10100000352E+00 0. -1.
       -3    1    3    3    0  502  0.30222725876E+03  0.23732578413E+02  0.57236491287E+03  0.64769294801E+03  0.10100000352E+00 0.  1.
</event>
<event>
 5   0  0.6609191E-03  0.9039856E+03  0.7818609E-02  0.9420613E-01
        2   -1    0    0  501    0  0.00000000000E+00  0.00000000000E+00  0.91846001146E+03  0.91846001147E+03  0.25500000920E-02 0.  1.
       -2   -1    0    0    0  501  0.00000000000E+00  0.00000000000E+00 -0.22243483410E+03  0.22243483411E+03  0.25500000920E-02 0. -1.
    10030    2    1    2    0    0  0.00000000000E+00  0.00000000000E+00  0.69602517736E+03  0.11408948456E+04  0.90398561999E+03 0.  0.
        2    1    3    3  502    0  0.51258758905E+02 -0.12140721328E+03 -0.19764975064E+03  0.23755545823E+03  0.25500000920E-02 0. -1.
       -2    1    3    3    0  502 -0.51258758905E+02  0.12140721328E+03  0.89367492800E+03  0.90333938735E+03  0.25500000920E-02 0.  1.
</event>
<event>
 5   0  0.6524705E-03  0.9022121E+03  0.7818609E-02  0.9422820E-01
        2   -1    0    0  501    0  0.00000000000E+00  0.00000000000E+00  0.58778246907E+03  0.58778246907E+03  0.25500000920E-02 0.  1.
       -2   -1    0    0    0  501  0.00000000000E+00  0.00000000000E+00 -0.34621084748E+03  0.34621084749E+03  0.25500000920E-02 0. -1.
    10030    2    1    2    0    0  0.00000000000E+00  0.00000000000E+00  0.24157162158E+03  0.93399331657E+03  0.90221209648E+03 0.  0.
        3    1    3    3  502    0  0.26541270307E+03 -0.14642658299E+03 -0.22506642408E+03  0.37754410683E+03  0.10100000352E+00 0. -1.
       -3    1    3    3    0  502 -0.26541270307E+03  0.14642658299E+03  0.46663804566E+03  0.55644920973E+03  0.10100000352E+00 0.  1.
</event>
<event>
 5   0  0.3943549E-03  0.8997843E+03  0.7818609E-02  0.9425851E-01
        1   -1    0    0  501    0  0.00000000000E+00  0.00000000000E+00  0.32510945908E+03  0.32510945912E+03  0.50400001928E-02 0. -1.
       -1   -1    0    0    0  501  0.00000000000E+00  0.00000000000E+00 -0.62256866716E+03  0.62256866718E+03  0.50400001928E-02 0.  1.
    10030    2    1    2    0    0  0.00000000000E+00  0.00000000000E+00 -0.29745920808E+03  0.94767812630E+03  0.89978433560E+03 0.  0.
        3    1    3    3  502    0  0.34891610908E+03 -0.99830999478E+02  0.13130683350E+03  0.38594063579E+03  0.10100000352E+00 0. -1.
       -3    1    3    3    0  502 -0.34891610908E+03  0.99830999478E+02 -0.42876604158E+03  0.56173749051E+03  0.10100000352E+00 0.  1.
</event>
<event>
 5   0  0.3927993E-03  0.8871979E+03  0.7818609E-02  0.9441728E-01
        1   -1    0    0  501    0  0.00000000000E+00  0.00000000000E+00  0.42112420879E+03  0.42112420882E+03  0.50400001928E-02 0. -1.
       -1   -1    0    0    0  501  0.00000000000E+00  0.00000000000E+00 -0.46727311222E+03  0.46727311224E+03  0.50400001928E-02 0.  1.
    10030    2    1    2    0    0  0.00000000000E+00  0.00000000000E+00 -0.46148903431E+02  0.88839732106E+03  0.88719788028E+03 0.  0.
        2    1    3    3  502    0  0.41342718040E+03 -0.80735899567E+02  0.11618081174E+03  0.43696487273E+03  0.25500000920E-02 0. -1.
       -2    1    3    3    0  502 -0.41342718040E+03  0.80735899567E+02 -0.16232971517E+03  0.45143244833E+03  0.25500000920E-02 0.  1.
</event>
<event>
 5   0  0.6609191E-03  0.8938358E+03  0.7818609E-02  0.9433320E-01
       -2   -1    0    0    0  501  0.00000000000E+00  0.00000000000E+00  0.21032290474E+03  0.21032290476E+03  0.25500000920E-02 0. -1.
        2   -1    0    0  501    0  0.00000000000E+00  0.00000000000E+00 -0.94966170358E+03  0.94966170359E+03  0.25500000920E-02 0.  1.
    10030    2    1    2    0    0  0.00000000000E+00  0.00000000000E+00 -0.73933879884E+03  0.11599846083E+04  0.89383579707E+03 0.  0.
        2    1    3    3  502    0  0.27590968942E+03 -0.25608061813E+03 -0.68229812627E+03  0.77925231653E+03  0.25500000920E-02 0. -1.
       -2    1    3    3    0  502 -0.27590968942E+03  0.25608061813E+03 -0.57040672569E+02  0.38073229182E+03  0.25500000920E-02 0.  1.
</event>
<event>
 5   0  0.3998066E-03  0.8898636E+03  0.7818609E-02  0.9438342E-01
        1   -1    0    0  501    0  0.00000000000E+00  0.00000000000E+00  0.67381295622E+03  0.67381295624E+03  0.50400001928E-02 0.  1.
       -1   -1    0    0    0  501  0.00000000000E+00  0.00000000000E+00 -0.29379709629E+03  0.29379709634E+03  0.50400001928E-02 0. -1.
    10030    2    1    2    0    0  0.00000000000E+00  0.00000000000E+00  0.38001585992E+03  0.96761005257E+03  0.88986356260E+03 0.  0.
        4    1    3    3  502    0 -0.71243044547E+02  0.28673658993E+03 -0.17172695983E+03  0.34173850388E+03  0.12699999809E+01 0. -1.
       -4    1    3    3    0  502  0.71243044547E+02 -0.28673658993E+03  0.55174281976E+03  0.62587154869E+03  0.12699999809E+01 0.  1.
</event>
<event>
 5   0  0.2560250E-03  0.9084932E+03  0.7818609E-02  0.9415026E-01
       -3   -1    0    0    0  501  0.00000000000E+00  0.00000000000E+00  0.18271711077E+03  0.18271713869E+03  0.10100000352E+00 0. -1.
        3   -1    0    0  501    0  0.00000000000E+00  0.00000000000E+00 -0.11292865006E+04  0.11292865051E+04  0.10100000352E+00 0.  1.
    10030    2    1    2    0    0  0.00000000000E+00  0.00000000000E+00 -0.94656938979E+03  0.13120036438E+04  0.90849323144E+03 0.  0.
        3    1    3    3  502    0  0.30988745320E+03 -0.42459201660E+02 -0.94899454462E+03  0.99921152585E+03  0.10100000352E+00 0.  1.
       -3    1    3    3    0  502 -0.30988745320E+03  0.42459201660E+02  0.24251548317E+01  0.31279211792E+03  0.10100000352E+00 0. -1.
</event>
<event>
 5   0  0.6863405E-03  0.8981377E+03  0.7818609E-02  0.9427912E-01
        2   -1    0    0  501    0  0.00000000000E+00  0.00000000000E+00  0.73642281675E+03  0.73642281675E+03  0.25500000920E-02 0. -1.
       -2   -1    0    0    0  501  0.00000000000E+00  0.00000000000E+00 -0.27384106849E+03  0.27384106850E+03  0.25500000920E-02 0.  1.
    10030    2    1    2    0    0  0.00000000000E+00  0.00000000000E+00  0.46258174825E+03  0.10102638853E+04  0.89813765317E+03 0.  0.
        1    1    3    3  502    0 -0.18510320728E+03  0.38978954797E+03  0.37116872146E+03  0.56917950496E+03  0.50400001928E-02 0. -1.
       -1    1    3    3    0  502  0.18510320728E+03 -0.38978954797E+03  0.91413026791E+02  0.44108438030E+03  0.50400001928E-02 0.  1.
</event>
<event>
 5   0  0.3998066E-03  0.9085867E+03  0.7818609E-02  0.9414911E-01
        1   -1    0    0  501    0  0.00000000000E+00  0.00000000000E+00  0.16229247399E+03  0.16229247407E+03  0.50400001928E-02 0. -1.
       -1   -1    0    0    0  501  0.00000000000E+00  0.00000000000E+00 -0.12716698193E+04  0.12716698193E+04  0.50400001928E-02 0.  1.
    10030    2    1    2    0    0  0.00000000000E+00  0.00000000000E+00 -0.11093773453E+04  0.14339622933E+04  0.90858668520E+03 0.  0.
        4    1    3    3  502    0 -0.31980805073E+03 -0.83033113282E+02 -0.10467564381E+04  0.10976667713E+04  0.12699999809E+01 0.  1.
       -4    1    3    3    0  502  0.31980805073E+03  0.83033113282E+02 -0.62620907140E+02  0.33629552201E+03  0.12699999809E+01 0. -1.
</event>
<event>
 5   0  0.3943549E-03  0.9031396E+03  0.7818609E-02  0.9421665E-01
        1   -1    0    0  501    0  0.00000000000E+00  0.00000000000E+00  0.19190887890E+04  0.19190887890E+04  0.50400001928E-02 0. -1.
       -1   -1    0    0    0  501  0.00000000000E+00  0.00000000000E+00 -0.10625630377E+03  0.10625630389E+03  0.50400001928E-02 0.  1.
    10030    2    1    2    0    0  0.00000000000E+00  0.00000000000E+00  0.18128324852E+04  0.20253450929E+04  0.90313959377E+03 0.  0.
        3    1    3    3  502    0 -0.11230206701E+03  0.21034569072E+03  0.17663970990E+04  0.17824185214E+04  0.10100000352E+00 0. -1.
       -3    1    3    3    0  502  0.11230206701E+03 -0.21034569072E+03  0.46435386252E+02  0.24292657153E+03  0.10100000352E+00 0.  1.
</event>
<event>
 5   0  0.3927993E-03  0.8997725E+03  0.7818609E-02  0.9425866E-01
       -1   -1    0    0    0  501  0.00000000000E+00  0.00000000000E+00  0.43553193993E+03  0.43553193996E+03  0.50400001928E-02 0.  1.
        1   -1    0    0  501    0  0.00000000000E+00  0.00000000000E+00 -0.46471366653E+03  0.46471366656E+03  0.50400001928E-02 0. -1.
    10030    2    1    2    0    0  0.00000000000E+00  0.00000000000E+00 -0.29181726607E+02  0.90024560652E+03  0.89977251508E+03 0.  0.
        2    1    3    3  502    0  0.32143900490E+03  0.25666954235E+03 -0.19688259001E+03  0.45603184330E+03  0.25500000920E-02 0. -1.
       -2    1    3    3    0  502 -0.32143900490E+03 -0.25666954235E+03  0.16770086341E+03  0.44421376322E+03  0.25500000920E-02 0.  1.
</event>
<event>
 5   0  0.6863405E-03  0.9053276E+03  0.7818609E-02  0.9418946E-01
       -2   -1    0    0    0  501  0.00000000000E+00  0.00000000000E+00  0.36632749647E+03  0.36632749647E+03  0.25500000920E-02 0. -1.
        2   -1    0    0  501    0  0.00000000000E+00  0.00000000000E+00 -0.55934784982E+03  0.55934784982E+03  0.25500000920E-02 0.  1.
    10030    2    1    2    0    0  0.00000000000E+00  0.00000000000E+00 -0.19302035335E+03  0.92567534630E+03  0.90532755947E+03 0.  0.
        1    1    3    3  502    0 -0.70257654020E+02  0.32837921770E+03 -0.40687059900E+03  0.52755353560E+03  0.50400001928E-02 0.  1.
       -1    1    3    3    0  502  0.70257654020E+02 -0.32837921770E+03  0.21385024565E+03  0.39812181070E+03  0.50400001928E-02 0. -1.
</event>
<event>
 5   0  0.6724773E-03  0.9371252E+03  0.7818609E-02  0.9380327E-01
       -2   -1    0    0    0  501  0.00000000000E+00  0.00000000000E+00  0.18323502868E+03  0.18323502870E+03  0.25500000920E-02 0.  1.
        2   -1    0    0  501    0  0.00000000000E+00  0.00000000000E+00 -0.11981928621E+04  0.11981928621E+04  0.25500000920E-02 0. -1.
    10030    2    1    2    0    0  0.00000000000E+00  0.00000000000E+00 -0.10149578335E+04  0.13814278908E+04  0.93712518582E+03 0.  0.
        5    1    3    3  502    0  0.39148849089E+03  0.67579564479E+02 -0.87363662863E+03  0.95973604961E+03  0.46999998093E+01 0. -1.
       -5    1    3    3    0  502 -0.39148849089E+03 -0.67579564479E+02 -0.14132120483E+03  0.42169184124E+03  0.46999998093E+01 0.  1.
</event>
<event>
 5   0  0.3794006E-03  0.8943485E+03  0.7818609E-02  0.9432674E-01
        1   -1    0    0  501    0  0.00000000000E+00  0.00000000000E+00  0.12596901483E+04  0.12596901484E+04  0.50400001928E-02 0.  1.
       -1   -1    0    0    0  501  0.00000000000E+00  0.00000000000E+00 -0.15874126574E+03  0.15874126582E+03  0.50400001928E-02 0. -1.
    10030    2    1    2    0    0  0.00000000000E+00  0.00000000000E+00  0.11009488826E+04  0.14184314142E+04  0.89434849730E+03 0.  0.
        5    1    3    3  502    0 -0.44709528005E+03  0.52263607846E+01  0.54316950239E+03  0.70354580705E+03  0.46999998093E+01 0. -1.
       -5    1    3    3    0  502  0.44709528005E+03 -0.52263607846E+01  0.55777938021E+03  0.71488560712E+03  0.46999998093E+01 0.  1.
</event>
<event>
 5   0  0.6534628E-03  0.9556013E+03  0.7818609E-02  0.9358627E-01
        2   -1    0    0  501    0  0.00000000000E+00  0.00000000000E+00  0.49572065989E+03  0.49572065989E+03  0.25500000920E-02 0.  1.
       -2   -1    0    0    0  501  0.00000000000E+00  0.00000000000E+00 -0.46052845734E+03  0.46052845735E+03  0.25500000920E-02 0. -1.
    10030    2    1    2    0    0  0.00000000000E+00  0.00000000000E+00  0.35192202543E+02  0.95624911725E+03  0.95560132017E+03 0.  0.
        4    1    3    3  502    0  0.80425323300E+02  0.86448148693E+02  0.48088980430E+03  0.49517484974E+03  0.12699999809E+01 0.  1.
       -4    1    3    3    0  502 -0.80425323300E+02 -0.86448148693E+02 -0.44569760176E+03  0.46107426750E+03  0.12699999809E+01 0. -1.
</event>
<event>
 5   0  0.3969536E-03  0.9001904E+03  0.7818609E-02  0.9425343E-01
        1   -1    0    0  501    0  0.00000000000E+00  0.00000000000E+00  0.54688843780E+03  0.54688843782E+03  0.50400001928E-02 0. -1.
       -1   -1    0    0    0  501  0.00000000000E+00  0.00000000000E+00 -0.37043327170E+03  0.37043327174E+03  0.50400001928E-02 0.  1.
    10030    2    1    2    0    0  0.00000000000E+00  0.00000000000E+00  0.17645516610E+03  0.91732170956E+03  0.90019036497E+03 0.  0.
        1    1    3    3  502    0  0.42969617511E+03  0.12835496948E+03  0.12732268589E+03  0.46618115305E+03  0.50400001928E-02 0.  1.
       -1    1    3    3    0  502 -0.42969617511E+03 -0.12835496948E+03  0.49132480205E+02  0.45114055651E+03  0.50400001928E-02 0. -1.
</event>
<event>
 5   0  0.3794006E-03  0.9053013E+03  0.7818609E-02  0.9418979E-01
       -1   -1    0    0    0  501  0.00000000000E+00  0.00000000000E+00  0.20272438273E+03  0.20272438279E+03  0.50400001928E-02 0.  1.
        1   -1    0    0  501    0  0.00000000000E+00  0.00000000000E+00 -0.10106954423E+04  0.10106954423E+04  0.50400001928E-02 0. -1.
    10030    2    1    2    0    0  0.00000000000E+00  0.00000000000E+00 -0.80797105954E+03  0.12134198251E+04  0.90530129725E+03 0.  0.
        5    1    3    3  502    0 -0.22027673999E+03  0.15187372663E+03 -0.89331954111E+03  0.93253920215E+03  0.46999998093E+01 0. -1.
       -5    1    3    3    0  502  0.22027673999E+03 -0.15187372663E+03  0.85348481573E+02  0.28088062291E+03  0.46999998093E+01 0.  1.
</event>
<event>
 5   0  0.3927993E-03  0.8952474E+03  0.7818609E-02  0.9431542E-01
        1   -1    0    0  501    0  0.00000000000E+00  0.00000000000E+00  0.31174597264E+03  0.31174597268E+03  0.50400001928E-02 0.  1.
       -1   -1    0    0    0  501  0.00000000000E+00  0.00000000000E+00 -0.64272508631E+03  0.64272508633E+03  0.50400001928E-02 0. -1.
    10030    2    1    2    0    0  0.00000000000E+00  0.00000000000E+00 -0.33097911367E+03  0.95447105901E+03  0.89524735621E+03 0.  0.
        2    1    3    3  502    0 -0.20886406245E+03 -0.35194114735E+03 -0.35881404662E+03  0.54427409257E+03  0.25500000920E-02 0. -1.
       -2    1    3    3    0  502  0.20886406245E+03  0.35194114735E+03  0.27834932955E+02  0.41019696644E+03  0.25500000920E-02 0.  1.
</event>
<event>
 5   0  0.3927993E-03  0.9047899E+03  0.7818609E-02  0.9419614E-01
        1   -1    0    0  501    0  0.00000000000E+00  0.00000000000E+00  0.16141768892E+04  0.16141768892E+04  0.50400001928E-02 0. -1.
       -1   -1    0    0    0  501  0.00000000000E+00  0.00000000000E+00 -0.12678981334E+03  0.12678981344E+03  0.50400001928E-02 0.  1.
    10030    2    1    2    0    0  0.00000000000E+00  0.00000000000E+00  0.14873870758E+04  0.17409667026E+04  0.90478989070E+03 0.  0.
        2    1    3    3  502    0 -0.29688520623E+03 -0.26081159287E+02  0.13985894071E+04  0.14299906931E+04  0.25500000920E-02 0. -1.
       -2    1    3    3    0  502  0.29688520623E+03  0.26081159287E+02  0.88797668719E+02  0.31097600957E+03  0.25500000920E-02 0.  1.
</event>
<event>
 5   0  0.3794006E-03  0.8982332E+03  0.7818609E-02  0.9427793E-01
       -1   -1    0    0    0  501  0.00000000000E+00  0.00000000000E+00  0.49247468946E+03  0.49247468949E+03  0.50400001928E-02 0.  1.
        1   -1    0    0  501    0  0.00000000000E+00  0.00000000000E+00 -0.40957582862E+03  0.40957582865E+03  0.50400001928E-02 0. -1.
    10030    2    1    2    0    0  0.00000000000E+00  0.00000000000E+00  0.82898860837E+02  0.90205051814E+03  0.89823321924E+03 0.  0.
        5    1    3    3  502    0 -0.93656030208E+02 -0.16184504834E+03 -0.36859741223E+03  0.41334176412E+03  0.46999998093E+01 0. -1.
       -5    1    3    3    0  502  0.93656030208E+02  0.16184504834E+03  0.45149627306E+03  0.48870875402E+03  0.46999998093E+01 0.  1.
</event>
<event>
 5   0  0.3794006E-03  0.9021062E+03  0.7818609E-02  0.9422952E-01
        1   -1    0    0  501    0  0.00000000000E+00  0.00000000000E+00  0.63954722796E+03  0.63954722798E+03  0.50400001928E-02 0.  1.
       -1   -1    0    0    0  501  0.00000000000E+00  0.00000000000E+00 -0.31811396687E+03  0.31811396691E+03  0.50400001928E-02 0. -1.
    10030    2    1    2    0    0  0.00000000000E+00  0.00000000000E+00  0.32143326110E+03  0.95766119489E+03  0.90210621485E+03 0.  0.
        5    1    3    3  502    0  0.24692523285E+03  0.36537526609E+02 -0.23807691513E+03  0.34497792536E+03  0.46999998093E+01 0. -1.
       -5    1    3    3    0  502 -0.24692523285E+03 -0.36537526609E+02  0.55951017623E+03  0.61268326953E+03  0.46999998093E+01 0.  1.
</event>
<event>
 5   0  0.3927993E-03  0.9160806E+03  0.7818609E-02  0.9405700E-01
        1   -1    0    0  501    0  0.00000000000E+00  0.00000000000E+00  0.34016564094E+03  0.34016564098E+03  0.50400001928E-02 0. -1.
       -1   -1    0    0    0  501  0.00000000000E+00  0.00000000000E+00 -0.61676110383E+03  0.61676110385E+03  0.50400001928E-02 0.  1.
    10030    2    1    2    0    0  0.00000000000E+00  0.00000000000E+00 -0.27659546289E+03  0.95692674483E+03  0.91608064322E+03 0.  0.
        2    1    3    3  502    0  0.12402115103E+03  0.43457142798E+03 -0.21623941923E+03  0.50099207414E+03  0.25500000920E-02 0. -1.
       -2    1    3    3    0  502 -0.12402115103E+03 -0.43457142798E+03 -0.60356043660E+02  0.45593467068E+03  0.25500000920E-02 0.  1.
</event>
<event>
 5   0  0.3927993E-03  0.9206653E+03  0.7818609E-02  0.9400111E-01
       -1   -1    0    0    0  501  0.00000000000E+00  0.00000000000E+00  0.25556063257E+03  0.25556063262E+03  0.50400001928E-02 0. -1.
        1   -1    0    0  501    0  0.00000000000E+00  0.00000000000E+00 -0.82918153588E+03  0.82918153590E+03  0.50400001928E-02 0.  1.
    10030    2    1    2    0    0  0.00000000000E+00  0.00000000000E+00 -0.57362090331E+03  0.10847421685E+04  0.92066532000E+03 0.  0.
        2    1    3    3  502    0 -0.15846859296E+03 -0.24710522669E+02 -0.79519816504E+03  0.81121083978E+03  0.25500000920E-02 0.  1.
       -2    1    3    3    0  502  0.15846859296E+03  0.24710522669E+02  0.22157726172E+03  0.27353132874E+03  0.25500000920E-02 0. -1.
</event>
<event>
 5   0  0.2560250E-03  0.8996263E+03  0.7818609E-02  0.9426049E-01
        4   -1    0    0  501    0  0.00000000000E+00  0.00000000000E+00  0.38267194764E+03  0.38267405506E+03  0.12699999809E+01 0. -1.
       -4   -1    0    0    0  501  0.00000000000E+00  0.00000000000E+00 -0.52873025117E+03  0.52873177642E+03  0.12699999809E+01 0.  1.
    10030    2    1    2    0    0  0.00000000000E+00  0.00000000000E+00 -0.14605830352E+03  0.91140583148E+03  0.89962634556E+03 0.  0.
        3    1    3    3  502    0  0.39408012836E+01  0.39185352104E+03  0.15069527669E+03  0.41984972131E+03  0.10100000352E+00 0.  1.
       -3    1    3    3    0  502 -0.39408012836E+01 -0.39185352104E+03 -0.29675358021E+03  0.49155611016E+03  0.10100000352E+00 0. -1.
</event>
<event>
 5   0  0.6863405E-03  0.8994487E+03  0.7818609E-02  0.9426271E-01
       -2   -1    0    0    0  501  0.00000000000E+00  0.00000000000E+00  0.18967203435E+03  0.18967203437E+03  0.25500000920E-02 0.  1.
        2   -1    0    0  501    0  0.00000000000E+00  0.00000000000E+00 -0.10663246695E+04  0.10663246695E+04  0.25500000920E-02 0. -1.
    10030    2    1    2    0    0  0.00000000000E+00  0.00000000000E+00 -0.87665263512E+03  0.12559967038E+04  0.89944865190E+03 0.  0.
        1    1    3    3  502    0 -0.49706197848E+02  0.32739005020E+03 -0.86324969572E+03  0.92458368375E+03  0.50400001928E-02 0. -1.
       -1    1    3    3    0  502  0.49706197848E+02 -0.32739005020E+03 -0.13402939397E+02  0.33141302009E+03  0.50400001928E-02 0.  1.
</event>
<event>
 5   0  0.3794006E-03  0.8993243E+03  0.7818609E-02  0.9426426E-01
       -1   -1    0    0    0  501  0.00000000000E+00  0.00000000000E+00  0.36185524535E+03  0.36185524538E+03  0.50400001928E-02 0.  1.
        1   -1    0    0  501    0  0.00000000000E+00  0.00000000000E+00 -0.55877611637E+03  0.55877611640E+03  0.50400001928E-02 0. -1.
    10030    2    1    2    0    0  0.00000000000E+00  0.00000000000E+00 -0.19692087103E+03  0.92063136178E+03  0.89932434352E+03 0.  0.
        5    1    3    3  502    0 -0.35021871371E+03  0.20739983452E+03 -0.29405301442E+03  0.50215247095E+03  0.46999998093E+01 0. -1.
       -5    1    3    3    0  502  0.35021871371E+03 -0.20739983452E+03  0.97132143389E+02  0.41847889083E+03  0.46999998093E+01 0.  1.
</event>
<event>
 5   0  0.3927993E-03  0.8778325E+03  0.7818609E-02  0.9453724E-01
       -1   -1    0    0    0  501  0.00000000000E+00  0.00000000000E+00  0.16382924306E+03  0.16382924313E+03  0.50400001928E-02 0.  1.
        1   -1    0    0  501    0  0.00000000000E+00  0.00000000000E+00 -0.11759041877E+04  0.11759041877E+04  0.50400001928E-02 0. -1.
    10030    2    1    2    0    0  0.00000000000E+00  0.00000000000E+00 -0.10120749446E+04  0.13397334308E+04  0.87783254218E+03 0.  0.
        2    1    3    3  502    0  0.28398834189E+03  0.12258229052E+03 -0.98129523079E+03  0.10288907261E+04  0.25500000920E-02 0. -1.
       -2    1    3    3    0  502 -0.28398834189E+03 -0.12258229052E+03 -0.30779713805E+02  0.31084270470E+03  0.25500000920E-02 0.  1.
</event>
<event>
 5   0  0.3969536E-03  0.9015153E+03  0.7818609E-02  0.9423689E-01
       -1   -1    0    0    0  501  0.00000000000E+00  0.00000000000E+00  0.13282096371E+04  0.13282096371E+04  0.50400001928E-02 0.  1.
        1   -1    0    0  501    0  0.00000000000E+00  0.00000000000E+00 -0.15297469162E+03  0.15297469170E+03  0.50400001928E-02 0. -1.
    10030    2    1    2    0    0  0.00000000000E+00  0.00000000000E+00  0.11752349455E+04  0.14811843288E+04  0.90151530149E+03 0.  0.
        1    1    3    3  502    0  0.24369660172E+03 -0.89056576025E+01 -0.35237921210E+02  0.24639207687E+03  0.50400001928E-02 0. -1.
       -1    1    3    3    0  502 -0.24369660172E+03  0.89056576025E+01  0.12104728667E+04  0.12347922519E+04  0.50400001928E-02 0.  1.
</event>
<event>
 5   0  0.6724773E-03  0.8950472E+03  0.7818609E-02  0.9431794E-01
       -2   -1    0    0    0  501  0.00000000000E+00  0.00000000000E+00  0.12799225631E+03  0.12799225633E+03  0.25500000920E-02 0.  1.
        2   -1    0    0  501    0  0.00000000000E+00  0.00000000000E+00 -0.15647615445E+04  0.15647615445E+04  0.25500000920E-02 0. -1.
    10030    2    1    2    0    0  0.00000000000E+00  0.00000000000E+00 -0.14367692882E+04  0.16927538008E+04  0.89504717348E+03 0.  0.
        5    1    3    3  502    0 -0.23530932282E+03 -0.32039371902E+03 -0.32972264473E+03  0.51648981117E+03  0.46999998093E+01 0.  1.
       -5    1    3    3    0  502  0.23530932282E+03  0.32039371902E+03 -0.11070466434E+04  0.11762639897E+04  0.46999998093E+01 0. -1.
</event>
<event>
 5   0  0.6724773E-03  0.9460938E+03  0.7818609E-02  0.9369728E-01
        2   -1    0    0  501    0  0.00000000000E+00  0.00000000000E+00  0.62056927750E+03  0.62056927750E+03  0.25500000920E-02 0.  1.
       -2   -1    0    0    0  501  0.00000000000E+00  0.00000000000E+00 -0.36059370584E+03  0.36059370585E+03  0.25500000920E-02 0. -1.
    10030    2    1    2    0    0  0.00000000000E+00  0.00000000000E+00  0.25997557166E+03  0.98116298335E+03  0.94609381249E+03 0.  0.
        5    1    3    3  502    0 -0.16593844061E+03  0.19488825699E+03  0.54251941296E+03  0.59988865818E+03  0.46999998093E+01 0.  1.
       -5    1    3    3    0  502  0.16593844061E+03 -0.19488825699E+03 -0.28254384129E+03  0.38127432517E+03  0.46999998093E+01 0. -1.
</event>
<event>
 5   0  0.6534628E-03  0.9023048E+03  0.7818609E-02  0.9422705E-01
       -2   -1    0    0    0  501  0.00000000000E+00  0.00000000000E+00  0.10401254556E+03  0.10401254559E+03  0.25500000920E-02 0.  1.
        2   -1    0    0  501    0  0.00000000000E+00  0.00000000000E+00 -0.19568649964E+04  0.19568649964E+04  0.25500000920E-02 0. -1.
    10030    2    1    2    0    0  0.00000000000E+00  0.00000000000E+00 -0.18528524508E+04  0.20608775420E+04  0.90230484789E+03 0.  0.
        4    1    3    3  502    0 -0.14229256135E+03  0.30837033062E+03 -0.24811822091E+03  0.42059921335E+03  0.12699999809E+01 0.  1.
       -4    1    3    3    0  502  0.14229256135E+03 -0.30837033062E+03 -0.16047342299E+04  0.16402783286E+04  0.12699999809E+01 0. -1.
</event>
<event>
 5   0  0.3794006E-03  0.9283498E+03  0.7818609E-02  0.9390821E-01
        1   -1    0    0  501    0  0.00000000000E+00  0.00000000000E+00  0.82668501256E+03  0.82668501257E+03  0.50400001928E-02 0.  1.
       -1   -1    0    0    0  501  0.00000000000E+00  0.00000000000E+00 -0.26062932003E+03  0.26062932008E+03  0.50400001928E-02 0. -1.
    10030    2    1    2    0    0  0.00000000000E+00  0.00000000000E+00  0.56605569253E+03  0.10873143327E+04  0.92834983220E+03 0.  0.
        5    1    3    3  502    0 -0.10506790473E+02 -0.11164785662E+03  0.81055197690E+03  0.81828615642E+03  0.46999998093E+01 0.  1.
       -5    1    3    3    0  502  0.10506790473E+02  0.11164785662E+03 -0.24449628437E+03  0.26902817623E+03  0.46999998093E+01 0. -1.
</event>
<event>
 5   0  0.6609191E-03  0.8825734E+03  0.7818609E-02  0.9447632E-01
       -2   -1    0    0    0  501  0.00000000000E+00  0.00000000000E+00  0.10109274848E+03  0.10109274851E+03  0.25500000920E-02 0.  1.
        2   -1    0    0  501    0  0.00000000000E+00  0.00000000000E+00 -0.19262899262E+04  0.19262899262E+04  0.25500000920E-02 0. -1.
    10030    2    1    2    0    0  0.00000000000E+00  0.00000000000E+00 -0.18251971777E+04  0.20273826747E+04  0.88257338059E+03 0.  0.
        2    1    3    3  502    0  0.50151758676E+02 -0.38199827440E+03 -0.41833691673E+03  0.56872107087E+03  0.25500000920E-02 0.  1.
       -2    1    3    3    0  502 -0.50151758676E+02  0.38199827440E+03 -0.14068602610E+04  0.14586616038E+04  0.25500000920E-02 0. -1.
</event>
<event>
 5   0  0.3927993E-03  0.8911571E+03  0.7818609E-02  0.9436704E-01
        1   -1    0    0  501    0  0.00000000000E+00  0.00000000000E+00  0.85275390482E+03  0.85275390483E+03  0.50400001928E-02 0.  1.
       -1   -1    0    0    0  501  0.00000000000E+00  0.00000000000E+00 -0.23282243023E+03  0.23282243028E+03  0.50400001928E-02 0. -1.
    10030    2    1    2    0    0  0.00000000000E+00  0.00000000000E+00  0.61993147459E+03  0.10855763351E+04  0.89115708277E+03 0.  0.
        2    1    3    3  502    0  0.14575885564E+03  0.38149557040E+03  0.52704438227E+03  0.66675354901E+03  0.25500000920E-02 0.  1.
       -2    1    3    3    0  502 -0.14575885564E+03 -0.38149557040E+03  0.92887092318E+02  0.41882278610E+03  0.25500000920E-02 0. -1.
</event>
<event>
 5   0  0.6609191E-03  0.8935976E+03  0.7818609E-02  0.9433620E-01
       -2   -1    0    0    0  501  0.00000000000E+00  0.00000000000E+00  0.87321189421E+02  0.87321189458E+02  0.25500000920E-02 0. -1.
        2   -1    0    0  501    0  0.00000000000E+00  0.00000000000E+00 -0.22861482714E+04  0.22861482714E+04  0.25500000920E-02 0.  1.
    10030    2    1    2    0    0  0.00000000000E+00  0.00000000000E+00 -0.21988270820E+04  0.23734694609E+04  0.89359764167E+03 0.  0.
        2    1    3    3  502    0 -0.21070541582E+02 -0.16150407904E+03  0.56626935692E+01  0.16297116731E+03  0.25500000920E-02 0. -1.
       -2    1    3    3    0  502  0.21070541582E+02  0.16150407904E+03 -0.22044897756E+04  0.22104982936E+04  0.25500000920E-02 0.  1.
</event>
<event>
 5   0  0.3794006E-03  0.9007313E+03  0.7818609E-02  0.9424668E-01
        1   -1    0    0  501    0  0.00000000000E+00  0.00000000000E+00  0.25328396340E+03  0.25328396345E+03  0.50400001928E-02 0. -1.
       -1   -1    0    0    0  501  0.00000000000E+00  0.00000000000E+00 -0.80079768878E+03  0.80079768880E+03  0.50400001928E-02 0.  1.
    10030    2    1    2    0    0  0.00000000000E+00  0.00000000000E+00 -0.54751372538E+03  0.10540816523E+04  0.90073128631E+03 0.  0.
        5    1    3    3  502    0  0.21279605910E+03 -0.10846729074E+03  0.17302743121E+03  0.29497101192E+03  0.46999998093E+01 0. -1.
       -5    1    3    3    0  502 -0.21279605910E+03  0.10846729074E+03 -0.72054115658E+03  0.75911064033E+03  0.46999998093E+01 0.  1.
</event>
<event>
 5   0  0.6534628E-03  0.8909317E+03  0.7818609E-02  0.9436989E-01
        2   -1    0    0  501    0  0.00000000000E+00  0.00000000000E+00  0.50416660024E+03  0.50416660025E+03  0.25500000920E-02 0. -1.
       -2   -1    0    0    0  501  0.00000000000E+00  0.00000000000E+00 -0.39359969489E+03  0.39359969490E+03  0.25500000920E-02 0.  1.
    10030    2    1    2    0    0  0.00000000000E+00  0.00000000000E+00  0.11056690535E+03  0.89776629515E+03  0.89093169219E+03 0.  0.
        4    1    3    3  502    0  0.72837133854E+02  0.27184671046E+03  0.40323269506E+03  0.49173580439E+03  0.12699999809E+01 0. -1.
       -4    1    3    3    0  502 -0.72837133854E+02 -0.27184671046E+03 -0.29266578971E+03  0.40603049075E+03  0.12699999809E+01 0.  1.
</event>
<event>
 5   0  0.3969536E-03  0.9019242E+03  0.7818609E-02  0.9423179E-01
        1   -1    0    0  501    0  0.00000000000E+00  0.00000000000E+00  0.58402873535E+03  0.58402873538E+03  0.50400001928E-02 0. -1.
       -1   -1    0    0    0  501  0.00000000000E+00  0.00000000000E+00 -0.34821370545E+03  0.34821370548E+03  0.50400001928E-02 0.  1.
    10030    2    1    2    0    0  0.00000000000E+00  0.00000000000E+00  0.23581502991E+03  0.93224244086E+03  0.90192418762E+03 0.  0.
        1    1    3    3  502    0 -0.35588009271E+02  0.67573608649E+02 -0.34148074027E+03  0.34991684011E+03  0.50400001928E-02 0.  1.
       -1    1    3    3    0  502  0.35588009271E+02 -0.67573608649E+02  0.57729577018E+03  0.58232560075E+03  0.50400001928E-02 0. -1.
</event>
<event>
 5   0  0.3794006E-03  0.8992036E+03  0.7818609E-02  0.9426578E-01
        1   -1    0    0  501    0  0.00000000000E+00  0.00000000000E+00  0.18758070690E+04  0.18758070690E+04  0.50400001928E-02 0. -1.
       -1   -1    0    0    0  501  0.00000000000E+00  0.00000000000E+00 -0.10776256211E+03  0.10776256223E+03  0.50400001928E-02 0.  1.
    10030    2    1    2    0    0  0.00000000000E+00  0.00000000000E+00  0.17680445069E+04  0.19835696312E+04  0.89920359410E+03 0.  0.
        5    1    3    3  502    0  0.10155197594E+03 -0.42946205548E+03  0.10733875205E+04  0.11605745646E+04  0.46999998093E+01 0. -1.
       -5    1    3    3    0  502 -0.10155197594E+03  0.42946205548E+03  0.69465698637E+03  0.82299506658E+03  0.46999998093E+01 0.  1.
</event>
<event>
 5   0  0.3969536E-03  0.8878270E+03  0.7818609E-02  0.9440928E-01
       -1   -1    0    0    0  501  0.00000000000E+00  0.00000000000E+00  0.43990926535E+03  0.43990926538E+03  0.50400001928E-02 0.  1.
        1   -1    0    0  501    0  0.00000000000E+00  0.00000000000E+00 -0.44795414951E+03  0.44795414954E+03  0.50400001928E-02 0. -1.
    10030    2    1    2    0    0  0.00000000000E+00  0.00000000000E+00 -0.80448841636E+01  0.88786341492E+03  0.88782696704E+03 0.  0.
        1    1    3    3  502    0  0.24040942299E+03  0.37173071584E+03 -0.36868349513E+02  0.44422932252E+03  0.50400001928E-02 0. -1.
       -1    1    3    3    0  502 -0.24040942299E+03 -0.37173071584E+03  0.28823465349E+02  0.44363409240E+03  0.50400001928E-02 0.  1.
</event>
<event>
 5   0  0.6609191E-03  0.8808395E+03  0.7818609E-02  0.9449855E-01
       -2   -1    0    0    0  501  0.00000000000E+00  0.00000000000E+00  0.17266688372E+03  0.17266688373E+03  0.25500000920E-02 0.  1.
        2   -1    0    0  501    0  0.00000000000E+00  0.00000000000E+00 -0.11233743905E+04  0.11233743905E+04  0.25500000920E-02 0. -1.
    10030    2    1    2    0    0  0.00000000000E+00  0.00000000000E+00 -0.95070750677E+03  0.12960412742E+04  0.88083949790E+03 0.  0.
        2    1    3    3  502    0  0.13771199923E+03 -0.31195383700E+03 -0.88546714730E+03  0.94885818757E+03  0.25500000920E-02 0. -1.
       -2    1    3    3    0  502 -0.13771199923E+03  0.31195383700E+03 -0.65240359471E+02  0.34718308666E+03  0.25500000920E-02 0.  1.
</event>
<event>
 5   0  0.6524705E-03  0.9004136E+03  0.7818609E-02  0.9425065E-01
       -2   -1    0    0    0  501  0.00000000000E+00  0.00000000000E+00  0.14035232793E+03  0.14035232795E+03  0.25500000920E-02 0. -1.
        2   -1    0    0  501    0  0.00000000000E+00  0.00000000000E+00 -0.14441239463E+04  0.14441239463E+04  0.25500000920E-02 0.  1.
    10030    2    1    2    0    0  0.00000000000E+00  0.00000000000E+00 -0.13037716183E+04  0.15844762742E+04  0.90041358874E+03 0.  0.
        3    1    3    3  502    0  0.85614730289E+02  0.34143936769E+03 -0.11457858631E+04  0.11986392193E+04  0.10100000352E+00 0.  1.
       -3    1    3    3    0  502 -0.85614730289E+02 -0.34143936769E+03 -0.15798575522E+03  0.38583705486E+03  0.10100000352E+00 0. -1.
</event>
<event>
 5   0  0.3794006E-03  0.8580684E+03  0.7818609E-02  0.9479571E-01
        1   -1    0    0  501    0  0.00000000000E+00  0.00000000000E+00  0.57896999343E+03  0.57896999345E+03  0.50400001928E-02 0. -1.
       -1   -1    0    0    0  501  0.00000000000E+00  0.00000000000E+00 -0.31792723690E+03  0.31792723694E+03  0.50400001928E-02 0.  1.
    10030    2    1    2    0    0  0.00000000000E+00  0.00000000000E+00  0.26104275653E+03  0.89689723039E+03  0.85806836624E+03 0.  0.
        5    1    3    3  502    0 -0.28865513867E+03 -0.31532667820E+03  0.92899043816E+02  0.43749860046E+03  0.46999998093E+01 0.  1.
       -5    1    3    3    0  502  0.28865513867E+03  0.31532667820E+03  0.16814371271E+03  0.45939862993E+03  0.46999998093E+01 0. -1.
</event>
<event>
 5   0  0.6724773E-03  0.9771537E+03  0.7818609E-02  0.9333963E-01
       -2   -1    0    0    0  501  0.00000000000E+00  0.00000000000E+00  0.56864771150E+03  0.56864771151E+03  0.25500000920E-02 0.  1.
        2   -1    0    0  501    0  0.00000000000E+00  0.00000000000E+00 -0.41978073847E+03  0.41978073847E+03  0.25500000920E-02 0. -1.
    10030    2    1    2    0    0  0.00000000000E+00  0.00000000000E+00  0.14886697304E+03  0.98842844998E+03  0.97715373666E+03 0.  0.
        5    1    3    3  502    0 -0.90615480005E+02  0.12857988631E+03  0.54230830263E+03  0.56468073942E+03  0.46999998093E+01 0.  1.
       -5    1    3    3    0  502  0.90615480005E+02 -0.12857988631E+03 -0.39344132959E+03  0.42374771056E+03  0.46999998093E+01 0. -1.
</event>
<event>
 5   0  0.6724773E-03  0.8990215E+03  0.7818609E-02  0.9426805E-01
        2   -1    0    0  501    0  0.00000000000E+00  0.00000000000E+00  0.41346001681E+03  0.41346001682E+03  0.25500000920E-02 0.  1.
       -2   -1    0    0    0  501  0.00000000000E+00  0.00000000000E+00 -0.48870489156E+03  0.48870489157E+03  0.25500000920E-02 0. -1.
    10030    2    1    2    0    0  0.00000000000E+00  0.00000000000E+00 -0.75244874752E+02  0.90216490839E+03  0.89902154076E+03 0.  0.
        5    1    3    3  502    0  0.38395788330E+02 -0.58301574587E+02 -0.48320709556E+03  0.48824634905E+03  0.46999998093E+01 0. -1.
       -5    1    3    3    0  502 -0.38395788330E+02  0.58301574587E+02  0.40796222081E+03  0.41391855934E+03  0.46999998093E+01 0.  1.
</event>
<event>
 5   0  0.6724773E-03  0.8869581E+03  0.7818609E-02  0.9442033E-01
        2   -1    0    0  501    0  0.00000000000E+00  0.00000000000E+00  0.16628001314E+04  0.16628001314E+04  0.25500000920E-02 0.  1.
       -2   -1    0    0    0  501  0.00000000000E+00  0.00000000000E+00 -0.11827859092E+03  0.11827859095E+03  0.25500000920E-02 0. -1.
    10030    2    1    2    0    0  0.00000000000E+00  0.00000000000E+00  0.15445215404E+04  0.17810787223E+04  0.88695807466E+03 0.  0.
        5    1    3    3  502    0  0.83243462242E+02 -0.25844346827E+03  0.68204590146E+02  0.27999367209E+03  0.46999998093E+01 0. -1.
       -5    1    3    3    0  502 -0.83243462242E+02  0.25844346827E+03  0.14763169503E+04  0.15010850502E+04  0.46999998093E+01 0.  1.
</event>
<event>
 5   0  0.3969536E-03  0.9022061E+03  0.7818609E-02  0.9422828E-01
        1   -1    0    0  501    0  0.00000000000E+00  0.00000000000E+00  0.85139936761E+03  0.85139936762E+03  0.50400001928E-02 0.  1.
       -1   -1    0    0    0  501  0.00000000000E+00  0.00000000000E+00 -0.23901116956E+03  0.23901116961E+03  0.50400001928E-02 0. -1.
    10030    2    1    2    0    0  0.00000000000E+00  0.00000000000E+00  0.61238819805E+03  0.10904105372E+04  0.90220609320E+03 0.  0.
        1    1    3    3  502    0 -0.17412442491E+03 -0.42771951329E+02 -0.19409410101E+03  0.26423715719E+03  0.50400001928E-02 0. -1.
       -1    1    3    3    0  502  0.17412442491E+03  0.42771951329E+02  0.80648229906E+03  0.82617338004E+03  0.50400001928E-02 0.  1.
</event>
<event>
 5   0  0.6534628E-03  0.8983642E+03  0.7818609E-02  0.9427629E-01
        2   -1    0    0  501    0  0.00000000000E+00  0.00000000000E+00  0.41041690126E+03  0.41041690127E+03  0.25500000920E-02 0.  1.
       -2   -1    0    0    0  501  0.00000000000E+00  0.00000000000E+00 -0.49160880088E+03  0.49160880089E+03  0.25500000920E-02 0. -1.
    10030    2    1    2    0    0  0.00000000000E+00  0.00000000000E+00 -0.81191899621E+02  0.90202570216E+03  0.89836420387E+03 0.  0.
        4    1    3    3  502    0 -0.10479714937E+03  0.92204675100E+02 -0.46927726838E+03  0.48959872563E+03  0.12699999809E+01 0. -1.
       -4    1    3    3    0  502  0.10479714937E+03 -0.92204675100E+02  0.38808536876E+03  0.41242697653E+03  0.12699999809E+01 0.  1.
</event>
<event>
 5   0  0.3969536E-03  0.8946410E+03  0.7818609E-02  0.9432305E-01
        1   -1    0    0  501    0  0.00000000000E+00  0.00000000000E+00  0.72992651375E+03  0.72992651377E+03  0.50400001928E-02 0.  1.
       -1   -1    0    0    0  501  0.00000000000E+00  0.00000000000E+00 -0.27413120709E+03  0.27413120713E+03  0.50400001928E-02 0. -1.
    10030    2    1    2    0    0  0.00000000000E+00  0.00000000000E+00  0.45579530667E+03  0.10040577209E+04  0.89464101478E+03 0.  0.
        1    1    3    3  502    0  0.38151669242E+02 -0.37898025216E+03 -0.35339207993E+02  0.38253162096E+03  0.50400001928E-02 0. -1.
       -1    1    3    3    0  502 -0.38151669242E+02  0.37898025216E+03  0.49113451466E+03  0.62152609994E+03  0.50400001928E-02 0.  1.
</event>
<event>
 5   0  0.3943549E-03  0.9004964E+03  0.7818609E-02  0.9424961E-01
       -1   -1    0    0    0  501  0.00000000000E+00  0.00000000000E+00  0.22133837997E+03  0.22133838003E+03  0.50400001928E-02 0.  1.
        1   -1    0    0  501    0  0.00000000000E+00  0.00000000000E+00 -0.91589819486E+03  0.91589819487E+03  0.50400001928E-02 0. -1.
    10030    2    1    2    0    0  0.00000000000E+00  0.00000000000E+00 -0.69455981488E+03  0.11372365749E+04  0.90049635804E+03 0.  0.
        3    1    3    3  502    0  0.63353962900E+01 -0.44917971029E+03 -0.38560351636E+03  0.59202418145E+03  0.10100000352E+00 0.  1.
       -3    1    3    3    0  502 -0.63353962900E+01  0.44917971029E+03 -0.30895629852E+03  0.54521239346E+03  0.10100000352E+00 0. -1.
</event>
<event>
 5   0  0.3927993E-03  0.8162303E+03  0.7818609E-02  0.9536817E-01
        1   -1    0    0  501    0  0.00000000000E+00  0.00000000000E+00  0.20014863377E+03  0.20014863384E+03  0.50400001928E-02 0.  1.
       -1   -1    0    0    0  501  0.00000000000E+00  0.00000000000E+00 -0.83217143028E+03  0.83217143029E+03  0.50400001928E-02 0. -1.
    10030    2    1    2    0    0  0.00000000000E+00  0.00000000000E+00 -0.63202279650E+03  0.10323200641E+04  0.81623029808E+03 0.  0.
        2    1    3    3  502    0 -0.13506105383E+02 -0.16062897147E+03  0.15818035159E+03  0.22584309817E+03  0.25500000920E-02 0.  1.
       -2    1    3    3    0  502  0.13506105383E+02  0.16062897147E+03 -0.79020314809E+03  0.80647696596E+03  0.25500000920E-02 0. -1.
</event>
<event>
 5   0  0.6534628E-03  0.9300496E+03  0.7818609E-02  0.9388778E-01
       -2   -1    0    0    0  501  0.00000000000E+00  0.00000000000E+00  0.12129486387E+04  0.12129486387E+04  0.25500000920E-02 0.  1.
        2   -1    0    0  501    0  0.00000000000E+00  0.00000000000E+00 -0.17828296840E+03  0.17828296842E+03  0.25500000920E-02 0. -1.
    10030    2    1    2    0    0  0.00000000000E+00  0.00000000000E+00  0.10346656703E+04  0.13912316071E+04  0.93004964134E+03 0.  0.
        4    1    3    3  502    0 -0.45187039005E+03  0.10079894488E+03  0.58252238755E+03  0.74409758875E+03  0.12699999809E+01 0.  1.
       -4    1    3    3    0  502  0.45187039005E+03 -0.10079894488E+03  0.45214328274E+03  0.64713401836E+03  0.12699999809E+01 0. -1.
</event>
<event>
 5   0  0.3998066E-03  0.9148811E+03  0.7818609E-02  0.9407168E-01
       -1   -1    0    0    0  501  0.00000000000E+00  0.00000000000E+00  0.12716918979E+03  0.12716918989E+03  0.50400001928E-02 0.  1.
        1   -1    0    0  501    0  0.00000000000E+00  0.00000000000E+00 -0.16454604999E+04  0.16454604999E+04  0.50400001928E-02 0. -1.
    10030    2    1    2    0    0  0.00000000000E+00  0.00000000000E+00 -0.15182913101E+04  0.17726296898E+04  0.91488114793E+03 0.  0.
        4    1    3    3  502    0  0.24770713041E+03  0.35404034304E+03 -0.10500810472E+04  0.11355065854E+04  0.12699999809E+01 0. -1.
       -4    1    3    3    0  502 -0.24770713041E+03 -0.35404034304E+03 -0.46821026295E+03  0.63712310442E+03  0.12699999809E+01 0.  1.
</event>
<event>
 5   0  0.3943549E-03  0.8972682E+03  0.7818609E-02  0.9429003E-01
       -1   -1    0    0    0  501  0.00000000000E+00  0.00000000000E+00  0.11702346611E+03  0.11702346622E+03  0.50400001928E-02 0. -1.
        1   -1    0    0  501    0  0.00000000000E+00  0.00000000000E+00 -0.17199334690E+04  0.17199334690E+04  0.50400001928E-02 0.  1.
    10030    2    1    2    0    0  0.00000000000E+00  0.00000000000E+00 -0.16029100029E+04  0.18369569352E+04  0.89726824557E+03 0.  0.
        3    1    3    3  502    0 -0.44203459357E+03  0.56198811214E+02 -0.69468840662E+03  0.82531501912E+03  0.10100000352E+00 0.  1.
       -3    1    3    3    0  502  0.44203459357E+03 -0.56198811214E+02 -0.90822159626E+03  0.10116419161E+04  0.10100000352E+00 0. -1.
</event>
<event>
 5   0  0.6863405E-03  0.8804742E+03  0.7818609E-02  0.9450324E-01
        2   -1    0    0  501    0  0.00000000000E+00  0.00000000000E+00  0.71243869144E+03  0.71243869145E+03  0.25500000920E-02 0. -1.
       -2   -1    0    0    0  501  0.00000000000E+00  0.00000000000E+00 -0.27203559474E+03  0.27203559475E+03  0.25500000920E-02 0.  1.
    10030    2    1    2    0    0  0.00000000000E+00  0.00000000000E+00  0.44040309671E+03  0.98447428620E+03  0.88047415214E+03 0.  0.
        1    1    3    3  502    0  0.35839672227E+03 -0.49630913759E+02 -0.60214960193E+02  0.36679323820E+03  0.50400001928E-02 0.  1.
       -1    1    3    3    0  502 -0.35839672227E+03  0.49630913759E+02  0.50061805690E+03  0.61768104800E+03  0.50400001928E-02 0. -1.
</event>
<event>
 5   0  0.6724773E-03  0.8973664E+03  0.7818609E-02  0.9428879E-01
       -2   -1    0    0    0  501  0.00000000000E+00  0.00000000000E+00  0.32057110953E+03  0.32057110954E+03  0.25500000920E-02 0. -1.
        2   -1    0    0  501    0  0.00000000000E+00  0.00000000000E+00 -0.62799369416E+03  0.62799369416E+03  0.25500000920E-02 0.  1.
    10030    2    1    2    0    0  0.00000000000E+00  0.00000000000E+00 -0.30742258463E+03  0.94856480370E+03  0.89736644760E+03 0.  0.
        5    1    3    3  502    0  0.28618257903E+03  0.76608187776E+02  0.20244730809E+03  0.35885412848E+03  0.46999998093E+01 0. -1.
       -5    1    3    3    0  502 -0.28618257903E+03 -0.76608187776E+02 -0.50986989272E+03  0.58971067522E+03  0.46999998093E+01 0.  1.
</event>
<event>
 5   0  0.3998066E-03  0.8988666E+03  0.7818609E-02  0.9426999E-01
        1   -1    0    0  501    0  0.00000000000E+00  0.00000000000E+00  0.62520881744E+03  0.62520881746E+03  0.50400001928E-02 0. -1.
       -1   -1    0    0    0  501  0.00000000000E+00  0.00000000000E+00 -0.32307654980E+03  0.32307654984E+03  0.50400001928E-02 0.  1.
    10030    2    1    2    0    0  0.00000000000E+00  0.00000000000E+00  0.30213226764E+03  0.94828536731E+03  0.89886663677E+03 0.  0.
        4    1    3    3  502    0  0.41576049858E+03 -0.13104242078E+03  0.26643948366E+03  0.51090167310E+03  0.12699999809E+01 0. -1.
       -4    1    3    3    0  502 -0.41576049858E+03  0.13104242078E+03  0.35692783983E+02  0.43738369420E+03  0.12699999809E+01 0.  1.
</event>
<event>
 5   0  0.6534628E-03  0.8806820E+03  0.7818609E-02  0.9450057E-01
       -2   -1    0    0    0  501  0.00000000000E+00  0.00000000000E+00  0.62129751564E+03  0.62129751564E+03  0.25500000920E-02 0. -1.
        2   -1    0    0  501    0  0.00000000000E+00  0.00000000000E+00 -0.31208914583E+03  0.31208914584E+03  0.25500000920E-02 0.  1.
    10030    2    1    2    0    0  0.00000000000E+00  0.00000000000E+00  0.30920836981E+03  0.93338666148E+03  0.88068203335E+03 0.  0.
        4    1    3    3  502    0 -0.15155350047E+03 -0.40641328074E+03  0.23502946960E+03  0.49333627754E+03  0.12699999809E+01 0. -1.
       -4    1    3    3    0  502  0.15155350047E+03  0.40641328074E+03  0.74178900214E+02  0.44005038393E+03  0.12699999809E+01 0.  1.
</event>
<event>
 5   0  0.6609191E-03  0.9040124E+03  0.7818609E-02  0.9420580E-01
       -2   -1    0    0    0  501  0.00000000000E+00  0.00000000000E+00  0.12219791063E+03  0.12219791066E+03  0.25500000920E-02 0.  1.
        2   -1    0    0  501    0  0.00000000000E+00  0.00000000000E+00 -0.16719565823E+04  0.16719565823E+04  0.25500000920E-02 0. -1.
    10030    2    1    2    0    0  0.00000000000E+00  0.00000000000E+00 -0.15497586717E+04  0.17941544930E+04  0.90401239162E+03 0.  0.
        2    1    3    3  502    0 -0.11222942942E+03  0.13151892097E+03  0.53977974130E+02  0.18112507584E+03  0.25500000920E-02 0.  1.
       -2    1    3    3    0  502  0.11222942942E+03 -0.13151892097E+03 -0.16037366458E+04  0.16130294171E+04  0.25500000920E-02 0. -1.
</event>
<event>
 5   0  0.3969536E-03  0.9075108E+03  0.7818609E-02  0.9416241E-01
       -1   -1    0    0    0  501  0.00000000000E+00  0.00000000000E+00  0.21629651028E+03  0.21629651033E+03  0.50400001928E-02 0.  1.
        1   -1    0    0  501    0  0.00000000000E+00  0.00000000000E+00 -0.95190598426E+03  0.95190598427E+03  0.50400001928E-02 0. -1.
    10030    2    1    2    0    0  0.00000000000E+00  0.00000000000E+00 -0.73560947398E+03  0.11682024946E+04  0.90751075486E+03 0.  0.
        1    1    3    3  502    0  0.18258617609E+03  0.28967245657E+03  0.15457616738E+02  0.34276344865E+03  0.50400001928E-02 0.  1.
       -1    1    3    3    0  502 -0.18258617609E+03 -0.28967245657E+03 -0.75106709072E+03  0.82543904595E+03  0.50400001928E-02 0. -1.
</event>
<event>
 5   0  0.6609191E-03  0.9036393E+03  0.7818609E-02  0.9421044E-01
       -2   -1    0    0    0  501  0.00000000000E+00  0.00000000000E+00  0.26825675467E+03  0.26825675468E+03  0.25500000920E-02 0.  1.
        2   -1    0    0  501    0  0.00000000000E+00  0.00000000000E+00 -0.76099104605E+03  0.76099104605E+03  0.25500000920E-02 0. -1.
    10030    2    1    2    0    0  0.00000000000E+00  0.00000000000E+00 -0.49273429138E+03  0.10292478007E+04  0.90363928280E+03 0.  0.
        2    1    3    3  502    0  0.38731448577E+03  0.34477540682E+02 -0.50843629431E+03  0.64008489834E+03  0.25500000920E-02 0. -1.
       -2    1    3    3    0  502 -0.38731448577E+03 -0.34477540682E+02  0.15702002934E+02  0.38916290240E+03  0.25500000920E-02 0.  1.
</event>
<event>
 5   0  0.3927993E-03  0.9012913E+03  0.7818609E-02  0.9423969E-01
       -1   -1    0    0    0  501  0.00000000000E+00  0.00000000000E+00  0.53753724911E+03  0.53753724913E+03  0.50400001928E-02 0. -1.
        1   -1    0    0  501    0  0.00000000000E+00  0.00000000000E+00 -0.37779988519E+03  0.37779988522E+03  0.50400001928E-02 0.  1.
    10030    2    1    2    0    0  0.00000000000E+00  0.00000000000E+00  0.15973736392E+03  0.91533713435E+03  0.90129132032E+03 0.  0.
        2    1    3    3  502    0 -0.14643769724E+02  0.16935833320E+03 -0.34398996987E+03  0.38370012301E+03  0.25500000920E-02 0.  1.
       -2    1    3    3    0  502  0.14643769724E+02 -0.16935833320E+03  0.50372733379E+03  0.53163701135E+03  0.25500000920E-02 0. -1.
</event>
<event>
 5   0  0.3998066E-03  0.9037288E+03  0.7818609E-02  0.9420932E-01
        1   -1    0    0  501    0  0.00000000000E+00  0.00000000000E+00  0.79330800724E+03  0.79330800725E+03  0.50400001928E-02 0.  1.
       -1   -1    0    0    0  501  0.00000000000E+00  0.00000000000E+00 -0.25737976418E+03  0.25737976423E+03  0.50400001928E-02 0. -1.
    10030    2    1    2    0    0  0.00000000000E+00  0.00000000000E+00  0.53592824306E+03  0.10506877715E+04  0.90372878200E+03 0.  0.
        4    1    3    3  502    0 -0.82343113588E+02 -0.30921557920E+03 -0.10295376704E+03  0.33614841042E+03  0.12699999809E+01 0. -1.
       -4    1    3    3    0  502  0.82343113588E+02  0.30921557920E+03  0.63888201010E+03  0.71453936106E+03  0.12699999809E+01 0.  1.
</event>
<event>
 5   0  0.6863405E-03  0.9015910E+03  0.7818609E-02  0.9423595E-01
       -2   -1    0    0    0  501  0.00000000000E+00  0.00000000000E+00  0.43036964151E+03  0.43036964152E+03  0.25500000920E-02 0.  1.
        2   -1    0    0  501    0  0.00000000000E+00  0.00000000000E+00 -0.47219076384E+03  0.47219076385E+03  0.25500000920E-02 0. -1.
    10030    2    1    2    0    0  0.00000000000E+00  0.00000000000E+00 -0.41821122330E+02  0.90256040537E+03  0.90159097104E+03 0.  0.
        1    1    3    3  502    0 -0.30422988588E+03 -0.16862979783E+03 -0.30796744869E+03  0.46458129714E+03  0.50400001928E-02 0. -1.
       -1    1    3    3    0  502  0.30422988588E+03  0.16862979783E+03  0.26614632636E+03  0.43797910822E+03  0.50400001928E-02 0.  1.
</event>
<event>
 5   0  0.6609191E-03  0.8784904E+03  0.7818609E-02  0.9452876E-01
       -2   -1    0    0    0  501  0.00000000000E+00  0.00000000000E+00  0.44483650818E+03  0.44483650818E+03  0.25500000920E-02 0. -1.
        2   -1    0    0  501    0  0.00000000000E+00  0.00000000000E+00 -0.43372420772E+03  0.43372420773E+03  0.25500000920E-02 0.  1.
    10030    2    1    2    0    0  0.00000000000E+00  0.00000000000E+00  0.11112300458E+02  0.87856071591E+03  0.87849043724E+03 0.  0.
        2    1    3    3  502    0  0.74419334499E+02  0.51606101138E+02  0.43539855575E+03  0.44471713412E+03  0.25500000920E-02 0. -1.
       -2    1    3    3    0  502 -0.74419334499E+02 -0.51606101138E+02 -0.42428625529E+03  0.43384358179E+03  0.25500000920E-02 0.  1.
</event>
<event>
 5   0  0.3969536E-03  0.8986545E+03  0.7818609E-02  0.9427265E-01
       -1   -1    0    0    0  501  0.00000000000E+00  0.00000000000E+00  0.69032988628E+03  0.69032988630E+03  0.50400001928E-02 0. -1.
        1   -1    0    0  501    0  0.00000000000E+00  0.00000000000E+00 -0.29246156029E+03  0.29246156033E+03  0.50400001928E-02 0.  1.
    10030    2    1    2    0    0  0.00000000000E+00  0.00000000000E+00  0.39786832599E+03  0.98279144663E+03  0.89865445124E+03 0.  0.
        1    1    3    3  502    0  0.95307739874E+02 -0.40301877504E+03  0.82940045899E+01  0.41421792435E+03  0.50400001928E-02 0.  1.
       -1    1    3    3    0  502 -0.95307739874E+02  0.40301877504E+03  0.38957432140E+03  0.56857352228E+03  0.50400001928E-02 0. -1.
</event>
<event>
 5   0  0.3927993E-03  0.8992876E+03  0.7818609E-02  0.9426472E-01
       -1   -1    0    0    0  501  0.00000000000E+00  0.00000000000E+00  0.13139624377E+03  0.13139624386E+03  0.50400001928E-02 0.  1.
        1   -1    0    0  501    0  0.00000000000E+00  0.00000000000E+00 -0.15387011112E+04  0.15387011113E+04  0.50400001928E-02 0. -1.
    10030    2    1    2    0    0  0.00000000000E+00  0.00000000000E+00 -0.14073048675E+04  0.16700973551E+04  0.89928759891E+03 0.  0.
        2    1    3    3  502    0  0.27113658793E+03 -0.35862592620E+03 -0.69026790715E+03  0.82377022762E+03  0.25500000920E-02 0. -1.
       -2    1    3    3    0  502 -0.27113658793E+03  0.35862592620E+03 -0.71703696033E+03  0.84632712750E+03  0.25500000920E-02 0.  1.
</event>
<event>
 5   0  0.6863405E-03  0.9010994E+03  0.7818609E-02  0.9424208E-01
        2   -1    0    0  501    0  0.00000000000E+00  0.00000000000E+00  0.11011633041E+04  0.11011633041E+04  0.25500000920E-02 0.  1.
       -2   -1    0    0    0  501  0.00000000000E+00  0.00000000000E+00 -0.18434597417E+03  0.18434597419E+03  0.25500000920E-02 0. -1.
    10030    2    1    2    0    0  0.00000000000E+00  0.00000000000E+00  0.91681732991E+03  0.12855092783E+04  0.90109937748E+03 0.  0.
        1    1    3    3  502    0 -0.37344062362E+03  0.15673750316E+03  0.74003313713E+03  0.84360748476E+03  0.50400001928E-02 0.  1.
       -1    1    3    3    0  502  0.37344062362E+03 -0.15673750316E+03  0.17678419278E+03  0.44190179351E+03  0.50400001928E-02 0. -1.
</event>
<event>
 5   0  0.3927993E-03  0.9031429E+03  0.7818609E-02  0.9421661E-01
       -1   -1    0    0    0  501  0.00000000000E+00  0.00000000000E+00  0.23063716384E+03  0.23063716389E+03  0.50400001928E-02 0. -1.
        1   -1    0    0  501    0  0.00000000000E+00  0.00000000000E+00 -0.88414526705E+03  0.88414526707E+03  0.50400001928E-02 0.  1.
    10030    2    1    2    0    0  0.00000000000E+00  0.00000000000E+00 -0.65350810322E+03  0.11147824310E+04  0.90314286102E+03 0.  0.
        2    1    3    3  502    0  0.28741672651E+03  0.90126840778E+02  0.88514578985E+02  0.31395230977E+03  0.25500000920E-02 0. -1.
       -2    1    3    3    0  502 -0.28741672651E+03 -0.90126840778E+02 -0.74202268220E+03  0.80083012120E+03  0.25500000920E-02 0.  1.
</event>
<event>
 5   0  0.3943549E-03  0.8990197E+03  0.7818609E-02  0.9426808E-01
       -1   -1    0    0    0  501  0.00000000000E+00  0.00000000000E+00  0.53316713674E+03  0.53316713677E+03  0.50400001928E-02 0.  1.
        1   -1    0    0  501    0  0.00000000000E+00  0.00000000000E+00 -0.37897888802E+03  0.37897888806E+03  0.50400001928E-02 0. -1.
    10030    2    1    2    0    0  0.00000000000E+00  0.00000000000E+00  0.15418824872E+03  0.91214602483E+03  0.89901966306E+03 0.  0.
        3    1    3    3  502    0  0.21129228814E+03 -0.65699902059E+02  0.47408468395E+03  0.52317989824E+03  0.10100000352E+00 0.  1.
       -3    1    3    3    0  502 -0.21129228814E+03  0.65699902059E+02 -0.31989643523E+03  0.38896612659E+03  0.10100000352E+00 0. -1.
</event>
<event>
 5   0  0.6534628E-03  0.9015163E+03  0.7818609E-02  0.9423688E-01
        2   -1    0    0  501    0  0.00000000000E+00  0.00000000000E+00  0.64202392058E+03  0.64202392059E+03  0.25500000920E-02 0. -1.
       -2   -1    0    0    0  501  0.00000000000E+00  0.00000000000E+00 -0.31647249416E+03  0.31647249418E+03  0.25500000920E-02 0.  1.
    10030    2    1    2    0    0  0.00000000000E+00  0.00000000000E+00  0.32555142642E+03  0.95849641476E+03  0.90151630372E+03 0.  0.
        4    1    3    3  502    0 -0.10536271098E+03  0.12988177140E+03 -0.28226244393E+03  0.32809187061E+03  0.12699999809E+01 0.  1.
       -4    1    3    3    0  502  0.10536271098E+03 -0.12988177140E+03  0.60781387035E+03  0.63040454416E+03  0.12699999809E+01 0. -1.
</event>
<event>
 5   0  0.6534628E-03  0.9003710E+03  0.7818609E-02  0.9425118E-01
       -2   -1    0    0    0  501  0.00000000000E+00  0.00000000000E+00  0.23499446089E+03  0.23499446091E+03  0.25500000920E-02 0. -1.
        2   -1    0    0  501    0  0.00000000000E+00  0.00000000000E+00 -0.86243306690E+03  0.86243306690E+03  0.25500000920E-02 0.  1.
    10030    2    1    2    0    0  0.00000000000E+00  0.00000000000E+00 -0.62743860600E+03  0.10974275278E+04  0.90037102046E+03 0.  0.
        4    1    3    3  502    0  0.42597049026E+02  0.26748519918E+03  0.12456697137E+03  0.29812981002E+03  0.12699999809E+01 0. -1.
       -4    1    3    3    0  502 -0.42597049026E+02 -0.26748519918E+03 -0.75200557737E+03  0.79929771779E+03  0.12699999809E+01 0.  1.
</event>
<event>
 5   0  0.6534628E-03  0.9015698E+03  0.7818609E-02  0.9423621E-01
       -2   -1    0    0    0  501  0.00000000000E+00  0.00000000000E+00  0.67408426227E+03  0.67408426227E+03  0.25500000920E-02 0.  1.
        2   -1    0    0  501    0  0.00000000000E+00  0.00000000000E+00 -0.30145638699E+03  0.30145638700E+03  0.25500000920E-02 0. -1.
    10030    2    1    2    0    0  0.00000000000E+00  0.00000000000E+00  0.37262787528E+03  0.97554064927E+03  0.90156975601E+03 0.  0.
        4    1    3    3  502    0 -0.62134126377E+02 -0.60988316207E+01  0.66938153687E+03  0.67228795929E+03  0.12699999809E+01 0.  1.
       -4    1    3    3    0  502  0.62134126377E+02  0.60988316207E+01 -0.29675366160E+03  0.30325268998E+03  0.12699999809E+01 0. -1.
</event>
<event>
 5   0  0.6524705E-03  0.8898692E+03  0.7818609E-02  0.9438335E-01
       -2   -1    0    0    0  501  0.00000000000E+00  0.00000000000E+00  0.35312359479E+03  0.35312359480E+03  0.25500000920E-02 0. -1.
        2   -1    0    0  501    0  0.00000000000E+00  0.00000000000E+00 -0.56061616271E+03  0.56061616271E+03  0.25500000920E-02 0.  1.
    10030    2    1    2    0    0  0.00000000000E+00  0.00000000000E+00 -0.20749256792E+03  0.91373975751E+03  0.88986919192E+03 0.  0.
        3    1    3    3  502    0 -0.35266091585E+03  0.25471811344E+03 -0.19960875577E+03  0.47863838590E+03  0.10100000352E+00 0.  1.
       -3    1    3    3    0  502  0.35266091585E+03 -0.25471811344E+03 -0.78838121516E+01  0.43510137161E+03  0.10100000352E+00 0. -1.
</event>
<event>
 5   0  0.3969536E-03  0.8910448E+03  0.7818609E-02  0.9436846E-01
       -1   -1    0    0    0  501  0.00000000000E+00  0.00000000000E+00  0.15572279053E+03  0.15572279061E+03  0.50400001928E-02 0.  1.
        1   -1    0    0  501    0  0.00000000000E+00  0.00000000000E+00 -0.12746382314E+04  0.12746382314E+04  0.50400001928E-02 0. -1.
    10030    2    1    2    0    0  0.00000000000E+00  0.00000000000E+00 -0.11189154409E+04  0.14303610220E+04  0.89104483023E+03 0.  0.
        1    1    3    3  502    0  0.77956073456E+02  0.28666121728E+03 -0.26475648167E+02  0.29824949766E+03  0.50400001928E-02 0.  1.
       -1    1    3    3    0  502 -0.77956073456E+02 -0.28666121728E+03 -0.10924397927E+04  0.11321115243E+04  0.50400001928E-02 0. -1.
</event>
<event>
 5   0  0.6609191E-03  0.8966991E+03  0.7818609E-02  0.9429717E-01
       -2   -1    0    0    0  501  0.00000000000E+00  0.00000000000E+00  0.95506946060E+02  0.95506946094E+02  0.25500000920E-02 0.  1.
        2   -1    0    0  501    0  0.00000000000E+00  0.00000000000E+00 -0.21047402447E+04  0.21047402447E+04  0.25500000920E-02 0. -1.
    10030    2    1    2    0    0  0.00000000000E+00  0.00000000000E+00 -0.20092332987E+04  0.22002471908E+04  0.89669908679E+03 0.  0.
        2    1    3    3  502    0  0.70285666414E+02  0.19435996568E+03 -0.28352855773E+02  0.20861389119E+03  0.25500000920E-02 0.  1.
       -2    1    3    3    0  502 -0.70285666414E+02 -0.19435996568E+03 -0.19808804429E+04  0.19916332996E+04  0.25500000920E-02 0. -1.
</event>
<event>
 5   0  0.6863405E-03  0.9039531E+03  0.7818609E-02  0.9420653E-01
       -2   -1    0    0    0  501  0.00000000000E+00  0.00000000000E+00  0.11939582949E+03  0.11939582952E+03  0.25500000920E-02 0. -1.
        2   -1    0    0  501    0  0.00000000000E+00  0.00000000000E+00 -0.17109711251E+04  0.17109711251E+04  0.25500000920E-02 0.  1.
    10030    2    1    2    0    0  0.00000000000E+00  0.00000000000E+00 -0.15915752956E+04  0.18303669546E+04  0.90395313317E+03 0.  0.
        1    1    3    3  502    0  0.30984473127E+03  0.19253547527E+03 -0.25545631414E+03  0.44534435574E+03  0.50400001928E-02 0. -1.
       -1    1    3    3    0  502 -0.30984473127E+03 -0.19253547527E+03 -0.13361189814E+04  0.13850225988E+04  0.50400001928E-02 0.  1.
</event>
<event>
 5   0  0.3927993E-03  0.9132420E+03  0.7818609E-02  0.9409178E-01
       -1   -1    0    0    0  501  0.00000000000E+00  0.00000000000E+00  0.33454596483E+03  0.33454596487E+03  0.50400001928E-02 0. -1.
        1   -1    0    0  501    0  0.00000000000E+00  0.00000000000E+00 -0.62324095278E+03  0.62324095280E+03  0.50400001928E-02 0.  1.
    10030    2    1    2    0    0  0.00000000000E+00  0.00000000000E+00 -0.28869498795E+03  0.95778691767E+03  0.91324201808E+03 0.  0.
        2    1    3    3  502    0  0.33646020077E+02 -0.10527595945E+03 -0.60900132101E+03  0.61894886001E+03  0.25500000920E-02 0.  1.
       -2    1    3    3    0  502 -0.33646020077E+02  0.10527595945E+03  0.32030633307E+03  0.33883805766E+03  0.25500000920E-02 0. -1.
</event>
<event>
 5   0  0.3927993E-03  0.8989236E+03  0.7818609E-02  0.9426928E-01
       -1   -1    0    0    0  501  0.00000000000E+00  0.00000000000E+00  0.13414642602E+03  0.13414642612E+03  0.50400001928E-02 0.  1.
        1   -1    0    0  501    0  0.00000000000E+00  0.00000000000E+00 -0.15059359136E+04  0.15059359136E+04  0.50400001928E-02 0. -1.
    10030    2    1    2    0    0  0.00000000000E+00  0.00000000000E+00 -0.13717894876E+04  0.16400823398E+04  0.89892362460E+03 0.  0.
        2    1    3    3  502    0  0.10214965627E+03  0.40548978912E+03 -0.98657363391E+03  0.10715335069E+04  0.25500000920E-02 0. -1.
       -2    1    3    3    0  502 -0.10214965627E+03 -0.40548978912E+03 -0.38521585370E+03  0.56854883282E+03  0.25500000920E-02 0.  1.
</event>
<event>
 5   0  0.6863405E-03  0.8795167E+03  0.7818609E-02  0.9451555E-01
        2   -1    0    0  501    0  0.00000000000E+00  0.00000000000E+00  0.16468651929E+04  0.16468651929E+04  0.25500000920E-02 0. -1.
       -2   -1    0    0    0  501  0.00000000000E+00  0.00000000000E+00 -0.11742759793E+03  0.11742759796E+03  0.25500000920E-02 0.  1.
    10030    2    1    2    0    0  0.00000000000E+00  0.00000000000E+00  0.15294375950E+04  0.17642927909E+04  0.87951673945E+03 0.  0.
        1    1    3    3  502    0 -0.26022391569E+03  0.10909039288E+03  0.14413326045E+04  0.14686922336E+04  0.50400001928E-02 0. -1.
       -1    1    3    3    0  502  0.26022391569E+03 -0.10909039288E+03  0.88104990512E+02  0.29560055733E+03  0.50400001928E-02 0.  1.
</event>
<event>
 5   0  0.6534628E-03  0.9037705E+03  0.7818609E-02  0.9420880E-01
       -2   -1    0    0    0  501  0.00000000000E+00  0.00000000000E+00  0.33616226156E+03  0.33616226157E+03  0.25500000920E-02 0.  1.
        2   -1    0    0  501    0  0.00000000000E+00  0.00000000000E+00 -0.60744553961E+03  0.60744553962E+03  0.25500000920E-02 0. -1.
    10030    2    1    2    0    0  0.00000000000E+00  0.00000000000E+00 -0.27128327805E+03  0.94360780119E+03  0.90377047170E+03 0.  0.
        4    1    3    3  502    0 -0.33791997493E+03 -0.10691603625E+02  0.17739831794E+03  0.38180622828E+03  0.12699999809E+01 0.  1.
       -4    1    3    3    0  502  0.33791997493E+03  0.10691603625E+02 -0.44868159599E+03  0.56180157291E+03  0.12699999809E+01 0. -1.
</event>
<event>
 5   0  0.6534628E-03  0.9063371E+03  0.7818609E-02  0.9417694E-01
       -2   -1    0    0    0  501  0.00000000000E+00  0.00000000000E+00  0.14153511554E+03  0.14153511557E+03  0.25500000920E-02 0. -1.
        2   -1    0    0  501    0  0.00000000000E+00  0.00000000000E+00 -0.14509594673E+04  0.14509594673E+04  0.25500000920E-02 0.  1.
    10030    2    1    2    0    0  0.00000000000E+00  0.00000000000E+00 -0.13094243518E+04  0.15924945829E+04  0.90633705843E+03 0.  0.
        4    1    3    3  502    0 -0.21348574317E+03 -0.37570073089E+03 -0.89455595960E+03  0.99345819211E+03  0.12699999809E+01 0.  1.
       -4    1    3    3    0  502  0.21348574317E+03  0.37570073089E+03 -0.41486839215E+03  0.59903639075E+03  0.12699999809E+01 0. -1.
</event>
<event>
 5   0  0.3943549E-03  0.8958645E+03  0.7818609E-02  0.9430766E-01
        1   -1    0    0  501    0  0.00000000000E+00  0.00000000000E+00  0.50830540654E+03  0.50830540656E+03  0.50400001928E-02 0.  1.
       -1   -1    0    0    0  501  0.00000000000E+00  0.00000000000E+00 -0.39472982037E+03  0.39472982040E+03  0.50400001928E-02 0. -1.
    10030    2    1    2    0    0  0.00000000000E+00  0.00000000000E+00  0.11357558616E+03  0.90303522696E+03  0.89586450279E+03 0.  0.
        3    1    3    3  502    0  0.33695046745E+03  0.28092569265E+03  0.14800203780E+03  0.46298971446E+03  0.10100000352E+00 0.  1.
       -3    1    3    3    0  502 -0.33695046745E+03 -0.28092569265E+03 -0.34426451636E+02  0.44004551250E+03  0.10100000352E+00 0. -1.
</event>
<event>
 5   0  0.2560250E-03  0.8990765E+03  0.7818609E-02  0.9426737E-01
       -3   -1    0    0    0  501  0.00000000000E+00  0.00000000000E+00  0.90355058267E+03  0.90355058831E+03  0.10100000352E+00 0. -1.
        3   -1    0    0  501    0  0.00000000000E+00  0.00000000000E+00 -0.22365612538E+03  0.22365614818E+03  0.10100000352E+00 0.  1.
    10030    2    1    2    0    0  0.00000000000E+00  0.00000000000E+00  0.67989445729E+03  0.11272067365E+04  0.89907650050E+03 0.  0.
        5    1    3    3  502    0 -0.14594743487E+03  0.27095051100E+03 -0.70827135346E+02  0.31583762641E+03  0.46999998093E+01 0.  1.
       -5    1    3    3    0  502  0.14594743487E+03 -0.27095051100E+03  0.75072159264E+03  0.81136911009E+03  0.46999998093E+01 0. -1.
</event>
<event>
 5   0  0.3794006E-03  0.8986557E+03  0.7818609E-02  0.9427263E-01
       -1   -1    0    0    0  501  0.00000000000E+00  0.00000000000E+00  0.11384765607E+04  0.11384765607E+04  0.50400001928E-02 0.  1.
        1   -1    0    0  501    0  0.00000000000E+00  0.00000000000E+00 -0.17733832495E+03  0.17733832502E+03  0.50400001928E-02 0. -1.
    10030    2    1    2    0    0  0.00000000000E+00  0.00000000000E+00  0.96113823573E+03  0.13158148857E+04  0.89865572122E+03 0.  0.
        5    1    3    3  502    0  0.72897789815E+02 -0.25848631581E+03  0.10079755025E+04  0.10431519385E+04  0.46999998093E+01 0.  1.
       -5    1    3    3    0  502 -0.72897789815E+02  0.25848631581E+03 -0.46837266754E+02  0.27266294720E+03  0.46999998093E+01 0. -1.
</event>
<event>
 5   0  0.6609191E-03  0.9386801E+03  0.7818609E-02  0.9378481E-01
        2   -1    0    0  501    0  0.00000000000E+00  0.00000000000E+00  0.79769923549E+03  0.79769923549E+03  0.25500000920E-02 0. -1.
       -2   -1    0    0    0  501  0.00000000000E+00  0.00000000000E+00 -0.27614425436E+03  0.27614425437E+03  0.25500000920E-02 0.  1.
    10030    2    1    2    0    0  0.00000000000E+00  0.00000000000E+00  0.52155498113E+03  0.10738434899E+04  0.93868005325E+03 0.  0.
        2    1    3    3  502    0 -0.19364873332E+03 -0.42752424016E+03  0.26284072479E+03  0.53792383704E+03  0.25500000920E-02 0.  1.
       -2    1    3    3    0  502  0.19364873332E+03  0.42752424016E+03  0.25871425634E+03  0.53591965282E+03  0.25500000920E-02 0. -1.
</event>
<event>
 5   0  0.3927993E-03  0.9186435E+03  0.7818609E-02  0.9402572E-01
       -1   -1    0    0    0  501  0.00000000000E+00  0.00000000000E+00  0.50078521420E+03  0.50078521423E+03  0.50400001928E-02 0. -1.
        1   -1    0    0  501    0  0.00000000000E+00  0.00000000000E+00 -0.42129129638E+03  0.42129129641E+03  0.50400001928E-02 0.  1.
    10030    2    1    2    0    0  0.00000000000E+00  0.00000000000E+00  0.79493917827E+02  0.92207651064E+03  0.91864346103E+03 0.  0.
        2    1    3    3  502    0  0.38543892490E+03 -0.16954462216E+03  0.22392083959E+03  0.47691622550E+03  0.25500000920E-02 0. -1.
       -2    1    3    3    0  502 -0.38543892490E+03  0.16954462216E+03 -0.14442692176E+03  0.44516028514E+03  0.25500000920E-02 0.  1.
</event>
<event>
 5   0  0.3927993E-03  0.8999715E+03  0.7818609E-02  0.9425617E-01
        1   -1    0    0  501    0  0.00000000000E+00  0.00000000000E+00  0.25885000322E+03  0.25885000327E+03  0.50400001928E-02 0. -1.
       -1   -1    0    0    0  501  0.00000000000E+00  0.00000000000E+00 -0.78225684521E+03  0.78225684522E+03  0.50400001928E-02 0.  1.
    10030    2    1    2    0    0  0.00000000000E+00  0.00000000000E+00 -0.52340684199E+03  0.10411068485E+04  0.89997152607E+03 0.  0.
        2    1    3    3  502    0  0.39411558144E+03 -0.20376473450E+03 -0.34858089363E+03  0.56423027034E+03  0.25500000920E-02 0. -1.
       -2    1    3    3    0  502 -0.39411558144E+03  0.20376473450E+03 -0.17482594836E+03  0.47687657815E+03  0.25500000920E-02 0.  1.
</event>
<event>
 5   0  0.3969536E-03  0.8969021E+03  0.7818609E-02  0.9429462E-01
        1   -1    0    0  501    0  0.00000000000E+00  0.00000000000E+00  0.60643710011E+03  0.60643710013E+03  0.50400001928E-02 0.  1.
       -1   -1    0    0    0  501  0.00000000000E+00  0.00000000000E+00 -0.33162276872E+03  0.33162276875E+03  0.50400001928E-02 0. -1.
    10030    2    1    2    0    0  0.00000000000E+00  0.00000000000E+00  0.27481433140E+03  0.93805986889E+03  0.89690211332E+03 0.  0.
        1    1    3    3  502    0 -0.33853777575E+03  0.69015526331E+02 -0.16160982774E+03  0.38142981653E+03  0.50400001928E-02 0. -1.
       -1    1    3    3    0  502  0.33853777575E+03 -0.69015526331E+02  0.43642415914E+03  0.55663005236E+03  0.50400001928E-02 0.  1.
</event>
<event>
 5   0  0.6609191E-03  0.8962952E+03  0.7818609E-02  0.9430224E-01
        2   -1    0    0  501    0  0.00000000000E+00  0.00000000000E+00  0.53771933346E+03  0.53771933347E+03  0.25500000920E-02 0.  1.
       -2   -1    0    0    0  501  0.00000000000E+00  0.00000000000E+00 -0.37349650134E+03  0.37349650134E+03  0.25500000920E-02 0. -1.
    10030    2    1    2    0    0  0.00000000000E+00  0.00000000000E+00  0.16422283213E+03  0.91121583481E+03  0.89629524099E+03 0.  0.
        2    1    3    3  502    0 -0.96900516652E+02  0.43734292019E+03  0.95665641637E+02  0.45805071222E+03  0.25500000920E-02 0.  1.
       -2    1    3    3    0  502  0.96900516652E+02 -0.43734292019E+03  0.68557190490E+02  0.45316512260E+03  0.25500000920E-02 0. -1.
</event>
<event>
 5   0  0.6534628E-03  0.8930984E+03  0.7818609E-02  0.9434250E-01
       -2   -1    0    0    0  501  0.00000000000E+00  0.00000000000E+00  0.14785291808E+04  0.14785291808E+04  0.25500000920E-02 0. -1.
        2   -1    0    0  501    0  0.00000000000E+00  0.00000000000E+00 -0.13486793123E+03  0.13486793126E+03  0.25500000920E-02 0.  1.
    10030    2    1    2    0    0  0.00000000000E+00  0.00000000000E+00  0.13436612496E+04  0.16133971120E+04  0.89309836390E+03 0.  0.
        4    1    3    3  502    0 -0.52008620412E+01 -0.33005127039E+03  0.12854143044E+03  0.35423918797E+03  0.12699999809E+01 0.  1.
       -4    1    3    3    0  502  0.52008620412E+01  0.33005127039E+03  0.12151198191E+04  0.12591579241E+04  0.12699999809E+01 0. -1.
</event>
<event>
 5   0  0.3969536E-03  0.9012940E+03  0.7818609E-02  0.9423965E-01
       -1   -1    0    0    0  501  0.00000000000E+00  0.00000000000E+00  0.10205400283E+03  0.10205400296E+03  0.50400001928E-02 0. -1.
        1   -1    0    0  501    0  0.00000000000E+00  0.00000000000E+00 -0.19899536321E+04  0.19899536321E+04  0.50400001928E-02 0.  1.
    10030    2    1    2    0    0  0.00000000000E+00  0.00000000000E+00 -0.18878996293E+04  0.20920076351E+04  0.90129403359E+03 0.  0.
        1    1    3    3  502    0  0.37573374343E+03  0.15366946930E+03 -0.13981570985E+04  0.14558960897E+04  0.50400001928E-02 0.  1.
       -1    1    3    3    0  502 -0.37573374343E+03 -0.15366946930E+03 -0.48974253080E+03  0.63611154544E+03  0.50400001928E-02 0. -1.
</event>
<event>
 5   0  0.6863405E-03  0.9142501E+03  0.7818609E-02  0.9407941E-01
       -2   -1    0    0    0  501  0.00000000000E+00  0.00000000000E+00  0.25848281950E+03  0.25848281951E+03  0.25500000920E-02 0. -1.
        2   -1    0    0  501    0  0.00000000000E+00  0.00000000000E+00 -0.80842249738E+03  0.80842249738E+03  0.25500000920E-02 0.  1.
    10030    2    1    2    0    0  0.00000000000E+00  0.00000000000E+00 -0.54993967788E+03  0.10669053169E+04  0.91425013311E+03 0.  0.
        1    1    3    3  502    0  0.21818908310E+03 -0.16163800741E+02  0.19341482017E+03  0.29202232299E+03  0.50400001928E-02 0. -1.
       -1    1    3    3    0  502 -0.21818908310E+03  0.16163800741E+02 -0.74335449805E+03  0.77488299390E+03  0.50400001928E-02 0.  1.
</event>
<event>
 5   0  0.3927993E-03  0.8963101E+03  0.7818609E-02  0.9430206E-01
       -1   -1    0    0    0  501  0.00000000000E+00  0.00000000000E+00  0.74454067017E+03  0.74454067019E+03  0.50400001928E-02 0. -1.
        1   -1    0    0  501    0  0.00000000000E+00  0.00000000000E+00 -0.26975415260E+03  0.26975415265E+03  0.50400001928E-02 0.  1.
    10030    2    1    2    0    0  0.00000000000E+00  0.00000000000E+00  0.47478651757E+03  0.10142948228E+04  0.89631007489E+03 0.  0.
        2    1    3    3  502    0 -0.11944955403E+03  0.37937702115E+03  0.36956138092E+01  0.39775467025E+03  0.25500000920E-02 0.  1.
       -2    1    3    3    0  502  0.11944955403E+03 -0.37937702115E+03  0.47109090376E+03  0.61654015258E+03  0.25500000920E-02 0. -1.
</event>
<event>
 5   0  0.3969536E-03  0.8993567E+03  0.7818609E-02  0.9426386E-01
       -1   -1    0    0    0  501  0.00000000000E+00  0.00000000000E+00  0.30924457324E+03  0.30924457329E+03  0.50400001928E-02 0. -1.
        1   -1    0    0  501    0  0.00000000000E+00  0.00000000000E+00 -0.65388576493E+03  0.65388576495E+03  0.50400001928E-02 0.  1.
    10030    2    1    2    0    0  0.00000000000E+00  0.00000000000E+00 -0.34464119168E+03  0.96313033823E+03  0.89935671311E+03 0.  0.
        1    1    3    3  502    0  0.24572332141E+03 -0.61090985435E+02  0.22564695794E+03  0.33915867797E+03  0.50400001928E-02 0. -1.
       -1    1    3    3    0  502 -0.24572332141E+03  0.61090985435E+02 -0.57028814962E+03  0.62397166026E+03  0.50400001928E-02 0.  1.
</event>
<event>
 5   0  0.3943549E-03  0.8987601E+03  0.7818609E-02  0.9427133E-01
        1   -1    0    0  501    0  0.00000000000E+00  0.00000000000E+00  0.28237288138E+03  0.28237288143E+03  0.50400001928E-02 0.  1.
       -1   -1    0    0    0  501  0.00000000000E+00  0.00000000000E+00 -0.71516221429E+03  0.71516221431E+03  0.50400001928E-02 0. -1.
    10030    2    1    2    0    0  0.00000000000E+00  0.00000000000E+00 -0.43278933291E+03  0.99753509574E+03  0.89876006840E+03 0.  0.
        3    1    3    3  502    0  0.11808908196E+03  0.10881022430E+03  0.24944368693E+03  0.29665950067E+03  0.10100000352E+00 0.  1.
       -3    1    3    3    0  502 -0.11808908196E+03 -0.10881022430E+03 -0.68223301984E+03  0.70087559506E+03  0.10100000352E+00 0. -1.
</event>
<event>
 5   0  0.3969536E-03  0.8983788E+03  0.7818609E-02  0.9427610E-01
        1   -1    0    0  501    0  0.00000000000E+00  0.00000000000E+00  0.21170532273E+03  0.21170532279E+03  0.50400001928E-02 0. -1.
       -1   -1    0    0    0  501  0.00000000000E+00  0.00000000000E+00 -0.95307541651E+03  0.95307541653E+03  0.50400001928E-02 0.  1.
    10030    2    1    2    0    0  0.00000000000E+00  0.00000000000E+00 -0.74137009378E+03  0.11647807393E+04  0.89837884812E+03 0.  0.
        1    1    3    3  502    0 -0.21904420398E+02 -0.44009597003E+03 -0.25760454634E+03  0.51041587827E+03  0.50400001928E-02 0. -1.
       -1    1    3    3    0  502  0.21904420398E+02  0.44009597003E+03 -0.48376554744E+03  0.65436486105E+03  0.50400001928E-02 0.  1.
</event>
<event>
 5   0  0.3969536E-03  0.8976719E+03  0.7818609E-02  0.9428496E-01
       -1   -1    0    0    0  501  0.00000000000E+00  0.00000000000E+00  0.10735304931E+04  0.10735304931E+04  0.50400001928E-02 0.  1.
        1   -1    0    0  501    0  0.00000000000E+00  0.00000000000E+00 -0.18765533512E+03  0.18765533519E+03  0.50400001928E-02 0. -1.
    10030    2    1    2    0    0  0.00000000000E+00  0.00000000000E+00  0.88587515793E+03  0.12611858283E+04  0.89767193226E+03 0.  0.
        1    1    3    3  502    0 -0.50723860558E+02  0.44441272075E+03  0.39078096656E+03  0.59395735558E+03  0.50400001928E-02 0. -1.
       -1    1    3    3    0  502  0.50723860558E+02 -0.44441272075E+03  0.49509419137E+03  0.66722847267E+03  0.50400001928E-02 0.  1.
</event>
<event>
 5   0  0.3927993E-03  0.8991060E+03  0.7818609E-02  0.9426700E-01
       -1   -1    0    0    0  501  0.00000000000E+00  0.00000000000E+00  0.31368443661E+03  0.31368443665E+03  0.50400001928E-02 0.  1.
        1   -1    0    0  501    0  0.00000000000E+00  0.00000000000E+00 -0.64427131363E+03  0.64427131365E+03  0.50400001928E-02 0. -1.
    10030    2    1    2    0    0  0.00000000000E+00  0.00000000000E+00 -0.33058687702E+03  0.95795575030E+03  0.89910596499E+03 0.  0.
        2    1    3    3  502    0  0.66434533432E+02 -0.38075416002E+01  0.30840807740E+03  0.31550528809E+03  0.25500000920E-02 0.  1.
       -2    1    3    3    0  502 -0.66434533432E+02  0.38075416002E+01 -0.63899495442E+03  0.64245046221E+03  0.25500000920E-02 0. -1.
</event>
<event>
 5   0  0.3969536E-03  0.9113338E+03  0.7818609E-02  0.9411523E-01
       -1   -1    0    0    0  501  0.00000000000E+00  0.00000000000E+00  0.34380327005E+03  0.34380327008E+03  0.50400001928E-02 0.  1.
        1   -1    0    0  501    0  0.00000000000E+00  0.00000000000E+00 -0.60392776962E+03  0.60392776964E+03  0.50400001928E-02 0. -1.
    10030    2    1    2    0    0  0.00000000000E+00  0.00000000000E+00 -0.26012449958E+03  0.94773103972E+03  0.91133384025E+03 0.  0.
        1    1    3    3  502    0  0.29473774010E+03  0.33238520603E+02 -0.48979256565E+03  0.57260098855E+03  0.50400001928E-02 0. -1.
       -1    1    3    3    0  502 -0.29473774010E+03 -0.33238520603E+02  0.22966806608E+03  0.37513005117E+03  0.50400001928E-02 0.  1.
</event>
<event>
 5   0  0.6609191E-03  0.8967264E+03  0.7818609E-02  0.9429683E-01
       -2   -1    0    0    0  501  0.00000000000E+00  0.00000000000E+00  0.37444075943E+03  0.37444075943E+03  0.25500000920E-02 0. -1.
        2   -1    0    0  501    0  0.00000000000E+00  0.00000000000E+00 -0.53687942414E+03  0.53687942415E+03  0.25500000920E-02 0.  1.
    10030    2    1    2    0    0  0.00000000000E+00  0.00000000000E+00 -0.16243866471E+03  0.91132018358E+03  0.89672635581E+03 0.  0.
        2    1    3    3  502    0 -0.18966756120E+03  0.27576326973E+03 -0.38442084874E+03  0.50970437869E+03  0.25500000920E-02 0.  1.
       -2    1    3    3    0  502  0.18966756120E+03 -0.27576326973E+03  0.22198218403E+03  0.40161580489E+03  0.25500000920E-02 0. -1.
</event>
<event>
 5   0  0.3927993E-03  0.8840584E+03  0.7818609E-02  0.9445732E-01
        1   -1    0    0  501    0  0.00000000000E+00  0.00000000000E+00  0.65506518506E+03  0.65506518508E+03  0.50400001928E-02 0. -1.
       -1   -1    0    0    0  501  0.00000000000E+00  0.00000000000E+00 -0.29827534794E+03  0.29827534798E+03  0.50400001928E-02 0.  1.
    10030    2    1    2    0    0  0.00000000000E+00  0.00000000000E+00  0.35678983712E+03  0.95334053306E+03  0.88405836012E+03 0.  0.
        2    1    3    3  502    0  0.23600472305E+03  0.33845207994E+03  0.34938264160E+03  0.54066280617E+03  0.25500000920E-02 0.  1.
       -2    1    3    3    0  502 -0.23600472305E+03 -0.33845207994E+03  0.74071955203E+01  0.41267772689E+03  0.25500000920E-02 0. -1.
</event>
<event>
 5   0  0.3794006E-03  0.8998524E+03  0.7818609E-02  0.9425766E-01
        1   -1    0    0  501    0  0.00000000000E+00  0.00000000000E+00  0.19385500510E+04  0.19385500511E+04  0.50400001928E-02 0. -1.
       -1   -1    0    0    0  501  0.00000000000E+00  0.00000000000E+00 -0.10442524574E+03  0.10442524586E+03  0.50400001928E-02 0.  1.
    10030    2    1    2    0    0  0.00000000000E+00  0.00000000000E+00  0.18341248053E+04  0.20429752969E+04  0.89985235588E+03 0.  0.
        5    1    3    3  502    0 -0.16697848511E+02  0.44746489067E+03  0.10162281270E+04  0.11105158002E+04  0.46999998093E+01 0. -1.
       -5    1    3    3    0  502  0.16697848511E+02 -0.44746489067E+03  0.81789667833E+03  0.93245949668E+03  0.46999998093E+01 0.  1.
</event>
<event>
 5   0  0.6863405E-03  0.9334886E+03  0.7818609E-02  0.9384661E-01
        2   -1    0    0  501    0  0.00000000000E+00  0.00000000000E+00  0.19711749343E+04  0.19711749343E+04  0.25500000920E-02 0.  1.
       -2   -1    0    0    0  501  0.00000000000E+00  0.00000000000E+00 -0.11051796730E+03  0.11051796733E+03  0.25500000920E-02 0. -1.
    10030    2    1    2    0    0  0.00000000000E+00  0.00000000000E+00  0.18606569670E+04  0.20816929016E+04  0.93348861153E+03 0.  0.
        1    1    3    3  502    0  0.21758704637E+03 -0.31198646378E+03  0.15335486584E+04  0.15800161911E+04  0.50400001928E-02 0.  1.
       -1    1    3    3    0  502 -0.21758704637E+03  0.31198646378E+03  0.32710830855E+03  0.50167671052E+03  0.50400001928E-02 0. -1.
</event>
<event>
 5   0  0.6863405E-03  0.9015342E+03  0.7818609E-02  0.9423666E-01
       -2   -1    0    0    0  501  0.00000000000E+00  0.00000000000E+00  0.12852107203E+03  0.12852107206E+03  0.25500000920E-02 0.  1.
        2   -1    0    0  501    0  0.00000000000E+00  0.00000000000E+00 -0.15809936082E+04  0.15809936082E+04  0.25500000920E-02 0. -1.
    10030    2    1    2    0    0  0.00000000000E+00  0.00000000000E+00 -0.14524725361E+04  0.17095146802E+04  0.90153423323E+03 0.  0.
        1    1    3    3  502    0  0.43264254919E+03  0.19240356213E+02 -0.96338784544E+03  0.10562508733E+04  0.50400001928E-02 0. -1.
       -1    1    3    3    0  502 -0.43264254919E+03 -0.19240356213E+02 -0.48908469069E+03  0.65326380687E+03  0.50400001928E-02 0.  1.
</event>
<event>
 5   0  0.6609191E-03  0.9244241E+03  0.7818609E-02  0.9395555E-01
       -2   -1    0    0    0  501  0.00000000000E+00  0.00000000000E+00  0.82039524191E+02  0.82039524230E+02  0.25500000920E-02 0.  1.
        2   -1    0    0  501    0  0.00000000000E+00  0.00000000000E+00 -0.26041105326E+04  0.26041105326E+04  0.25500000920E-02 0. -1.
    10030    2    1    2    0    0  0.00000000000E+00  0.00000000000E+00 -0.25220710084E+04  0.26861500569E+04  0.92442412148E+03 0.  0.
        2    1    3    3  502    0 -0.33577894094E+02 -0.43422640444E+03 -0.81125368323E+03  0.92076738857E+03  0.25500000920E-02 0.  1.
       -2    1    3    3    0  502  0.33577894094E+02  0.43422640444E+03 -0.17108173252E+04  0.17653826683E+04  0.25500000920E-02 0. -1.
</event>
<event>
 5   0  0.6724773E-03  0.8940252E+03  0.7818609E-02  0.9433081E-01
       -2   -1    0    0    0  501  0.00000000000E+00  0.00000000000E+00  0.57080932411E+03  0.57080932412E+03  0.25500000920E-02 0.  1.
        2   -1    0    0  501    0  0.00000000000E+00  0.00000000000E+00 -0.35006484792E+03  0.35006484793E+03  0.25500000920E-02 0. -1.
    10030    2    1    2    0    0  0.00000000000E+00  0.00000000000E+00  0.22074447619E+03  0.92087417205E+03  0.89402523285E+03 0.  0.
        5    1    3    3  502    0 -0.20686718794E+03  0.44244072812E+02 -0.29521255608E+03  0.36321359376E+03  0.46999998093E+01 0. -1.
       -5    1    3    3    0  502  0.20686718794E+03 -0.44244072812E+02  0.51595703227E+03  0.55766057829E+03  0.46999998093E+01 0.  1.
</event>
<event>
 5   0  0.3998066E-03  0.9203112E+03  0.7818609E-02  0.9400542E-01
       -1   -1    0    0    0  501  0.00000000000E+00  0.00000000000E+00  0.12445878752E+03  0.12445878762E+03  0.50400001928E-02 0. -1.
        1   -1    0    0  501    0  0.00000000000E+00  0.00000000000E+00 -0.17013114577E+04  0.17013114577E+04  0.50400001928E-02 0.  1.
    10030    2    1    2    0    0  0.00000000000E+00  0.00000000000E+00 -0.15768526702E+04  0.18257702453E+04  0.92031116762E+03 0.  0.
        4    1    3    3  502    0 -0.28896145814E+03 -0.20472402263E+03 -0.20552565243E+03  0.40945458409E+03  0.12699999809E+01 0. -1.
       -4    1    3    3    0  502  0.28896145814E+03  0.20472402263E+03 -0.13713270178E+04  0.14163156612E+04  0.12699999809E+01 0.  1.
</event>
<event>
 5   0  0.6863405E-03  0.8623039E+03  0.7818609E-02  0.9473970E-01
        2   -1    0    0  501    0  0.00000000000E+00  0.00000000000E+00  0.61727865691E+03  0.61727865691E+03  0.25500000920E-02 0. -1.
       -2   -1    0    0    0  501  0.00000000000E+00  0.00000000000E+00 -0.30114762892E+03  0.30114762893E+03  0.25500000920E-02 0.  1.
    10030    2    1    2    0    0  0.00000000000E+00  0.00000000000E+00  0.31613102799E+03  0.91842628584E+03  0.86230389983E+03 0.  0.
        1    1    3    3  502    0  0.34920348382E+02  0.38322618932E+03  0.36516965960E+03  0.53050035177E+03  0.50400001928E-02 0. -1.
       -1    1    3    3    0  502 -0.34920348382E+02 -0.38322618932E+03 -0.49038631611E+02  0.38792593407E+03  0.50400001928E-02 0.  1.
</event>
<event>
 5   0  0.3969536E-03  0.8996161E+03  0.7818609E-02  0.9426061E-01
        1   -1    0    0  501    0  0.00000000000E+00  0.00000000000E+00  0.41501795137E+03  0.41501795140E+03  0.50400001928E-02 0.  1.
       -1   -1    0    0    0  501  0.00000000000E+00  0.00000000000E+00 -0.48751449718E+03  0.48751449720E+03  0.50400001928E-02 0. -1.
    10030    2    1    2    0    0  0.00000000000E+00  0.00000000000E+00 -0.72496545804E+02  0.90253244861E+03  0.89961606902E+03 0.  0.
        1    1    3    3  502    0 -0.25117125724E+03 -0.21542390223E+03 -0.34192077256E+03  0.47581958015E+03  0.50400001928E-02 0. -1.
       -1    1    3    3    0  502  0.25117125724E+03  0.21542390223E+03  0.26942422676E+03  0.42671286846E+03  0.50400001928E-02 0.  1.
</event>
<event>
 5   0  0.3927993E-03  0.8974498E+03  0.7818609E-02  0.9428775E-01
        1   -1    0    0  501    0  0.00000000000E+00  0.00000000000E+00  0.43718314157E+03  0.43718314160E+03  0.50400001928E-02 0. -1.
       -1   -1    0    0    0  501  0.00000000000E+00  0.00000000000E+00 -0.46057139122E+03  0.46057139125E+03  0.50400001928E-02 0.  1.
    10030    2    1    2    0    0  0.00000000000E+00  0.00000000000E+00 -0.23388249656E+02  0.89775453285E+03  0.89744982647E+03 0.  0.
        2    1    3    3  502    0 -0.79661209152E+02  0.29400230164E+03  0.31791856239E+03  0.44029021558E+03  0.25500000920E-02 0. -1.
       -2    1    3    3    0  502  0.79661209152E+02 -0.29400230164E+03 -0.34130681205E+03  0.45746431727E+03  0.25500000920E-02 0.  1.
</event>
<event>
 5   0  0.3969536E-03  0.8955380E+03  0.7818609E-02  0.9431176E-01
        1   -1    0    0  501    0  0.00000000000E+00  0.00000000000E+00  0.11766670600E+04  0.11766670600E+04  0.50400001928E-02 0. -1.
       -1   -1    0    0    0  501  0.00000000000E+00  0.00000000000E+00 -0.17039405944E+03  0.17039405952E+03  0.50400001928E-02 0.  1.
    10030    2    1    2    0    0  0.00000000000E+00  0.00000000000E+00  0.10062730005E+04  0.13470611195E+04  0.89553799924E+03 0.  0.
        1    1    3    3  502    0 -0.21310307017E+03 -0.32208382174E+03  0.84398180120E+03  0.92814664117E+03  0.50400001928E-02 0. -1.
       -1    1    3    3    0  502  0.21310307017E+03  0.32208382174E+03  0.16229119932E+03  0.41891447832E+03  0.50400001928E-02 0.  1.
</event>
<event>
 5   0  0.3794006E-03  0.8600881E+03  0.7818609E-02  0.9476896E-01
        1   -1    0    0  501    0  0.00000000000E+00  0.00000000000E+00  0.14548420286E+04  0.14548420286E+04  0.50400001928E-02 0. -1.
       -1   -1    0    0    0  501  0.00000000000E+00  0.00000000000E+00 -0.12711888542E+03  0.12711888552E+03  0.50400001928E-02 0.  1.
    10030    2    1    2    0    0  0.00000000000E+00  0.00000000000E+00  0.13277231432E+04  0.15819609142E+04  0.86008812858E+03 0.  0.
        5    1    3    3  502    0  0.39540598169E+03  0.13506439147E+03  0.85077950291E+03  0.94785870929E+03  0.46999998093E+01 0. -1.
       -5    1    3    3    0  502 -0.39540598169E+03 -0.13506439147E+03  0.47694364029E+03  0.63410220487E+03  0.46999998093E+01 0.  1.
</event>
<event>
 5   0  0.3927993E-03  0.9463239E+03  0.7818609E-02  0.9369458E-01
        1   -1    0    0  501    0  0.00000000000E+00  0.00000000000E+00  0.71501414093E+03  0.71501414095E+03  0.50400001928E-02 0. -1.
       -1   -1    0    0    0  501  0.00000000000E+00  0.00000000000E+00 -0.31311582353E+03  0.31311582357E+03  0.50400001928E-02 0.  1.
    10030    2    1    2    0    0  0.00000000000E+00  0.00000000000E+00  0.40189831740E+03  0.10281299645E+04  0.94632392256E+03 0.  0.
        2    1    3    3  502    0 -0.13711285281E+03  0.37862279207E+03  0.47087601347E+03  0.61957999738E+03  0.25500000920E-02 0. -1.
       -2    1    3    3    0  502  0.13711285281E+03 -0.37862279207E+03 -0.68977696069E+02  0.40854996714E+03  0.25500000920E-02 0.  1.
</event>
<event>
 5   0  0.6863405E-03  0.9047681E+03  0.7818609E-02  0.9419641E-01
       -2   -1    0    0    0  501  0.00000000000E+00  0.00000000000E+00  0.30083652014E+03  0.30083652015E+03  0.25500000920E-02 0.  1.
        2   -1    0    0  501    0  0.00000000000E+00  0.00000000000E+00 -0.68027421573E+03  0.68027421573E+03  0.25500000920E-02 0. -1.
    10030    2    1    2    0    0  0.00000000000E+00  0.00000000000E+00 -0.37943769559E+03  0.98111073588E+03  0.90476809804E+03 0.  0.
        1    1    3    3  502    0  0.36172202519E+03  0.20669356280E+02  0.10402812274E+03  0.37695078743E+03  0.50400001928E-02 0.  1.
       -1    1    3    3    0  502 -0.36172202519E+03 -0.20669356280E+02 -0.48346581833E+03  0.60415994845E+03  0.50400001928E-02 0. -1.
</event>
<event>
 5   0  0.6524705E-03  0.9047632E+03  0.7818609E-02  0.9419647E-01
       -2   -1    0    0    0  501  0.00000000000E+00  0.00000000000E+00  0.23533622067E+03  0.23533622068E+03  0.25500000920E-02 0. -1.
        2   -1    0    0  501    0  0.00000000000E+00  0.00000000000E+00 -0.86960312594E+03  0.86960312595E+03  0.25500000920E-02 0.  1.
    10030    2    1    2    0    0  0.00000000000E+00  0.00000000000E+00 -0.63426690528E+03  0.11049393466E+04  0.90476320250E+03 0.  0.
        3    1    3    3  502    0 -0.37061395172E+03 -0.52802157401E+02 -0.69599531139E+01  0.37442118020E+03  0.10100000352E+00 0. -1.
       -3    1    3    3    0  502  0.37061395172E+03  0.52802157401E+02 -0.62730695216E+03  0.73051816642E+03  0.10100000352E+00 0.  1.
</event>
<event>
 5   0  0.3969536E-03  0.8997572E+03  0.7818609E-02  0.9425885E-01
        1   -1    0    0  501    0  0.00000000000E+00  0.00000000000E+00  0.96602300374E+03  0.96602300375E+03  0.50400001928E-02 0. -1.
       -1   -1    0    0    0  501  0.00000000000E+00  0.00000000000E+00 -0.20950927170E+03  0.20950927176E+03  0.50400001928E-02 0.  1.
    10030    2    1    2    0    0  0.00000000000E+00  0.00000000000E+00  0.75651373203E+03  0.11755322755E+04  0.89975724727E+03 0.  0.
        1    1    3    3  502    0 -0.42729935969E+03 -0.13832512233E+03  0.41213008192E+03  0.60956524401E+03  0.50400001928E-02 0.  1.
       -1    1    3    3    0  502  0.42729935969E+03  0.13832512233E+03  0.34438365012E+03  0.56596703151E+03  0.50400001928E-02 0. -1.
</event>
<event>
 5   0  0.3927993E-03  0.8949080E+03  0.7818609E-02  0.9431969E-01
       -1   -1    0    0    0  501  0.00000000000E+00  0.00000000000E+00  0.26086866185E+03  0.26086866190E+03  0.50400001928E-02 0.  1.
        1   -1    0    0  501    0  0.00000000000E+00  0.00000000000E+00 -0.76749387246E+03  0.76749387247E+03  0.50400001928E-02 0. -1.
    10030    2    1    2    0    0  0.00000000000E+00  0.00000000000E+00 -0.50662521061E+03  0.10283625344E+04  0.89490803889E+03 0.  0.
        2    1    3    3  502    0  0.80068545460E+01  0.74508709970E+02  0.25360646746E+03  0.26444639897E+03  0.25500000920E-02 0.  1.
       -2    1    3    3    0  502 -0.80068545460E+01 -0.74508709970E+02 -0.76023167807E+03  0.76391613540E+03  0.25500000920E-02 0. -1.
</event>
<event>
 5   0  0.2560250E-03  0.9108981E+03  0.7818609E-02  0.9412060E-01
       -3   -1    0    0    0  501  0.00000000000E+00  0.00000000000E+00  0.36077137790E+03  0.36077139204E+03  0.10100000352E+00 0.  1.
        3   -1    0    0  501    0  0.00000000000E+00  0.00000000000E+00 -0.57497304642E+03  0.57497305529E+03  0.10100000352E+00 0. -1.
    10030    2    1    2    0    0  0.00000000000E+00  0.00000000000E+00 -0.21420166852E+03  0.93574444733E+03  0.91089808207E+03 0.  0.
        3    1    3    3  502    0  0.37787419556E+03 -0.13441037522E+03  0.11460720564E+03  0.41712093980E+03  0.10100000352E+00 0. -1.
       -3    1    3    3    0  502 -0.37787419556E+03  0.13441037522E+03 -0.32880887416E+03  0.51862350753E+03  0.10100000352E+00 0.  1.
</event>
<event>
 5   0  0.3969536E-03  0.8998171E+03  0.7818609E-02  0.9425810E-01
        1   -1    0    0  501    0  0.00000000000E+00  0.00000000000E+00  0.10961991757E+04  0.10961991757E+04  0.50400001928E-02 0.  1.
       -1   -1    0    0    0  501  0.00000000000E+00  0.00000000000E+00 -0.18465414468E+03  0.18465414475E+03  0.50400001928E-02 0. -1.
    10030    2    1    2    0    0  0.00000000000E+00  0.00000000000E+00  0.91154503103E+03  0.12808533205E+04  0.89981713973E+03 0.  0.
        1    1    3    3  502    0  0.30526932276E+03 -0.28504113411E+03  0.69387740959E+03  0.80987879779E+03  0.50400001928E-02 0.  1.
       -1    1    3    3    0  502 -0.30526932276E+03  0.28504113411E+03  0.21766762144E+03  0.47097452267E+03  0.50400001928E-02 0. -1.
</event>
<event>
 5   0  0.3927993E-03  0.8985031E+03  0.7818609E-02  0.9427455E-01
       -1   -1    0    0    0  501  0.00000000000E+00  0.00000000000E+00  0.67819774216E+03  0.67819774218E+03  0.50400001928E-02 0.  1.
        1   -1    0    0  501    0  0.00000000000E+00  0.00000000000E+00 -0.29759306394E+03  0.29759306399E+03  0.50400001928E-02 0. -1.
    10030    2    1    2    0    0  0.00000000000E+00  0.00000000000E+00  0.38060467822E+03  0.97579080617E+03  0.89850307530E+03 0.  0.
        2    1    3    3  502    0  0.31053679724E+03 -0.25487073820E+03 -0.28078498179E+02  0.40271652275E+03  0.25500000920E-02 0. -1.
       -2    1    3    3    0  502 -0.31053679724E+03  0.25487073820E+03  0.40868317640E+03  0.57307428341E+03  0.25500000920E-02 0.  1.
</event>
<event>
 5   0  0.3943549E-03  0.9082644E+03  0.7818609E-02  0.9415309E-01
       -1   -1    0    0    0  501  0.00000000000E+00  0.00000000000E+00  0.46517694913E+03  0.46517694916E+03  0.50400001928E-02 0.  1.
        1   -1    0    0  501    0  0.00000000000E+00  0.00000000000E+00 -0.44334967925E+03  0.44334967928E+03  0.50400001928E-02 0. -1.
    10030    2    1    2    0    0  0.00000000000E+00  0.00000000000E+00  0.21827269878E+02  0.90852662844E+03  0.90826439150E+03 0.  0.
        3    1    3    3  502    0 -0.25951856714E+03  0.18348102660E+03 -0.31355768178E+03  0.44646792025E+03  0.10100000352E+00 0. -1.
       -3    1    3    3    0  502  0.25951856714E+03 -0.18348102660E+03  0.33538495165E+03  0.46205870819E+03  0.10100000352E+00 0.  1.
</event>
<event>
 5   0  0.6863405E-03  0.8896313E+03  0.7818609E-02  0.9438636E-01
       -2   -1    0    0    0  501  0.00000000000E+00  0.00000000000E+00  0.17056221717E+03  0.17056221719E+03  0.25500000920E-02 0. -1.
        2   -1    0    0  501    0  0.00000000000E+00  0.00000000000E+00 -0.11600514302E+04  0.11600514302E+04  0.25500000920E-02 0.  1.
    10030    2    1    2    0    0  0.00000000000E+00  0.00000000000E+00 -0.98948921308E+03  0.13306136474E+04  0.88963125841E+03 0.  0.
        1    1    3    3  502    0 -0.66242869577E+02 -0.15048960535E+03  0.12344051767E+03  0.20560350317E+03  0.50400001928E-02 0. -1.
       -1    1    3    3    0  502  0.66242869577E+02  0.15048960535E+03 -0.11129297307E+04  0.11250101443E+04  0.50400001928E-02 0.  1.
</event>
<event>
 5   0  0.3794006E-03  0.9038914E+03  0.7818609E-02  0.9420730E-01
       -1   -1    0    0    0  501  0.00000000000E+00  0.00000000000E+00  0.28967147129E+03  0.28967147133E+03  0.50400001928E-02 0. -1.
        1   -1    0    0  501    0  0.00000000000E+00  0.00000000000E+00 -0.70512607184E+03  0.70512607186E+03  0.50400001928E-02 0.  1.
    10030    2    1    2    0    0  0.00000000000E+00  0.00000000000E+00 -0.41545460055E+03  0.99479754319E+03  0.90389137999E+03 0.  0.
        5    1    3    3  502    0  0.54573772943E+02  0.10595384404E+03 -0.68749124228E+03  0.69776128580E+03  0.46999998093E+01 0.  1.
       -5    1    3    3    0  502 -0.54573772943E+02 -0.10595384404E+03  0.27203664173E+03  0.29703625739E+03  0.46999998093E+01 0. -1.
</event>
<event>
 5   0  0.6609191E-03  0.9180421E+03  0.7818609E-02  0.9403305E-01
        2   -1    0    0  501    0  0.00000000000E+00  0.00000000000E+00  0.23362100105E+03  0.23362100106E+03  0.25500000920E-02 0.  1.
       -2   -1    0    0    0  501  0.00000000000E+00  0.00000000000E+00 -0.90188943548E+03  0.90188943548E+03  0.25500000920E-02 0. -1.
    10030    2    1    2    0    0  0.00000000000E+00  0.00000000000E+00 -0.66826843443E+03  0.11355104365E+04  0.91804207477E+03 0.  0.
        2    1    3    3  502    0  0.17454341745E+03 -0.23550103018E+03 -0.77104312005E+03  0.82488401171E+03  0.25500000920E-02 0. -1.
       -2    1    3    3    0  502 -0.17454341745E+03  0.23550103018E+03  0.10277468562E+03  0.31062642484E+03  0.25500000920E-02 0.  1.
</event>
<event>
 5   0  0.3927993E-03  0.9014956E+03  0.7818609E-02  0.9423714E-01
        1   -1    0    0  501    0  0.00000000000E+00  0.00000000000E+00  0.55022008939E+03  0.55022008941E+03  0.50400001928E-02 0. -1.
       -1   -1    0    0    0  501  0.00000000000E+00  0.00000000000E+00 -0.36925872954E+03  0.36925872957E+03  0.50400001928E-02 0.  1.
    10030    2    1    2    0    0  0.00000000000E+00  0.00000000000E+00  0.18096135985E+03  0.91947881898E+03  0.90149558224E+03 0.  0.
        2    1    3    3  502    0  0.35178441124E+03  0.47784639246E+02 -0.19279683868E+03  0.40398795125E+03  0.25500000920E-02 0.  1.
       -2    1    3    3    0  502 -0.35178441124E+03 -0.47784639246E+02  0.37375819853E+03  0.51549086774E+03  0.25500000920E-02 0. -1.
</event>
<event>
 5   0  0.6524705E-03  0.9037579E+03  0.7818609E-02  0.9420896E-01
       -2   -1    0    0    0  501  0.00000000000E+00  0.00000000000E+00  0.15683880002E+03  0.15683880004E+03  0.25500000920E-02 0.  1.
        2   -1    0    0  501    0  0.00000000000E+00  0.00000000000E+00 -0.13019392331E+04  0.13019392331E+04  0.25500000920E-02 0. -1.
    10030    2    1    2    0    0  0.00000000000E+00  0.00000000000E+00 -0.11451004331E+04  0.14587780331E+04  0.90375790349E+03 0.  0.
        3    1    3    3  502    0  0.29542411771E+03 -0.22163500395E+03 -0.99283400795E+03  0.10593001755E+04  0.10100000352E+00 0.  1.
       -3    1    3    3    0  502 -0.29542411771E+03  0.22163500395E+03 -0.15226642512E+03  0.39947785761E+03  0.10100000352E+00 0. -1.
</event>
<event>
 5   0  0.3969536E-03  0.9095834E+03  0.7818609E-02  0.9413680E-01
        1   -1    0    0  501    0  0.00000000000E+00  0.00000000000E+00  0.74097173447E+03  0.74097173449E+03  0.50400001928E-02 0.  1.
       -1   -1    0    0    0  501  0.00000000000E+00  0.00000000000E+00 -0.27914087095E+03  0.27914087100E+03  0.50400001928E-02 0. -1.
    10030    2    1    2    0    0  0.00000000000E+00  0.00000000000E+00  0.46183086352E+03  0.10201126055E+04  0.90958341089E+03 0.  0.
        1    1    3    3  502    0 -0.86956087622E+02 -0.26875322767E+03 -0.16883211034E+03  0.32908044619E+03  0.50400001928E-02 0. -1.
       -1    1    3    3    0  502  0.86956087622E+02  0.26875322767E+03  0.63066297387E+03  0.69103215930E+03  0.50400001928E-02 0.  1.
</event>
<event>
 5   0  0.6524705E-03  0.8982254E+03  0.7818609E-02  0.9427802E-01
        2   -1    0    0  501    0  0.00000000000E+00  0.00000000000E+00  0.11870245655E+04  0.11870245655E+04  0.25500000920E-02 0. -1.
       -2   -1    0    0    0  501  0.00000000000E+00  0.00000000000E+00 -0.16992253693E+03  0.16992253695E+03  0.25500000920E-02 0.  1.
    10030    2    1    2    0    0  0.00000000000E+00  0.00000000000E+00  0.10171020286E+04  0.13569471024E+04  0.89822541843E+03 0.  0.
        3    1    3    3  502    0 -0.32521156674E+03  0.19616673178E+03  0.14642991226E+03  0.40704505796E+03  0.10100000352E+00 0. -1.
       -3    1    3    3    0  502  0.32521156674E+03 -0.19616673178E+03  0.87067211630E+03  0.94990204448E+03  0.10100000352E+00 0.  1.
</event>
<event>
 5   0  0.3943549E-03  0.9049833E+03  0.7818609E-02  0.9419373E-01
       -1   -1    0    0    0  501  0.00000000000E+00  0.00000000000E+00  0.19556839628E+03  0.19556839635E+03  0.50400001928E-02 0.  1.
        1   -1    0    0  501    0  0.00000000000E+00  0.00000000000E+00 -0.10469416022E+04  0.10469416022E+04  0.50400001928E-02 0. -1.
    10030    2    1    2    0    0  0.00000000000E+00  0.00000000000E+00 -0.85137320595E+03  0.12425099986E+04  0.90498329310E+03 0.  0.
        3    1    3    3  502    0 -0.34825392593E+02  0.90622941412E+02  0.18110060642E+03  0.20548178831E+03  0.10100000352E+00 0.  1.
       -3    1    3    3    0  502  0.34825392593E+02 -0.90622941412E+02 -0.10324738124E+04  0.10370282103E+04  0.10100000352E+00 0. -1.
</event>
<event>
 5   0  0.3794006E-03  0.8994471E+03  0.7818609E-02  0.9426273E-01
       -1   -1    0    0    0  501  0.00000000000E+00  0.00000000000E+00  0.37598710864E+03  0.37598710867E+03  0.50400001928E-02 0.  1.
        1   -1    0    0  501    0  0.00000000000E+00  0.00000000000E+00 -0.53792076895E+03  0.53792076897E+03  0.50400001928E-02 0. -1.
    10030    2    1    2    0    0  0.00000000000E+00  0.00000000000E+00 -0.16193366031E+03  0.91390787764E+03  0.89944710710E+03 0.  0.
        5    1    3    3  502    0 -0.20364363323E+03  0.19577006269E+03 -0.43649598253E+03  0.51994949712E+03  0.46999998093E+01 0. -1.
       -5    1    3    3    0  502  0.20364363323E+03 -0.19577006269E+03  0.27456232222E+03  0.39395838052E+03  0.46999998093E+01 0.  1.
</event>
<event>
 5   0  0.3943549E-03  0.9154201E+03  0.7818609E-02  0.9406508E-01
        1   -1    0    0  501    0  0.00000000000E+00  0.00000000000E+00  0.50245509317E+03  0.50245509320E+03  0.50400001928E-02 0.  1.
       -1   -1    0    0    0  501  0.00000000000E+00  0.00000000000E+00 -0.41694966666E+03  0.41694966669E+03  0.50400001928E-02 0. -1.
    10030    2    1    2    0    0  0.00000000000E+00  0.00000000000E+00  0.85505426514E+02  0.91940475989E+03  0.91542008638E+03 0.  0.
        3    1    3    3  502    0 -0.37788517437E+03 -0.10475321190E+03 -0.19434270824E+03  0.43765230361E+03  0.10100000352E+00 0. -1.
       -3    1    3    3    0  502  0.37788517437E+03  0.10475321190E+03  0.27984813475E+03  0.48175245628E+03  0.10100000352E+00 0.  1.
</event>
<event>
 5   0  0.6724773E-03  0.8997513E+03  0.7818609E-02  0.9425892E-01
       -2   -1    0    0    0  501  0.00000000000E+00  0.00000000000E+00  0.38827732313E+03  0.38827732314E+03  0.25500000920E-02 0. -1.
        2   -1    0    0  501    0  0.00000000000E+00  0.00000000000E+00 -0.52124629793E+03  0.52124629794E+03  0.25500000920E-02 0.  1.
    10030    2    1    2    0    0  0.00000000000E+00  0.00000000000E+00 -0.13296897480E+03  0.90952362108E+03  0.89975133734E+03 0.  0.
        5    1    3    3  502    0  0.15955125117E+02 -0.33835745252E+03  0.23274695146E+03  0.41101528573E+03  0.46999998093E+01 0. -1.
       -5    1    3    3    0  502 -0.15955125117E+02  0.33835745252E+03 -0.36571592626E+03  0.49850833535E+03  0.46999998093E+01 0.  1.
</event>
<event>
 5   0  0.6863405E-03  0.8967459E+03  0.7818609E-02  0.9429658E-01
        2   -1    0    0  501    0  0.00000000000E+00  0.00000000000E+00  0.13865496423E+04  0.13865496423E+04  0.25500000920E-02 0. -1.
       -2   -1    0    0    0  501  0.00000000000E+00  0.00000000000E+00 -0.14499176721E+03  0.14499176723E+03  0.25500000920E-02 0.  1.
    10030    2    1    2    0    0  0.00000000000E+00  0.00000000000E+00  0.12415578750E+04  0.15315414095E+04  0.89674585690E+03 0.  0.
        1    1    3    3  502    0  0.32253118590E+03 -0.24138728145E+01  0.88843571713E+02  0.33455249651E+03  0.50400001928E-02 0.  1.
       -1    1    3    3    0  502 -0.32253118590E+03  0.24138728145E+01  0.11527143033E+04  0.11969889130E+04  0.50400001928E-02 0. -1.
</event>
<event>
 5   0  0.6863405E-03  0.9014766E+03  0.7818609E-02  0.9423737E-01
        2   -1    0    0  501    0  0.00000000000E+00  0.00000000000E+00  0.13172690191E+04  0.13172690191E+04  0.25500000920E-02 0.  1.
       -2   -1    0    0    0  501  0.00000000000E+00  0.00000000000E+00 -0.15423200144E+03  0.15423200146E+03  0.25500000920E-02 0. -1.
    10030    2    1    2    0    0  0.00000000000E+00  0.00000000000E+00  0.11630370176E+04  0.14715010205E+04  0.90147664919E+03 0.  0.
        1    1    3    3  502    0  0.16237379147E+03 -0.25743131140E+03  0.38838244967E+02  0.30682981854E+03  0.50400001928E-02 0. -1.
       -1    1    3    3    0  502 -0.16237379147E+03  0.25743131140E+03  0.11241987727E+04  0.11646712020E+04  0.50400001928E-02 0.  1.
</event>
<event>
 5   0  0.3927993E-03  0.9078649E+03  0.7818609E-02  0.9415803E-01
       -1   -1    0    0    0  501  0.00000000000E+00  0.00000000000E+00  0.70445691847E+03  0.70445691849E+03  0.50400001928E-02 0.  1.
        1   -1    0    0  501    0  0.00000000000E+00  0.00000000000E+00 -0.29250144435E+03  0.29250144439E+03  0.50400001928E-02 0. -1.
    10030    2    1    2    0    0  0.00000000000E+00  0.00000000000E+00  0.41195547412E+03  0.99695836289E+03  0.90786489340E+03 0.  0.
        2    1    3    3  502    0 -0.11933662891E+03 -0.43230058477E+03  0.12887613861E+03  0.46661985137E+03  0.25500000920E-02 0. -1.
       -2    1    3    3    0  502  0.11933662891E+03  0.43230058477E+03  0.28307933552E+03  0.53033851151E+03  0.25500000920E-02 0.  1.
</event>
<event>
 5   0  0.2560250E-03  0.8973426E+03  0.7818609E-02  0.9428909E-01
        4   -1    0    0  501    0  0.00000000000E+00  0.00000000000E+00  0.10188708521E+04  0.10188716436E+04  0.12699999809E+01 0. -1.
       -4   -1    0    0    0  501  0.00000000000E+00  0.00000000000E+00 -0.19757456514E+03  0.19757864685E+03  0.12699999809E+01 0.  1.
    10030    2    1    2    0    0  0.00000000000E+00  0.00000000000E+00  0.82129628698E+03  0.12164502905E+04  0.89734258687E+03 0.  0.
        1    1    3    3  502    0 -0.35975147313E+03  0.14971610769E+02  0.77353938192E+03  0.85323411029E+03  0.50400001928E-02 0.  1.
       -1    1    3    3    0  502  0.35975147313E+03 -0.14971610769E+02  0.47756905056E+02  0.36321618019E+03  0.50400001928E-02 0. -1.
</event>
<event>
 5   0  0.6609191E-03  0.9020314E+03  0.7818609E-02  0.9423046E-01
        2   -1    0    0  501    0  0.00000000000E+00  0.00000000000E+00  0.82759626475E+03  0.82759626475E+03  0.25500000920E-02 0. -1.
       -2   -1    0    0    0  501  0.00000000000E+00  0.00000000000E+00 -0.24579035273E+03  0.24579035275E+03  0.25500000920E-02 0.  1.
    10030    2    1    2    0    0  0.00000000000E+00  0.00000000000E+00  0.58180591201E+03  0.10733866175E+04  0.90203143591E+03 0.  0.
        2    1    3    3  502    0 -0.57854898633E+02 -0.44390169252E+03  0.22551678515E+03  0.50125215442E+03  0.25500000920E-02 0.  1.
       -2    1    3    3    0  502  0.57854898633E+02  0.44390169252E+03  0.35628912686E+03  0.57213446308E+03  0.25500000920E-02 0. -1.
</event>
<event>
 5   0  0.3794006E-03  0.9053621E+03  0.7818609E-02  0.9418903E-01
        1   -1    0    0  501    0  0.00000000000E+00  0.00000000000E+00  0.26269801102E+03  0.26269801107E+03  0.50400001928E-02 0. -1.
       -1   -1    0    0    0  501  0.00000000000E+00  0.00000000000E+00 -0.78005962676E+03  0.78005962678E+03  0.50400001928E-02 0.  1.
    10030    2    1    2    0    0  0.00000000000E+00  0.00000000000E+00 -0.51736161574E+03  0.10427576378E+04  0.90536205457E+03 0.  0.
        5    1    3    3  502    0 -0.14658385744E+03  0.34821402027E+03  0.28470154060E+02  0.37890958136E+03  0.46999998093E+01 0. -1.
       -5    1    3    3    0  502  0.14658385744E+03 -0.34821402027E+03 -0.54583176980E+03  0.66384805649E+03  0.46999998093E+01 0.  1.
</event>
<event>
 5   0  0.3998066E-03  0.9130022E+03  0.7818609E-02  0.9409472E-01
       -1   -1    0    0    0  501  0.00000000000E+00  0.00000000000E+00  0.13428311451E+04  0.13428311451E+04  0.50400001928E-02 0. -1.
        1   -1    0    0  501    0  0.00000000000E+00  0.00000000000E+00 -0.15518948094E+03  0.15518948102E+03  0.50400001928E-02 0.  1.
    10030    2    1    2    0    0  0.00000000000E+00  0.00000000000E+00  0.11876416641E+04  0.14980206261E+04  0.91300223102E+03 0.  0.
        4    1    3    3  502    0  0.40981809585E+03 -0.20109892283E+03  0.59368241500E+03  0.74890057499E+03  0.12699999809E+01 0.  1.
       -4    1    3    3    0  502 -0.40981809585E+03  0.20109892283E+03  0.59395924912E+03  0.74912005110E+03  0.12699999809E+01 0. -1.
</event>
<event>
 5   0  0.3943549E-03  0.9032795E+03  0.7818609E-02  0.9421491E-01
        1   -1    0    0  501    0  0.00000000000E+00  0.00000000000E+00  0.57637003932E+03  0.57637003934E+03  0.50400001928E-02 0.  1.
       -1   -1    0    0    0  501  0.00000000000E+00  0.00000000000E+00 -0.35390191292E+03  0.35390191295E+03  0.50400001928E-02 0. -1.
    10030    2    1    2    0    0  0.00000000000E+00  0.00000000000E+00  0.22246812640E+03  0.93027195230E+03  0.90327949050E+03 0.  0.
        3    1    3    3  502    0 -0.12320338990E+03  0.25292197270E+03  0.47510469228E+03  0.55215312947E+03  0.10100000352E+00 0.  1.
       -3    1    3    3    0  502  0.12320338990E+03 -0.25292197270E+03 -0.25263656588E+03  0.37811882282E+03  0.10100000352E+00 0. -1.
</event>
<event>
 5   0  0.3794006E-03  0.9011010E+03  0.7818609E-02  0.9424206E-01
        1   -1    0    0  501    0  0.00000000000E+00  0.00000000000E+00  0.12681875009E+04  0.12681875009E+04  0.50400001928E-02 0. -1.
       -1   -1    0    0    0  501  0.00000000000E+00  0.00000000000E+00 -0.16006762468E+03  0.16006762476E+03  0.50400001928E-02 0.  1.
    10030    2    1    2    0    0  0.00000000000E+00  0.00000000000E+00  0.11081198762E+04  0.14282551256E+04  0.90110101760E+03 0.  0.
        5    1    3    3  502    0 -0.11672510232E+03  0.16448468751E+03 -0.84472778261E+02  0.21871831703E+03  0.46999998093E+01 0.  1.
       -5    1    3    3    0  502  0.11672510232E+03 -0.16448468751E+03  0.11925926545E+04  0.12095368086E+04  0.46999998093E+01 0. -1.
</event>
<event>
 5   0  0.6609191E-03  0.9020541E+03  0.7818609E-02  0.9423017E-01
        2   -1    0    0  501    0  0.00000000000E+00  0.00000000000E+00  0.29923115496E+04  0.29923115496E+04  0.25500000920E-02 0. -1.
       -2   -1    0    0    0  501  0.00000000000E+00  0.00000000000E+00 -0.67982688532E+02  0.67982688580E+02  0.25500000920E-02 0.  1.
    10030    2    1    2    0    0  0.00000000000E+00  0.00000000000E+00  0.29243288610E+04  0.30602942382E+04  0.90205406521E+03 0.  0.
        2    1    3    3  502    0 -0.30552533788E+03 -0.27856283942E+02  0.25837902744E+04  0.26019404079E+04  0.25500000920E-02 0. -1.
       -2    1    3    3    0  502  0.30552533788E+03  0.27856283942E+02  0.34053858669E+03  0.45835383021E+03  0.25500000920E-02 0.  1.
</event>
<event>
 5   0  0.6609191E-03  0.8918712E+03  0.7818609E-02  0.9435800E-01
        2   -1    0    0  501    0  0.00000000000E+00  0.00000000000E+00  0.88371002837E+03  0.88371002837E+03  0.25500000920E-02 0.  1.
       -2   -1    0    0    0  501  0.00000000000E+00  0.00000000000E+00 -0.22502696038E+03  0.22502696039E+03  0.25500000920E-02 0. -1.
    10030    2    1    2    0    0  0.00000000000E+00  0.00000000000E+00  0.65868306799E+03  0.11087369888E+04  0.89187124978E+03 0.  0.
        2    1    3    3  502    0 -0.31163642645E+03 -0.20616139823E+03  0.26769010230E+02  0.37461495476E+03  0.25500000920E-02 0. -1.
       -2    1    3    3    0  502  0.31163642645E+03  0.20616139823E+03  0.63191405776E+03  0.73412203401E+03  0.25500000920E-02 0.  1.
</event>
<event>
 5   0  0.3998066E-03  0.9005927E+03  0.7818609E-02  0.9424841E-01
        1   -1    0    0  501    0  0.00000000000E+00  0.00000000000E+00  0.27215976596E+04  0.27215976596E+04  0.50400001928E-02 0.  1.
       -1   -1    0    0    0  501  0.00000000000E+00  0.00000000000E+00 -0.74502852840E+02  0.74502853011E+02  0.50400001928E-02 0. -1.
    10030    2    1    2    0    0  0.00000000000E+00  0.00000000000E+00  0.26470948068E+04  0.27961005126E+04  0.90059267190E+03 0.  0.
        4    1    3    3  502    0  0.35812575829E+03 -0.15702738741E+03  0.63032550054E+03  0.74177052292E+03  0.12699999809E+01 0. -1.
       -4    1    3    3    0  502 -0.35812575829E+03  0.15702738741E+03  0.20167693063E+04  0.20543299897E+04  0.12699999809E+01 0.  1.
</event>
<event>
 5   0  0.3969536E-03  0.9020660E+03  0.7818609E-02  0.9423003E-01
        1   -1    0    0  501    0  0.00000000000E+00  0.00000000000E+00  0.11105892402E+04  0.11105892402E+04  0.50400001928E-02 0. -1.
       -1   -1    0    0    0  501  0.00000000000E+00  0.00000000000E+00 -0.18317370744E+03  0.18317370751E+03  0.50400001928E-02 0.  1.
    10030    2    1    2    0    0  0.00000000000E+00  0.00000000000E+00  0.92741553272E+03  0.12937629477E+04  0.90206595904E+03 0.  0.
        1    1    3    3  502    0 -0.24083026467E+03  0.54709021637E+01 -0.83183527492E+02  0.25485024313E+03  0.50400001928E-02 0.  1.
       -1    1    3    3    0  502  0.24083026467E+03 -0.54709021637E+01  0.10105990602E+04  0.10389127046E+04  0.50400001928E-02 0. -1.
</event>
<event>
 5   0  0.3969536E-03  0.8999324E+03  0.7818609E-02  0.9425666E-01
        1   -1    0    0  501    0  0.00000000000E+00  0.00000000000E+00  0.66911595573E+03  0.66911595575E+03  0.50400001928E-02 0.  1.
       -1   -1    0    0    0  501  0.00000000000E+00  0.00000000000E+00 -0.30259264307E+03  0.30259264312E+03  0.50400001928E-02 0. -1.
    10030    2    1    2    0    0  0.00000000000E+00  0.00000000000E+00  0.36652331266E+03  0.97170859887E+03  0.89993236545E+03 0.  0.
        1    1    3    3  502    0 -0.39453592353E+03 -0.17543289657E+03  0.31998754757E+03  0.53742657804E+03  0.50400001928E-02 0. -1.
       -1    1    3    3    0  502  0.39453592353E+03  0.17543289657E+03  0.46535765090E+02  0.43428202083E+03  0.50400001928E-02 0.  1.
</event>
<event>
 5   0  0.2560250E-03  0.9043588E+03  0.7818609E-02  0.9420149E-01
        3   -1    0    0  501    0  0.00000000000E+00  0.00000000000E+00  0.13365920743E+04  0.13365920781E+04  0.10100000352E+00 0. -1.
       -3   -1    0    0    0  501  0.00000000000E+00  0.00000000000E+00 -0.15297577184E+03  0.15297580518E+03  0.10100000352E+00 0.  1.
    10030    2    1    2    0    0  0.00000000000E+00  0.00000000000E+00  0.11836163024E+04  0.14895678833E+04  0.90435884885E+03 0.  0.
        3    1    3    3  502    0 -0.34659839568E+03  0.28399982908E+03  0.69172432544E+03  0.82417771349E+03  0.10100000352E+00 0. -1.
       -3    1    3    3    0  502  0.34659839568E+03 -0.28399982908E+03  0.49189197698E+03  0.66539016977E+03  0.10100000352E+00 0.  1.
</event>
<event>
 5   0  0.3794006E-03  0.8720547E+03  0.7818609E-02  0.9461205E-01
        1   -1    0    0  501    0  0.00000000000E+00  0.00000000000E+00  0.42775467457E+03  0.42775467460E+03  0.50400001928E-02 0. -1.
       -1   -1    0    0    0  501  0.00000000000E+00  0.00000000000E+00 -0.44446005409E+03  0.44446005412E+03  0.50400001928E-02 0.  1.
    10030    2    1    2    0    0  0.00000000000E+00  0.00000000000E+00 -0.16705379517E+02  0.87221472872E+03  0.87205473641E+03 0.  0.
        5    1    3    3  502    0  0.85142987571E+00  0.26489096278E+03 -0.35472508883E+03  0.44274137568E+03  0.46999998093E+01 0.  1.
       -5    1    3    3    0  502 -0.85142987571E+00 -0.26489096278E+03  0.33801970931E+03  0.42947335304E+03  0.46999998093E+01 0. -1.
</event>
<event>
 5   0  0.6863405E-03  0.9016451E+03  0.7818609E-02  0.9423527E-01
        2   -1    0    0  501    0  0.00000000000E+00  0.00000000000E+00  0.69621709563E+03  0.69621709564E+03  0.25500000920E-02 0. -1.
       -2   -1    0    0    0  501  0.00000000000E+00  0.00000000000E+00 -0.29192184188E+03  0.29192184189E+03  0.25500000920E-02 0.  1.
    10030    2    1    2    0    0  0.00000000000E+00  0.00000000000E+00  0.40429525376E+03  0.98813893753E+03  0.90164511181E+03 0.  0.
        1    1    3    3  502    0  0.98940565079E+02 -0.13367789895E+03  0.66136924842E+03  0.68195916217E+03  0.50400001928E-02 0. -1.
       -1    1    3    3    0  502 -0.98940565079E+02  0.13367789895E+03 -0.25707399466E+03  0.30617977536E+03  0.50400001928E-02 0.  1.
</event>
<event>
 5   0  0.6524705E-03  0.9028513E+03  0.7818609E-02  0.9422024E-01
        2   -1    0    0  501    0  0.00000000000E+00  0.00000000000E+00  0.20889555765E+04  0.20889555765E+04  0.25500000920E-02 0.  1.
       -2   -1    0    0    0  501  0.00000000000E+00  0.00000000000E+00 -0.97553592045E+02  0.97553592078E+02  0.25500000920E-02 0. -1.
    10030    2    1    2    0    0  0.00000000000E+00  0.00000000000E+00  0.19914019845E+04  0.21865091686E+04  0.90285130592E+03 0.  0.
        3    1    3    3  502    0 -0.53746001742E+02  0.16667704169E+03  0.20033347866E+04  0.20109749244E+04  0.10100000352E+00 0.  1.
       -3    1    3    3    0  502  0.53746001742E+02 -0.16667704169E+03 -0.11932802156E+02  0.17553424423E+03  0.10100000352E+00 0. -1.
</event>
<event>
 5   0  0.6863405E-03  0.9053633E+03  0.7818609E-02  0.9418902E-01
        2   -1    0    0  501    0  0.00000000000E+00  0.00000000000E+00  0.87342639290E+03  0.87342639290E+03  0.25500000920E-02 0. -1.
       -2   -1    0    0    0  501  0.00000000000E+00  0.00000000000E+00 -0.23461698934E+03  0.23461698935E+03  0.25500000920E-02 0.  1.
    10030    2    1    2    0    0  0.00000000000E+00  0.00000000000E+00  0.63880940356E+03  0.11080433823E+04  0.90536328779E+03 0.  0.
        1    1    3    3  502    0  0.21421512922E+03  0.26476210518E+03  0.68438276641E+03  0.76443892164E+03  0.50400001928E-02 0. -1.
       -1    1    3    3    0  502 -0.21421512922E+03 -0.26476210518E+03 -0.45573362853E+02  0.34360446061E+03  0.50400001928E-02 0.  1.
</event>
<event>
 5   0  0.6524705E-03  0.8933573E+03  0.7818609E-02  0.9433923E-01
        2   -1    0    0  501    0  0.00000000000E+00  0.00000000000E+00  0.26579245091E+03  0.26579245093E+03  0.25500000920E-02 0. -1.
       -2   -1    0    0    0  501  0.00000000000E+00  0.00000000000E+00 -0.75066768877E+03  0.75066768877E+03  0.25500000920E-02 0.  1.
    10030    2    1    2    0    0  0.00000000000E+00  0.00000000000E+00 -0.48487523785E+03  0.10164601397E+04  0.89335727417E+03 0.  0.
        3    1    3    3  502    0  0.83241756914E+02 -0.30631996160E+02  0.25567144181E+03  0.27062040876E+03  0.10100000352E+00 0. -1.
       -3    1    3    3    0  502 -0.83241756914E+02  0.30631996160E+02 -0.74054667966E+03  0.74583973093E+03  0.10100000352E+00 0.  1.
</event>
<event>
 5   0  0.6724773E-03  0.8021597E+03  0.7818609E-02  0.9556896E-01
        2   -1    0    0  501    0  0.00000000000E+00  0.00000000000E+00  0.19053235105E+03  0.19053235107E+03  0.25500000920E-02 0.  1.
       -2   -1    0    0    0  501  0.00000000000E+00  0.00000000000E+00 -0.84429254221E+03  0.84429254221E+03  0.25500000920E-02 0. -1.
    10030    2    1    2    0    0  0.00000000000E+00  0.00000000000E+00 -0.65376019115E+03  0.10348248933E+04  0.80215969247E+03 0.  0.
        5    1    3    3  502    0  0.19369070897E+03 -0.22192664493E+03  0.24229834649E+02  0.29559550293E+03  0.46999998093E+01 0.  1.
       -5    1    3    3    0  502 -0.19369070897E+03  0.22192664493E+03 -0.67799002580E+03  0.73922939035E+03  0.46999998093E+01 0. -1.
</event>
<event>
 5   0  0.2560250E-03  0.8981275E+03  0.7818609E-02  0.9427925E-01
       -4   -1    0    0    0  501  0.00000000000E+00  0.00000000000E+00  0.23412425555E+03  0.23412770006E+03  0.12699999809E+01 0.  1.
        4   -1    0    0  501    0  0.00000000000E+00  0.00000000000E+00 -0.86131984847E+03  0.86132078476E+03  0.12699999809E+01 0. -1.
    10030    2    1    2    0    0  0.00000000000E+00  0.00000000000E+00 -0.62719559292E+03  0.10954484848E+04  0.89812753612E+03 0.  0.
        1    1    3    3  502    0  0.20587729353E+03 -0.10274563414E+03 -0.78396063547E+03  0.81702901008E+03  0.50400001928E-02 0. -1.
       -1    1    3    3    0  502 -0.20587729353E+03  0.10274563414E+03  0.15676504255E+03  0.27841947474E+03  0.50400001928E-02 0.  1.
</event>
<event>
 5   0  0.3943549E-03  0.8871645E+03  0.7818609E-02  0.9441770E-01
       -1   -1    0    0    0  501  0.00000000000E+00  0.00000000000E+00  0.45147288006E+03  0.45147288009E+03  0.50400001928E-02 0.  1.
        1   -1    0    0  501    0  0.00000000000E+00  0.00000000000E+00 -0.43582948299E+03  0.43582948302E+03  0.50400001928E-02 0. -1.
    10030    2    1    2    0    0  0.00000000000E+00  0.00000000000E+00  0.15643397066E+02  0.88730236311E+03  0.88716445359E+03 0.  0.
        3    1    3    3  502    0 -0.18484360730E+03  0.27627059895E+03 -0.28594590165E+03  0.43847197387E+03  0.10100000352E+00 0. -1.
       -3    1    3    3    0  502  0.18484360730E+03 -0.27627059895E+03  0.30158929871E+03  0.44883038924E+03  0.10100000352E+00 0.  1.
</event>
<event>
 5   0  0.6863405E-03  0.9043406E+03  0.7818609E-02  0.9420172E-01
        2   -1    0    0  501    0  0.00000000000E+00  0.00000000000E+00  0.50396237717E+03  0.50396237717E+03  0.25500000920E-02 0.  1.
       -2   -1    0    0    0  501  0.00000000000E+00  0.00000000000E+00 -0.40570085905E+03  0.40570085906E+03  0.25500000920E-02 0. -1.
    10030    2    1    2    0    0  0.00000000000E+00  0.00000000000E+00  0.98261518115E+02  0.90966323623E+03  0.90434057601E+03 0.  0.
        1    1    3    3  502    0  0.66877323622E+02  0.15674574260E+03 -0.37216145418E+03  0.40932377434E+03  0.50400001928E-02 0. -1.
       -1    1    3    3    0  502 -0.66877323622E+02 -0.15674574260E+03  0.47042297229E+03  0.50033946189E+03  0.50400001928E-02 0.  1.
</event>
<event>
 5   0  0.3943549E-03  0.9059253E+03  0.7818609E-02  0.9418205E-01
       -1   -1    0    0    0  501  0.00000000000E+00  0.00000000000E+00  0.92449584042E+03  0.92449584044E+03  0.50400001928E-02 0.  1.
        1   -1    0    0  501    0  0.00000000000E+00  0.00000000000E+00 -0.22193193532E+03  0.22193193538E+03  0.50400001928E-02 0. -1.
    10030    2    1    2    0    0  0.00000000000E+00  0.00000000000E+00  0.70256390510E+03  0.11464277758E+04  0.90592527528E+03 0.  0.
        3    1    3    3  502    0  0.20482615462E+03  0.39133667708E+03  0.47831589889E+03  0.65106394292E+03  0.10100000352E+00 0.  1.
       -3    1    3    3    0  502 -0.20482615462E+03 -0.39133667708E+03  0.22424800622E+03  0.49536383289E+03  0.10100000352E+00 0. -1.
</event>
<event>
 5   0  0.3927993E-03  0.8945318E+03  0.7818609E-02  0.9432443E-01
        1   -1    0    0  501    0  0.00000000000E+00  0.00000000000E+00  0.13934453497E+04  0.13934453497E+04  0.50400001928E-02 0.  1.
       -1   -1    0    0    0  501  0.00000000000E+00  0.00000000000E+00 -0.14356272013E+03  0.14356272022E+03  0.50400001928E-02 0. -1.
    10030    2    1    2    0    0  0.00000000000E+00  0.00000000000E+00  0.12498826295E+04  0.15370080699E+04  0.89453184364E+03 0.  0.
        2    1    3    3  502    0 -0.20846693616E+03  0.30004150163E+02  0.13029075123E+04  0.13198207068E+04  0.25500000920E-02 0.  1.
       -2    1    3    3    0  502  0.20846693616E+03 -0.30004150163E+02 -0.53024882737E+02  0.21718736311E+03  0.25500000920E-02 0. -1.
</event>
<event>
 5   0  0.3998066E-03  0.8976541E+03  0.7818609E-02  0.9428519E-01
       -1   -1    0    0    0  501  0.00000000000E+00  0.00000000000E+00  0.54856008932E+03  0.54856008935E+03  0.50400001928E-02 0.  1.
        1   -1    0    0  501    0  0.00000000000E+00  0.00000000000E+00 -0.36722638362E+03  0.36722638366E+03  0.50400001928E-02 0. -1.
    10030    2    1    2    0    0  0.00000000000E+00  0.00000000000E+00  0.18133370570E+03  0.91578647301E+03  0.89765413792E+03 0.  0.
        4    1    3    3  502    0  0.34178838501E+03  0.20643935067E+02  0.38669823874E+03  0.51651003178E+03  0.12699999809E+01 0.  1.
       -4    1    3    3    0  502 -0.34178838501E+03 -0.20643935067E+02 -0.20536453304E+03  0.39927644122E+03  0.12699999809E+01 0. -1.
</event>
<event>
 5   0  0.6534628E-03  0.8897043E+03  0.7818609E-02  0.9438544E-01
       -2   -1    0    0    0  501  0.00000000000E+00  0.00000000000E+00  0.37342393747E+03  0.37342393748E+03  0.25500000920E-02 0. -1.
        2   -1    0    0  501    0  0.00000000000E+00  0.00000000000E+00 -0.52994308559E+03  0.52994308560E+03  0.25500000920E-02 0.  1.
    10030    2    1    2    0    0  0.00000000000E+00  0.00000000000E+00 -0.15651914812E+03  0.90336702307E+03  0.88970429618E+03 0.  0.
        4    1    3    3  502    0 -0.36330468499E+03  0.82141988296E+02 -0.32521092861E+03  0.49447078919E+03  0.12699999809E+01 0.  1.
       -4    1    3    3    0  502  0.36330468499E+03 -0.82141988296E+02  0.16869178049E+03  0.40889623388E+03  0.12699999809E+01 0. -1.
</event>
<event>
 5   0  0.3794006E-03  0.8942336E+03  0.7818609E-02  0.9432819E-01
       -1   -1    0    0    0  501  0.00000000000E+00  0.00000000000E+00  0.17264614816E+03  0.17264614823E+03  0.50400001928E-02 0.  1.
        1   -1    0    0  501    0  0.00000000000E+00  0.00000000000E+00 -0.11579374254E+04  0.11579374254E+04  0.50400001928E-02 0. -1.
    10030    2    1    2    0    0  0.00000000000E+00  0.00000000000E+00 -0.98529127728E+03  0.13305835737E+04  0.89423360787E+03 0.  0.
        5    1    3    3  502    0  0.42629705946E+03  0.13472654892E+03 -0.49756277117E+03  0.66893290183E+03  0.46999998093E+01 0. -1.
       -5    1    3    3    0  502 -0.42629705946E+03 -0.13472654892E+03 -0.48772850611E+03  0.66165067185E+03  0.46999998093E+01 0.  1.
</event>
<event>
 5   0  0.3794006E-03  0.8958413E+03  0.7818609E-02  0.9430795E-01
       -1   -1    0    0    0  501  0.00000000000E+00  0.00000000000E+00  0.29844516215E+03  0.29844516220E+03  0.50400001928E-02 0.  1.
        1   -1    0    0  501    0  0.00000000000E+00  0.00000000000E+00 -0.67226055115E+03  0.67226055116E+03  0.50400001928E-02 0. -1.
    10030    2    1    2    0    0  0.00000000000E+00  0.00000000000E+00 -0.37381538899E+03  0.97070571336E+03  0.89584130118E+03 0.  0.
        5    1    3    3  502    0 -0.50483225936E+02  0.27095741073E+03 -0.56946173578E+03  0.63267308544E+03  0.46999998093E+01 0. -1.
       -5    1    3    3    0  502  0.50483225936E+02 -0.27095741073E+03  0.19564634678E+03  0.33803262792E+03  0.46999998093E+01 0.  1.
</event>
<event>
 5   0  0.3794006E-03  0.9004298E+03  0.7818609E-02  0.9425044E-01
        1   -1    0    0  501    0  0.00000000000E+00  0.00000000000E+00  0.35678252980E+03  0.35678252984E+03  0.50400001928E-02 0. -1.
       -1   -1    0    0    0  501  0.00000000000E+00  0.00000000000E+00 -0.56811489924E+03  0.56811489926E+03  0.50400001928E-02 0.  1.
    10030    2    1    2    0    0  0.00000000000E+00  0.00000000000E+00 -0.21133236944E+03  0.92489742910E+03  0.90042983290E+03 0.  0.
        5    1    3    3  502    0 -0.30311291958E+03  0.22752786952E+03  0.14388619891E+03  0.40542780080E+03  0.46999998093E+01 0. -1.
       -5    1    3    3    0  502  0.30311291958E+03 -0.22752786952E+03 -0.35521856835E+03  0.51946962830E+03  0.46999998093E+01 0.  1.
</event>
<event>
 5   0  0.6724773E-03  0.8979532E+03  0.7818609E-02  0.9428144E-01
        2   -1    0    0  501    0  0.00000000000E+00  0.00000000000E+00  0.27055423586E+03  0.27055423587E+03  0.25500000920E-02 0.  1.
       -2   -1    0    0    0  501  0.00000000000E+00  0.00000000000E+00 -0.74506319149E+03  0.74506319149E+03  0.25500000920E-02 0. -1.
    10030    2    1    2    0    0  0.00000000000E+00  0.00000000000E+00 -0.47450895563E+03  0.10156174274E+04  0.89795323364E+03 0.  0.
        5    1    3    3  502    0  0.22028120029E+02  0.44588726261E+03 -0.29099027541E+03  0.53291473935E+03  0.46999998093E+01 0. -1.
       -5    1    3    3    0  502 -0.22028120029E+02 -0.44588726261E+03 -0.18351868022E+03  0.48270268802E+03  0.46999998093E+01 0.  1.
</event>
<event>
 5   0  0.6863405E-03  0.8899883E+03  0.7818609E-02  0.9438184E-01
        2   -1    0    0  501    0  0.00000000000E+00  0.00000000000E+00  0.17338207969E+04  0.17338207969E+04  0.25500000920E-02 0. -1.
       -2   -1    0    0    0  501  0.00000000000E+00  0.00000000000E+00 -0.11421005683E+03  0.11421005686E+03  0.25500000920E-02 0.  1.
    10030    2    1    2    0    0  0.00000000000E+00  0.00000000000E+00  0.16196107401E+04  0.18480308538E+04  0.88998825112E+03 0.  0.
        1    1    3    3  502    0  0.79826830661E+02  0.43378487257E+03  0.68734430023E+03  0.81669077725E+03  0.50400001928E-02 0. -1.
       -1    1    3    3    0  502 -0.79826830661E+02 -0.43378487257E+03  0.93226643985E+03  0.10313400765E+04  0.50400001928E-02 0.  1.
</event>
<event>
 5   0  0.3927993E-03  0.9020159E+03  0.7818609E-02  0.9423065E-01
       -1   -1    0    0    0  501  0.00000000000E+00  0.00000000000E+00  0.26278867206E+03  0.26278867211E+03  0.50400001928E-02 0.  1.
        1   -1    0    0  501    0  0.00000000000E+00  0.00000000000E+00 -0.77403703467E+03  0.77403703469E+03  0.50400001928E-02 0. -1.
    10030    2    1    2    0    0  0.00000000000E+00  0.00000000000E+00 -0.51124836261E+03  0.10368257068E+04  0.90201588567E+03 0.  0.
        2    1    3    3  502    0 -0.28669909042E+03 -0.14728411237E+03  0.10699016184E+03  0.33961135573E+03  0.25500000920E-02 0. -1.
       -2    1    3    3    0  502  0.28669909042E+03  0.14728411237E+03 -0.61823852445E+03  0.69721435106E+03  0.25500000920E-02 0.  1.
</event>
<event>
 5   0  0.2560250E-03  0.8930520E+03  0.7818609E-02  0.9434309E-01
       -4   -1    0    0    0  501  0.00000000000E+00  0.00000000000E+00  0.99771452371E+03  0.99771533200E+03  0.12699999809E+01 0. -1.
        4   -1    0    0  501    0  0.00000000000E+00  0.00000000000E+00 -0.19983930465E+03  0.19984334010E+03  0.12699999809E+01 0.  1.
    10030    2    1    2    0    0  0.00000000000E+00  0.00000000000E+00  0.79787521906E+03  0.11975586721E+04  0.89305201861E+03 0.  0.
        4    1    3    3  502    0 -0.27283400068E+03  0.20686839501E+02  0.87212731382E+03  0.91404266950E+03  0.12699999809E+01 0. -1.
       -4    1    3    3    0  502  0.27283400068E+03 -0.20686839501E+02 -0.74252094766E+02  0.28351600260E+03  0.12699999809E+01 0.  1.
</event>
<event>
 5   0  0.6863405E-03  0.8289414E+03  0.7818609E-02  0.9519045E-01
        2   -1    0    0  501    0  0.00000000000E+00  0.00000000000E+00  0.12980477836E+04  0.12980477836E+04  0.25500000920E-02 0. -1.
       -2   -1    0    0    0  501  0.00000000000E+00  0.00000000000E+00 -0.13234177630E+03  0.13234177632E+03  0.25500000920E-02 0.  1.
    10030    2    1    2    0    0  0.00000000000E+00  0.00000000000E+00  0.11657060073E+04  0.14303895599E+04  0.82894137167E+03 0.  0.
        1    1    3    3  502    0  0.22894862319E+03  0.24360592715E+03  0.16009166868E+03  0.37066246399E+03  0.50400001928E-02 0. -1.
       -1    1    3    3    0  502 -0.22894862319E+03 -0.24360592715E+03  0.10056143386E+04  0.10597270959E+04  0.50400001928E-02 0.  1.
</event>
<event>
 5   0  0.2560250E-03  0.8943629E+03  0.7818609E-02  0.9432656E-01
       -3   -1    0    0    0  501  0.00000000000E+00  0.00000000000E+00  0.32022941591E+03  0.32022943183E+03  0.10100000352E+00 0.  1.
        3   -1    0    0  501    0  0.00000000000E+00  0.00000000000E+00 -0.62446249002E+03  0.62446249819E+03  0.10100000352E+00 0. -1.
    10030    2    1    2    0    0  0.00000000000E+00  0.00000000000E+00 -0.30423307412E+03  0.94469193002E+03  0.89436294605E+03 0.  0.
        1    1    3    3  502    0  0.18623806072E+03  0.16813096204E+03 -0.54310705435E+03  0.59826240745E+03  0.50400001928E-02 0. -1.
       -1    1    3    3    0  502 -0.18623806072E+03 -0.16813096204E+03  0.23887398023E+03  0.34642952258E+03  0.50400001928E-02 0.  1.
</event>
<event>
 5   0  0.6863405E-03  0.9034178E+03  0.7818609E-02  0.9421319E-01
       -2   -1    0    0    0  501  0.00000000000E+00  0.00000000000E+00  0.26914787580E+03  0.26914787581E+03  0.25500000920E-02 0. -1.
        2   -1    0    0  501    0  0.00000000000E+00  0.00000000000E+00 -0.75809968510E+03  0.75809968510E+03  0.25500000920E-02 0.  1.
    10030    2    1    2    0    0  0.00000000000E+00  0.00000000000E+00 -0.48895180930E+03  0.10272475609E+04  0.90341777689E+03 0.  0.
        1    1    3    3  502    0  0.22436064598E+03 -0.32680203895E+03  0.17817826017E+01  0.39640944351E+03  0.50400001928E-02 0. -1.
       -1    1    3    3    0  502 -0.22436064598E+03  0.32680203895E+03 -0.49073359190E+03  0.63083811741E+03  0.50400001928E-02 0.  1.
</event>
<event>
 5   0  0.6524705E-03  0.9028964E+03  0.7818609E-02  0.9421968E-01
       -2   -1    0    0    0  501  0.00000000000E+00  0.00000000000E+00  0.43799220197E+03  0.43799220198E+03  0.25500000920E-02 0. -1.
        2   -1    0    0  501    0  0.00000000000E+00  0.00000000000E+00 -0.46531758447E+03  0.46531758448E+03  0.25500000920E-02 0.  1.
    10030    2    1    2    0    0  0.00000000000E+00  0.00000000000E+00 -0.27325382505E+02  0.90330978646E+03  0.90289639150E+03 0.  0.
        3    1    3    3  502    0 -0.20631031371E+03 -0.35435218279E+03 -0.20263021384E+03  0.45737121548E+03  0.10100000352E+00 0.  1.
       -3    1    3    3    0  502  0.20631031371E+03  0.35435218279E+03  0.17530483133E+03  0.44593857097E+03  0.10100000352E+00 0. -1.
</event>
<event>
 5   0  0.3998066E-03  0.9060417E+03  0.7818609E-02  0.9418060E-01
        1   -1    0    0  501    0  0.00000000000E+00  0.00000000000E+00  0.34810796631E+03  0.34810796635E+03  0.50400001928E-02 0. -1.
       -1   -1    0    0    0  501  0.00000000000E+00  0.00000000000E+00 -0.58955240199E+03  0.58955240201E+03  0.50400001928E-02 0.  1.
    10030    2    1    2    0    0  0.00000000000E+00  0.00000000000E+00 -0.24144443568E+03  0.93766036836E+03  0.90604169378E+03 0.  0.
        4    1    3    3  502    0 -0.17889837154E+03 -0.39097329249E+03  0.26951293978E+02  0.43080474456E+03  0.12699999809E+01 0. -1.
       -4    1    3    3    0  502  0.17889837154E+03  0.39097329249E+03 -0.26839572966E+03  0.50685562381E+03  0.12699999809E+01 0.  1.
</event>
<event>
 5   0  0.3998066E-03  0.8971136E+03  0.7818609E-02  0.9429197E-01
        1   -1    0    0  501    0  0.00000000000E+00  0.00000000000E+00  0.62009483769E+03  0.62009483771E+03  0.50400001928E-02 0.  1.
       -1   -1    0    0    0  501  0.00000000000E+00  0.00000000000E+00 -0.32447165939E+03  0.32447165943E+03  0.50400001928E-02 0. -1.
    10030    2    1    2    0    0  0.00000000000E+00  0.00000000000E+00  0.29562317830E+03  0.94456649714E+03  0.89711359591E+03 0.  0.
        4    1    3    3  502    0  0.28232026667E+03 -0.23428166082E+03  0.41955024359E+03  0.55732992864E+03  0.12699999809E+01 0.  1.
       -4    1    3    3    0  502 -0.28232026667E+03  0.23428166082E+03 -0.12392706528E+03  0.38723656849E+03  0.12699999809E+01 0. -1.
</event>
<event>
 5   0  0.3969536E-03  0.9099663E+03  0.7818609E-02  0.9413208E-01
        1   -1    0    0  501    0  0.00000000000E+00  0.00000000000E+00  0.45679362398E+03  0.45679362401E+03  0.50400001928E-02 0. -1.
       -1   -1    0    0    0  501  0.00000000000E+00  0.00000000000E+00 -0.45317980927E+03  0.45317980930E+03  0.50400001928E-02 0.  1.
    10030    2    1    2    0    0  0.00000000000E+00  0.00000000000E+00  0.36138147085E+01  0.90997343331E+03  0.90996625744E+03 0.  0.
        1    1    3    3  502    0 -0.20606603656E+03 -0.95123485884E+02  0.39614231140E+03  0.45655275697E+03  0.50400001928E-02 0. -1.
       -1    1    3    3    0  502  0.20606603656E+03  0.95123485884E+02 -0.39252849669E+03  0.45342067634E+03  0.50400001928E-02 0.  1.
</event>
<event>
 5   0  0.6724773E-03  0.9062717E+03  0.7818609E-02  0.9417775E-01
        2   -1    0    0  501    0  0.00000000000E+00  0.00000000000E+00  0.39295470357E+03  0.39295470358E+03  0.25500000920E-02 0.  1.
       -2   -1    0    0    0  501  0.00000000000E+00  0.00000000000E+00 -0.52253374273E+03  0.52253374273E+03  0.25500000920E-02 0. -1.
    10030    2    1    2    0    0  0.00000000000E+00  0.00000000000E+00 -0.12957903915E+03  0.91548844631E+03  0.90627168550E+03 0.  0.
        5    1    3    3  502    0 -0.18591872310E+03 -0.15953368445E+03  0.32026050134E+03  0.40324390484E+03  0.46999998093E+01 0.  1.
       -5    1    3    3    0  502  0.18591872310E+03  0.15953368445E+03 -0.44983954049E+03  0.51224454147E+03  0.46999998093E+01 0. -1.
</event>
<event>
 5   0  0.3969536E-03  0.8990183E+03  0.7818609E-02  0.9426809E-01
       -1   -1    0    0    0  501  0.00000000000E+00  0.00000000000E+00  0.36800260961E+03  0.36800260965E+03  0.50400001928E-02 0.  1.
        1   -1    0    0  501    0  0.00000000000E+00  0.00000000000E+00 -0.54906804612E+03  0.54906804615E+03  0.50400001928E-02 0. -1.
    10030    2    1    2    0    0  0.00000000000E+00  0.00000000000E+00 -0.18106543651E+03  0.91707065579E+03  0.89901829537E+03 0.  0.
        1    1    3    3  502    0 -0.46810423564E+02 -0.32657452755E+03 -0.40197694274E+03  0.52002653809E+03  0.50400001928E-02 0. -1.
       -1    1    3    3    0  502  0.46810423564E+02  0.32657452755E+03  0.22091150623E+03  0.39704411771E+03  0.50400001928E-02 0.  1.
</event>
<event>
 5   0  0.2560250E-03  0.8999334E+03  0.7818609E-02  0.9425665E-01
        3   -1    0    0  501    0  0.00000000000E+00  0.00000000000E+00  0.30585246349E+03  0.30585248017E+03  0.10100000352E+00 0. -1.
       -3   -1    0    0    0  501  0.00000000000E+00  0.00000000000E+00 -0.66198584771E+03  0.66198585541E+03  0.10100000352E+00 0.  1.
    10030    2    1    2    0    0  0.00000000000E+00  0.00000000000E+00 -0.35613338422E+03  0.96783833559E+03  0.89993336224E+03 0.  0.
        3    1    3    3  502    0  0.15080588766E+03 -0.29874113190E+03 -0.50156494699E+03  0.60295612269E+03  0.10100000352E+00 0.  1.
       -3    1    3    3    0  502 -0.15080588766E+03  0.29874113190E+03  0.14543156277E+03  0.36488221290E+03  0.10100000352E+00 0. -1.
</event>
<event>
 5   0  0.6724773E-03  0.9035598E+03  0.7818609E-02  0.9421142E-01
        2   -1    0    0  501    0  0.00000000000E+00  0.00000000000E+00  0.21988086349E+03  0.21988086351E+03  0.25500000920E-02 0. -1.
       -2   -1    0    0    0  501  0.00000000000E+00  0.00000000000E+00 -0.92825305937E+03  0.92825305938E+03  0.25500000920E-02 0.  1.
    10030    2    1    2    0    0  0.00000000000E+00  0.00000000000E+00 -0.70837219588E+03  0.11481339229E+04  0.90355981373E+03 0.  0.
        5    1    3    3  502    0  0.32824633945E+03 -0.25189460795E+03 -0.12375341188E+03  0.43189529961E+03  0.46999998093E+01 0. -1.
       -5    1    3    3    0  502 -0.32824633945E+03  0.25189460795E+03 -0.58461878400E+03  0.71623862328E+03  0.46999998093E+01 0.  1.
</event>
<event>
 5   0  0.6863405E-03  0.9063966E+03  0.7818609E-02  0.9417620E-01
        2   -1    0    0  501    0  0.00000000000E+00  0.00000000000E+00  0.11883722690E+04  0.11883722690E+04  0.25500000920E-02 0. -1.
       -2   -1    0    0    0  501  0.00000000000E+00  0.00000000000E+00 -0.17283196494E+03  0.17283196496E+03  0.25500000920E-02 0.  1.
    10030    2    1    2    0    0  0.00000000000E+00  0.00000000000E+00  0.10155403040E+04  0.13612042339E+04  0.90639663359E+03 0.  0.
        1    1    3    3  502    0 -0.35809185787E+02  0.39287651286E+03  0.17278849583E+03  0.43068563531E+03  0.50400001928E-02 0.  1.
       -1    1    3    3    0  502  0.35809185787E+02 -0.39287651286E+03  0.84275180820E+03  0.93051859863E+03  0.50400001928E-02 0. -1.
</event>
<event>
 5   0  0.6534628E-03  0.8940733E+03  0.7818609E-02  0.9433021E-01
        2   -1    0    0  501    0  0.00000000000E+00  0.00000000000E+00  0.48915673166E+03  0.48915673167E+03  0.25500000920E-02 0. -1.
       -2   -1    0    0    0  501  0.00000000000E+00  0.00000000000E+00 -0.40854344509E+03  0.40854344510E+03  0.25500000920E-02 0.  1.
    10030    2    1    2    0    0  0.00000000000E+00  0.00000000000E+00  0.80613286571E+02  0.89770017677E+03  0.89407332216E+03 0.  0.
        4    1    3    3  502    0  0.30561919855E+03  0.11324894836E+03  0.34750815178E+03  0.47643671907E+03  0.12699999809E+01 0. -1.
       -4    1    3    3    0  502 -0.30561919855E+03 -0.11324894836E+03 -0.26689486520E+03  0.42126345770E+03  0.12699999809E+01 0.  1.
</event>
<event>
 5   0  0.6724773E-03  0.8553782E+03  0.7818609E-02  0.9483147E-01
        2   -1    0    0  501    0  0.00000000000E+00  0.00000000000E+00  0.96707122624E+03  0.96707122624E+03  0.25500000920E-02 0. -1.
       -2   -1    0    0    0  501  0.00000000000E+00  0.00000000000E+00 -0.18914634462E+03  0.18914634464E+03  0.25500000920E-02 0.  1.
    10030    2    1    2    0    0  0.00000000000E+00  0.00000000000E+00  0.77792488162E+03  0.11562175709E+04  0.85537824953E+03 0.  0.
        5    1    3    3  502    0 -0.37071633321E+03 -0.12336697786E+03  0.62404181248E+03  0.73627459868E+03  0.46999998093E+01 0. -1.
       -5    1    3    3    0  502  0.37071633321E+03  0.12336697786E+03  0.15388306914E+03  0.41994297220E+03  0.46999998093E+01 0.  1.
</event>
<event>
 5   0  0.3998066E-03  0.9037542E+03  0.7818609E-02  0.9420901E-01
        1   -1    0    0  501    0  0.00000000000E+00  0.00000000000E+00  0.33585590283E+03  0.33585590287E+03  0.50400001928E-02 0.  1.
       -1   -1    0    0    0  501  0.00000000000E+00  0.00000000000E+00 -0.60797768312E+03  0.60797768314E+03  0.50400001928E-02 0. -1.
    10030    2    1    2    0    0  0.00000000000E+00  0.00000000000E+00 -0.27212178029E+03  0.94383358601E+03  0.90375415616E+03 0.  0.
        4    1    3    3  502    0 -0.94980137371E+02 -0.40716859996E+03 -0.31507983478E+03  0.52353071589E+03  0.12699999809E+01 0.  1.
       -4    1    3    3    0  502  0.94980137371E+02  0.40716859996E+03  0.42958054486E+02  0.42030287013E+03  0.12699999809E+01 0. -1.
</event>
<event>
 5   0  0.6863405E-03  0.9005359E+03  0.7818609E-02  0.9424912E-01
       -2   -1    0    0    0  501  0.00000000000E+00  0.00000000000E+00  0.23157361687E+03  0.23157361688E+03  0.25500000920E-02 0.  1.
        2   -1    0    0  501    0  0.00000000000E+00  0.00000000000E+00 -0.87549368893E+03  0.87549368893E+03  0.25500000920E-02 0. -1.
    10030    2    1    2    0    0  0.00000000000E+00  0.00000000000E+00 -0.64392007206E+03  0.11070673058E+04  0.90053592955E+03 0.  0.
        1    1    3    3  502    0 -0.31875119297E+03  0.19997688818E+03 -0.62595380466E+03  0.73035008347E+03  0.50400001928E-02 0. -1.
       -1    1    3    3    0  502  0.31875119297E+03 -0.19997688818E+03 -0.17966267397E+02  0.37671722235E+03  0.50400001928E-02 0.  1.
</event>
<event>
 5   0  0.3998066E-03  0.8959588E+03  0.7818609E-02  0.9430647E-01
        1   -1    0    0  501    0  0.00000000000E+00  0.00000000000E+00  0.69448443455E+03  0.69448443457E+03  0.50400001928E-02 0. -1.
       -1   -1    0    0    0  501  0.00000000000E+00  0.00000000000E+00 -0.28897053504E+03  0.28897053509E+03  0.50400001928E-02 0.  1.
    10030    2    1    2    0    0  0.00000000000E+00  0.00000000000E+00  0.40551389951E+03  0.98345496966E+03  0.89595879071E+03 0.  0.
        4    1    3    3  502    0  0.89164652561E+01  0.44777323464E+03  0.21392679793E+03  0.49633321547E+03  0.12699999809E+01 0. -1.
       -4    1    3    3    0  502 -0.89164652561E+01 -0.44777323464E+03  0.19158710158E+03  0.48712175419E+03  0.12699999809E+01 0.  1.
</event>
<event>
 5   0  0.3927993E-03  0.9039444E+03  0.7818609E-02  0.9420664E-01
        1   -1    0    0  501    0  0.00000000000E+00  0.00000000000E+00  0.42347384917E+03  0.42347384920E+03  0.50400001928E-02 0.  1.
       -1   -1    0    0    0  501  0.00000000000E+00  0.00000000000E+00 -0.48238842547E+03  0.48238842549E+03  0.50400001928E-02 0. -1.
    10030    2    1    2    0    0  0.00000000000E+00  0.00000000000E+00 -0.58914576296E+02  0.90586227469E+03  0.90394443049E+03 0.  0.
        2    1    3    3  502    0  0.33281050526E+03  0.10052341554E+03 -0.31887982678E+03  0.47175431468E+03  0.25500000920E-02 0. -1.
       -2    1    3    3    0  502 -0.33281050526E+03 -0.10052341554E+03  0.25996525049E+03  0.43410796002E+03  0.25500000920E-02 0.  1.
</event>
<event>
 5   0  0.2560250E-03  0.8971721E+03  0.7818609E-02  0.9429123E-01
        4   -1    0    0  501    0  0.00000000000E+00  0.00000000000E+00  0.35082064647E+03  0.35082294522E+03  0.12699999809E+01 0. -1.
       -4   -1    0    0    0  501  0.00000000000E+00  0.00000000000E+00 -0.57359147438E+03  0.57359288034E+03  0.12699999809E+01 0.  1.
    10030    2    1    2    0    0  0.00000000000E+00  0.00000000000E+00 -0.22277082791E+03  0.92441582556E+03  0.89717209986E+03 0.  0.
        5    1    3    3  502    0 -0.41733758951E+03 -0.77881691351E+02  0.37826175546E+02  0.42625008038E+03  0.46999998093E+01 0. -1.
       -5    1    3    3    0  502  0.41733758951E+03  0.77881691351E+02 -0.26059700345E+03  0.49816574518E+03  0.46999998093E+01 0.  1.
</event>
<event>
 5   0  0.3969536E-03  0.9011649E+03  0.7818609E-02  0.9424126E-01
       -1   -1    0    0    0  501  0.00000000000E+00  0.00000000000E+00  0.39122006864E+03  0.39122006867E+03  0.50400001928E-02 0.  1.
        1   -1    0    0  501    0  0.00000000000E+00  0.00000000000E+00 -0.51895224749E+03  0.51895224751E+03  0.50400001928E-02 0. -1.
    10030    2    1    2    0    0  0.00000000000E+00  0.00000000000E+00 -0.12773217885E+03  0.91017231618E+03  0.90116487705E+03 0.  0.
        1    1    3    3  502    0 -0.25517409885E+03 -0.21639597915E+03  0.24095092473E+03  0.41230860853E+03  0.50400001928E-02 0.  1.
       -1    1    3    3    0  502  0.25517409885E+03  0.21639597915E+03 -0.36868310358E+03  0.49786370766E+03  0.50400001928E-02 0. -1.
</event>
<event>
 5   0  0.3998066E-03  0.8762685E+03  0.7818609E-02  0.9455743E-01
        1   -1    0    0  501    0  0.00000000000E+00  0.00000000000E+00  0.48676691029E+03  0.48676691032E+03  0.50400001928E-02 0. -1.
       -1   -1    0    0    0  501  0.00000000000E+00  0.00000000000E+00 -0.39436049766E+03  0.39436049769E+03  0.50400001928E-02 0.  1.
    10030    2    1    2    0    0  0.00000000000E+00  0.00000000000E+00  0.92406412631E+02  0.88112740801E+03  0.87626854562E+03 0.  0.
        4    1    3    3  502    0  0.20776965265E+03  0.33135458742E+03 -0.15236566515E+03  0.41973920473E+03  0.12699999809E+01 0.  1.
       -4    1    3    3    0  502 -0.20776965265E+03 -0.33135458742E+03  0.24477207778E+03  0.46138820328E+03  0.12699999809E+01 0. -1.
</event>
<event>
 5   0  0.6534628E-03  0.9126559E+03  0.7818609E-02  0.9409898E-01
        2   -1    0    0  501    0  0.00000000000E+00  0.00000000000E+00  0.17047501146E+04  0.17047501146E+04  0.25500000920E-02 0. -1.
       -2   -1    0    0    0  501  0.00000000000E+00  0.00000000000E+00 -0.12214998152E+03  0.12214998155E+03  0.25500000920E-02 0.  1.
    10030    2    1    2    0    0  0.00000000000E+00  0.00000000000E+00  0.15826001331E+04  0.18269000961E+04  0.91265589357E+03 0.  0.
        4    1    3    3  502    0  0.39660660676E+03  0.19542485184E+03  0.10172921056E+04  0.11092215803E+04  0.12699999809E+01 0. -1.
       -4    1    3    3    0  502 -0.39660660676E+03 -0.19542485184E+03  0.56530802751E+03  0.71767851584E+03  0.12699999809E+01 0.  1.
</event>
<event>
 5   0  0.6534628E-03  0.9002623E+03  0.7818609E-02  0.9425254E-01
       -2   -1    0    0    0  501  0.00000000000E+00  0.00000000000E+00  0.77682452055E+03  0.77682452056E+03  0.25500000920E-02 0. -1.
        2   -1    0    0  501    0  0.00000000000E+00  0.00000000000E+00 -0.26082857830E+03  0.26082857831E+03  0.25500000920E-02 0.  1.
    10030    2    1    2    0    0  0.00000000000E+00  0.00000000000E+00  0.51599594225E+03  0.10376530989E+04  0.90026226244E+03 0.  0.
        4    1    3    3  502    0 -0.36179951692E+03 -0.21406154644E+03  0.72519861211E+02  0.42659345902E+03  0.12699999809E+01 0. -1.
       -4    1    3    3    0  502  0.36179951692E+03  0.21406154644E+03  0.44347608104E+03  0.61105963985E+03  0.12699999809E+01 0.  1.
</event>
<event>
 5   0  0.3794006E-03  0.9008501E+03  0.7818609E-02  0.9424519E-01
       -1   -1    0    0    0  501  0.00000000000E+00  0.00000000000E+00  0.34497879309E+03  0.34497879313E+03  0.50400001928E-02 0.  1.
        1   -1    0    0  501    0  0.00000000000E+00  0.00000000000E+00 -0.58810207312E+03  0.58810207314E+03  0.50400001928E-02 0. -1.
    10030    2    1    2    0    0  0.00000000000E+00  0.00000000000E+00 -0.24312328003E+03  0.93308086626E+03  0.90085013942E+03 0.  0.
        5    1    3    3  502    0 -0.15392134042E+03  0.15281492041E+02 -0.55970356079E+03  0.58070256500E+03  0.46999998093E+01 0. -1.
       -5    1    3    3    0  502  0.15392134042E+03 -0.15281492041E+02  0.31658028077E+03  0.35237830127E+03  0.46999998093E+01 0.  1.
</event>
<event>
 5   0  0.6609191E-03  0.9085210E+03  0.7818609E-02  0.9414992E-01
       -2   -1    0    0    0  501  0.00000000000E+00  0.00000000000E+00  0.17582212724E+03  0.17582212726E+03  0.25500000920E-02 0. -1.
        2   -1    0    0  501    0  0.00000000000E+00  0.00000000000E+00 -0.11736441249E+04  0.11736441249E+04  0.25500000920E-02 0.  1.
    10030    2    1    2    0    0  0.00000000000E+00  0.00000000000E+00 -0.99782199770E+03  0.13494662522E+04  0.90852101063E+03 0.  0.
        2    1    3    3  502    0  0.22914951880E+03  0.36378464303E+03 -0.28109737296E+03  0.51367742949E+03  0.25500000920E-02 0. -1.
       -2    1    3    3    0  502 -0.22914951880E+03 -0.36378464303E+03 -0.71672462474E+03  0.83578882272E+03  0.25500000920E-02 0.  1.
</event>
<event>
 5   0  0.3794006E-03  0.8632713E+03  0.7818609E-02  0.9472696E-01
       -1   -1    0    0    0  501  0.00000000000E+00  0.00000000000E+00  0.14460162942E+03  0.14460162951E+03  0.50400001928E-02 0.  1.
        1   -1    0    0  501    0  0.00000000000E+00  0.00000000000E+00 -0.12884318459E+04  0.12884318460E+04  0.50400001928E-02 0. -1.
    10030    2    1    2    0    0  0.00000000000E+00  0.00000000000E+00 -0.11438302165E+04  0.14330334755E+04  0.86327132327E+03 0.  0.
        5    1    3    3  502    0  0.22167352195E+02  0.41970783187E+03 -0.73491020469E+03  0.84661747832E+03  0.46999998093E+01 0. -1.
       -5    1    3    3    0  502 -0.22167352195E+02 -0.41970783187E+03 -0.40892001183E+03  0.58641599715E+03  0.46999998093E+01 0.  1.
</event>
<event>
 5   0  0.6863405E-03  0.9027629E+03  0.7818609E-02  0.9422134E-01
       -2   -1    0    0    0  501  0.00000000000E+00  0.00000000000E+00  0.10699490851E+04  0.10699490851E+04  0.25500000920E-02 0. -1.
        2   -1    0    0  501    0  0.00000000000E+00  0.00000000000E+00 -0.19042514505E+03  0.19042514507E+03  0.25500000920E-02 0.  1.
    10030    2    1    2    0    0  0.00000000000E+00  0.00000000000E+00  0.87952394005E+03  0.12603742302E+04  0.90276289188E+03 0.  0.
        1    1    3    3  502    0 -0.26915184058E+03 -0.82876590588E+02  0.93224955797E+03  0.97385855283E+03  0.50400001928E-02 0. -1.
       -1    1    3    3    0  502  0.26915184058E+03  0.82876590588E+02 -0.52725617914E+02  0.28651567734E+03  0.50400001928E-02 0.  1.
</event>
<event>
 5   0  0.6534628E-03  0.8969059E+03  0.7818609E-02  0.9429457E-01
       -2   -1    0    0    0  501  0.00000000000E+00  0.00000000000E+00  0.47955068080E+03  0.47955068081E+03  0.25500000920E-02 0. -1.
        2   -1    0    0  501    0  0.00000000000E+00  0.00000000000E+00 -0.41937184615E+03  0.41937184616E+03  0.25500000920E-02 0.  1.
    10030    2    1    2    0    0  0.00000000000E+00  0.00000000000E+00  0.60178834653E+02  0.89892252696E+03  0.89690591332E+03 0.  0.
        4    1    3    3  502    0  0.12663071851E+03  0.29469139303E+03  0.34421089916E+03  0.47049028895E+03  0.12699999809E+01 0. -1.
       -4    1    3    3    0  502 -0.12663071851E+03 -0.29469139303E+03 -0.28403206451E+03  0.42843223801E+03  0.12699999809E+01 0.  1.
</event>
<event>
 5   0  0.3794006E-03  0.8932700E+03  0.7818609E-02  0.9434034E-01
       -1   -1    0    0    0  501  0.00000000000E+00  0.00000000000E+00  0.33085508726E+03  0.33085508730E+03  0.50400001928E-02 0. -1.
        1   -1    0    0  501    0  0.00000000000E+00  0.00000000000E+00 -0.60293111660E+03  0.60293111662E+03  0.50400001928E-02 0.  1.
    10030    2    1    2    0    0  0.00000000000E+00  0.00000000000E+00 -0.27207602934E+03  0.93378620392E+03  0.89327000896E+03 0.  0.
        5    1    3    3  502    0 -0.44411634178E+03 -0.20781228107E+02 -0.91816160058E+02  0.45400823971E+03  0.46999998093E+01 0. -1.
       -5    1    3    3    0  502  0.44411634178E+03  0.20781228107E+02 -0.18025986928E+03  0.47977796422E+03  0.46999998093E+01 0.  1.
</event>
<event>
 5   0  0.6534628E-03  0.9472781E+03  0.7818609E-02  0.9368338E-01
        2   -1    0    0  501    0  0.00000000000E+00  0.00000000000E+00  0.59596385091E+03  0.59596385092E+03  0.25500000920E-02 0. -1.
       -2   -1    0    0    0  501  0.00000000000E+00  0.00000000000E+00 -0.37642210805E+03  0.37642210806E+03  0.25500000920E-02 0.  1.
    10030    2    1    2    0    0  0.00000000000E+00  0.00000000000E+00  0.21954174286E+03  0.97238595898E+03  0.94727814097E+03 0.  0.
        4    1    3    3  502    0  0.22819372059E+03 -0.19468206089E+03  0.48603632541E+03  0.57114481655E+03  0.12699999809E+01 0. -1.
       -4    1    3    3    0  502 -0.22819372059E+03  0.19468206089E+03 -0.26649458255E+03  0.40124114243E+03  0.12699999809E+01 0.  1.
</event>
<event>
 5   0  0.6724773E-03  0.8993722E+03  0.7818609E-02  0.9426367E-01
       -2   -1    0    0    0  501  0.00000000000E+00  0.00000000000E+00  0.14606454961E+03  0.14606454963E+03  0.25500000920E-02 0.  1.
        2   -1    0    0  501    0  0.00000000000E+00  0.00000000000E+00 -0.13844398804E+04  0.13844398804E+04  0.25500000920E-02 0. -1.
    10030    2    1    2    0    0  0.00000000000E+00  0.00000000000E+00 -0.12383753307E+04  0.15305044300E+04  0.89937219794E+03 0.  0.
        5    1    3    3  502    0  0.26055911631E+03 -0.19087195007E+02  0.36150255000E+01  0.26132457311E+03  0.46999998093E+01 0.  1.
       -5    1    3    3    0  502 -0.26055911631E+03  0.19087195007E+02 -0.12419903562E+04  0.12691798569E+04  0.46999998093E+01 0. -1.
</event>
<event>
 5   0  0.6863405E-03  0.9040235E+03  0.7818609E-02  0.9420566E-01
       -2   -1    0    0    0  501  0.00000000000E+00  0.00000000000E+00  0.15725010269E+03  0.15725010271E+03  0.25500000920E-02 0. -1.
        2   -1    0    0  501    0  0.00000000000E+00  0.00000000000E+00 -0.12992972138E+04  0.12992972138E+04  0.25500000920E-02 0.  1.
    10030    2    1    2    0    0  0.00000000000E+00  0.00000000000E+00 -0.11420471111E+04  0.14565473165E+04  0.90402349595E+03 0.  0.
        1    1    3    3  502    0  0.77991629582E+02  0.90058014848E+02 -0.12735464346E+04  0.12791065872E+04  0.50400001928E-02 0.  1.
       -1    1    3    3    0  502 -0.77991629582E+02 -0.90058014848E+02  0.13149932347E+03  0.17744072932E+03  0.50400001928E-02 0. -1.
</event>
<event>
 5   0  0.3998066E-03  0.8983043E+03  0.7818609E-02  0.9427704E-01
       -1   -1    0    0    0  501  0.00000000000E+00  0.00000000000E+00  0.19598313048E+03  0.19598313054E+03  0.50400001928E-02 0. -1.
        1   -1    0    0  501    0  0.00000000000E+00  0.00000000000E+00 -0.10293623352E+04  0.10293623352E+04  0.50400001928E-02 0.  1.
    10030    2    1    2    0    0  0.00000000000E+00  0.00000000000E+00 -0.83337920471E+03  0.12253454657E+04  0.89830429787E+03 0.  0.
        4    1    3    3  502    0  0.42406926100E+03 -0.30267571600E+02 -0.21908758310E+03  0.47828009156E+03  0.12699999809E+01 0.  1.
       -4    1    3    3    0  502 -0.42406926100E+03  0.30267571600E+02 -0.61429162161E+03  0.74706537418E+03  0.12699999809E+01 0. -1.
</event>
<event>
 5   0  0.6863405E-03  0.9000205E+03  0.7818609E-02  0.9425556E-01
       -2   -1    0    0    0  501  0.00000000000E+00  0.00000000000E+00  0.13569775479E+03  0.13569775481E+03  0.25500000920E-02 0.  1.
        2   -1    0    0  501    0  0.00000000000E+00  0.00000000000E+00 -0.14923551233E+04  0.14923551233E+04  0.25500000920E-02 0. -1.
    10030    2    1    2    0    0  0.00000000000E+00  0.00000000000E+00 -0.13566573685E+04  0.16280528782E+04  0.90002053223E+03 0.  0.
        1    1    3    3  502    0  0.32611203086E+03 -0.29467532443E+03 -0.85302293203E+03  0.95959925286E+03  0.50400001928E-02 0. -1.
       -1    1    3    3    0  502 -0.32611203086E+03  0.29467532443E+03 -0.50363443652E+03  0.66845362529E+03  0.50400001928E-02 0.  1.
</event>
<event>
 5   0  0.3927993E-03  0.8964920E+03  0.7818609E-02  0.9429977E-01
        1   -1    0    0  501    0  0.00000000000E+00  0.00000000000E+00  0.15747492176E+04  0.15747492176E+04  0.50400001928E-02 0.  1.
       -1   -1    0    0    0  501  0.00000000000E+00  0.00000000000E+00 -0.12759140679E+03  0.12759140689E+03  0.50400001928E-02 0. -1.
    10030    2    1    2    0    0  0.00000000000E+00  0.00000000000E+00  0.14471578108E+04  0.17023406245E+04  0.89649198123E+03 0.  0.
        2    1    3    3  502    0 -0.28616867619E+03  0.11874905463E+03  0.13386866160E+04  0.13740726709E+04  0.25500000920E-02 0.  1.
       -2    1    3    3    0  502  0.28616867619E+03 -0.11874905463E+03  0.10847119481E+03  0.32826795353E+03  0.25500000920E-02 0. -1.
</event>
<event>
 5   0  0.6524705E-03  0.9032548E+03  0.7818609E-02  0.9421522E-01
       -2   -1    0    0    0  501  0.00000000000E+00  0.00000000000E+00  0.25793781798E+03  0.25793781800E+03  0.25500000920E-02 0.  1.
        2   -1    0    0  501    0  0.00000000000E+00  0.00000000000E+00 -0.79076162600E+03  0.79076162600E+03  0.25500000920E-02 0. -1.
    10030    2    1    2    0    0  0.00000000000E+00  0.00000000000E+00 -0.53282380802E+03  0.10486994440E+04  0.90325484414E+03 0.  0.
        3    1    3    3  502    0  0.68986001277E+02  0.35271298070E+03  0.51126875754E+02  0.36301443877E+03  0.10100000352E+00 0.  1.
       -3    1    3    3    0  502 -0.68986001277E+02 -0.35271298070E+03 -0.58395068377E+03  0.68568500523E+03  0.10100000352E+00 0. -1.
</event>
<event>
 5   0  0.3998066E-03  0.8939903E+03  0.7818609E-02  0.9433125E-01
        1   -1    0    0  501    0  0.00000000000E+00  0.00000000000E+00  0.67606981277E+03  0.67606981279E+03  0.50400001928E-02 0.  1.
       -1   -1    0    0    0  501  0.00000000000E+00  0.00000000000E+00 -0.29553850115E+03  0.29553850119E+03  0.50400001928E-02 0. -1.
    10030    2    1    2    0    0  0.00000000000E+00  0.00000000000E+00  0.38053131162E+03  0.97160831398E+03  0.89399028891E+03 0.  0.
        4    1    3    3  502    0  0.27780791415E+02 -0.22721594408E+01 -0.29459109834E+03  0.29590955240E+03  0.12699999809E+01 0. -1.
       -4    1    3    3    0  502 -0.27780791415E+02  0.22721594408E+01  0.67512240996E+03  0.67569876158E+03  0.12699999809E+01 0.  1.
</event>
<event>
 5   0  0.3998066E-03  0.9014794E+03  0.7818609E-02  0.9423734E-01
       -1   -1    0    0    0  501  0.00000000000E+00  0.00000000000E+00  0.37410930432E+03  0.37410930435E+03  0.50400001928E-02 0.  1.
        1   -1    0    0  501    0  0.00000000000E+00  0.00000000000E+00 -0.54306667250E+03  0.54306667253E+03  0.50400001928E-02 0. -1.
    10030    2    1    2    0    0  0.00000000000E+00  0.00000000000E+00 -0.16895736819E+03  0.91717597688E+03  0.90147943975E+03 0.  0.
        4    1    3    3  502    0 -0.55370378964E+01  0.69342397907E+02  0.36861321115E+03  0.37512176593E+03  0.12699999809E+01 0.  1.
       -4    1    3    3    0  502  0.55370378964E+01 -0.69342397907E+02 -0.53757057934E+03  0.54205421095E+03  0.12699999809E+01 0. -1.
</event>
<event>
 5   0  0.6524705E-03  0.9005744E+03  0.7818609E-02  0.9424864E-01
        2   -1    0    0  501    0  0.00000000000E+00  0.00000000000E+00  0.33228676326E+03  0.33228676327E+03  0.25500000920E-02 0.  1.
       -2   -1    0    0    0  501  0.00000000000E+00  0.00000000000E+00 -0.61019154930E+03  0.61019154931E+03  0.25500000920E-02 0. -1.
    10030    2    1    2    0    0  0.00000000000E+00  0.00000000000E+00 -0.27790478604E+03  0.94247831257E+03  0.90057442755E+03 0.  0.
        3    1    3    3  502    0 -0.23109938101E+03  0.25937156933E+03  0.16087079402E+03  0.38283150007E+03  0.10100000352E+00 0.  1.
       -3    1    3    3    0  502  0.23109938101E+03 -0.25937156933E+03 -0.43877558006E+03  0.55964681250E+03  0.10100000352E+00 0. -1.
</event>
<event>
 5   0  0.6534628E-03  0.8968941E+03  0.7818609E-02  0.9429472E-01
        2   -1    0    0  501    0  0.00000000000E+00  0.00000000000E+00  0.25579297747E+04  0.25579297747E+04  0.25500000920E-02 0.  1.
       -2   -1    0    0    0  501  0.00000000000E+00  0.00000000000E+00 -0.78620122702E+02  0.78620122744E+02  0.25500000920E-02 0. -1.
    10030    2    1    2    0    0  0.00000000000E+00  0.00000000000E+00  0.24793096520E+04  0.26365498975E+04  0.89689409142E+03 0.  0.
        4    1    3    3  502    0 -0.12498791754E+03  0.28606734532E+03  0.29325983310E+03  0.42832166441E+03  0.12699999809E+01 0.  1.
       -4    1    3    3    0  502  0.12498791754E+03 -0.28606734532E+03  0.21860498189E+04  0.22082282331E+04  0.12699999809E+01 0. -1.
</event>
<event>
 5   0  0.3794006E-03  0.9015294E+03  0.7818609E-02  0.9423672E-01
        1   -1    0    0  501    0  0.00000000000E+00  0.00000000000E+00  0.25166716484E+03  0.25166716489E+03  0.50400001928E-02 0.  1.
       -1   -1    0    0    0  501  0.00000000000E+00  0.00000000000E+00 -0.80737108877E+03  0.80737108878E+03  0.50400001928E-02 0. -1.
    10030    2    1    2    0    0  0.00000000000E+00  0.00000000000E+00 -0.55570392393E+03  0.10590382537E+04  0.90152935154E+03 0.  0.
        5    1    3    3  502    0 -0.39300070859E+03 -0.12262247639E+03 -0.62264522339E+02  0.41639499206E+03  0.46999998093E+01 0.  1.
       -5    1    3    3    0  502  0.39300070859E+03  0.12262247639E+03 -0.49343940159E+03  0.64264326162E+03  0.46999998093E+01 0. -1.
</event>
<event>
 5   0  0.6863405E-03  0.9063411E+03  0.7818609E-02  0.9417689E-01
        2   -1    0    0  501    0  0.00000000000E+00  0.00000000000E+00  0.73430618535E+03  0.73430618535E+03  0.25500000920E-02 0. -1.
       -2   -1    0    0    0  501  0.00000000000E+00  0.00000000000E+00 -0.27967018072E+03  0.27967018074E+03  0.25500000920E-02 0.  1.
    10030    2    1    2    0    0  0.00000000000E+00  0.00000000000E+00  0.45463600463E+03  0.10139763661E+04  0.90634109158E+03 0.  0.
        1    1    3    3  502    0 -0.35828306266E+03  0.12767778515E+03  0.50293959726E+03  0.63056848028E+03  0.50400001928E-02 0. -1.
       -1    1    3    3    0  502  0.35828306266E+03 -0.12767778515E+03 -0.48303592632E+02  0.38340788581E+03  0.50400001928E-02 0.  1.
</event>
<event>
 5   0  0.6524705E-03  0.9032081E+03  0.7818609E-02  0.9421580E-01
       -2   -1    0    0    0  501  0.00000000000E+00  0.00000000000E+00  0.25618347606E+03  0.25618347607E+03  0.25500000920E-02 0. -1.
        2   -1    0    0  501    0  0.00000000000E+00  0.00000000000E+00 -0.79609427648E+03  0.79609427648E+03  0.25500000920E-02 0.  1.
    10030    2    1    2    0    0  0.00000000000E+00  0.00000000000E+00 -0.53991080042E+03  0.10522777526E+04  0.90320805804E+03 0.  0.
        3    1    3    3  502    0 -0.59339204763E+02 -0.19659962966E+03  0.19863830977E+03  0.28570919466E+03  0.10100000352E+00 0. -1.
       -3    1    3    3    0  502  0.59339204763E+02  0.19659962966E+03 -0.73854911018E+03  0.76656855790E+03  0.10100000352E+00 0.  1.
</event>
<event>
 5   0  0.3969536E-03  0.9215626E+03  0.7818609E-02  0.9399021E-01
       -1   -1    0    0    0  501  0.00000000000E+00  0.00000000000E+00  0.21628132501E+03  0.21628132507E+03  0.50400001928E-02 0.  1.
        1   -1    0    0  501    0  0.00000000000E+00  0.00000000000E+00 -0.98168160045E+03  0.98168160047E+03  0.50400001928E-02 0. -1.
    10030    2    1    2    0    0  0.00000000000E+00  0.00000000000E+00 -0.76540027545E+03  0.11979629255E+04  0.92156258024E+03 0.  0.
        1    1    3    3  502    0 -0.44124574837E+03 -0.26940815926E+02 -0.21373089432E+03  0.49102394364E+03  0.50400001928E-02 0.  1.
       -1    1    3    3    0  502  0.44124574837E+03  0.26940815926E+02 -0.55166938112E+03  0.70693898189E+03  0.50400001928E-02 0. -1.
</event>
<event>
 5   0  0.3969536E-03  0.9017542E+03  0.7818609E-02  0.9423391E-01
       -1   -1    0    0    0  501  0.00000000000E+00  0.00000000000E+00  0.14115176698E+03  0.14115176707E+03  0.50400001928E-02 0.  1.
        1   -1    0    0  501    0  0.00000000000E+00  0.00000000000E+00 -0.14402240713E+04  0.14402240713E+04  0.50400001928E-02 0. -1.
    10030    2    1    2    0    0  0.00000000000E+00  0.00000000000E+00 -0.12990723043E+04  0.15813758384E+04  0.90175422948E+03 0.  0.
        1    1    3    3  502    0  0.17937689674E+03 -0.30719726753E+03 -0.16372334698E+03  0.39160128528E+03  0.50400001928E-02 0. -1.
       -1    1    3    3    0  502 -0.17937689674E+03  0.30719726753E+03 -0.11353489573E+04  0.11897745531E+04  0.50400001928E-02 0.  1.
</event>
<event>
 5   0  0.3943549E-03  0.9064405E+03  0.7818609E-02  0.9417566E-01
       -1   -1    0    0    0  501  0.00000000000E+00  0.00000000000E+00  0.19664152753E+03  0.19664152760E+03  0.50400001928E-02 0. -1.
        1   -1    0    0  501    0  0.00000000000E+00  0.00000000000E+00 -0.10445839596E+04  0.10445839596E+04  0.50400001928E-02 0.  1.
    10030    2    1    2    0    0  0.00000000000E+00  0.00000000000E+00 -0.84794243203E+03  0.12412254872E+04  0.90644047900E+03 0.  0.
        3    1    3    3  502    0 -0.33652186876E+03  0.20219152199E+03 -0.11388230949E+03  0.40877569685E+03  0.10100000352E+00 0. -1.
       -3    1    3    3    0  502  0.33652186876E+03 -0.20219152199E+03 -0.73406012253E+03  0.83244979032E+03  0.10100000352E+00 0.  1.
</event>
<event>
 5   0  0.3794006E-03  0.9011795E+03  0.7818609E-02  0.9424108E-01
        1   -1    0    0  501    0  0.00000000000E+00  0.00000000000E+00  0.43825193826E+03  0.43825193829E+03  0.50400001928E-02 0. -1.
       -1   -1    0    0    0  501  0.00000000000E+00  0.00000000000E+00 -0.46327489109E+03  0.46327489112E+03  0.50400001928E-02 0.  1.
    10030    2    1    2    0    0  0.00000000000E+00  0.00000000000E+00 -0.25022952827E+02  0.90152682941E+03  0.90117949154E+03 0.  0.
        5    1    3    3  502    0  0.27203515374E+03 -0.35650273018E+03 -0.56251405867E+02  0.45197746864E+03  0.46999998093E+01 0.  1.
       -5    1    3    3    0  502 -0.27203515374E+03  0.35650273018E+03  0.31228453039E+02  0.44954936077E+03  0.46999998093E+01 0. -1.
</event>
<event>
 5   0  0.2560250E-03  0.8832037E+03  0.7818609E-02  0.9446825E-01
       -3   -1    0    0    0  501  0.00000000000E+00  0.00000000000E+00  0.46521198823E+03  0.46521199919E+03  0.10100000352E+00 0. -1.
        3   -1    0    0  501    0  0.00000000000E+00  0.00000000000E+00 -0.41918997867E+03  0.41918999084E+03  0.10100000352E+00 0.  1.
    10030    2    1    2    0    0  0.00000000000E+00  0.00000000000E+00  0.46022009555E+02  0.88440199003E+03  0.88320374467E+03 0.  0.
        5    1    3    3  502    0  0.39306553736E+03  0.47766317726E+02  0.21874482916E+03  0.45238648084E+03  0.46999998093E+01 0. -1.
       -5    1    3    3    0  502 -0.39306553736E+03 -0.47766317726E+02 -0.17272281961E+03  0.43201550919E+03  0.46999998093E+01 0.  1.
</event>
<event>
 5   0  0.3794006E-03  0.8996036E+03  0.7818609E-02  0.9426077E-01
       -1   -1    0    0    0  501  0.00000000000E+00  0.00000000000E+00  0.53110988060E+03  0.53110988062E+03  0.50400001928E-02 0.  1.
        1   -1    0    0  501    0  0.00000000000E+00  0.00000000000E+00 -0.38094123036E+03  0.38094123040E+03  0.50400001928E-02 0. -1.
    10030    2    1    2    0    0  0.00000000000E+00  0.00000000000E+00  0.15016865024E+03  0.91205111102E+03  0.89960358247E+03 0.  0.
        5    1    3    3  502    0 -0.65253020230E+02 -0.90215957635E+02  0.51689230310E+03  0.52876896530E+03  0.46999998093E+01 0.  1.
       -5    1    3    3    0  502  0.65253020230E+02  0.90215957635E+02 -0.36672365286E+03  0.38328214572E+03  0.46999998093E+01 0. -1.
</event>
<event>
 5   0  0.6534628E-03  0.8937863E+03  0.7818609E-02  0.9433382E-01
        2   -1    0    0  501    0  0.00000000000E+00  0.00000000000E+00  0.13150712737E+04  0.13150712737E+04  0.25500000920E-02 0. -1.
       -2   -1    0    0    0  501  0.00000000000E+00  0.00000000000E+00 -0.15186514820E+03  0.15186514822E+03  0.25500000920E-02 0.  1.
    10030    2    1    2    0    0  0.00000000000E+00  0.00000000000E+00  0.11632061255E+04  0.14669364219E+04  0.89378631426E+03 0.  0.
        4    1    3    3  502    0 -0.14565733436E+03  0.30342600486E+03  0.10641127451E+04  0.11160738984E+04  0.12699999809E+01 0. -1.
       -4    1    3    3    0  502  0.14565733436E+03 -0.30342600486E+03  0.99093380391E+02  0.35086252352E+03  0.12699999809E+01 0.  1.
</event>
<event>
 5   0  0.6863405E-03  0.9082083E+03  0.7818609E-02  0.9415378E-01
       -2   -1    0    0    0  501  0.00000000000E+00  0.00000000000E+00  0.19604346753E+03  0.19604346754E+03  0.25500000920E-02 0. -1.
        2   -1    0    0  501    0  0.00000000000E+00  0.00000000000E+00 -0.10518615333E+04  0.10518615333E+04  0.25500000920E-02 0.  1.
    10030    2    1    2    0    0  0.00000000000E+00  0.00000000000E+00 -0.85581806576E+03  0.12479050008E+04  0.90820830728E+03 0.  0.
        1    1    3    3  502    0  0.20932709219E+03  0.39303620246E+03 -0.55015360656E+03  0.70778830084E+03  0.50400001928E-02 0.  1.
       -1    1    3    3    0  502 -0.20932709219E+03 -0.39303620246E+03 -0.30566445920E+03  0.54011670000E+03  0.50400001928E-02 0. -1.
</event>
<event>
 5   0  0.3927993E-03  0.8998705E+03  0.7818609E-02  0.9425743E-01
       -1   -1    0    0    0  501  0.00000000000E+00  0.00000000000E+00  0.19529155540E+03  0.19529155546E+03  0.50400001928E-02 0. -1.
        1   -1    0    0  501    0  0.00000000000E+00  0.00000000000E+00 -0.10366128196E+04  0.10366128196E+04  0.50400001928E-02 0.  1.
    10030    2    1    2    0    0  0.00000000000E+00  0.00000000000E+00 -0.84132126418E+03  0.12319043751E+04  0.89987050164E+03 0.  0.
        2    1    3    3  502    0 -0.13744044774E+03  0.42743107633E+03 -0.46067907542E+03  0.64328252908E+03  0.25500000920E-02 0.  1.
       -2    1    3    3    0  502  0.13744044774E+03 -0.42743107633E+03 -0.38064218876E+03  0.58862184597E+03  0.25500000920E-02 0. -1.
</event>
<event>
 5   0  0.6724773E-03  0.8957975E+03  0.7818609E-02  0.9430850E-01
       -2   -1    0    0    0  501  0.00000000000E+00  0.00000000000E+00  0.13101009541E+04  0.13101009541E+04  0.25500000920E-02 0. -1.
        2   -1    0    0  501    0  0.00000000000E+00  0.00000000000E+00 -0.15312810269E+03  0.15312810271E+03  0.25500000920E-02 0.  1.
    10030    2    1    2    0    0  0.00000000000E+00  0.00000000000E+00  0.11569728514E+04  0.14632290568E+04  0.89579746248E+03 0.  0.
        5    1    3    3  502    0  0.29596722054E+03 -0.27946962678E+03  0.88359974104E+03  0.97286713394E+03  0.46999998093E+01 0. -1.
       -5    1    3    3    0  502 -0.29596722054E+03  0.27946962678E+03  0.27337311037E+03  0.49036192287E+03  0.46999998093E+01 0.  1.
</event>
<event>
 5   0  0.3927993E-03  0.8982076E+03  0.7818609E-02  0.9427825E-01
       -1   -1    0    0    0  501  0.00000000000E+00  0.00000000000E+00  0.53345265032E+03  0.53345265035E+03  0.50400001928E-02 0.  1.
        1   -1    0    0  501    0  0.00000000000E+00  0.00000000000E+00 -0.37809212315E+03  0.37809212319E+03  0.50400001928E-02 0. -1.
    10030    2    1    2    0    0  0.00000000000E+00  0.00000000000E+00  0.15536052717E+03  0.91154477353E+03  0.89820764902E+03 0.  0.
        2    1    3    3  502    0 -0.39167773841E+03  0.19690212357E+03 -0.21299206552E+02  0.43890266944E+03  0.25500000920E-02 0.  1.
       -2    1    3    3    0  502  0.39167773841E+03 -0.19690212357E+03  0.17665973372E+03  0.47264210409E+03  0.25500000920E-02 0. -1.
</event>
<event>
 5   0  0.6609191E-03  0.8977221E+03  0.7818609E-02  0.9428433E-01
        2   -1    0    0  501    0  0.00000000000E+00  0.00000000000E+00  0.13803551514E+04  0.13803551514E+04  0.25500000920E-02 0. -1.
       -2   -1    0    0    0  501  0.00000000000E+00  0.00000000000E+00 -0.14595972350E+03  0.14595972352E+03  0.25500000920E-02 0.  1.
    10030    2    1    2    0    0  0.00000000000E+00  0.00000000000E+00  0.12343954279E+04  0.15263148749E+04  0.89772213127E+03 0.  0.
        2    1    3    3  502    0 -0.21549305982E+02  0.13926073531E+03  0.13417705448E+04  0.13491501473E+04  0.25500000920E-02 0. -1.
       -2    1    3    3    0  502  0.21549305982E+02 -0.13926073531E+03 -0.10737511690E+03  0.17716472765E+03  0.25500000920E-02 0.  1.
</event>
<event>
 5   0  0.6524705E-03  0.8994262E+03  0.7818609E-02  0.9426299E-01
        2   -1    0    0  501    0  0.00000000000E+00  0.00000000000E+00  0.28771795354E+03  0.28771795355E+03  0.25500000920E-02 0. -1.
       -2   -1    0    0    0  501  0.00000000000E+00  0.00000000000E+00 -0.70291710287E+03  0.70291710287E+03  0.25500000920E-02 0.  1.
    10030    2    1    2    0    0  0.00000000000E+00  0.00000000000E+00 -0.41519914933E+03  0.99063505642E+03  0.89942619564E+03 0.  0.
        3    1    3    3  502    0 -0.31891275671E+03  0.28390767770E+03 -0.52098323716E+02  0.43014318707E+03  0.10100000352E+00 0. -1.
       -3    1    3    3    0  502  0.31891275671E+03 -0.28390767770E+03 -0.36310082561E+03  0.56049186935E+03  0.10100000352E+00 0.  1.
</event>
<event>
 5   0  0.2560250E-03  0.8063883E+03  0.7818609E-02  0.9550816E-01
        3   -1    0    0  501    0  0.00000000000E+00  0.00000000000E+00  0.37332898161E+03  0.37332899527E+03  0.10100000352E+00 0.  1.
       -3   -1    0    0    0  501  0.00000000000E+00  0.00000000000E+00 -0.43544841587E+03  0.43544842758E+03  0.10100000352E+00 0. -1.
    10030    2    1    2    0    0  0.00000000000E+00  0.00000000000E+00 -0.62119434260E+02  0.80877742285E+03  0.80638830324E+03 0.  0.
        1    1    3    3  502    0 -0.18469053105E+03 -0.32969487702E+03 -0.17203297067E+03  0.41521638602E+03  0.50400001928E-02 0.  1.
       -1    1    3    3    0  502  0.18469053105E+03  0.32969487702E+03  0.10991353641E+03  0.39356103683E+03  0.50400001928E-02 0. -1.
</event>
<event>
 5   0  0.6863405E-03  0.8956131E+03  0.7818609E-02  0.9431082E-01
        2   -1    0    0  501    0  0.00000000000E+00  0.00000000000E+00  0.12177873878E+04  0.12177873878E+04  0.25500000920E-02 0.  1.
       -2   -1    0    0    0  501  0.00000000000E+00  0.00000000000E+00 -0.16466806567E+03  0.16466806569E+03  0.25500000920E-02 0. -1.
    10030    2    1    2    0    0  0.00000000000E+00  0.00000000000E+00  0.10531193222E+04  0.13824554535E+04  0.89561307175E+03 0.  0.
        1    1    3    3  502    0 -0.12667504738E+03 -0.19607703644E+03  0.11164394883E+04  0.11405831416E+04  0.50400001928E-02 0.  1.
       -1    1    3    3    0  502  0.12667504738E+03  0.19607703644E+03 -0.63320166080E+02  0.24187231198E+03  0.50400001928E-02 0. -1.
</event>
<event>
 5   0  0.6534628E-03  0.8670409E+03  0.7818609E-02  0.9467746E-01
       -2   -1    0    0    0  501  0.00000000000E+00  0.00000000000E+00  0.39862196333E+03  0.39862196333E+03  0.25500000920E-02 0.  1.
        2   -1    0    0  501    0  0.00000000000E+00  0.00000000000E+00 -0.47147424390E+03  0.47147424390E+03  0.25500000920E-02 0. -1.
    10030    2    1    2    0    0  0.00000000000E+00  0.00000000000E+00 -0.72852280571E+02  0.87009620724E+03  0.86704091891E+03 0.  0.
        4    1    3    3  502    0  0.17564332474E+03 -0.37921167248E+03  0.79246274920E+02  0.42536296860E+03  0.12699999809E+01 0.  1.
       -4    1    3    3    0  502 -0.17564332474E+03  0.37921167248E+03 -0.15209855549E+03  0.44473323864E+03  0.12699999809E+01 0. -1.
</event>
<event>
 5   0  0.3794006E-03  0.8995569E+03  0.7818609E-02  0.9426135E-01
        1   -1    0    0  501    0  0.00000000000E+00  0.00000000000E+00  0.14945838241E+04  0.14945838241E+04  0.50400001928E-02 0.  1.
       -1   -1    0    0    0  501  0.00000000000E+00  0.00000000000E+00 -0.13535584456E+03  0.13535584465E+03  0.50400001928E-02 0. -1.
    10030    2    1    2    0    0  0.00000000000E+00  0.00000000000E+00  0.13592279796E+04  0.16299396688E+04  0.89955690396E+03 0.  0.
        5    1    3    3  502    0  0.30248426929E+03 -0.11414210627E+03  0.12461256480E+04  0.12873913058E+04  0.46999998093E+01 0.  1.
       -5    1    3    3    0  502 -0.30248426929E+03  0.11414210627E+03  0.11310233156E+03  0.34254836301E+03  0.46999998093E+01 0. -1.
</event>
<event>
 5   0  0.3998066E-03  0.8976157E+03  0.7818609E-02  0.9428567E-01
        1   -1    0    0  501    0  0.00000000000E+00  0.00000000000E+00  0.93464810624E+03  0.93464810626E+03  0.50400001928E-02 0.  1.
       -1   -1    0    0    0  501  0.00000000000E+00  0.00000000000E+00 -0.21551263564E+03  0.21551263569E+03  0.50400001928E-02 0. -1.
    10030    2    1    2    0    0  0.00000000000E+00  0.00000000000E+00  0.71913547061E+03  0.11501607420E+04  0.89761567903E+03 0.  0.
        4    1    3    3  502    0 -0.18310078788E+03  0.19570860067E+03 -0.10171703664E+03  0.28666308332E+03  0.12699999809E+01 0. -1.
       -4    1    3    3    0  502  0.18310078788E+03 -0.19570860067E+03  0.82085250725E+03  0.86349765863E+03  0.12699999809E+01 0.  1.
</event>
<event>
 5   0  0.3794006E-03  0.8794988E+03  0.7818609E-02  0.9451578E-01
        1   -1    0    0  501    0  0.00000000000E+00  0.00000000000E+00  0.20123823999E+03  0.20123824005E+03  0.50400001928E-02 0. -1.
       -1   -1    0    0    0  501  0.00000000000E+00  0.00000000000E+00 -0.96094835463E+03  0.96094835464E+03  0.50400001928E-02 0.  1.
    10030    2    1    2    0    0  0.00000000000E+00  0.00000000000E+00 -0.75971011464E+03  0.11621865947E+04  0.87949884742E+03 0.  0.
        5    1    3    3  502    0 -0.20982366238E+03 -0.34451848384E+03 -0.14855570737E+03  0.42989515372E+03  0.46999998093E+01 0. -1.
       -5    1    3    3    0  502  0.20982366238E+03  0.34451848384E+03 -0.61115440727E+03  0.73229144097E+03  0.46999998093E+01 0.  1.
</event>
<event>
 5   0  0.6524705E-03  0.9024191E+03  0.7818609E-02  0.9422563E-01
       -2   -1    0    0    0  501  0.00000000000E+00  0.00000000000E+00  0.92992921757E+02  0.92992921792E+02  0.25500000920E-02 0. -1.
        2   -1    0    0  501    0  0.00000000000E+00  0.00000000000E+00 -0.21893068393E+04  0.21893068393E+04  0.25500000920E-02 0.  1.
    10030    2    1    2    0    0  0.00000000000E+00  0.00000000000E+00 -0.20963139176E+04  0.22822997611E+04  0.90241905931E+03 0.  0.
        3    1    3    3  502    0 -0.11856404765E+03 -0.25277685280E+03 -0.19445991097E+04  0.19645404751E+04  0.10100000352E+00 0.  1.
       -3    1    3    3    0  502  0.11856404765E+03  0.25277685280E+03 -0.15171480784E+03  0.31775928597E+03  0.10100000352E+00 0. -1.
</event>
<event>
 5   0  0.6609191E-03  0.8866741E+03  0.7818609E-02  0.9442394E-01
       -2   -1    0    0    0  501  0.00000000000E+00  0.00000000000E+00  0.40150080257E+03  0.40150080258E+03  0.25500000920E-02 0.  1.
        2   -1    0    0  501    0  0.00000000000E+00  0.00000000000E+00 -0.48953267062E+03  0.48953267063E+03  0.25500000920E-02 0. -1.
    10030    2    1    2    0    0  0.00000000000E+00  0.00000000000E+00 -0.88031868055E+02  0.89103347321E+03  0.88667414566E+03 0.  0.
        2    1    3    3  502    0 -0.35243233475E+02  0.15773456164E+03 -0.45887180504E+03  0.48650345416E+03  0.25500000920E-02 0. -1.
       -2    1    3    3    0  502  0.35243233475E+02 -0.15773456164E+03  0.37083993699E+03  0.40453001905E+03  0.25500000920E-02 0.  1.
</event>
<event>
 5   0  0.6724773E-03  0.9034639E+03  0.7818609E-02  0.9421262E-01
        2   -1    0    0  501    0  0.00000000000E+00  0.00000000000E+00  0.48774477326E+03  0.48774477326E+03  0.25500000920E-02 0.  1.
       -2   -1    0    0    0  501  0.00000000000E+00  0.00000000000E+00 -0.41837814180E+03  0.41837814181E+03  0.25500000920E-02 0. -1.
    10030    2    1    2    0    0  0.00000000000E+00  0.00000000000E+00  0.69366631452E+02  0.90612291508E+03  0.90346389395E+03 0.  0.
        5    1    3    3  502    0  0.40959836474E+03  0.16589239058E+02  0.22496158332E+03  0.46762787258E+03  0.46999998093E+01 0.  1.
       -5    1    3    3    0  502 -0.40959836474E+03 -0.16589239058E+02 -0.15559495187E+03  0.43849504249E+03  0.46999998093E+01 0. -1.
</event>
<event>
 5   0  0.3998066E-03  0.9034164E+03  0.7818609E-02  0.9421321E-01
        1   -1    0    0  501    0  0.00000000000E+00  0.00000000000E+00  0.10904819704E+04  0.10904819704E+04  0.50400001928E-02 0. -1.
       -1   -1    0    0    0  501  0.00000000000E+00  0.00000000000E+00 -0.18711021840E+03  0.18711021847E+03  0.50400001928E-02 0.  1.
    10030    2    1    2    0    0  0.00000000000E+00  0.00000000000E+00  0.90337175198E+03  0.12775921889E+04  0.90341644813E+03 0.  0.
        4    1    3    3  502    0 -0.27099998080E+03 -0.23420297267E+03  0.84089773949E+03  0.91400363412E+03  0.12699999809E+01 0. -1.
       -4    1    3    3    0  502  0.27099998080E+03  0.23420297267E+03  0.62474012482E+02  0.36358855473E+03  0.12699999809E+01 0.  1.
</event>
<event>
 5   0  0.3969536E-03  0.9052759E+03  0.7818609E-02  0.9419010E-01
       -1   -1    0    0    0  501  0.00000000000E+00  0.00000000000E+00  0.38512549767E+03  0.38512549770E+03  0.50400001928E-02 0.  1.
        1   -1    0    0  501    0  0.00000000000E+00  0.00000000000E+00 -0.53198531544E+03  0.53198531547E+03  0.50400001928E-02 0. -1.
    10030    2    1    2    0    0  0.00000000000E+00  0.00000000000E+00 -0.14685981778E+03  0.91711081317E+03  0.90527589030E+03 0.  0.
        1    1    3    3  502    0 -0.34004006138E+03 -0.12428299195E+02 -0.37582745165E+03  0.50697926921E+03  0.50400001928E-02 0. -1.
       -1    1    3    3    0  502  0.34004006138E+03  0.12428299195E+02  0.22896763387E+03  0.41013154396E+03  0.50400001928E-02 0.  1.
</event>
<event>
 5   0  0.6609191E-03  0.8907510E+03  0.7818609E-02  0.9437218E-01
        2   -1    0    0  501    0  0.00000000000E+00  0.00000000000E+00  0.31735446084E+03  0.31735446085E+03  0.25500000920E-02 0.  1.
       -2   -1    0    0    0  501  0.00000000000E+00  0.00000000000E+00 -0.62504030662E+03  0.62504030662E+03  0.25500000920E-02 0. -1.
    10030    2    1    2    0    0  0.00000000000E+00  0.00000000000E+00 -0.30768584578E+03  0.94239476747E+03  0.89075098544E+03 0.  0.
        2    1    3    3  502    0  0.34499293696E+03 -0.10550789425E+03 -0.43014995816E+03  0.56140985814E+03  0.25500000920E-02 0. -1.
       -2    1    3    3    0  502 -0.34499293696E+03  0.10550789425E+03  0.12246411239E+03  0.38098490933E+03  0.25500000920E-02 0.  1.
</event>
<event>
 5   0  0.2560250E-03  0.8971268E+03  0.7818609E-02  0.9429180E-01
       -3   -1    0    0    0  501  0.00000000000E+00  0.00000000000E+00  0.34214572791E+03  0.34214574282E+03  0.10100000352E+00 0. -1.
        3   -1    0    0  501    0  0.00000000000E+00  0.00000000000E+00 -0.58808016531E+03  0.58808017399E+03  0.10100000352E+00 0.  1.
    10030    2    1    2    0    0  0.00000000000E+00  0.00000000000E+00 -0.24593443740E+03  0.93022591681E+03  0.89712680754E+03 0.  0.
        1    1    3    3  502    0 -0.37596652598E+03 -0.23329085020E+03 -0.19940033018E+03  0.48532045201E+03  0.50400001928E-02 0.  1.
       -1    1    3    3    0  502  0.37596652598E+03  0.23329085020E+03 -0.46534107224E+02  0.44490546479E+03  0.50400001928E-02 0. -1.
</event>
<event>
 5   0  0.3998066E-03  0.9014259E+03  0.7818609E-02  0.9423801E-01
        1   -1    0    0  501    0  0.00000000000E+00  0.00000000000E+00  0.85207225805E+03  0.85207225806E+03  0.50400001928E-02 0. -1.
       -1   -1    0    0    0  501  0.00000000000E+00  0.00000000000E+00 -0.23840956813E+03  0.23840956818E+03  0.50400001928E-02 0.  1.
    10030    2    1    2    0    0  0.00000000000E+00  0.00000000000E+00  0.61366268992E+03  0.10904818262E+04  0.90142593504E+03 0.  0.
        4    1    3    3  502    0 -0.20885206043E+03 -0.38819788137E+03  0.19319535120E+03  0.48129287848E+03  0.12699999809E+01 0.  1.
       -4    1    3    3    0  502  0.20885206043E+03  0.38819788137E+03  0.42046733873E+03  0.60918894777E+03  0.12699999809E+01 0. -1.
</event>
<event>
 5   0  0.6534628E-03  0.9035742E+03  0.7818609E-02  0.9421125E-01
        2   -1    0    0  501    0  0.00000000000E+00  0.00000000000E+00  0.34033786278E+03  0.34033786279E+03  0.25500000920E-02 0. -1.
       -2   -1    0    0    0  501  0.00000000000E+00  0.00000000000E+00 -0.59973222014E+03  0.59973222015E+03  0.25500000920E-02 0.  1.
    10030    2    1    2    0    0  0.00000000000E+00  0.00000000000E+00 -0.25939435736E+03  0.94007008294E+03  0.90357419630E+03 0.  0.
        4    1    3    3  502    0  0.10759041478E+03 -0.29323218228E+03  0.20990574846E+03  0.37632810979E+03  0.12699999809E+01 0. -1.
       -4    1    3    3    0  502 -0.10759041478E+03  0.29323218228E+03 -0.46930010582E+03  0.56374197316E+03  0.12699999809E+01 0.  1.
</event>
<event>
 5   0  0.3794006E-03  0.9029223E+03  0.7818609E-02  0.9421936E-01
       -1   -1    0    0    0  501  0.00000000000E+00  0.00000000000E+00  0.57108608458E+03  0.57108608461E+03  0.50400001928E-02 0.  1.
        1   -1    0    0  501    0  0.00000000000E+00  0.00000000000E+00 -0.35689397171E+03  0.35689397175E+03  0.50400001928E-02 0. -1.
    10030    2    1    2    0    0  0.00000000000E+00  0.00000000000E+00  0.21419211287E+03  0.92798005635E+03  0.90292232433E+03 0.  0.
        5    1    3    3  502    0  0.36978624605E+03 -0.25867805183E+03  0.94983894457E+02  0.46119435434E+03  0.46999998093E+01 0. -1.
       -5    1    3    3    0  502 -0.36978624605E+03  0.25867805183E+03  0.11920821841E+03  0.46678570201E+03  0.46999998093E+01 0.  1.
</event>
<event>
 5   0  0.6724773E-03  0.8993344E+03  0.7818609E-02  0.9426414E-01
        2   -1    0    0  501    0  0.00000000000E+00  0.00000000000E+00  0.92217930681E+03  0.92217930681E+03  0.25500000920E-02 0. -1.
       -2   -1    0    0    0  501  0.00000000000E+00  0.00000000000E+00 -0.21926385338E+03  0.21926385339E+03  0.25500000920E-02 0.  1.
    10030    2    1    2    0    0  0.00000000000E+00  0.00000000000E+00  0.70291545343E+03  0.11414431602E+04  0.89933439460E+03 0.  0.
        5    1    3    3  502    0  0.39833178860E+03  0.12845681214E+03  0.56004528491E+03  0.69917249484E+03  0.46999998093E+01 0.  1.
       -5    1    3    3    0  502 -0.39833178860E+03 -0.12845681214E+03  0.14287016852E+03  0.44227066536E+03  0.46999998093E+01 0. -1.
</event>
<event>
 5   0  0.6863405E-03  0.9010406E+03  0.7818609E-02  0.9424282E-01
       -2   -1    0    0    0  501  0.00000000000E+00  0.00000000000E+00  0.60697093939E+03  0.60697093940E+03  0.25500000920E-02 0.  1.
        2   -1    0    0  501    0  0.00000000000E+00  0.00000000000E+00 -0.33439583404E+03  0.33439583405E+03  0.25500000920E-02 0. -1.
    10030    2    1    2    0    0  0.00000000000E+00  0.00000000000E+00  0.27257510535E+03  0.94136677345E+03  0.90104062844E+03 0.  0.
        1    1    3    3  502    0 -0.22222872248E+02 -0.39562130993E+03  0.36026139657E+03  0.53553557380E+03  0.50400001928E-02 0. -1.
       -1    1    3    3    0  502  0.22222872248E+02  0.39562130993E+03 -0.87686291215E+02  0.40583119965E+03  0.50400001928E-02 0.  1.
</event>
<event>
 5   0  0.3943549E-03  0.8995336E+03  0.7818609E-02  0.9426165E-01
        1   -1    0    0  501    0  0.00000000000E+00  0.00000000000E+00  0.13967306762E+04  0.13967306762E+04  0.50400001928E-02 0.  1.
       -1   -1    0    0    0  501  0.00000000000E+00  0.00000000000E+00 -0.14483120854E+03  0.14483120863E+03  0.50400001928E-02 0. -1.
    10030    2    1    2    0    0  0.00000000000E+00  0.00000000000E+00  0.12518994677E+04  0.15415618848E+04  0.89953363898E+03 0.  0.
        3    1    3    3  502    0  0.34675353619E+03  0.16870326368E+02  0.11159926000E+04  0.11687438198E+04  0.10100000352E+00 0.  1.
       -3    1    3    3    0  502 -0.34675353619E+03 -0.16870326368E+02  0.13590686766E+03  0.37281806508E+03  0.10100000352E+00 0. -1.
</event>
<event>
 5   0  0.3927993E-03  0.8971556E+03  0.7818609E-02  0.9429144E-01
        1   -1    0    0  501    0  0.00000000000E+00  0.00000000000E+00  0.23327095596E+03  0.23327095602E+03  0.50400001928E-02 0. -1.
       -1   -1    0    0    0  501  0.00000000000E+00  0.00000000000E+00 -0.86261069069E+03  0.86261069070E+03  0.50400001928E-02 0.  1.
    10030    2    1    2    0    0  0.00000000000E+00  0.00000000000E+00 -0.62933973473E+03  0.10958816467E+04  0.89715555056E+03 0.  0.
        2    1    3    3  502    0 -0.39617495783E+03 -0.11596193073E+03 -0.52911392253E+03  0.67109113361E+03  0.25500000920E-02 0.  1.
       -2    1    3    3    0  502  0.39617495783E+03  0.11596193073E+03 -0.10022581220E+03  0.42479051311E+03  0.25500000920E-02 0. -1.
</event>
<event>
 5   0  0.3998066E-03  0.9178806E+03  0.7818609E-02  0.9403502E-01
       -1   -1    0    0    0  501  0.00000000000E+00  0.00000000000E+00  0.15423247327E+03  0.15423247335E+03  0.50400001928E-02 0. -1.
        1   -1    0    0  501    0  0.00000000000E+00  0.00000000000E+00 -0.13656409659E+04  0.13656409659E+04  0.50400001928E-02 0.  1.
    10030    2    1    2    0    0  0.00000000000E+00  0.00000000000E+00 -0.12114084926E+04  0.15198734393E+04  0.91788056706E+03 0.  0.
        4    1    3    3  502    0 -0.22835655793E+03  0.33894794307E+03 -0.95142493656E+03  0.10354918872E+04  0.12699999809E+01 0.  1.
       -4    1    3    3    0  502  0.22835655793E+03 -0.33894794307E+03 -0.25998355608E+03  0.48438155208E+03  0.12699999809E+01 0. -1.
</event>
<event>
 5   0  0.3998066E-03  0.9024483E+03  0.7818609E-02  0.9422526E-01
        1   -1    0    0  501    0  0.00000000000E+00  0.00000000000E+00  0.72547850909E+03  0.72547850911E+03  0.50400001928E-02 0.  1.
       -1   -1    0    0    0  501  0.00000000000E+00  0.00000000000E+00 -0.28064683371E+03  0.28064683375E+03  0.50400001928E-02 0. -1.
    10030    2    1    2    0    0  0.00000000000E+00  0.00000000000E+00  0.44483167539E+03  0.10061253429E+04  0.90244832878E+03 0.  0.
        4    1    3    3  502    0 -0.32700509542E+03 -0.30776460076E+03  0.17318070890E+03  0.48129466311E+03  0.12699999809E+01 0. -1.
       -4    1    3    3    0  502  0.32700509542E+03  0.30776460076E+03  0.27165096649E+03  0.52483067974E+03  0.12699999809E+01 0.  1.
</event>
<event>
 5   0  0.3943549E-03  0.8958795E+03  0.7818609E-02  0.9430747E-01
        1   -1    0    0  501    0  0.00000000000E+00  0.00000000000E+00  0.10374484070E+04  0.10374484070E+04  0.50400001928E-02 0. -1.
       -1   -1    0    0    0  501  0.00000000000E+00  0.00000000000E+00 -0.19340724554E+03  0.19340724561E+03  0.50400001928E-02 0.  1.
    10030    2    1    2    0    0  0.00000000000E+00  0.00000000000E+00  0.84404116148E+03  0.12308556526E+04  0.89587954289E+03 0.  0.
        3    1    3    3  502    0  0.37150617297E+03 -0.16363250179E+03  0.16185604690E+03  0.43702382351E+03  0.10100000352E+00 0.  1.
       -3    1    3    3    0  502 -0.37150617297E+03  0.16363250179E+03  0.68218511458E+03  0.79383182913E+03  0.10100000352E+00 0. -1.
</event>
<event>
 5   0  0.6724773E-03  0.9013362E+03  0.7818609E-02  0.9423913E-01
        2   -1    0    0  501    0  0.00000000000E+00  0.00000000000E+00  0.26465888794E+04  0.26465888794E+04  0.25500000920E-02 0.  1.
       -2   -1    0    0    0  501  0.00000000000E+00  0.00000000000E+00 -0.76740953941E+02  0.76740953984E+02  0.25500000920E-02 0. -1.
    10030    2    1    2    0    0  0.00000000000E+00  0.00000000000E+00  0.25698479255E+04  0.27233298334E+04  0.90133624216E+03 0.  0.
        5    1    3    3  502    0  0.38989510216E+03 -0.72667099738E+02  0.19314051507E+04  0.19717116027E+04  0.46999998093E+01 0.  1.
       -5    1    3    3    0  502 -0.38989510216E+03  0.72667099738E+02  0.63844277483E+03  0.75161823075E+03  0.46999998093E+01 0. -1.
</event>
<event>
 5   0  0.6609191E-03  0.9021574E+03  0.7818609E-02  0.9422889E-01
       -2   -1    0    0    0  501  0.00000000000E+00  0.00000000000E+00  0.11674600920E+04  0.11674600920E+04  0.25500000920E-02 0. -1.
        2   -1    0    0  501    0  0.00000000000E+00  0.00000000000E+00 -0.17428601892E+03  0.17428601894E+03  0.25500000920E-02 0.  1.
    10030    2    1    2    0    0  0.00000000000E+00  0.00000000000E+00  0.99317407304E+03  0.13417461109E+04  0.90215735145E+03 0.  0.
        2    1    3    3  502    0 -0.37873883836E+03  0.24188217815E+03  0.43856704342E+03  0.62792606839E+03  0.25500000920E-02 0.  1.
       -2    1    3    3    0  502  0.37873883836E+03 -0.24188217815E+03  0.55460702962E+03  0.71382004251E+03  0.25500000920E-02 0. -1.
</event>
<event>
 5   0  0.3927993E-03  0.9028064E+03  0.7818609E-02  0.9422080E-01
        1   -1    0    0  501    0  0.00000000000E+00  0.00000000000E+00  0.50966913010E+03  0.50966913013E+03  0.50400001928E-02 0. -1.
       -1   -1    0    0    0  501  0.00000000000E+00  0.00000000000E+00 -0.39979829278E+03  0.39979829281E+03  0.50400001928E-02 0.  1.
    10030    2    1    2    0    0  0.00000000000E+00  0.00000000000E+00  0.10987083732E+03  0.90946742294E+03  0.90280639812E+03 0.  0.
        2    1    3    3  502    0 -0.22327046465E+02  0.23649163524E+03 -0.33174304916E+03  0.40801990297E+03  0.25500000920E-02 0.  1.
       -2    1    3    3    0  502  0.22327046465E+02 -0.23649163524E+03  0.44161388648E+03  0.50144751997E+03  0.25500000920E-02 0. -1.
</event>
<event>
 5   0  0.3969536E-03  0.9053131E+03  0.7818609E-02  0.9418964E-01
        1   -1    0    0  501    0  0.00000000000E+00  0.00000000000E+00  0.19772950650E+04  0.19772950650E+04  0.50400001928E-02 0. -1.
       -1   -1    0    0    0  501  0.00000000000E+00  0.00000000000E+00 -0.10362538085E+03  0.10362538098E+03  0.50400001928E-02 0.  1.
    10030    2    1    2    0    0  0.00000000000E+00  0.00000000000E+00  0.18736696841E+04  0.20809204460E+04  0.90531310452E+03 0.  0.
        1    1    3    3  502    0 -0.22440616752E+03 -0.16540984618E+03  0.11711570953E+03  0.30238160440E+03  0.50400001928E-02 0.  1.
       -1    1    3    3    0  502  0.22440616752E+03  0.16540984618E+03  0.17565539746E+04  0.17785388416E+04  0.50400001928E-02 0. -1.
</event>
<event>
 5   0  0.3943549E-03  0.9058085E+03  0.7818609E-02  0.9418350E-01
        1   -1    0    0  501    0  0.00000000000E+00  0.00000000000E+00  0.62011309022E+03  0.62011309024E+03  0.50400001928E-02 0.  1.
       -1   -1    0    0    0  501  0.00000000000E+00  0.00000000000E+00 -0.33078201136E+03  0.33078201140E+03  0.50400001928E-02 0. -1.
    10030    2    1    2    0    0  0.00000000000E+00  0.00000000000E+00  0.28933107885E+03  0.95089510164E+03  0.90580849031E+03 0.  0.
        3    1    3    3  502    0 -0.37044315564E+03  0.11025457272E+03  0.39250592733E+03  0.55085852590E+03  0.10100000352E+00 0.  1.
       -3    1    3    3    0  502  0.37044315564E+03 -0.11025457272E+03 -0.10317484848E+03  0.40003657574E+03  0.10100000352E+00 0. -1.
</event>
<event>
 5   0  0.3969536E-03  0.8680734E+03  0.7818609E-02  0.9466395E-01
       -1   -1    0    0    0  501  0.00000000000E+00  0.00000000000E+00  0.71182215207E+03  0.71182215209E+03  0.50400001928E-02 0.  1.
        1   -1    0    0  501    0  0.00000000000E+00  0.00000000000E+00 -0.26465577278E+03  0.26465577283E+03  0.50400001928E-02 0. -1.
    10030    2    1    2    0    0  0.00000000000E+00  0.00000000000E+00  0.44716637929E+03  0.97647792492E+03  0.86807336504E+03 0.  0.
        1    1    3    3  502    0  0.13397288876E+03 -0.41179948856E+03  0.19058972343E+03  0.47312999947E+03  0.50400001928E-02 0.  1.
       -1    1    3    3    0  502 -0.13397288876E+03  0.41179948856E+03  0.25657665586E+03  0.50334792545E+03  0.50400001928E-02 0. -1.
</event>
<event>
 5   0  0.3998066E-03  0.8940906E+03  0.7818609E-02  0.9432999E-01
        1   -1    0    0  501    0  0.00000000000E+00  0.00000000000E+00  0.54155136216E+03  0.54155136219E+03  0.50400001928E-02 0. -1.
       -1   -1    0    0    0  501  0.00000000000E+00  0.00000000000E+00 -0.36903147343E+03  0.36903147346E+03  0.50400001928E-02 0.  1.
    10030    2    1    2    0    0  0.00000000000E+00  0.00000000000E+00  0.17251988873E+03  0.91058283565E+03  0.89409059305E+03 0.  0.
        4    1    3    3  502    0 -0.19474062787E+02  0.44052480968E+03  0.11374479352E+02  0.44110354651E+03  0.12699999809E+01 0.  1.
       -4    1    3    3    0  502  0.19474062787E+02 -0.44052480968E+03  0.16114540938E+03  0.46947928914E+03  0.12699999809E+01 0. -1.
</event>
<event>
 5   0  0.3998066E-03  0.8976769E+03  0.7818609E-02  0.9428490E-01
       -1   -1    0    0    0  501  0.00000000000E+00  0.00000000000E+00  0.16186499481E+03  0.16186499489E+03  0.50400001928E-02 0.  1.
        1   -1    0    0  501    0  0.00000000000E+00  0.00000000000E+00 -0.12445923694E+04  0.12445923694E+04  0.50400001928E-02 0. -1.
    10030    2    1    2    0    0  0.00000000000E+00  0.00000000000E+00 -0.10827273746E+04  0.14064573643E+04  0.89767686273E+03 0.  0.
        4    1    3    3  502    0  0.22583760707E+03  0.38787020167E+03 -0.54590637595E+03  0.70672576175E+03  0.12699999809E+01 0.  1.
       -4    1    3    3    0  502 -0.22583760707E+03 -0.38787020167E+03 -0.53682099862E+03  0.69973160252E+03  0.12699999809E+01 0. -1.
</event>
<event>
 5   0  0.3943549E-03  0.8995621E+03  0.7818609E-02  0.9426129E-01
       -1   -1    0    0    0  501  0.00000000000E+00  0.00000000000E+00  0.10367386166E+03  0.10367386178E+03  0.50400001928E-02 0. -1.
        1   -1    0    0  501    0  0.00000000000E+00  0.00000000000E+00 -0.19513402201E+04  0.19513402201E+04  0.50400001928E-02 0.  1.
    10030    2    1    2    0    0  0.00000000000E+00  0.00000000000E+00 -0.18476663584E+04  0.20550140819E+04  0.89956206270E+03 0.  0.
        3    1    3    3  502    0 -0.31587239852E+03  0.11233639784E+03 -0.16088214690E+04  0.16433810780E+04  0.10100000352E+00 0. -1.
       -3    1    3    3    0  502  0.31587239852E+03 -0.11233639784E+03 -0.23884488945E+03  0.41163300384E+03  0.10100000352E+00 0.  1.
</event>
<event>
 5   0  0.6609191E-03  0.9038493E+03  0.7818609E-02  0.9420782E-01
        2   -1    0    0  501    0  0.00000000000E+00  0.00000000000E+00  0.13259151180E+04  0.13259151180E+04  0.25500000920E-02 0.  1.
       -2   -1    0    0    0  501  0.00000000000E+00  0.00000000000E+00 -0.15403391192E+03  0.15403391194E+03  0.25500000920E-02 0. -1.
    10030    2    1    2    0    0  0.00000000000E+00  0.00000000000E+00  0.11718812061E+04  0.14799490300E+04  0.90384930718E+03 0.  0.
        2    1    3    3  502    0 -0.15227715758E+03 -0.14695734378E+03 -0.67888860383E+02  0.22224691445E+03  0.25500000920E-02 0. -1.
       -2    1    3    3    0  502  0.15227715758E+03  0.14695734378E+03  0.12397700665E+04  0.12577021155E+04  0.25500000920E-02 0.  1.
</event>
<event>
 5   0  0.3794006E-03  0.8953287E+03  0.7818609E-02  0.9431440E-01
       -1   -1    0    0    0  501  0.00000000000E+00  0.00000000000E+00  0.27084061320E+03  0.27084061325E+03  0.50400001928E-02 0.  1.
        1   -1    0    0  501    0  0.00000000000E+00  0.00000000000E+00 -0.73993094958E+03  0.73993094960E+03  0.50400001928E-02 0. -1.
    10030    2    1    2    0    0  0.00000000000E+00  0.00000000000E+00 -0.46909033638E+03  0.10107715629E+04  0.89532865953E+03 0.  0.
        5    1    3    3  502    0  0.30677602197E+03  0.12747281622E+03  0.10417498359E+03  0.34818868984E+03  0.46999998093E+01 0.  1.
       -5    1    3    3    0  502 -0.30677602197E+03 -0.12747281622E+03 -0.57326531997E+03  0.66258287301E+03  0.46999998093E+01 0. -1.
</event>
<event>
 5   0  0.6863405E-03  0.9196338E+03  0.7818609E-02  0.9401366E-01
       -2   -1    0    0    0  501  0.00000000000E+00  0.00000000000E+00  0.47327803061E+03  0.47327803062E+03  0.25500000920E-02 0.  1.
        2   -1    0    0  501    0  0.00000000000E+00  0.00000000000E+00 -0.44673863131E+03  0.44673863131E+03  0.25500000920E-02 0. -1.
    10030    2    1    2    0    0  0.00000000000E+00  0.00000000000E+00  0.26539399302E+02  0.92001666193E+03  0.91963379587E+03 0.  0.
        1    1    3    3  502    0 -0.42146177615E+03 -0.18002815542E+03  0.50586892794E+02  0.46108480700E+03  0.50400001928E-02 0. -1.
       -1    1    3    3    0  502  0.42146177615E+03  0.18002815542E+03 -0.24047493493E+02  0.45893185493E+03  0.50400001928E-02 0.  1.
</event>
<event>
 5   0  0.3943549E-03  0.9011932E+03  0.7818609E-02  0.9424091E-01
        1   -1    0    0  501    0  0.00000000000E+00  0.00000000000E+00  0.55720265804E+03  0.55720265807E+03  0.50400001928E-02 0.  1.
       -1   -1    0    0    0  501  0.00000000000E+00  0.00000000000E+00 -0.36438679495E+03  0.36438679499E+03  0.50400001928E-02 0. -1.
    10030    2    1    2    0    0  0.00000000000E+00  0.00000000000E+00  0.19281586309E+03  0.92158945305E+03  0.90119318846E+03 0.  0.
        3    1    3    3  502    0  0.44042934083E+03  0.75507761196E+02  0.15566641282E+03  0.47319284499E+03  0.10100000352E+00 0.  1.
       -3    1    3    3    0  502 -0.44042934083E+03 -0.75507761196E+02  0.37149450272E+02  0.44839660806E+03  0.10100000352E+00 0. -1.
</event>
<event>
 5   0  0.6863405E-03  0.9053881E+03  0.7818609E-02  0.9418871E-01
       -2   -1    0    0    0  501  0.00000000000E+00  0.00000000000E+00  0.10190304800E+04  0.10190304800E+04  0.25500000920E-02 0.  1.
        2   -1    0    0  501    0  0.00000000000E+00  0.00000000000E+00 -0.20110479066E+03  0.20110479068E+03  0.25500000920E-02 0. -1.
    10030    2    1    2    0    0  0.00000000000E+00  0.00000000000E+00  0.81792568931E+03  0.12201352707E+04  0.90538811869E+03 0.  0.
        1    1    3    3  502    0  0.43213736217E+03  0.13479753799E+03  0.41481154758E+03  0.61398835173E+03  0.50400001928E-02 0. -1.
       -1    1    3    3    0  502 -0.43213736217E+03 -0.13479753799E+03  0.40311414172E+03  0.60614691892E+03  0.50400001928E-02 0.  1.
</event>
<event>
 5   0  0.3969536E-03  0.8996377E+03  0.7818609E-02  0.9426034E-01
        1   -1    0    0  501    0  0.00000000000E+00  0.00000000000E+00  0.12097051751E+04  0.12097051751E+04  0.50400001928E-02 0. -1.
       -1   -1    0    0    0  501  0.00000000000E+00  0.00000000000E+00 -0.16726140277E+03  0.16726140285E+03  0.50400001928E-02 0.  1.
    10030    2    1    2    0    0  0.00000000000E+00  0.00000000000E+00  0.10424437723E+04  0.13769665779E+04  0.89963767058E+03 0.  0.
        1    1    3    3  502    0  0.30761464692E+03  0.31463372890E+03  0.66411462053E+03  0.79666139833E+03  0.50400001928E-02 0. -1.
       -1    1    3    3    0  502 -0.30761464692E+03 -0.31463372890E+03  0.37832915177E+03  0.58030517960E+03  0.50400001928E-02 0.  1.
</event>
<event>
 5   0  0.6724773E-03  0.8982216E+03  0.7818609E-02  0.9427807E-01
       -2   -1    0    0    0  501  0.00000000000E+00  0.00000000000E+00  0.24749098601E+03  0.24749098602E+03  0.25500000920E-02 0.  1.
        2   -1    0    0  501    0  0.00000000000E+00  0.00000000000E+00 -0.81498128270E+03  0.81498128271E+03  0.25500000920E-02 0. -1.
    10030    2    1    2    0    0  0.00000000000E+00  0.00000000000E+00 -0.56749029669E+03  0.10624722687E+04  0.89822162353E+03 0.  0.
        5    1    3    3  502    0  0.10259911767E+03  0.21918898445E+03  0.16372711072E+03  0.29223115275E+03  0.46999998093E+01 0.  1.
       -5    1    3    3    0  502 -0.10259911767E+03 -0.21918898445E+03 -0.73121740741E+03  0.77024111598E+03  0.46999998093E+01 0. -1.
</event>
<event>
 5   0  0.3927993E-03  0.9117670E+03  0.7818609E-02  0.9410990E-01
        1   -1    0    0  501    0  0.00000000000E+00  0.00000000000E+00  0.99161915710E+03  0.99161915712E+03  0.50400001928E-02 0. -1.
       -1   -1    0    0    0  501  0.00000000000E+00  0.00000000000E+00 -0.20958627866E+03  0.20958627873E+03  0.50400001928E-02 0.  1.
    10030    2    1    2    0    0  0.00000000000E+00  0.00000000000E+00  0.78203287844E+03  0.12012054358E+04  0.91176700759E+03 0.  0.
        2    1    3    3  502    0  0.37600536861E+03 -0.25777193144E+03  0.39343249676E+03  0.60217566820E+03  0.25500000920E-02 0.  1.
       -2    1    3    3    0  502 -0.37600536861E+03  0.25777193144E+03  0.38860038168E+03  0.59902976764E+03  0.25500000920E-02 0. -1.
</event>
<event>
 5   0  0.6524705E-03  0.8873073E+03  0.7818609E-02  0.9441588E-01
       -2   -1    0    0    0  501  0.00000000000E+00  0.00000000000E+00  0.20489558831E+03  0.20489558833E+03  0.25500000920E-02 0. -1.
        2   -1    0    0  501    0  0.00000000000E+00  0.00000000000E+00 -0.96062862632E+03  0.96062862633E+03  0.25500000920E-02 0.  1.
    10030    2    1    2    0    0  0.00000000000E+00  0.00000000000E+00 -0.75573303801E+03  0.11655242147E+04  0.88730731441E+03 0.  0.
        3    1    3    3  502    0 -0.35040642870E+03  0.11792311536E+03 -0.55743440296E+02  0.37389553053E+03  0.10100000352E+00 0. -1.
       -3    1    3    3    0  502  0.35040642870E+03 -0.11792311536E+03 -0.69998959771E+03  0.79162868412E+03  0.10100000352E+00 0.  1.
</event>
<event>
 5   0  0.6609191E-03  0.9008529E+03  0.7818609E-02  0.9424516E-01
        2   -1    0    0  501    0  0.00000000000E+00  0.00000000000E+00  0.29008443200E+03  0.29008443201E+03  0.25500000920E-02 0. -1.
       -2   -1    0    0    0  501  0.00000000000E+00  0.00000000000E+00 -0.69939635166E+03  0.69939635166E+03  0.25500000920E-02 0.  1.
    10030    2    1    2    0    0  0.00000000000E+00  0.00000000000E+00 -0.40931191966E+03  0.98948078368E+03  0.90085291457E+03 0.  0.
        2    1    3    3  502    0 -0.12842575495E+03 -0.15557786022E+03  0.23768853245E+03  0.31175869449E+03  0.25500000920E-02 0. -1.
       -2    1    3    3    0  502  0.12842575495E+03  0.15557786022E+03 -0.64700045211E+03  0.67772208918E+03  0.25500000920E-02 0.  1.
</event>
<event>
 5   0  0.3927993E-03  0.9308006E+03  0.7818609E-02  0.9387878E-01
        1   -1    0    0  501    0  0.00000000000E+00  0.00000000000E+00  0.83282554075E+03  0.83282554076E+03  0.50400001928E-02 0.  1.
       -1   -1    0    0    0  501  0.00000000000E+00  0.00000000000E+00 -0.26007539270E+03  0.26007539275E+03  0.50400001928E-02 0. -1.
    10030    2    1    2    0    0  0.00000000000E+00  0.00000000000E+00  0.57275014804E+03  0.10929009335E+04  0.93080057928E+03 0.  0.
        2    1    3    3  502    0  0.24331320078E+03  0.11837203092E+03  0.73098050949E+03  0.77945221575E+03  0.25500000920E-02 0.  1.
       -2    1    3    3    0  502 -0.24331320078E+03 -0.11837203092E+03 -0.15823036145E+03  0.31344871777E+03  0.25500000920E-02 0. -1.
</event>
<event>
 5   0  0.2560250E-03  0.8924178E+03  0.7818609E-02  0.9435110E-01
       -4   -1    0    0    0  501  0.00000000000E+00  0.00000000000E+00  0.28891366084E+03  0.28891645215E+03  0.12699999809E+01 0. -1.
        4   -1    0    0  501    0  0.00000000000E+00  0.00000000000E+00 -0.68913472383E+03  0.68913589406E+03  0.12699999809E+01 0.  1.
    10030    2    1    2    0    0  0.00000000000E+00  0.00000000000E+00 -0.40022106298E+03  0.97805234621E+03  0.89241777922E+03 0.  0.
        2    1    3    3  502    0  0.50743785525E+02 -0.22853753067E+03 -0.61642748709E+03  0.65938394092E+03  0.25500000920E-02 0.  1.
       -2    1    3    3    0  502 -0.50743785525E+02  0.22853753067E+03  0.21620642411E+03  0.31866840529E+03  0.25500000920E-02 0. -1.
</event>
<event>
 5   0  0.6724773E-03  0.9351480E+03  0.7818609E-02  0.9382681E-01
        2   -1    0    0  501    0  0.00000000000E+00  0.00000000000E+00  0.17436845611E+04  0.17436845611E+04  0.25500000920E-02 0.  1.
       -2   -1    0    0    0  501  0.00000000000E+00  0.00000000000E+00 -0.12538131326E+03  0.12538131328E+03  0.25500000920E-02 0. -1.
    10030    2    1    2    0    0  0.00000000000E+00  0.00000000000E+00  0.16183032478E+04  0.18690658744E+04  0.93514803150E+03 0.  0.
        5    1    3    3  502    0  0.69782172142E+02  0.34760026402E+03  0.14183665117E+04  0.14620127039E+04  0.46999998093E+01 0.  1.
       -5    1    3    3    0  502 -0.69782172142E+02 -0.34760026402E+03  0.19993673618E+03  0.40705317044E+03  0.46999998093E+01 0. -1.
</event>
<event>
 5   0  0.6524705E-03  0.8978148E+03  0.7818609E-02  0.9428317E-01
        2   -1    0    0  501    0  0.00000000000E+00  0.00000000000E+00  0.45680546792E+03  0.45680546793E+03  0.25500000920E-02 0. -1.
       -2   -1    0    0    0  501  0.00000000000E+00  0.00000000000E+00 -0.44114586452E+03  0.44114586453E+03  0.25500000920E-02 0.  1.
    10030    2    1    2    0    0  0.00000000000E+00  0.00000000000E+00  0.15659603401E+02  0.89795133246E+03  0.89781477616E+03 0.  0.
        3    1    3    3  502    0  0.16939399321E+03  0.26262754712E+02  0.42278298246E+03  0.45621214109E+03  0.10100000352E+00 0. -1.
       -3    1    3    3    0  502 -0.16939399321E+03 -0.26262754712E+02 -0.40712337905E+03  0.44173919137E+03  0.10100000352E+00 0.  1.
</event>
<event>
 5   0  0.6863405E-03  0.8992967E+03  0.7818609E-02  0.9426461E-01
        2   -1    0    0  501    0  0.00000000000E+00  0.00000000000E+00  0.77935036591E+03  0.77935036591E+03  0.25500000920E-02 0. -1.
       -2   -1    0    0    0  501  0.00000000000E+00  0.00000000000E+00 -0.25942587860E+03  0.25942587861E+03  0.25500000920E-02 0.  1.
    10030    2    1    2    0    0  0.00000000000E+00  0.00000000000E+00  0.51992448731E+03  0.10387762445E+04  0.89929673283E+03 0.  0.
        1    1    3    3  502    0 -0.26500443300E+03 -0.33727349618E+03  0.41580592470E+03  0.59739043161E+03  0.50400001928E-02 0. -1.
       -1    1    3    3    0  502  0.26500443300E+03  0.33727349618E+03  0.10411856261E+03  0.44138581291E+03  0.50400001928E-02 0.  1.
</event>
<event>
 5   0  0.3794006E-03  0.8941591E+03  0.7818609E-02  0.9432912E-01
       -1   -1    0    0    0  501  0.00000000000E+00  0.00000000000E+00  0.18662997589E+03  0.18662997596E+03  0.50400001928E-02 0. -1.
        1   -1    0    0  501    0  0.00000000000E+00  0.00000000000E+00 -0.10709967915E+04  0.10709967915E+04  0.50400001928E-02 0.  1.
    10030    2    1    2    0    0  0.00000000000E+00  0.00000000000E+00 -0.88436681557E+03  0.12576267674E+04  0.89415905839E+03 0.  0.
        5    1    3    3  502    0 -0.13991951681E+03 -0.23598507626E+03 -0.93864008067E+03  0.97792316592E+03  0.46999998093E+01 0.  1.
       -5    1    3    3    0  502  0.13991951681E+03  0.23598507626E+03  0.54273265102E+02  0.27970360152E+03  0.46999998093E+01 0. -1.
</event>
<event>
 5   0  0.3969536E-03  0.9024862E+03  0.7818609E-02  0.9422479E-01
       -1   -1    0    0    0  501  0.00000000000E+00  0.00000000000E+00  0.50001227305E+03  0.50001227307E+03  0.50400001928E-02 0. -1.
        1   -1    0    0  501    0  0.00000000000E+00  0.00000000000E+00 -0.40723066766E+03  0.40723066769E+03  0.50400001928E-02 0.  1.
    10030    2    1    2    0    0  0.00000000000E+00  0.00000000000E+00  0.92781605390E+02  0.90724294076E+03  0.90248619228E+03 0.  0.
        1    1    3    3  502    0 -0.52883971847E+01 -0.24181325358E+03  0.42934315690E+03  0.49278510849E+03  0.50400001928E-02 0. -1.
       -1    1    3    3    0  502  0.52883971847E+01  0.24181325358E+03 -0.33656155151E+03  0.41445783227E+03  0.50400001928E-02 0.  1.
</event>
<event>
 5   0  0.2560250E-03  0.8915964E+03  0.7818609E-02  0.9436148E-01
       -3   -1    0    0    0  501  0.00000000000E+00  0.00000000000E+00  0.10375466388E+04  0.10375466437E+04  0.10100000352E+00 0. -1.
        3   -1    0    0  501    0  0.00000000000E+00  0.00000000000E+00 -0.19154416590E+03  0.19154419253E+03  0.10100000352E+00 0.  1.
    10030    2    1    2    0    0  0.00000000000E+00  0.00000000000E+00  0.84600247287E+03  0.12290908362E+04  0.89159637704E+03 0.  0.
        5    1    3    3  502    0  0.68117516384E+01  0.37444794590E+03  0.89704363904E+02  0.38513196057E+03  0.46999998093E+01 0.  1.
       -5    1    3    3    0  502 -0.68117516384E+01 -0.37444794590E+03  0.75629810896E+03  0.84395887564E+03  0.46999998093E+01 0. -1.
</event>
<event>
 5   0  0.6609191E-03  0.8952324E+03  0.7818609E-02  0.9431561E-01
       -2   -1    0    0    0  501  0.00000000000E+00  0.00000000000E+00  0.18675229119E+03  0.18675229121E+03  0.25500000920E-02 0. -1.
        2   -1    0    0  501    0  0.00000000000E+00  0.00000000000E+00 -0.10728663578E+04  0.10728663578E+04  0.25500000920E-02 0.  1.
    10030    2    1    2    0    0  0.00000000000E+00  0.00000000000E+00 -0.88611406660E+03  0.12596186490E+04  0.89523237313E+03 0.  0.
        2    1    3    3  502    0 -0.11369109156E+03  0.12844121751E+03 -0.10247876223E+04  0.10390440229E+04  0.25500000920E-02 0.  1.
       -2    1    3    3    0  502  0.11369109156E+03 -0.12844121751E+03  0.13867355567E+03  0.22057462616E+03  0.25500000920E-02 0. -1.
</event>
<event>
 5   0  0.3927993E-03  0.9028669E+03  0.7818609E-02  0.9422005E-01
        1   -1    0    0  501    0  0.00000000000E+00  0.00000000000E+00  0.15247985309E+04  0.15247985309E+04  0.50400001928E-02 0. -1.
       -1   -1    0    0    0  501  0.00000000000E+00  0.00000000000E+00 -0.13365184515E+03  0.13365184524E+03  0.50400001928E-02 0.  1.
    10030    2    1    2    0    0  0.00000000000E+00  0.00000000000E+00  0.13911466857E+04  0.16584503761E+04  0.90286685002E+03 0.  0.
        2    1    3    3  502    0 -0.41715672353E+03  0.16958219979E+03  0.75407366942E+03  0.87829662039E+03  0.25500000920E-02 0. -1.
       -2    1    3    3    0  502  0.41715672353E+03 -0.16958219979E+03  0.63707301633E+03  0.78015375575E+03  0.25500000920E-02 0.  1.
</event>
<event>
 5   0  0.6524705E-03  0.9030557E+03  0.7818609E-02  0.9421770E-01
       -2   -1    0    0    0  501  0.00000000000E+00  0.00000000000E+00  0.87573970771E+02  0.87573970808E+02  0.25500000920E-02 0. -1.
        2   -1    0    0  501    0  0.00000000000E+00  0.00000000000E+00 -0.23280592703E+04  0.23280592703E+04  0.25500000920E-02 0.  1.
    10030    2    1    2    0    0  0.00000000000E+00  0.00000000000E+00 -0.22404852995E+04  0.24156332411E+04  0.90305568939E+03 0.  0.
        3    1    3    3  502    0 -0.32000575368E+03  0.19035290166E+03 -0.18034801454E+04  0.18415152876E+04  0.10100000352E+00 0.  1.
       -3    1    3    3    0  502  0.32000575368E+03 -0.19035290166E+03 -0.43700515412E+03  0.57411795346E+03  0.10100000352E+00 0. -1.
</event>
<event>
 5   0  0.6724773E-03  0.9031935E+03  0.7818609E-02  0.9421598E-01
        2   -1    0    0  501    0  0.00000000000E+00  0.00000000000E+00  0.24558297498E+03  0.24558297499E+03  0.25500000920E-02 0.  1.
       -2   -1    0    0    0  501  0.00000000000E+00  0.00000000000E+00 -0.83043068020E+03  0.83043068020E+03  0.25500000920E-02 0. -1.
    10030    2    1    2    0    0  0.00000000000E+00  0.00000000000E+00 -0.58484770522E+03  0.10760136552E+04  0.90319352736E+03 0.  0.
        5    1    3    3  502    0  0.24207095563E+03 -0.94869506156E+02 -0.73228451518E+03  0.77708511241E+03  0.46999998093E+01 0. -1.
       -5    1    3    3    0  502 -0.24207095563E+03  0.94869506156E+02  0.14743680996E+03  0.29892854278E+03  0.46999998093E+01 0.  1.
</event>
<event>
 5   0  0.2560250E-03  0.9042110E+03  0.7818609E-02  0.9420333E-01
        3   -1    0    0  501    0  0.00000000000E+00  0.00000000000E+00  0.63719268929E+03  0.63719269729E+03  0.10100000352E+00 0.  1.
       -3   -1    0    0    0  501  0.00000000000E+00  0.00000000000E+00 -0.32078111788E+03  0.32078113378E+03  0.10100000352E+00 0. -1.
    10030    2    1    2    0    0  0.00000000000E+00  0.00000000000E+00  0.31641157141E+03  0.95797383108E+03  0.90421102543E+03 0.  0.
        5    1    3    3  502    0  0.28225262814E+03 -0.17551483109E+03  0.48286587639E+03  0.58621970848E+03  0.46999998093E+01 0.  1.
       -5    1    3    3    0  502 -0.28225262814E+03  0.17551483109E+03 -0.16645430498E+03  0.37175412260E+03  0.46999998093E+01 0. -1.
</event>
<event>
 5   0  0.3794006E-03  0.8916561E+03  0.7818609E-02  0.9436072E-01
        1   -1    0    0  501    0  0.00000000000E+00  0.00000000000E+00  0.63976760739E+03  0.63976760741E+03  0.50400001928E-02 0. -1.
       -1   -1    0    0    0  501  0.00000000000E+00  0.00000000000E+00 -0.31067942847E+03  0.31067942851E+03  0.50400001928E-02 0.  1.
    10030    2    1    2    0    0  0.00000000000E+00  0.00000000000E+00  0.32908817892E+03  0.95044703592E+03  0.89165606519E+03 0.  0.
        5    1    3    3  502    0  0.44381141726E+03 -0.35978855962E+01  0.11983800297E+03  0.45974422870E+03  0.46999998093E+01 0.  1.
       -5    1    3    3    0  502 -0.44381141726E+03  0.35978855962E+01  0.20925017596E+03  0.49070280722E+03  0.46999998093E+01 0. -1.
</event>
<event>
 5   0  0.3794006E-03  0.9013980E+03  0.7818609E-02  0.9423836E-01
        1   -1    0    0  501    0  0.00000000000E+00  0.00000000000E+00  0.55867199723E+03  0.55867199726E+03  0.50400001928E-02 0. -1.
       -1   -1    0    0    0  501  0.00000000000E+00  0.00000000000E+00 -0.36359367437E+03  0.36359367441E+03  0.50400001928E-02 0.  1.
    10030    2    1    2    0    0  0.00000000000E+00  0.00000000000E+00  0.19507832286E+03  0.92226567166E+03  0.90139803477E+03 0.  0.
        5    1    3    3  502    0  0.12924434483E+03  0.35276510779E+03  0.35221973275E+03  0.51500306026E+03  0.46999998093E+01 0. -1.
       -5    1    3    3    0  502 -0.12924434483E+03 -0.35276510779E+03 -0.15714140989E+03  0.40726261140E+03  0.46999998093E+01 0.  1.
</event>
<event>
 5   0  0.6863405E-03  0.9036952E+03  0.7818609E-02  0.9420974E-01
        2   -1    0    0  501    0  0.00000000000E+00  0.00000000000E+00  0.30057351040E+03  0.30057351041E+03  0.25500000920E-02 0. -1.
       -2   -1    0    0    0  501  0.00000000000E+00  0.00000000000E+00 -0.67925565738E+03  0.67925565739E+03  0.25500000920E-02 0.  1.
    10030    2    1    2    0    0  0.00000000000E+00  0.00000000000E+00 -0.37868214699E+03  0.97982916780E+03  0.90369520837E+03 0.  0.
        1    1    3    3  502    0  0.25745878395E+03  0.22787121422E+03 -0.50722336514E+03  0.61276900857E+03  0.50400001928E-02 0.  1.
       -1    1    3    3    0  502 -0.25745878395E+03 -0.22787121422E+03  0.12854121815E+03  0.36706015923E+03  0.50400001928E-02 0. -1.
</event>
<event>
 5   0  0.6534628E-03  0.9063378E+03  0.7818609E-02  0.9417693E-01
       -2   -1    0    0    0  501  0.00000000000E+00  0.00000000000E+00  0.20470040276E+03  0.20470040277E+03  0.25500000920E-02 0.  1.
        2   -1    0    0  501    0  0.00000000000E+00  0.00000000000E+00 -0.10032322135E+04  0.10032322135E+04  0.25500000920E-02 0. -1.
    10030    2    1    2    0    0  0.00000000000E+00  0.00000000000E+00 -0.79853181070E+03  0.12079326162E+04  0.90633776963E+03 0.  0.
        4    1    3    3  502    0 -0.47462353426E+02 -0.28193653720E+03  0.69327518809E+02  0.29419178059E+03  0.12699999809E+01 0.  1.
       -4    1    3    3    0  502  0.47462353426E+02  0.28193653720E+03 -0.86785932951E+03  0.91374083564E+03  0.12699999809E+01 0. -1.
</event>
<event>
 5   0  0.2560250E-03  0.9015718E+03  0.7818609E-02  0.9423619E-01
        4   -1    0    0  501    0  0.00000000000E+00  0.00000000000E+00  0.13251110580E+04  0.13251116666E+04  0.12699999809E+01 0.  1.
       -4   -1    0    0    0  501  0.00000000000E+00  0.00000000000E+00 -0.15334836162E+03  0.15335362047E+03  0.12699999809E+01 0. -1.
    10030    2    1    2    0    0  0.00000000000E+00  0.00000000000E+00  0.11717626964E+04  0.14784652871E+04  0.90157184320E+03 0.  0.
        3    1    3    3  502    0  0.20907251060E+03  0.31232361434E+03  0.99404421180E+03  0.10627235106E+04  0.10100000352E+00 0.  1.
       -3    1    3    3    0  502 -0.20907251060E+03 -0.31232361434E+03  0.17771848463E+03  0.41574177651E+03  0.10100000352E+00 0. -1.
</event>
<event>
 5   0  0.3998066E-03  0.9005640E+03  0.7818609E-02  0.9424877E-01
       -1   -1    0    0    0  501  0.00000000000E+00  0.00000000000E+00  0.82182006539E+02  0.82182006694E+02  0.50400001928E-02 0.  1.
        1   -1    0    0  501    0  0.00000000000E+00  0.00000000000E+00 -0.24671323876E+04  0.24671323876E+04  0.50400001928E-02 0. -1.
    10030    2    1    2    0    0  0.00000000000E+00  0.00000000000E+00 -0.23849503811E+04  0.25493143943E+04  0.90056402375E+03 0.  0.
        4    1    3    3  502    0 -0.28529510351E+03 -0.28774635681E+03 -0.63659264815E+03  0.75461452048E+03  0.12699999809E+01 0.  1.
       -4    1    3    3    0  502  0.28529510351E+03  0.28774635681E+03 -0.17483577329E+04  0.17946998738E+04  0.12699999809E+01 0. -1.
</event>
<event>
 5   0  0.6724773E-03  0.9039104E+03  0.7818609E-02  0.9420706E-01
        2   -1    0    0  501    0  0.00000000000E+00  0.00000000000E+00  0.75497424969E+03  0.75497424970E+03  0.25500000920E-02 0. -1.
       -2   -1    0    0    0  501  0.00000000000E+00  0.00000000000E+00 -0.27055691882E+03  0.27055691883E+03  0.25500000920E-02 0.  1.
    10030    2    1    2    0    0  0.00000000000E+00  0.00000000000E+00  0.48441733087E+03  0.10255311685E+04  0.90391040882E+03 0.  0.
        5    1    3    3  502    0  0.14135063882E+03  0.32766235676E+03  0.55682642948E+03  0.66137764227E+03  0.46999998093E+01 0. -1.
       -5    1    3    3    0  502 -0.14135063882E+03 -0.32766235676E+03 -0.72409098602E+02  0.36415352626E+03  0.46999998093E+01 0.  1.
</event>
<event>
 5   0  0.3969536E-03  0.9013041E+03  0.7818609E-02  0.9423953E-01
       -1   -1    0    0    0  501  0.00000000000E+00  0.00000000000E+00  0.94956022324E+03  0.94956022325E+03  0.50400001928E-02 0.  1.
        1   -1    0    0  501    0  0.00000000000E+00  0.00000000000E+00 -0.21387506389E+03  0.21387506395E+03  0.50400001928E-02 0. -1.
    10030    2    1    2    0    0  0.00000000000E+00  0.00000000000E+00  0.73568515935E+03  0.11634352872E+04  0.90130406291E+03 0.  0.
        1    1    3    3  502    0 -0.29282163000E+03  0.31728371121E+03  0.53452435073E+03  0.68711697835E+03  0.50400001928E-02 0.  1.
       -1    1    3    3    0  502  0.29282163000E+03 -0.31728371121E+03  0.20116080862E+03  0.47631830885E+03  0.50400001928E-02 0. -1.
</event>
<event>
 5   0  0.6724773E-03  0.8569364E+03  0.7818609E-02  0.9481074E-01
       -2   -1    0    0    0  501  0.00000000000E+00  0.00000000000E+00  0.31382387031E+03  0.31382387032E+03  0.25500000920E-02 0.  1.
        2   -1    0    0  501    0  0.00000000000E+00  0.00000000000E+00 -0.58499366861E+03  0.58499366862E+03  0.25500000920E-02 0. -1.
    10030    2    1    2    0    0  0.00000000000E+00  0.00000000000E+00 -0.27116979830E+03  0.89881753894E+03  0.85693635049E+03 0.  0.
        5    1    3    3  502    0 -0.18117624837E+03 -0.19156075459E+03 -0.48979129376E+03  0.55627147788E+03  0.46999998093E+01 0. -1.
       -5    1    3    3    0  502  0.18117624837E+03  0.19156075459E+03  0.21862149545E+03  0.34254606105E+03  0.46999998093E+01 0.  1.
</event>
<event>
 5   0  0.3927993E-03  0.9029616E+03  0.7818609E-02  0.9421887E-01
        1   -1    0    0  501    0  0.00000000000E+00  0.00000000000E+00  0.29347325801E+03  0.29347325805E+03  0.50400001928E-02 0. -1.
       -1   -1    0    0    0  501  0.00000000000E+00  0.00000000000E+00 -0.69456047031E+03  0.69456047032E+03  0.50400001928E-02 0.  1.
    10030    2    1    2    0    0  0.00000000000E+00  0.00000000000E+00 -0.40108721230E+03  0.98803372838E+03  0.90296162518E+03 0.  0.
        2    1    3    3  502    0  0.35449521280E+03  0.20903361081E+02  0.10452669651E+03  0.37017514327E+03  0.25500000920E-02 0. -1.
       -2    1    3    3    0  502 -0.35449521280E+03 -0.20903361081E+02 -0.50561390881E+03  0.61785858511E+03  0.25500000920E-02 0.  1.
</event>
<event>
 5   0  0.6863405E-03  0.9030615E+03  0.7818609E-02  0.9421762E-01
        2   -1    0    0  501    0  0.00000000000E+00  0.00000000000E+00  0.56895419884E+03  0.56895419884E+03  0.25500000920E-02 0. -1.
       -2   -1    0    0    0  501  0.00000000000E+00  0.00000000000E+00 -0.35834174438E+03  0.35834174439E+03  0.25500000920E-02 0.  1.
    10030    2    1    2    0    0  0.00000000000E+00  0.00000000000E+00  0.21061245446E+03  0.92729594323E+03  0.90306154849E+03 0.  0.
        1    1    3    3  502    0 -0.24054221210E+03  0.41811335910E+02  0.49532990771E+03  0.55223225287E+03  0.50400001928E-02 0. -1.
       -1    1    3    3    0  502  0.24054221210E+03 -0.41811335910E+02 -0.28471745326E+03  0.37506369036E+03  0.50400001928E-02 0.  1.
</event>
<event>
 5   0  0.6609191E-03  0.8871304E+03  0.7818609E-02  0.9441814E-01
        2   -1    0    0  501    0  0.00000000000E+00  0.00000000000E+00  0.10778908222E+04  0.10778908222E+04  0.25500000920E-02 0.  1.
       -2   -1    0    0    0  501  0.00000000000E+00  0.00000000000E+00 -0.18253248947E+03  0.18253248949E+03  0.25500000920E-02 0. -1.
    10030    2    1    2    0    0  0.00000000000E+00  0.00000000000E+00  0.89535833272E+03  0.12604233117E+04  0.88713041920E+03 0.  0.
        2    1    3    3  502    0  0.15351941953E+03  0.27342044575E+03  0.19433114379E+01  0.31357730912E+03  0.25500000920E-02 0. -1.
       -2    1    3    3    0  502 -0.15351941953E+03 -0.27342044575E+03  0.89341502128E+03  0.94684600257E+03  0.25500000920E-02 0.  1.
</event>
<event>
 5   0  0.2560250E-03  0.8781370E+03  0.7818609E-02  0.9453332E-01
        3   -1    0    0  501    0  0.00000000000E+00  0.00000000000E+00  0.23625783811E+03  0.23625785969E+03  0.10100000352E+00 0. -1.
       -3   -1    0    0    0  501  0.00000000000E+00  0.00000000000E+00 -0.81597763891E+03  0.81597764516E+03  0.10100000352E+00 0.  1.
    10030    2    1    2    0    0  0.00000000000E+00  0.00000000000E+00 -0.57971980081E+03  0.10522355049E+04  0.87813695415E+03 0.  0.
        4    1    3    3  502    0  0.30879916372E+03 -0.29275458911E+03 -0.16015235357E+03  0.45465653213E+03  0.12699999809E+01 0. -1.
       -4    1    3    3    0  502 -0.30879916372E+03  0.29275458911E+03 -0.41956744724E+03  0.59757897272E+03  0.12699999809E+01 0.  1.
</event>
<event>
 5   0  0.3998066E-03  0.8946553E+03  0.7818609E-02  0.9432287E-01
       -1   -1    0    0    0  501  0.00000000000E+00  0.00000000000E+00  0.79297206367E+03  0.79297206369E+03  0.50400001928E-02 0.  1.
        1   -1    0    0  501    0  0.00000000000E+00  0.00000000000E+00 -0.25234437525E+03  0.25234437530E+03  0.50400001928E-02 0. -1.
    10030    2    1    2    0    0  0.00000000000E+00  0.00000000000E+00  0.54062768841E+03  0.10453164390E+04  0.89465533036E+03 0.  0.
        4    1    3    3  502    0  0.27732004020E+03 -0.74735106941E+02 -0.13037912841E+03  0.31542363725E+03  0.12699999809E+01 0. -1.
       -4    1    3    3    0  502 -0.27732004020E+03  0.74735106941E+02  0.67100681683E+03  0.72989280174E+03  0.12699999809E+01 0.  1.
</event>
<event>
 5   0  0.2560250E-03  0.9053547E+03  0.7818609E-02  0.9418912E-01
        3   -1    0    0  501    0  0.00000000000E+00  0.00000000000E+00  0.65444552600E+03  0.65444553379E+03  0.10100000352E+00 0.  1.
       -3   -1    0    0    0  501  0.00000000000E+00  0.00000000000E+00 -0.31311510914E+03  0.31311512543E+03  0.10100000352E+00 0. -1.
    10030    2    1    2    0    0  0.00000000000E+00  0.00000000000E+00  0.34133041686E+03  0.96756065922E+03  0.90535472373E+03 0.  0.
        3    1    3    3  502    0  0.19866368643E+03 -0.18796644231E+03  0.55616873306E+03  0.61977601888E+03  0.10100000352E+00 0.  1.
       -3    1    3    3    0  502 -0.19866368643E+03  0.18796644231E+03 -0.21483831620E+03  0.34778464033E+03  0.10100000352E+00 0. -1.
</event>
<event>
 5   0  0.6534628E-03  0.9214698E+03  0.7818609E-02  0.9399134E-01
        2   -1    0    0  501    0  0.00000000000E+00  0.00000000000E+00  0.26754669138E+04  0.26754669138E+04  0.25500000920E-02 0. -1.
       -2   -1    0    0    0  501  0.00000000000E+00  0.00000000000E+00 -0.79341909099E+02  0.79341909140E+02  0.25500000920E-02 0.  1.
    10030    2    1    2    0    0  0.00000000000E+00  0.00000000000E+00  0.25961250047E+04  0.27548088229E+04  0.92146981009E+03 0.  0.
        4    1    3    3  502    0  0.17813226884E+02 -0.13497590440E+03 -0.17826154669E+02  0.13731420360E+03  0.12699999809E+01 0.  1.
       -4    1    3    3    0  502 -0.17813226884E+02  0.13497590440E+03  0.26139511593E+04  0.26174946193E+04  0.12699999809E+01 0. -1.
</event>
<event>
 5   0  0.6724773E-03  0.9423233E+03  0.7818609E-02  0.9374169E-01
       -2   -1    0    0    0  501  0.00000000000E+00  0.00000000000E+00  0.18564380776E+04  0.18564380776E+04  0.25500000920E-02 0.  1.
        2   -1    0    0  501    0  0.00000000000E+00  0.00000000000E+00 -0.11958023971E+03  0.11958023974E+03  0.25500000920E-02 0. -1.
    10030    2    1    2    0    0  0.00000000000E+00  0.00000000000E+00  0.17368578379E+04  0.19760183174E+04  0.94232332108E+03 0.  0.
        5    1    3    3  502    0  0.15382806174E+03 -0.39568781555E+03  0.12968428745E+04  0.13645715266E+04  0.46999998093E+01 0.  1.
       -5    1    3    3    0  502 -0.15382806174E+03  0.39568781555E+03  0.44001496336E+03  0.61144679076E+03  0.46999998093E+01 0. -1.
</event>
<event>
 5   0  0.3969536E-03  0.8601944E+03  0.7818609E-02  0.9476756E-01
        1   -1    0    0  501    0  0.00000000000E+00  0.00000000000E+00  0.16282227628E+04  0.16282227628E+04  0.50400001928E-02 0.  1.
       -1   -1    0    0    0  501  0.00000000000E+00  0.00000000000E+00 -0.11361075118E+03  0.11361075129E+03  0.50400001928E-02 0. -1.
    10030    2    1    2    0    0  0.00000000000E+00  0.00000000000E+00  0.15146120116E+04  0.17418335141E+04  0.86019442286E+03 0.  0.
        1    1    3    3  502    0 -0.10441822129E+03  0.24611894254E+03  0.14395178609E+04  0.14641343418E+04  0.50400001928E-02 0.  1.
       -1    1    3    3    0  502  0.10441822129E+03 -0.24611894254E+03  0.75094150683E+02  0.27769917232E+03  0.50400001928E-02 0. -1.
</event>
<event>
 5   0  0.6534628E-03  0.9036966E+03  0.7818609E-02  0.9420972E-01
        2   -1    0    0  501    0  0.00000000000E+00  0.00000000000E+00  0.17878202298E+04  0.17878202298E+04  0.25500000920E-02 0.  1.
       -2   -1    0    0    0  501  0.00000000000E+00  0.00000000000E+00 -0.11419878948E+03  0.11419878951E+03  0.25500000920E-02 0. -1.
    10030    2    1    2    0    0  0.00000000000E+00  0.00000000000E+00  0.16736214403E+04  0.19020190193E+04  0.90369664396E+03 0.  0.
        4    1    3    3  502    0  0.39074206252E+03  0.13220029979E+03  0.12249514422E+04  0.12925416540E+04  0.12699999809E+01 0.  1.
       -4    1    3    3    0  502 -0.39074206252E+03 -0.13220029979E+03  0.44866999806E+03  0.60947736525E+03  0.12699999809E+01 0. -1.
</event>
<event>
 5   0  0.2560250E-03  0.8932318E+03  0.7818609E-02  0.9434082E-01
        3   -1    0    0  501    0  0.00000000000E+00  0.00000000000E+00  0.17503641073E+03  0.17503643987E+03  0.10100000352E+00 0. -1.
       -3   -1    0    0    0  501  0.00000000000E+00  0.00000000000E+00 -0.11395670650E+04  0.11395670695E+04  0.10100000352E+00 0.  1.
    10030    2    1    2    0    0  0.00000000000E+00  0.00000000000E+00 -0.96453065430E+03  0.13146035094E+04  0.89323177496E+03 0.  0.
        3    1    3    3  502    0  0.36423373536E+03 -0.62630258353E+02 -0.11322276907E+03  0.38653352878E+03  0.10100000352E+00 0. -1.
       -3    1    3    3    0  502 -0.36423373536E+03  0.62630258353E+02 -0.85130788523E+03  0.92806998060E+03  0.10100000352E+00 0.  1.
</event>
<event>
 5   0  0.3943549E-03  0.8902109E+03  0.7818609E-02  0.9437902E-01
       -1   -1    0    0    0  501  0.00000000000E+00  0.00000000000E+00  0.32812349946E+03  0.32812349950E+03  0.50400001928E-02 0. -1.
        1   -1    0    0  501    0  0.00000000000E+00  0.00000000000E+00 -0.60379362987E+03  0.60379362990E+03  0.50400001928E-02 0.  1.
    10030    2    1    2    0    0  0.00000000000E+00  0.00000000000E+00 -0.27567013041E+03  0.93191712940E+03  0.89021093863E+03 0.  0.
        3    1    3    3  502    0  0.85641327025E+02 -0.14833776659E+02  0.31915340550E+03  0.33077694035E+03  0.10100000352E+00 0. -1.
       -3    1    3    3    0  502 -0.85641327025E+02  0.14833776659E+02 -0.59482353591E+03  0.60114018905E+03  0.10100000352E+00 0.  1.
</event>
<event>
 5   0  0.3927993E-03  0.8963419E+03  0.7818609E-02  0.9430166E-01
       -1   -1    0    0    0  501  0.00000000000E+00  0.00000000000E+00  0.42029662423E+03  0.42029662426E+03  0.50400001928E-02 0. -1.
        1   -1    0    0  501    0  0.00000000000E+00  0.00000000000E+00 -0.47789388445E+03  0.47789388448E+03  0.50400001928E-02 0.  1.
    10030    2    1    2    0    0  0.00000000000E+00  0.00000000000E+00 -0.57597260226E+02  0.89819050874E+03  0.89634186871E+03 0.  0.
        2    1    3    3  502    0  0.34065561544E+03  0.24427664702E+03  0.13008391449E+03  0.43890677077E+03  0.25500000920E-02 0. -1.
       -2    1    3    3    0  502 -0.34065561544E+03 -0.24427664702E+03 -0.18768117471E+03  0.45928373797E+03  0.25500000920E-02 0.  1.
</event>
<event>
 5   0  0.3927993E-03  0.9243828E+03  0.7818609E-02  0.9395605E-01
       -1   -1    0    0    0  501  0.00000000000E+00  0.00000000000E+00  0.17443873187E+03  0.17443873194E+03  0.50400001928E-02 0. -1.
        1   -1    0    0  501    0  0.00000000000E+00  0.00000000000E+00 -0.12246183248E+04  0.12246183248E+04  0.50400001928E-02 0.  1.
    10030    2    1    2    0    0  0.00000000000E+00  0.00000000000E+00 -0.10501795930E+04  0.13990570568E+04  0.92438275117E+03 0.  0.
        2    1    3    3  502    0 -0.24670716507E+03 -0.13086205434E+02  0.66117506185E+02  0.25574831124E+03  0.25500000920E-02 0. -1.
       -2    1    3    3    0  502  0.24670716507E+03  0.13086205434E+02 -0.11162970992E+04  0.11433087456E+04  0.25500000920E-02 0.  1.
</event>
<event>
 5   0  0.3969536E-03  0.9000725E+03  0.7818609E-02  0.9425491E-01
        1   -1    0    0  501    0  0.00000000000E+00  0.00000000000E+00  0.14644997988E+04  0.14644997988E+04  0.50400001928E-02 0.  1.
       -1   -1    0    0    0  501  0.00000000000E+00  0.00000000000E+00 -0.13829474059E+03  0.13829474068E+03  0.50400001928E-02 0. -1.
    10030    2    1    2    0    0  0.00000000000E+00  0.00000000000E+00  0.13262050582E+04  0.16027945395E+04  0.90007248565E+03 0.  0.
        1    1    3    3  502    0 -0.49152224035E+02  0.41396648466E+03  0.36117172659E+03  0.55156976681E+03  0.50400001928E-02 0.  1.
       -1    1    3    3    0  502  0.49152224035E+02 -0.41396648466E+03  0.96503333162E+03  0.10512247727E+04  0.50400001928E-02 0. -1.
</event>
<event>
 5   0  0.3794006E-03  0.9041549E+03  0.7818609E-02  0.9420402E-01
       -1   -1    0    0    0  501  0.00000000000E+00  0.00000000000E+00  0.33030294309E+03  0.33030294313E+03  0.50400001928E-02 0. -1.
        1   -1    0    0  501    0  0.00000000000E+00  0.00000000000E+00 -0.61874721429E+03  0.61874721431E+03  0.50400001928E-02 0.  1.
    10030    2    1    2    0    0  0.00000000000E+00  0.00000000000E+00 -0.28844427120E+03  0.94905015745E+03  0.90415491137E+03 0.  0.
        5    1    3    3  502    0  0.69423143748E+02 -0.42545610270E+03 -0.28706566426E+03  0.51793943064E+03  0.46999998093E+01 0.  1.
       -5    1    3    3    0  502 -0.69423143748E+02  0.42545610270E+03 -0.13786069427E+01  0.43111072681E+03  0.46999998093E+01 0. -1.
</event>
<event>
 5   0  0.3927993E-03  0.9033596E+03  0.7818609E-02  0.9421392E-01
       -1   -1    0    0    0  501  0.00000000000E+00  0.00000000000E+00  0.26965533726E+03  0.26965533731E+03  0.50400001928E-02 0. -1.
        1   -1    0    0  501    0  0.00000000000E+00  0.00000000000E+00 -0.75657550474E+03  0.75657550476E+03  0.50400001928E-02 0.  1.
    10030    2    1    2    0    0  0.00000000000E+00  0.00000000000E+00 -0.48692016748E+03  0.10262308421E+04  0.90335955838E+03 0.  0.
        2    1    3    3  502    0 -0.86185857676E+02 -0.13987276724E+03 -0.72142753401E+03  0.73989869571E+03  0.25500000920E-02 0.  1.
       -2    1    3    3    0  502  0.86185857676E+02  0.13987276724E+03  0.23450736653E+03  0.28633214636E+03  0.25500000920E-02 0. -1.
</event>
<event>
 5   0  0.6534628E-03  0.8791530E+03  0.7818609E-02  0.9452023E-01
        2   -1    0    0  501    0  0.00000000000E+00  0.00000000000E+00  0.11101127259E+04  0.11101127259E+04  0.25500000920E-02 0.  1.
       -2   -1    0    0    0  501  0.00000000000E+00  0.00000000000E+00 -0.17406113542E+03  0.17406113544E+03  0.25500000920E-02 0. -1.
    10030    2    1    2    0    0  0.00000000000E+00  0.00000000000E+00  0.93605159044E+03  0.12841738613E+04  0.87915295943E+03 0.  0.
        4    1    3    3  502    0  0.70477071796E+02  0.43359555279E+03  0.44475772680E+03  0.62512652279E+03  0.12699999809E+01 0.  1.
       -4    1    3    3    0  502 -0.70477071796E+02 -0.43359555279E+03  0.49129386364E+03  0.65904733851E+03  0.12699999809E+01 0. -1.
</event>
<event>
 5   0  0.6534628E-03  0.8991126E+03  0.7818609E-02  0.9426691E-01
        2   -1    0    0  501    0  0.00000000000E+00  0.00000000000E+00  0.17651486576E+04  0.17651486576E+04  0.25500000920E-02 0. -1.
       -2   -1    0    0    0  501  0.00000000000E+00  0.00000000000E+00 -0.11449508740E+03  0.11449508743E+03  0.25500000920E-02 0.  1.
    10030    2    1    2    0    0  0.00000000000E+00  0.00000000000E+00  0.16506535702E+04  0.18796437450E+04  0.89911256214E+03 0.  0.
        4    1    3    3  502    0 -0.26257413342E+03 -0.94052750514E+02  0.15624010790E+04  0.15871010806E+04  0.12699999809E+01 0. -1.
       -4    1    3    3    0  502  0.26257413342E+03  0.94052750514E+02  0.88252491199E+02  0.29254266445E+03  0.12699999809E+01 0.  1.
</event>
<event>
 5   0  0.6863405E-03  0.9042168E+03  0.7818609E-02  0.9420326E-01
        2   -1    0    0  501    0  0.00000000000E+00  0.00000000000E+00  0.15779358414E+04  0.15779358414E+04  0.25500000920E-02 0.  1.
       -2   -1    0    0    0  501  0.00000000000E+00  0.00000000000E+00 -0.12953759221E+03  0.12953759223E+03  0.25500000920E-02 0. -1.
    10030    2    1    2    0    0  0.00000000000E+00  0.00000000000E+00  0.14483982492E+04  0.17074734337E+04  0.90421680935E+03 0.  0.
        1    1    3    3  502    0  0.10830554068E+03  0.29547107096E+03  0.11123179862E+03  0.33377500949E+03  0.50400001928E-02 0. -1.
       -1    1    3    3    0  502 -0.10830554068E+03 -0.29547107096E+03  0.13371664506E+04  0.13736984242E+04  0.50400001928E-02 0.  1.
</event>
<event>
 5   0  0.3998066E-03  0.8989982E+03  0.7818609E-02  0.9426835E-01
        1   -1    0    0  501    0  0.00000000000E+00  0.00000000000E+00  0.77157514950E+03  0.77157514952E+03  0.50400001928E-02 0. -1.
       -1   -1    0    0    0  501  0.00000000000E+00  0.00000000000E+00 -0.26186620352E+03  0.26186620357E+03  0.50400001928E-02 0.  1.
    10030    2    1    2    0    0  0.00000000000E+00  0.00000000000E+00  0.50970894598E+03  0.10334413531E+04  0.89899823173E+03 0.  0.
        4    1    3    3  502    0 -0.26680326693E+03  0.33521300260E+03  0.41119339139E+03  0.59382940175E+03  0.12699999809E+01 0. -1.
       -4    1    3    3    0  502  0.26680326693E+03 -0.33521300260E+03  0.98515554595E+02  0.43961195133E+03  0.12699999809E+01 0.  1.
</event>
<event>
 5   0  0.3998066E-03  0.8687091E+03  0.7818609E-02  0.9465565E-01
       -1   -1    0    0    0  501  0.00000000000E+00  0.00000000000E+00  0.14236855069E+03  0.14236855078E+03  0.50400001928E-02 0. -1.
        1   -1    0    0  501    0  0.00000000000E+00  0.00000000000E+00 -0.13251794228E+04  0.13251794228E+04  0.50400001928E-02 0.  1.
    10030    2    1    2    0    0  0.00000000000E+00  0.00000000000E+00 -0.11828108721E+04  0.14675479736E+04  0.86870909723E+03 0.  0.
        4    1    3    3  502    0 -0.17418013928E+03 -0.25189940304E+03 -0.11117402884E+04  0.11531522501E+04  0.12699999809E+01 0.  1.
       -4    1    3    3    0  502  0.17418013928E+03  0.25189940304E+03 -0.71070583696E+02  0.31439572347E+03  0.12699999809E+01 0. -1.
</event>
<event>
 5   0  0.6724773E-03  0.8997994E+03  0.7818609E-02  0.9425832E-01
        2   -1    0    0  501    0  0.00000000000E+00  0.00000000000E+00  0.47234745668E+03  0.47234745669E+03  0.25500000920E-02 0.  1.
       -2   -1    0    0    0  501  0.00000000000E+00  0.00000000000E+00 -0.42851876326E+03  0.42851876327E+03  0.25500000920E-02 0. -1.
    10030    2    1    2    0    0  0.00000000000E+00  0.00000000000E+00  0.43828693423E+02  0.90086621996E+03  0.89979941759E+03 0.  0.
        5    1    3    3  502    0 -0.39509967036E+03  0.20548280059E+03  0.85713732496E+02  0.45353706000E+03  0.46999998093E+01 0.  1.
       -5    1    3    3    0  502  0.39509967036E+03 -0.20548280059E+03 -0.41885039073E+02  0.44732915996E+03  0.46999998093E+01 0. -1.
</event>
<event>
 5   0  0.3794006E-03  0.9072847E+03  0.7818609E-02  0.9416521E-01
       -1   -1    0    0    0  501  0.00000000000E+00  0.00000000000E+00  0.26840056508E+03  0.26840056513E+03  0.50400001928E-02 0.  1.
        1   -1    0    0  501    0  0.00000000000E+00  0.00000000000E+00 -0.76673223547E+03  0.76673223548E+03  0.50400001928E-02 0. -1.
    10030    2    1    2    0    0  0.00000000000E+00  0.00000000000E+00 -0.49833167039E+03  0.10351328006E+04  0.90728466381E+03 0.  0.
        5    1    3    3  502    0  0.23603623495E+03  0.33051542898E+03 -0.18668322247E+02  0.40660072462E+03  0.46999998093E+01 0.  1.
       -5    1    3    3    0  502 -0.23603623495E+03 -0.33051542898E+03 -0.47966334814E+03  0.62853207599E+03  0.46999998093E+01 0. -1.
</event>
<event>
 5   0  0.3794006E-03  0.8971290E+03  0.7818609E-02  0.9429177E-01
       -1   -1    0    0    0  501  0.00000000000E+00  0.00000000000E+00  0.43249444967E+03  0.43249444969E+03  0.50400001928E-02 0. -1.
        1   -1    0    0  501    0  0.00000000000E+00  0.00000000000E+00 -0.46523163165E+03  0.46523163168E+03  0.50400001928E-02 0.  1.
    10030    2    1    2    0    0  0.00000000000E+00  0.00000000000E+00 -0.32737181986E+02  0.89772608137E+03  0.89712897294E+03 0.  0.
        5    1    3    3  502    0  0.26496756820E+03  0.22417095375E+03 -0.30068369159E+03  0.45923109769E+03  0.46999998093E+01 0.  1.
       -5    1    3    3    0  502 -0.26496756820E+03 -0.22417095375E+03  0.26794650961E+03  0.43849498368E+03  0.46999998093E+01 0. -1.
</event>
<event>
 5   0  0.6609191E-03  0.8947135E+03  0.7818609E-02  0.9432214E-01
        2   -1    0    0  501    0  0.00000000000E+00  0.00000000000E+00  0.33054887038E+03  0.33054887039E+03  0.25500000920E-02 0.  1.
       -2   -1    0    0    0  501  0.00000000000E+00  0.00000000000E+00 -0.60544162821E+03  0.60544162822E+03  0.25500000920E-02 0. -1.
    10030    2    1    2    0    0  0.00000000000E+00  0.00000000000E+00 -0.27489275783E+03  0.93599049860E+03  0.89471346540E+03 0.  0.
        2    1    3    3  502    0 -0.33238930675E+03  0.41692972897E+02  0.17272335762E+03  0.37690093328E+03  0.25500000920E-02 0.  1.
       -2    1    3    3    0  502  0.33238930675E+03 -0.41692972897E+02 -0.44761611546E+03  0.55908956532E+03  0.25500000920E-02 0. -1.
</event>
<event>
 5   0  0.3943549E-03  0.8983198E+03  0.7818609E-02  0.9427684E-01
        1   -1    0    0  501    0  0.00000000000E+00  0.00000000000E+00  0.13549654399E+04  0.13549654399E+04  0.50400001928E-02 0.  1.
       -1   -1    0    0    0  501  0.00000000000E+00  0.00000000000E+00 -0.14889280993E+03  0.14889281001E+03  0.50400001928E-02 0. -1.
    10030    2    1    2    0    0  0.00000000000E+00  0.00000000000E+00  0.12060726300E+04  0.15038582499E+04  0.89831979111E+03 0.  0.
        3    1    3    3  502    0  0.67077356536E+02  0.39198920888E+03  0.95255292922E+03  0.10322364094E+04  0.10100000352E+00 0.  1.
       -3    1    3    3    0  502 -0.67077356536E+02 -0.39198920888E+03  0.25351970077E+03  0.47162184058E+03  0.10100000352E+00 0. -1.
</event>
<event>
 5   0  0.6524705E-03  0.9024748E+03  0.7818609E-02  0.9422493E-01
        2   -1    0    0  501    0  0.00000000000E+00  0.00000000000E+00  0.53294633951E+03  0.53294633952E+03  0.25500000920E-02 0.  1.
       -2   -1    0    0    0  501  0.00000000000E+00  0.00000000000E+00 -0.38205567908E+03  0.38205567909E+03  0.25500000920E-02 0. -1.
    10030    2    1    2    0    0  0.00000000000E+00  0.00000000000E+00  0.15089066043E+03  0.91500201861E+03  0.90247476566E+03 0.  0.
        3    1    3    3  502    0  0.20292609950E+03  0.26462079098E+03  0.38365848510E+03  0.50832765837E+03  0.10100000352E+00 0.  1.
       -3    1    3    3    0  502 -0.20292609950E+03 -0.26462079098E+03 -0.23276782466E+03  0.40667436024E+03  0.10100000352E+00 0. -1.
</event>
<event>
 5   0  0.2560250E-03  0.9018028E+03  0.7818609E-02  0.9423331E-01
        3   -1    0    0  501    0  0.00000000000E+00  0.00000000000E+00  0.71044564665E+03  0.71044565383E+03  0.10100000352E+00 0. -1.
       -3   -1    0    0    0  501  0.00000000000E+00  0.00000000000E+00 -0.28617541294E+03  0.28617543077E+03  0.10100000352E+00 0.  1.
    10030    2    1    2    0    0  0.00000000000E+00  0.00000000000E+00  0.42427023370E+03  0.99662108459E+03  0.90180283602E+03 0.  0.
        3    1    3    3  502    0 -0.16027044465E+03  0.64529753257E+02 -0.24814251007E+03  0.30236636716E+03  0.10100000352E+00 0.  1.
       -3    1    3    3    0  502  0.16027044465E+03 -0.64529753257E+02  0.67241274377E+03  0.69425471743E+03  0.10100000352E+00 0. -1.
</event>
<event>
 5   0  0.6534628E-03  0.9010210E+03  0.7818609E-02  0.9424306E-01
        2   -1    0    0  501    0  0.00000000000E+00  0.00000000000E+00  0.15085719343E+04  0.15085719343E+04  0.25500000920E-02 0. -1.
       -2   -1    0    0    0  501  0.00000000000E+00  0.00000000000E+00 -0.13453764023E+03  0.13453764025E+03  0.25500000920E-02 0.  1.
    10030    2    1    2    0    0  0.00000000000E+00  0.00000000000E+00  0.13740342941E+04  0.16431095745E+04  0.90102099460E+03 0.  0.
        4    1    3    3  502    0 -0.40650878231E+03 -0.10128614175E+03  0.98915239020E+03  0.10742124262E+04  0.12699999809E+01 0.  1.
       -4    1    3    3    0  502  0.40650878231E+03  0.10128614175E+03  0.38488190387E+03  0.56889714838E+03  0.12699999809E+01 0. -1.
</event>
<event>
 5   0  0.6534628E-03  0.8984288E+03  0.7818609E-02  0.9427548E-01
        2   -1    0    0  501    0  0.00000000000E+00  0.00000000000E+00  0.41058435421E+03  0.41058435421E+03  0.25500000920E-02 0. -1.
       -2   -1    0    0    0  501  0.00000000000E+00  0.00000000000E+00 -0.49147901134E+03  0.49147901134E+03  0.25500000920E-02 0.  1.
    10030    2    1    2    0    0  0.00000000000E+00  0.00000000000E+00 -0.80894657131E+02  0.90206336556E+03  0.89842883409E+03 0.  0.
        4    1    3    3  502    0  0.32650360993E+03 -0.13888081624E+03  0.23616580478E+03  0.42622574848E+03  0.12699999809E+01 0. -1.
       -4    1    3    3    0  502 -0.32650360993E+03  0.13888081624E+03 -0.31706046191E+03  0.47583761708E+03  0.12699999809E+01 0.  1.
</event>
<event>
 5   0  0.3927993E-03  0.9002630E+03  0.7818609E-02  0.9425253E-01
       -1   -1    0    0    0  501  0.00000000000E+00  0.00000000000E+00  0.67554066388E+03  0.67554066390E+03  0.50400001928E-02 0.  1.
        1   -1    0    0  501    0  0.00000000000E+00  0.00000000000E+00 -0.29993512686E+03  0.29993512690E+03  0.50400001928E-02 0. -1.
    10030    2    1    2    0    0  0.00000000000E+00  0.00000000000E+00  0.37560553702E+03  0.97547579080E+03  0.90026301657E+03 0.  0.
        2    1    3    3  502    0  0.85204349189E+02 -0.20468091747E+03  0.61227647127E+03  0.65118087838E+03  0.25500000920E-02 0.  1.
       -2    1    3    3    0  502 -0.85204349189E+02  0.20468091747E+03 -0.23667093425E+03  0.32429491242E+03  0.25500000920E-02 0. -1.
</event>
<event>
 5   0  0.6863405E-03  0.9020273E+03  0.7818609E-02  0.9423051E-01
       -2   -1    0    0    0  501  0.00000000000E+00  0.00000000000E+00  0.50384090223E+03  0.50384090223E+03  0.25500000920E-02 0.  1.
        2   -1    0    0  501    0  0.00000000000E+00  0.00000000000E+00 -0.40372532927E+03  0.40372532927E+03  0.25500000920E-02 0. -1.
    10030    2    1    2    0    0  0.00000000000E+00  0.00000000000E+00  0.10011557296E+03  0.90756623151E+03  0.90202734805E+03 0.  0.
        1    1    3    3  502    0 -0.22208834193E+03  0.25307299673E+03 -0.25185840263E+03  0.42047809491E+03  0.50400001928E-02 0. -1.
       -1    1    3    3    0  502  0.22208834193E+03 -0.25307299673E+03  0.35197397559E+03  0.48708813660E+03  0.50400001928E-02 0.  1.
</event>
<event>
 5   0  0.3969536E-03  0.8973131E+03  0.7818609E-02  0.9428946E-01
        1   -1    0    0  501    0  0.00000000000E+00  0.00000000000E+00  0.14509385774E+04  0.14509385774E+04  0.50400001928E-02 0.  1.
       -1   -1    0    0    0  501  0.00000000000E+00  0.00000000000E+00 -0.13873274229E+03  0.13873274238E+03  0.50400001928E-02 0. -1.
    10030    2    1    2    0    0  0.00000000000E+00  0.00000000000E+00  0.13122058351E+04  0.15896713198E+04  0.89731307317E+03 0.  0.
        1    1    3    3  502    0 -0.30293314782E+03  0.25790968645E+03  0.28870909068E+03  0.49156773438E+03  0.50400001928E-02 0. -1.
       -1    1    3    3    0  502  0.30293314782E+03 -0.25790968645E+03  0.10234967445E+04  0.10981035854E+04  0.50400001928E-02 0.  1.
</event>
<event>
 5   0  0.3794006E-03  0.8992338E+03  0.7818609E-02  0.9426540E-01
        1   -1    0    0  501    0  0.00000000000E+00  0.00000000000E+00  0.10134780041E+04  0.10134780041E+04  0.50400001928E-02 0.  1.
       -1   -1    0    0    0  501  0.00000000000E+00  0.00000000000E+00 -0.19946693609E+03  0.19946693616E+03  0.50400001928E-02 0. -1.
    10030    2    1    2    0    0  0.00000000000E+00  0.00000000000E+00  0.81401106798E+03  0.12129449402E+04  0.89923379011E+03 0.  0.
        5    1    3    3  502    0  0.32014221793E+03  0.15927779848E+03  0.39398863092E+02  0.35977050629E+03  0.46999998093E+01 0. -1.
       -5    1    3    3    0  502 -0.32014221793E+03 -0.15927779848E+03  0.77461220489E+03  0.85317443395E+03  0.46999998093E+01 0.  1.
</event>
<event>
 5   0  0.6863405E-03  0.9006199E+03  0.7818609E-02  0.9424807E-01
       -2   -1    0    0    0  501  0.00000000000E+00  0.00000000000E+00  0.11550837031E+03  0.11550837034E+03  0.25500000920E-02 0.  1.
        2   -1    0    0  501    0  0.00000000000E+00  0.00000000000E+00 -0.17555357022E+04  0.17555357022E+04  0.25500000920E-02 0. -1.
    10030    2    1    2    0    0  0.00000000000E+00  0.00000000000E+00 -0.16400273319E+04  0.18710440726E+04  0.90061993763E+03 0.  0.
        1    1    3    3  502    0 -0.18671802872E+03  0.39512291556E+03 -0.10456248564E+04  0.11332771422E+04  0.50400001928E-02 0. -1.
       -1    1    3    3    0  502  0.18671802872E+03 -0.39512291556E+03 -0.59440247553E+03  0.73776693040E+03  0.50400001928E-02 0.  1.
</event>
<event>
 5   0  0.3794006E-03  0.9024026E+03  0.7818609E-02  0.9422583E-01
        1   -1    0    0  501    0  0.00000000000E+00  0.00000000000E+00  0.89491584823E+02  0.89491584965E+02  0.50400001928E-02 0.  1.
       -1   -1    0    0    0  501  0.00000000000E+00  0.00000000000E+00 -0.22748801263E+04  0.22748801263E+04  0.50400001928E-02 0. -1.
    10030    2    1    2    0    0  0.00000000000E+00  0.00000000000E+00 -0.21853885415E+04  0.23643717113E+04  0.90240263289E+03 0.  0.
        5    1    3    3  502    0 -0.23520824422E+02 -0.28458154227E+03 -0.20079281246E+04  0.20281364173E+04  0.46999998093E+01 0. -1.
       -5    1    3    3    0  502  0.23520824422E+02  0.28458154227E+03 -0.17746041683E+03  0.33623529399E+03  0.46999998093E+01 0.  1.
</event>
<event>
 5   0  0.3943549E-03  0.8995792E+03  0.7818609E-02  0.9426108E-01
        1   -1    0    0  501    0  0.00000000000E+00  0.00000000000E+00  0.90605743014E+03  0.90605743016E+03  0.50400001928E-02 0. -1.
       -1   -1    0    0    0  501  0.00000000000E+00  0.00000000000E+00 -0.22328682813E+03  0.22328682819E+03  0.50400001928E-02 0.  1.
    10030    2    1    2    0    0  0.00000000000E+00  0.00000000000E+00  0.68277060201E+03  0.11293442583E+04  0.89957921213E+03 0.  0.
        3    1    3    3  502    0 -0.38903991469E+03  0.17689509830E+03  0.51744226936E+03  0.67111134944E+03  0.10100000352E+00 0. -1.
       -3    1    3    3    0  502  0.38903991469E+03 -0.17689509830E+03  0.16532833264E+03  0.45823290890E+03  0.10100000352E+00 0.  1.
</event>
<event>
 5   0  0.3998066E-03  0.9028301E+03  0.7818609E-02  0.9422051E-01
       -1   -1    0    0    0  501  0.00000000000E+00  0.00000000000E+00  0.25806468629E+03  0.25806468634E+03  0.50400001928E-02 0. -1.
        1   -1    0    0  501    0  0.00000000000E+00  0.00000000000E+00 -0.78962974483E+03  0.78962974484E+03  0.50400001928E-02 0.  1.
    10030    2    1    2    0    0  0.00000000000E+00  0.00000000000E+00 -0.53156505854E+03  0.10476944312E+04  0.90283011119E+03 0.  0.
        4    1    3    3  502    0  0.12545058456E+03  0.13568990562E+03 -0.74372176584E+03  0.76633757414E+03  0.12699999809E+01 0.  1.
       -4    1    3    3    0  502 -0.12545058456E+03 -0.13568990562E+03  0.21215670730E+03  0.28135685705E+03  0.12699999809E+01 0. -1.
</event>
<event>
 5   0  0.6724773E-03  0.8135211E+03  0.7818609E-02  0.9540650E-01
        2   -1    0    0  501    0  0.00000000000E+00  0.00000000000E+00  0.92523705462E+03  0.92523705463E+03  0.25500000920E-02 0.  1.
       -2   -1    0    0    0  501  0.00000000000E+00  0.00000000000E+00 -0.17882350638E+03  0.17882350639E+03  0.25500000920E-02 0. -1.
    10030    2    1    2    0    0  0.00000000000E+00  0.00000000000E+00  0.74641354825E+03  0.11040605610E+04  0.81352107372E+03 0.  0.
        5    1    3    3  502    0 -0.29408604319E+03  0.27907813848E+03  0.32900413001E+03  0.52214654623E+03  0.46999998093E+01 0.  1.
       -5    1    3    3    0  502  0.29408604319E+03 -0.27907813848E+03  0.41740941824E+03  0.58191401479E+03  0.46999998093E+01 0. -1.
</event>
<event>
 5   0  0.6863405E-03  0.9169910E+03  0.7818609E-02  0.9404588E-01
       -2   -1    0    0    0  501  0.00000000000E+00  0.00000000000E+00  0.18025548331E+03  0.18025548333E+03  0.25500000920E-02 0.  1.
        2   -1    0    0  501    0  0.00000000000E+00  0.00000000000E+00 -0.11662232223E+04  0.11662232223E+04  0.25500000920E-02 0. -1.
    10030    2    1    2    0    0  0.00000000000E+00  0.00000000000E+00 -0.98596773896E+03  0.13464787056E+04  0.91699101544E+03 0.  0.
        1    1    3    3  502    0  0.40511343978E+03  0.20072115961E+03 -0.38103841570E+03  0.59126657040E+03  0.50400001928E-02 0.  1.
       -1    1    3    3    0  502 -0.40511343978E+03 -0.20072115961E+03 -0.60492932325E+03  0.75521213521E+03  0.50400001928E-02 0. -1.
</event>
<event>
 5   0  0.3927993E-03  0.9806532E+03  0.7818609E-02  0.9330022E-01
        1   -1    0    0  501    0  0.00000000000E+00  0.00000000000E+00  0.32001179979E+03  0.32001179983E+03  0.50400001928E-02 0.  1.
       -1   -1    0    0    0  501  0.00000000000E+00  0.00000000000E+00 -0.75128538731E+03  0.75128538733E+03  0.50400001928E-02 0. -1.
    10030    2    1    2    0    0  0.00000000000E+00  0.00000000000E+00 -0.43127358752E+03  0.10712971872E+04  0.98065322919E+03 0.  0.
        2    1    3    3  502    0 -0.45831151944E+02 -0.37256730112E+03  0.12897891275E+03  0.39691617288E+03  0.25500000920E-02 0.  1.
       -2    1    3    3    0  502  0.45831151944E+02  0.37256730112E+03 -0.56025250027E+03  0.67438101428E+03  0.25500000920E-02 0. -1.
</event>
<event>
 5   0  0.3794006E-03  0.8947351E+03  0.7818609E-02  0.9432187E-01
       -1   -1    0    0    0  501  0.00000000000E+00  0.00000000000E+00  0.10142844510E+04  0.10142844510E+04  0.50400001928E-02 0.  1.
        1   -1    0    0  501    0  0.00000000000E+00  0.00000000000E+00 -0.19731914255E+03  0.19731914262E+03  0.50400001928E-02 0. -1.
    10030    2    1    2    0    0  0.00000000000E+00  0.00000000000E+00  0.81696530844E+03  0.12116035936E+04  0.89473513002E+03 0.  0.
        5    1    3    3  502    0  0.49901283805E+02 -0.28801114080E+03  0.86704734753E+03  0.91500478043E+03  0.46999998093E+01 0.  1.
       -5    1    3    3    0  502 -0.49901283805E+02  0.28801114080E+03 -0.50082039086E+02  0.29659881320E+03  0.46999998093E+01 0. -1.
</event>
<event>
 5   0  0.6524705E-03  0.8922561E+03  0.7818609E-02  0.9435314E-01
        2   -1    0    0  501    0  0.00000000000E+00  0.00000000000E+00  0.51754110456E+03  0.51754110457E+03  0.25500000920E-02 0.  1.
       -2   -1    0    0    0  501  0.00000000000E+00  0.00000000000E+00 -0.38456897371E+03  0.38456897372E+03  0.25500000920E-02 0. -1.
    10030    2    1    2    0    0  0.00000000000E+00  0.00000000000E+00  0.13297213085E+03  0.90211007829E+03  0.89225613238E+03 0.  0.
        3    1    3    3  502    0  0.42751233950E+03  0.15294215382E+02  0.19449207456E+03  0.46992328173E+03  0.10100000352E+00 0.  1.
       -3    1    3    3    0  502 -0.42751233950E+03 -0.15294215382E+02 -0.61519943707E+02  0.43218679656E+03  0.10100000352E+00 0. -1.
</event>
<event>
 5   0  0.6863405E-03  0.8986936E+03  0.7818609E-02  0.9427216E-01
        2   -1    0    0  501    0  0.00000000000E+00  0.00000000000E+00  0.19095133539E+04  0.19095133539E+04  0.25500000920E-02 0.  1.
       -2   -1    0    0    0  501  0.00000000000E+00  0.00000000000E+00 -0.10574032272E+03  0.10574032275E+03  0.25500000920E-02 0. -1.
    10030    2    1    2    0    0  0.00000000000E+00  0.00000000000E+00  0.18037730312E+04  0.20152536767E+04  0.89869362591E+03 0.  0.
        1    1    3    3  502    0  0.24009844921E+03 -0.37948040510E+03  0.86573439042E+03  0.97526851582E+03  0.50400001928E-02 0.  1.
       -1    1    3    3    0  502 -0.24009844921E+03  0.37948040510E+03  0.93803864077E+03  0.10399851608E+04  0.50400001928E-02 0. -1.
</event>
<event>
 5   0  0.2560250E-03  0.9030432E+03  0.7818609E-02  0.9421785E-01
        3   -1    0    0  501    0  0.00000000000E+00  0.00000000000E+00  0.69432452228E+03  0.69432452962E+03  0.10100000352E+00 0. -1.
       -3   -1    0    0    0  501  0.00000000000E+00  0.00000000000E+00 -0.29362599798E+03  0.29362601535E+03  0.10100000352E+00 0.  1.
    10030    2    1    2    0    0  0.00000000000E+00  0.00000000000E+00  0.40069852430E+03  0.98795054497E+03  0.90304317280E+03 0.  0.
        5    1    3    3  502    0  0.11911038100E+03 -0.40697269385E+03  0.36996031290E+03  0.56276707395E+03  0.46999998093E+01 0.  1.
       -5    1    3    3    0  502 -0.11911038100E+03  0.40697269385E+03  0.30738211401E+02  0.42518347103E+03  0.46999998093E+01 0. -1.
</event>
<event>
 5   0  0.2560250E-03  0.9010721E+03  0.7818609E-02  0.9424242E-01
       -3   -1    0    0    0  501  0.00000000000E+00  0.00000000000E+00  0.17818838412E+03  0.17818841275E+03  0.10100000352E+00 0. -1.
        3   -1    0    0  501    0  0.00000000000E+00  0.00000000000E+00 -0.11391467640E+04  0.11391467685E+04  0.10100000352E+00 0.  1.
    10030    2    1    2    0    0  0.00000000000E+00  0.00000000000E+00 -0.96095837990E+03  0.13173351812E+04  0.90107212356E+03 0.  0.
        2    1    3    3  502    0  0.23203377081E+02  0.41940731455E+03 -0.71865757029E+03  0.83241191459E+03  0.25500000920E-02 0.  1.
       -2    1    3    3    0  502 -0.23203377081E+02 -0.41940731455E+03 -0.24230080961E+03  0.48492326666E+03  0.25500000920E-02 0. -1.
</event>
<event>
 5   0  0.3927993E-03  0.8979404E+03  0.7818609E-02  0.9428160E-01
        1   -1    0    0  501    0  0.00000000000E+00  0.00000000000E+00  0.63394876115E+03  0.63394876117E+03  0.50400001928E-02 0. -1.
       -1   -1    0    0    0  501  0.00000000000E+00  0.00000000000E+00 -0.31796611863E+03  0.31796611867E+03  0.50400001928E-02 0.  1.
    10030    2    1    2    0    0  0.00000000000E+00  0.00000000000E+00  0.31598264252E+03  0.95191487984E+03  0.89794037001E+03 0.  0.
        2    1    3    3  502    0  0.26627467745E+03 -0.30880256031E+03  0.35720444128E+03  0.54208508371E+03  0.25500000920E-02 0. -1.
       -2    1    3    3    0  502 -0.26627467745E+03  0.30880256031E+03 -0.41221798756E+02  0.40982979614E+03  0.25500000920E-02 0.  1.
</event>
<event>
 5   0  0.3794006E-03  0.8969684E+03  0.7818609E-02  0.9429379E-01
        1   -1    0    0  501    0  0.00000000000E+00  0.00000000000E+00  0.51746830850E+03  0.51746830853E+03  0.50400001928E-02 0.  1.
       -1   -1    0    0    0  501  0.00000000000E+00  0.00000000000E+00 -0.38869642216E+03  0.38869642219E+03  0.50400001928E-02 0. -1.
    10030    2    1    2    0    0  0.00000000000E+00  0.00000000000E+00  0.12877188634E+03  0.90616473072E+03  0.89696840551E+03 0.  0.
        5    1    3    3  502    0  0.28471317139E+03 -0.11248442709E+03 -0.26669599838E+03  0.40603347381E+03  0.46999998093E+01 0. -1.
       -5    1    3    3    0  502 -0.28471317139E+03  0.11248442709E+03  0.39546788472E+03  0.50013125692E+03  0.46999998093E+01 0.  1.
</event>
<event>
 5   0  0.3927993E-03  0.8964702E+03  0.7818609E-02  0.9430005E-01
        1   -1    0    0  501    0  0.00000000000E+00  0.00000000000E+00  0.27951894232E+03  0.27951894237E+03  0.50400001928E-02 0.  1.
       -1   -1    0    0    0  501  0.00000000000E+00  0.00000000000E+00 -0.71878744262E+03  0.71878744264E+03  0.50400001928E-02 0. -1.
    10030    2    1    2    0    0  0.00000000000E+00  0.00000000000E+00 -0.43926850029E+03  0.99830638501E+03  0.89647020196E+03 0.  0.
        2    1    3    3  502    0 -0.21290234969E+03 -0.88497490922E+01  0.21950850549E+03  0.30592435757E+03  0.25500000920E-02 0.  1.
       -2    1    3    3    0  502  0.21290234969E+03  0.88497490922E+01 -0.65877700579E+03  0.69238202744E+03  0.25500000920E-02 0. -1.
</event>
<event>
 5   0  0.3794006E-03  0.8926895E+03  0.7818609E-02  0.9434766E-01
        1   -1    0    0  501    0  0.00000000000E+00  0.00000000000E+00  0.10600045111E+04  0.10600045111E+04  0.50400001928E-02 0.  1.
       -1   -1    0    0    0  501  0.00000000000E+00  0.00000000000E+00 -0.18794602193E+03  0.18794602200E+03  0.50400001928E-02 0. -1.
    10030    2    1    2    0    0  0.00000000000E+00  0.00000000000E+00  0.87205848920E+03  0.12479505331E+04  0.89268948946E+03 0.  0.
        5    1    3    3  502    0  0.84706720785E+02 -0.10395149713E+02  0.10484573188E+04  0.10519354196E+04  0.46999998093E+01 0.  1.
       -5    1    3    3    0  502 -0.84706720785E+02  0.10395149713E+02 -0.17639882956E+03  0.19601511358E+03  0.46999998093E+01 0. -1.
</event>
<event>
 5   0  0.3927993E-03  0.9003497E+03  0.7818609E-02  0.9425144E-01
       -1   -1    0    0    0  501  0.00000000000E+00  0.00000000000E+00  0.41483904118E+03  0.41483904121E+03  0.50400001928E-02 0. -1.
        1   -1    0    0  501    0  0.00000000000E+00  0.00000000000E+00 -0.48852050356E+03  0.48852050359E+03  0.50400001928E-02 0.  1.
    10030    2    1    2    0    0  0.00000000000E+00  0.00000000000E+00 -0.73681462387E+02  0.90335954480E+03  0.90034965945E+03 0.  0.
        2    1    3    3  502    0  0.13436440775E+03 -0.12501939816E+03  0.37559761121E+03  0.41803972244E+03  0.25500000920E-02 0. -1.
       -2    1    3    3    0  502 -0.13436440775E+03  0.12501939816E+03 -0.44927907360E+03  0.48531982235E+03  0.25500000920E-02 0.  1.
</event>
<event>
 5   0  0.6524705E-03  0.9051988E+03  0.7818609E-02  0.9419106E-01
       -2   -1    0    0    0  501  0.00000000000E+00  0.00000000000E+00  0.77579883691E+02  0.77579883733E+02  0.25500000920E-02 0. -1.
        2   -1    0    0  501    0  0.00000000000E+00  0.00000000000E+00 -0.26404551692E+04  0.26404551692E+04  0.25500000920E-02 0.  1.
    10030    2    1    2    0    0  0.00000000000E+00  0.00000000000E+00 -0.25628752855E+04  0.27180350529E+04  0.90519877369E+03 0.  0.
        3    1    3    3  502    0 -0.15950510208E+03 -0.40549823231E+03 -0.16488906223E+04  0.17054943532E+04  0.10100000352E+00 0.  1.
       -3    1    3    3    0  502  0.15950510208E+03  0.40549823231E+03 -0.91398466313E+03  0.10125406997E+04  0.10100000352E+00 0. -1.
</event>
<event>
 5   0  0.6609191E-03  0.8917491E+03  0.7818609E-02  0.9435955E-01
        2   -1    0    0  501    0  0.00000000000E+00  0.00000000000E+00  0.92181352938E+03  0.92181352939E+03  0.25500000920E-02 0. -1.
       -2   -1    0    0    0  501  0.00000000000E+00  0.00000000000E+00 -0.21566630886E+03  0.21566630887E+03  0.25500000920E-02 0.  1.
    10030    2    1    2    0    0  0.00000000000E+00  0.00000000000E+00  0.70614722053E+03  0.11374798383E+04  0.89174911572E+03 0.  0.
        2    1    3    3  502    0  0.26029194999E+03  0.31697849763E+03  0.57612114169E+03  0.70720777505E+03  0.25500000920E-02 0.  1.
       -2    1    3    3    0  502 -0.26029194999E+03 -0.31697849763E+03  0.13002607884E+03  0.43027206321E+03  0.25500000920E-02 0. -1.
</event>
<event>
 5   0  0.6863405E-03  0.8934576E+03  0.7818609E-02  0.9433797E-01
        2   -1    0    0  501    0  0.00000000000E+00  0.00000000000E+00  0.13082135242E+04  0.13082135242E+04  0.25500000920E-02 0. -1.
       -2   -1    0    0    0  501  0.00000000000E+00  0.00000000000E+00 -0.15254896218E+03  0.15254896220E+03  0.25500000920E-02 0.  1.
    10030    2    1    2    0    0  0.00000000000E+00  0.00000000000E+00  0.11556645620E+04  0.14607624864E+04  0.89345758810E+03 0.  0.
        1    1    3    3  502    0 -0.61878515409E+02  0.38585725369E+02 -0.14275210147E+03  0.16029962998E+03  0.50400001928E-02 0.  1.
       -1    1    3    3    0  502  0.61878515409E+02 -0.38585725369E+02  0.12984166634E+04  0.13004628564E+04  0.50400001928E-02 0. -1.
</event>
<event>
 5   0  0.3927993E-03  0.9082933E+03  0.7818609E-02  0.9415273E-01
        1   -1    0    0  501    0  0.00000000000E+00  0.00000000000E+00  0.12820673017E+04  0.12820673017E+04  0.50400001928E-02 0.  1.
       -1   -1    0    0    0  501  0.00000000000E+00  0.00000000000E+00 -0.16087234763E+03  0.16087234771E+03  0.50400001928E-02 0. -1.
    10030    2    1    2    0    0  0.00000000000E+00  0.00000000000E+00  0.11211949541E+04  0.14429396494E+04  0.90829329338E+03 0.  0.
        2    1    3    3  502    0  0.89591940977E+01  0.45321948267E+03  0.60442200640E+03  0.75552242088E+03  0.25500000920E-02 0.  1.
       -2    1    3    3    0  502 -0.89591940977E+01 -0.45321948267E+03  0.51677294766E+03  0.68741722852E+03  0.25500000920E-02 0. -1.
</event>
<event>
 5   0  0.6534628E-03  0.9039791E+03  0.7818609E-02  0.9420621E-01
       -2   -1    0    0    0  501  0.00000000000E+00  0.00000000000E+00  0.97240017554E+02  0.97240017587E+02  0.25500000920E-02 0. -1.
        2   -1    0    0  501    0  0.00000000000E+00  0.00000000000E+00 -0.21009308932E+04  0.21009308932E+04  0.25500000920E-02 0.  1.
    10030    2    1    2    0    0  0.00000000000E+00  0.00000000000E+00 -0.20036908757E+04  0.21981709108E+04  0.90397910811E+03 0.  0.
        4    1    3    3  502    0  0.34980451096E+03  0.28448991634E+03 -0.92513295612E+03  0.10291600011E+04  0.12699999809E+01 0. -1.
       -4    1    3    3    0  502 -0.34980451096E+03 -0.28448991634E+03 -0.10785579196E+04  0.11690109098E+04  0.12699999809E+01 0.  1.
</event>
<event>
 5   0  0.3969536E-03  0.9079574E+03  0.7818609E-02  0.9415689E-01
       -1   -1    0    0    0  501  0.00000000000E+00  0.00000000000E+00  0.10052792836E+03  0.10052792848E+03  0.50400001928E-02 0. -1.
        1   -1    0    0  501    0  0.00000000000E+00  0.00000000000E+00 -0.20501432479E+04  0.20501432479E+04  0.50400001928E-02 0.  1.
    10030    2    1    2    0    0  0.00000000000E+00  0.00000000000E+00 -0.19496153195E+04  0.21506711764E+04  0.90795738597E+03 0.  0.
        1    1    3    3  502    0 -0.13971767605E+03  0.10972412857E+03  0.14773360362E+02  0.17826571626E+03  0.50400001928E-02 0. -1.
       -1    1    3    3    0  502  0.13971767605E+03 -0.10972412857E+03 -0.19643886799E+04  0.19724054601E+04  0.50400001928E-02 0.  1.
</event>
<event>
 5   0  0.3998066E-03  0.8984059E+03  0.7818609E-02  0.9427576E-01
       -1   -1    0    0    0  501  0.00000000000E+00  0.00000000000E+00  0.35372981195E+03  0.35372981198E+03  0.50400001928E-02 0.  1.
        1   -1    0    0  501    0  0.00000000000E+00  0.00000000000E+00 -0.57044466330E+03  0.57044466332E+03  0.50400001928E-02 0. -1.
    10030    2    1    2    0    0  0.00000000000E+00  0.00000000000E+00 -0.21671485135E+03  0.92417447530E+03  0.89840588489E+03 0.  0.
        4    1    3    3  502    0 -0.15667308247E+03 -0.18481280822E+03  0.28075043109E+03  0.37084315594E+03  0.12699999809E+01 0.  1.
       -4    1    3    3    0  502  0.15667308247E+03  0.18481280822E+03 -0.49746528244E+03  0.55333131936E+03  0.12699999809E+01 0. -1.
</event>
<event>
 5   0  0.6524705E-03  0.8747919E+03  0.7818609E-02  0.9457653E-01
        2   -1    0    0  501    0  0.00000000000E+00  0.00000000000E+00  0.56030578751E+03  0.56030578752E+03  0.25500000920E-02 0.  1.
       -2   -1    0    0    0  501  0.00000000000E+00  0.00000000000E+00 -0.34144789955E+03  0.34144789956E+03  0.25500000920E-02 0. -1.
    10030    2    1    2    0    0  0.00000000000E+00  0.00000000000E+00  0.21885788796E+03  0.90175368708E+03  0.87479193929E+03 0.  0.
        3    1    3    3  502    0  0.20216221316E+03  0.14811749786E+02  0.50896511615E+03  0.54784527745E+03  0.10100000352E+00 0.  1.
       -3    1    3    3    0  502 -0.20216221316E+03 -0.14811749786E+02 -0.29010722819E+03  0.35390840963E+03  0.10100000352E+00 0. -1.
</event>
<event>
 5   0  0.3794006E-03  0.9031130E+03  0.7818609E-02  0.9421698E-01
        1   -1    0    0  501    0  0.00000000000E+00  0.00000000000E+00  0.95439102482E+03  0.95439102484E+03  0.50400001928E-02 0.  1.
       -1   -1    0    0    0  501  0.00000000000E+00  0.00000000000E+00 -0.21364749396E+03  0.21364749402E+03  0.50400001928E-02 0. -1.
    10030    2    1    2    0    0  0.00000000000E+00  0.00000000000E+00  0.74074353086E+03  0.11680385189E+04  0.90311295142E+03 0.  0.
        5    1    3    3  502    0  0.35100605173E+03  0.80260157331E+02  0.72275656620E+03  0.80749370597E+03  0.46999998093E+01 0.  1.
       -5    1    3    3    0  502 -0.35100605173E+03 -0.80260157331E+02  0.17986964666E+02  0.36054481289E+03  0.46999998093E+01 0. -1.
</event>
<event>
 5   0  0.6524705E-03  0.8920614E+03  0.7818609E-02  0.9435560E-01
       -2   -1    0    0    0  501  0.00000000000E+00  0.00000000000E+00  0.28626478076E+03  0.28626478077E+03  0.25500000920E-02 0.  1.
        2   -1    0    0  501    0  0.00000000000E+00  0.00000000000E+00 -0.69496287645E+03  0.69496287646E+03  0.25500000920E-02 0. -1.
    10030    2    1    2    0    0  0.00000000000E+00  0.00000000000E+00 -0.40869809569E+03  0.98122765723E+03  0.89206142271E+03 0.  0.
        3    1    3    3  502    0  0.42027600006E+03  0.11981832297E+03 -0.30245518269E+03  0.53147671114E+03  0.10100000352E+00 0.  1.
       -3    1    3    3    0  502 -0.42027600006E+03 -0.11981832297E+03 -0.10624291300E+03  0.44975094609E+03  0.10100000352E+00 0. -1.
</event>
<event>
 5   0  0.3998066E-03  0.9029985E+03  0.7818609E-02  0.9421841E-01
       -1   -1    0    0    0  501  0.00000000000E+00  0.00000000000E+00  0.27837745340E+03  0.27837745344E+03  0.50400001928E-02 0. -1.
        1   -1    0    0  501    0  0.00000000000E+00  0.00000000000E+00 -0.73228483874E+03  0.73228483876E+03  0.50400001928E-02 0.  1.
    10030    2    1    2    0    0  0.00000000000E+00  0.00000000000E+00 -0.45390738534E+03  0.10106622922E+04  0.90299853511E+03 0.  0.
        4    1    3    3  502    0  0.30279128887E+03  0.14236143039E+03 -0.56624932645E+03  0.65771517702E+03  0.12699999809E+01 0.  1.
       -4    1    3    3    0  502 -0.30279128887E+03 -0.14236143039E+03  0.11234194111E+03  0.35294711518E+03  0.12699999809E+01 0. -1.
</event>
<event>
 5   0  0.3794006E-03  0.9000792E+03  0.7818609E-02  0.9425482E-01
       -1   -1    0    0    0  501  0.00000000000E+00  0.00000000000E+00  0.12477574687E+03  0.12477574697E+03  0.50400001928E-02 0. -1.
        1   -1    0    0  501    0  0.00000000000E+00  0.00000000000E+00 -0.16231973522E+04  0.16231973522E+04  0.50400001928E-02 0.  1.
    10030    2    1    2    0    0  0.00000000000E+00  0.00000000000E+00 -0.14984216053E+04  0.17479730992E+04  0.90007924547E+03 0.  0.
        5    1    3    3  502    0  0.10912242377E+03  0.14268612516E+03  0.52085506074E+02  0.18708827762E+03  0.46999998093E+01 0. -1.
       -5    1    3    3    0  502 -0.10912242377E+03 -0.14268612516E+03 -0.15505071114E+04  0.15608848215E+04  0.46999998093E+01 0.  1.
</event>
<event>
 5   0  0.6724773E-03  0.8989971E+03  0.7818609E-02  0.9426836E-01
       -2   -1    0    0    0  501  0.00000000000E+00  0.00000000000E+00  0.53524334502E+03  0.53524334503E+03  0.25500000920E-02 0.  1.
        2   -1    0    0  501    0  0.00000000000E+00  0.00000000000E+00 -0.37748984957E+03  0.37748984958E+03  0.25500000920E-02 0. -1.
    10030    2    1    2    0    0  0.00000000000E+00  0.00000000000E+00  0.15775349545E+03  0.91273319460E+03  0.89899706295E+03 0.  0.
        5    1    3    3  502    0  0.17165900536E+03  0.28931498207E+03 -0.22376655678E+03  0.40405882604E+03  0.46999998093E+01 0. -1.
       -5    1    3    3    0  502 -0.17165900536E+03 -0.28931498207E+03  0.38152005224E+03  0.50867436856E+03  0.46999998093E+01 0.  1.
</event>
<event>
 5   0  0.3969536E-03  0.9028005E+03  0.7818609E-02  0.9422087E-01
        1   -1    0    0  501    0  0.00000000000E+00  0.00000000000E+00  0.54739942658E+03  0.54739942660E+03  0.50400001928E-02 0.  1.
       -1   -1    0    0    0  501  0.00000000000E+00  0.00000000000E+00 -0.37223676930E+03  0.37223676933E+03  0.50400001928E-02 0. -1.
    10030    2    1    2    0    0  0.00000000000E+00  0.00000000000E+00  0.17516265728E+03  0.91963619593E+03  0.90280051859E+03 0.  0.
        1    1    3    3  502    0  0.22730148419E+03 -0.37293062710E+03  0.20380984166E+03  0.48195608610E+03  0.50400001928E-02 0.  1.
       -1    1    3    3    0  502 -0.22730148419E+03  0.37293062710E+03 -0.28647184385E+02  0.43768010983E+03  0.50400001928E-02 0. -1.
</event>
<event>
 5   0  0.6724773E-03  0.8987397E+03  0.7818609E-02  0.9427158E-01
        2   -1    0    0  501    0  0.00000000000E+00  0.00000000000E+00  0.11866754270E+04  0.11866754270E+04  0.25500000920E-02 0. -1.
       -2   -1    0    0    0  501  0.00000000000E+00  0.00000000000E+00 -0.17016721496E+03  0.17016721497E+03  0.25500000920E-02 0.  1.
    10030    2    1    2    0    0  0.00000000000E+00  0.00000000000E+00  0.10165082121E+04  0.13568426420E+04  0.89873967864E+03 0.  0.
        5    1    3    3  502    0  0.12072144852E+03 -0.27227444928E+02  0.11604032368E+04  0.11669930436E+04  0.46999998093E+01 0. -1.
       -5    1    3    3    0  502 -0.12072144852E+03  0.27227444928E+02 -0.14389502469E+03  0.18984959842E+03  0.46999998093E+01 0.  1.
</event>
<event>
 5   0  0.3927993E-03  0.8977745E+03  0.7818609E-02  0.9428368E-01
        1   -1    0    0  501    0  0.00000000000E+00  0.00000000000E+00  0.66617968552E+03  0.66617968554E+03  0.50400001928E-02 0. -1.
       -1   -1    0    0    0  501  0.00000000000E+00  0.00000000000E+00 -0.30247061183E+03  0.30247061187E+03  0.50400001928E-02 0.  1.
    10030    2    1    2    0    0  0.00000000000E+00  0.00000000000E+00  0.36370907369E+03  0.96865029741E+03  0.89777453093E+03 0.  0.
        2    1    3    3  502    0  0.14422986674E+03 -0.24380073093E+03  0.55756754903E+03  0.62539797137E+03  0.25500000920E-02 0. -1.
       -2    1    3    3    0  502 -0.14422986674E+03  0.24380073093E+03 -0.19385847534E+03  0.34325232603E+03  0.25500000920E-02 0.  1.
</event>
<event>
 5   0  0.3943549E-03  0.8982905E+03  0.7818609E-02  0.9427721E-01
       -1   -1    0    0    0  501  0.00000000000E+00  0.00000000000E+00  0.38388815261E+03  0.38388815265E+03  0.50400001928E-02 0. -1.
        1   -1    0    0  501    0  0.00000000000E+00  0.00000000000E+00 -0.52549535902E+03  0.52549535904E+03  0.50400001928E-02 0.  1.
    10030    2    1    2    0    0  0.00000000000E+00  0.00000000000E+00 -0.14160720640E+03  0.90938351169E+03  0.89829047107E+03 0.  0.
        3    1    3    3  502    0  0.28763201367E+03  0.25196333469E+03  0.16771953089E+03  0.41754945642E+03  0.10100000352E+00 0. -1.
       -3    1    3    3    0  502 -0.28763201367E+03 -0.25196333469E+03 -0.30932673729E+03  0.49183405527E+03  0.10100000352E+00 0.  1.
</event>
<event>
 5   0  0.3794006E-03  0.9052885E+03  0.7818609E-02  0.9418995E-01
       -1   -1    0    0    0  501  0.00000000000E+00  0.00000000000E+00  0.28010757002E+03  0.28010757006E+03  0.50400001928E-02 0.  1.
        1   -1    0    0  501    0  0.00000000000E+00  0.00000000000E+00 -0.73145765383E+03  0.73145765385E+03  0.50400001928E-02 0. -1.
    10030    2    1    2    0    0  0.00000000000E+00  0.00000000000E+00 -0.45135008381E+03  0.10115652239E+04  0.90528851979E+03 0.  0.
        5    1    3    3  502    0 -0.83534654281E+02 -0.17102161929E+03 -0.68454010156E+03  0.71052352064E+03  0.46999998093E+01 0. -1.
       -5    1    3    3    0  502  0.83534654281E+02  0.17102161929E+03  0.23319001775E+03  0.30104170327E+03  0.46999998093E+01 0.  1.
</event>
<event>
 5   0  0.6609191E-03  0.8240022E+03  0.7818609E-02  0.9525910E-01
        2   -1    0    0  501    0  0.00000000000E+00  0.00000000000E+00  0.95158787884E+03  0.95158787885E+03  0.25500000920E-02 0. -1.
       -2   -1    0    0    0  501  0.00000000000E+00  0.00000000000E+00 -0.17838070600E+03  0.17838070602E+03  0.25500000920E-02 0.  1.
    10030    2    1    2    0    0  0.00000000000E+00  0.00000000000E+00  0.77320717284E+03  0.11299685849E+04  0.82400222732E+03 0.  0.
        2    1    3    3  502    0 -0.72370245737E+02  0.40182609711E+03  0.31095392235E+03  0.51321925784E+03  0.25500000920E-02 0. -1.
       -2    1    3    3    0  502  0.72370245737E+02 -0.40182609711E+03  0.46225325050E+03  0.61674932702E+03  0.25500000920E-02 0.  1.
</event>
<event>
 5   0  0.6863405E-03  0.8935091E+03  0.7818609E-02  0.9433732E-01
       -2   -1    0    0    0  501  0.00000000000E+00  0.00000000000E+00  0.34787343138E+03  0.34787343139E+03  0.25500000920E-02 0. -1.
        2   -1    0    0  501    0  0.00000000000E+00  0.00000000000E+00 -0.57374204372E+03  0.57374204372E+03  0.25500000920E-02 0.  1.
    10030    2    1    2    0    0  0.00000000000E+00  0.00000000000E+00 -0.22586861233E+03  0.92161547511E+03  0.89350906763E+03 0.  0.
        1    1    3    3  502    0 -0.31690159633E+03  0.19678308075E+03  0.14064330448E+03  0.39866118666E+03  0.50400001928E-02 0. -1.
       -1    1    3    3    0  502  0.31690159633E+03 -0.19678308075E+03 -0.36651191681E+03  0.52295428846E+03  0.50400001928E-02 0.  1.
</event>
<event>
 5   0  0.3969536E-03  0.8991363E+03  0.7818609E-02  0.9426662E-01
       -1   -1    0    0    0  501  0.00000000000E+00  0.00000000000E+00  0.14432776778E+03  0.14432776787E+03  0.50400001928E-02 0.  1.
        1   -1    0    0  501    0  0.00000000000E+00  0.00000000000E+00 -0.14003647273E+04  0.14003647273E+04  0.50400001928E-02 0. -1.
    10030    2    1    2    0    0  0.00000000000E+00  0.00000000000E+00 -0.12560369595E+04  0.15446924952E+04  0.89913628611E+03 0.  0.
        1    1    3    3  502    0 -0.14343898979E+03  0.20160468306E+03  0.16833707203E+02  0.24799710834E+03  0.50400001928E-02 0.  1.
       -1    1    3    3    0  502  0.14343898979E+03 -0.20160468306E+03 -0.12728706667E+04  0.12966953869E+04  0.50400001928E-02 0. -1.
</event>
<event>
 5   0  0.3943549E-03  0.9135076E+03  0.7818609E-02  0.9408852E-01
       -1   -1    0    0    0  501  0.00000000000E+00  0.00000000000E+00  0.18234751124E+03  0.18234751131E+03  0.50400001928E-02 0. -1.
        1   -1    0    0  501    0  0.00000000000E+00  0.00000000000E+00 -0.11441013095E+04  0.11441013095E+04  0.50400001928E-02 0.  1.
    10030    2    1    2    0    0  0.00000000000E+00  0.00000000000E+00 -0.96175379829E+03  0.13264488209E+04  0.91350758389E+03 0.  0.
        3    1    3    3  502    0 -0.31946366558E+03  0.32632675154E+03 -0.49368729727E+03  0.67251270626E+03  0.10100000352E+00 0. -1.
       -3    1    3    3    0  502  0.31946366558E+03 -0.32632675154E+03 -0.46806650102E+03  0.65393611460E+03  0.10100000352E+00 0.  1.
</event>
<event>
 5   0  0.3943549E-03  0.9098382E+03  0.7818609E-02  0.9413366E-01
        1   -1    0    0  501    0  0.00000000000E+00  0.00000000000E+00  0.14165050653E+04  0.14165050654E+04  0.50400001928E-02 0.  1.
       -1   -1    0    0    0  501  0.00000000000E+00  0.00000000000E+00 -0.14610001069E+03  0.14610001078E+03  0.50400001928E-02 0. -1.
    10030    2    1    2    0    0  0.00000000000E+00  0.00000000000E+00  0.12704050547E+04  0.15626050761E+04  0.90983823895E+03 0.  0.
        3    1    3    3  502    0 -0.15253862565E+03  0.44002563947E+02 -0.96979112857E+02  0.18603552478E+03  0.10100000352E+00 0. -1.
       -3    1    3    3    0  502  0.15253862565E+03 -0.44002563947E+02  0.13673841675E+04  0.13765695514E+04  0.10100000352E+00 0.  1.
</event>
<event>
 5   0  0.3927993E-03  0.9012932E+03  0.7818609E-02  0.9423966E-01
        1   -1    0    0  501    0  0.00000000000E+00  0.00000000000E+00  0.17242351904E+03  0.17242351912E+03  0.50400001928E-02 0.  1.
       -1   -1    0    0    0  501  0.00000000000E+00  0.00000000000E+00 -0.11778111130E+04  0.11778111130E+04  0.50400001928E-02 0. -1.
    10030    2    1    2    0    0  0.00000000000E+00  0.00000000000E+00 -0.10053875940E+04  0.13502346322E+04  0.90129315305E+03 0.  0.
        2    1    3    3  502    0 -0.44293585192E+03 -0.46553468557E+01 -0.37853600278E+03  0.58266915705E+03  0.25500000920E-02 0. -1.
       -2    1    3    3    0  502  0.44293585192E+03  0.46553468557E+01 -0.62685159121E+03  0.76756547511E+03  0.25500000920E-02 0.  1.
</event>
<event>
 5   0  0.6863405E-03  0.8927492E+03  0.7818609E-02  0.9434691E-01
       -2   -1    0    0    0  501  0.00000000000E+00  0.00000000000E+00  0.19525348460E+03  0.19525348461E+03  0.25500000920E-02 0.  1.
        2   -1    0    0  501    0  0.00000000000E+00  0.00000000000E+00 -0.10204697962E+04  0.10204697962E+04  0.25500000920E-02 0. -1.
    10030    2    1    2    0    0  0.00000000000E+00  0.00000000000E+00 -0.82521631159E+03  0.12157232808E+04  0.89274920027E+03 0.  0.
        1    1    3    3  502    0 -0.22709336228E+03  0.17089530658E+02 -0.93540699189E+03  0.96273032972E+03  0.50400001928E-02 0. -1.
       -1    1    3    3    0  502  0.22709336228E+03 -0.17089530658E+02  0.11019068030E+03  0.25299295109E+03  0.50400001928E-02 0.  1.
</event>
<event>
 5   0  0.6524705E-03  0.9183639E+03  0.7818609E-02  0.9402912E-01
        2   -1    0    0  501    0  0.00000000000E+00  0.00000000000E+00  0.15122295402E+03  0.15122295404E+03  0.25500000920E-02 0.  1.
       -2   -1    0    0    0  501  0.00000000000E+00  0.00000000000E+00 -0.13942860609E+04  0.13942860609E+04  0.25500000920E-02 0. -1.
    10030    2    1    2    0    0  0.00000000000E+00  0.00000000000E+00 -0.12430631069E+04  0.15455090149E+04  0.91836388624E+03 0.  0.
        3    1    3    3  502    0 -0.14522628601E+03 -0.53815159584E+02  0.10594069366E+03  0.18764377507E+03  0.10100000352E+00 0.  1.
       -3    1    3    3    0  502  0.14522628601E+03  0.53815159584E+02 -0.13490038005E+04  0.13578652399E+04  0.10100000352E+00 0. -1.
</event>
<event>
 5   0  0.3943549E-03  0.8876273E+03  0.7818609E-02  0.9441181E-01
        1   -1    0    0  501    0  0.00000000000E+00  0.00000000000E+00  0.47633108338E+03  0.47633108340E+03  0.50400001928E-02 0.  1.
       -1   -1    0    0    0  501  0.00000000000E+00  0.00000000000E+00 -0.41351611121E+03  0.41351611124E+03  0.50400001928E-02 0. -1.
    10030    2    1    2    0    0  0.00000000000E+00  0.00000000000E+00  0.62814972162E+02  0.88984719465E+03  0.88762734810E+03 0.  0.
        3    1    3    3  502    0 -0.22417865155E+03 -0.35609143856E+03  0.17287519631E+03  0.45490990771E+03  0.10100000352E+00 0.  1.
       -3    1    3    3    0  502  0.22417865155E+03  0.35609143856E+03 -0.11006022415E+03  0.43493728694E+03  0.10100000352E+00 0. -1.
</event>
<event>
 5   0  0.6534628E-03  0.8982538E+03  0.7818609E-02  0.9427767E-01
       -2   -1    0    0    0  501  0.00000000000E+00  0.00000000000E+00  0.11008325143E+04  0.11008325143E+04  0.25500000920E-02 0.  1.
        2   -1    0    0  501    0  0.00000000000E+00  0.00000000000E+00 -0.18323856118E+03  0.18323856120E+03  0.25500000920E-02 0. -1.
    10030    2    1    2    0    0  0.00000000000E+00  0.00000000000E+00  0.91759395316E+03  0.12840710755E+04  0.89825378605E+03 0.  0.
        4    1    3    3  502    0 -0.21239859207E+03  0.82095795710E+02 -0.94595887098E+02  0.24658239261E+03  0.12699999809E+01 0. -1.
       -4    1    3    3    0  502  0.21239859207E+03 -0.82095795710E+02  0.10121898403E+04  0.10374886829E+04  0.12699999809E+01 0.  1.
</event>
<event>
 5   0  0.3943549E-03  0.8987051E+03  0.7818609E-02  0.9427202E-01
       -1   -1    0    0    0  501  0.00000000000E+00  0.00000000000E+00  0.25334276803E+03  0.25334276808E+03  0.50400001928E-02 0.  1.
        1   -1    0    0  501    0  0.00000000000E+00  0.00000000000E+00 -0.79701400322E+03  0.79701400324E+03  0.50400001928E-02 0. -1.
    10030    2    1    2    0    0  0.00000000000E+00  0.00000000000E+00 -0.54367123520E+03  0.10503567713E+04  0.89870514356E+03 0.  0.
        3    1    3    3  502    0 -0.33723786295E+03  0.29189819021E+03 -0.33567725601E+03  0.55822321705E+03  0.10100000352E+00 0. -1.
       -3    1    3    3    0  502  0.33723786295E+03 -0.29189819021E+03 -0.20799397919E+03  0.49213355427E+03  0.10100000352E+00 0.  1.
</event>
<event>
 5   0  0.3943549E-03  0.9191485E+03  0.7818609E-02  0.9401956E-01
        1   -1    0    0  501    0  0.00000000000E+00  0.00000000000E+00  0.25297771274E+03  0.25297771279E+03  0.50400001928E-02 0. -1.
       -1   -1    0    0    0  501  0.00000000000E+00  0.00000000000E+00 -0.83488973097E+03  0.83488973099E+03  0.50400001928E-02 0.  1.
    10030    2    1    2    0    0  0.00000000000E+00  0.00000000000E+00 -0.58191201824E+03  0.10878674438E+04  0.91914850719E+03 0.  0.
        3    1    3    3  502    0 -0.39069230638E+03  0.85226991972E+02 -0.22874131807E+02  0.40053383694E+03  0.10100000352E+00 0. -1.
       -3    1    3    3    0  502  0.39069230638E+03 -0.85226991972E+02 -0.55903788643E+03  0.68733360684E+03  0.10100000352E+00 0.  1.
</event>
<event>
 5   0  0.6724773E-03  0.8995954E+03  0.7818609E-02  0.9426087E-01
       -2   -1    0    0    0  501  0.00000000000E+00  0.00000000000E+00  0.83134058777E+03  0.83134058777E+03  0.25500000920E-02 0. -1.
        2   -1    0    0  501    0  0.00000000000E+00  0.00000000000E+00 -0.24336351099E+03  0.24336351100E+03  0.25500000920E-02 0.  1.
    10030    2    1    2    0    0  0.00000000000E+00  0.00000000000E+00  0.58797707678E+03  0.10747040988E+04  0.89959538522E+03 0.  0.
        5    1    3    3  502    0 -0.18404305889E+03  0.26741493955E+03  0.66589465874E+03  0.74082412484E+03  0.46999998093E+01 0. -1.
       -5    1    3    3    0  502  0.18404305889E+03 -0.26741493955E+03 -0.77917581956E+02  0.33387997393E+03  0.46999998093E+01 0.  1.
</event>
<event>
 5   0  0.3998066E-03  0.8985563E+03  0.7818609E-02  0.9427388E-01
       -1   -1    0    0    0  501  0.00000000000E+00  0.00000000000E+00  0.17091034943E+03  0.17091034950E+03  0.50400001928E-02 0. -1.
        1   -1    0    0  501    0  0.00000000000E+00  0.00000000000E+00 -0.11810335440E+04  0.11810335440E+04  0.50400001928E-02 0.  1.
    10030    2    1    2    0    0  0.00000000000E+00  0.00000000000E+00 -0.10101231945E+04  0.13519438935E+04  0.89855629928E+03 0.  0.
        4    1    3    3  502    0 -0.24109573816E+03 -0.62979150209E+02 -0.10675300419E+04  0.10962278648E+04  0.12699999809E+01 0.  1.
       -4    1    3    3    0  502  0.24109573816E+03  0.62979150209E+02  0.57406847322E+02  0.25571602871E+03  0.12699999809E+01 0. -1.
</event>
<event>
 5   0  0.3943549E-03  0.9011164E+03  0.7818609E-02  0.9424187E-01
       -1   -1    0    0    0  501  0.00000000000E+00  0.00000000000E+00  0.20073187580E+03  0.20073187587E+03  0.50400001928E-02 0. -1.
        1   -1    0    0  501    0  0.00000000000E+00  0.00000000000E+00 -0.10113125695E+04  0.10113125695E+04  0.50400001928E-02 0.  1.
    10030    2    1    2    0    0  0.00000000000E+00  0.00000000000E+00 -0.81058069369E+03  0.12120444454E+04  0.90111635019E+03 0.  0.
        3    1    3    3  502    0  0.85510006971E+02 -0.40477536549E+03 -0.64532615761E+03  0.76655131446E+03  0.10100000352E+00 0.  1.
       -3    1    3    3    0  502 -0.85510006971E+02  0.40477536549E+03 -0.16525453608E+03  0.44549313092E+03  0.10100000352E+00 0. -1.
</event>
<event>
 5   0  0.6609191E-03  0.8966545E+03  0.7818609E-02  0.9429773E-01
       -2   -1    0    0    0  501  0.00000000000E+00  0.00000000000E+00  0.15172969928E+03  0.15172969930E+03  0.25500000920E-02 0. -1.
        2   -1    0    0  501    0  0.00000000000E+00  0.00000000000E+00 -0.13247065649E+04  0.13247065649E+04  0.25500000920E-02 0.  1.
    10030    2    1    2    0    0  0.00000000000E+00  0.00000000000E+00 -0.11729768656E+04  0.14764362642E+04  0.89665451260E+03 0.  0.
        2    1    3    3  502    0 -0.38022689208E+03  0.52929942572E+02 -0.96778787831E+03  0.10411471777E+04  0.25500000920E-02 0.  1.
       -2    1    3    3    0  502  0.38022689208E+03 -0.52929942572E+02 -0.20518898730E+03  0.43528908647E+03  0.25500000920E-02 0. -1.
</event>
<event>
 5   0  0.3998066E-03  0.8974887E+03  0.7818609E-02  0.9428726E-01
        1   -1    0    0  501    0  0.00000000000E+00  0.00000000000E+00  0.67561235981E+03  0.67561235982E+03  0.50400001928E-02 0. -1.
       -1   -1    0    0    0  501  0.00000000000E+00  0.00000000000E+00 -0.29805774158E+03  0.29805774162E+03  0.50400001928E-02 0.  1.
    10030    2    1    2    0    0  0.00000000000E+00  0.00000000000E+00  0.37755461823E+03  0.97367010144E+03  0.89748870561E+03 0.  0.
        4    1    3    3  502    0 -0.40593147091E+03  0.54589560321E+02  0.38766773685E+03  0.56395768127E+03  0.12699999809E+01 0. -1.
       -4    1    3    3    0  502  0.40593147091E+03 -0.54589560321E+02 -0.10113118619E+02  0.40971242017E+03  0.12699999809E+01 0.  1.
</event>
<event>
 5   0  0.6863405E-03  0.9639285E+03  0.7818609E-02  0.9349017E-01
       -2   -1    0    0    0  501  0.00000000000E+00  0.00000000000E+00  0.23637688456E+03  0.23637688457E+03  0.25500000920E-02 0. -1.
        2   -1    0    0  501    0  0.00000000000E+00  0.00000000000E+00 -0.98270832194E+03  0.98270832195E+03  0.25500000920E-02 0.  1.
    10030    2    1    2    0    0  0.00000000000E+00  0.00000000000E+00 -0.74633143738E+03  0.12190852065E+04  0.96392848611E+03 0.  0.
        1    1    3    3  502    0  0.36094804874E+03 -0.31885480553E+03 -0.39640501905E+03  0.62376984542E+03  0.50400001928E-02 0.  1.
       -1    1    3    3    0  502 -0.36094804874E+03  0.31885480553E+03 -0.34992641833E+03  0.59531536110E+03  0.50400001928E-02 0. -1.
</event>
<event>
 5   0  0.3927993E-03  0.9015454E+03  0.7818609E-02  0.9423652E-01
        1   -1    0    0  501    0  0.00000000000E+00  0.00000000000E+00  0.40138562490E+03  0.40138562493E+03  0.50400001928E-02 0. -1.
       -1   -1    0    0    0  501  0.00000000000E+00  0.00000000000E+00 -0.50623646380E+03  0.50623646382E+03  0.50400001928E-02 0.  1.
    10030    2    1    2    0    0  0.00000000000E+00  0.00000000000E+00 -0.10485083890E+03  0.90762208876E+03  0.90154542735E+03 0.  0.
        2    1    3    3  502    0 -0.22859415790E+03 -0.38705710962E+03 -0.86230676314E+02  0.45771631463E+03  0.25500000920E-02 0.  1.
       -2    1    3    3    0  502  0.22859415790E+03  0.38705710962E+03 -0.18620162582E+02  0.44990577413E+03  0.25500000920E-02 0. -1.
</event>
<event>
 5   0  0.3998066E-03  0.8929824E+03  0.7818609E-02  0.9434396E-01
        1   -1    0    0  501    0  0.00000000000E+00  0.00000000000E+00  0.80072296611E+03  0.80072296612E+03  0.50400001928E-02 0. -1.
       -1   -1    0    0    0  501  0.00000000000E+00  0.00000000000E+00 -0.24896801153E+03  0.24896801158E+03  0.50400001928E-02 0.  1.
    10030    2    1    2    0    0  0.00000000000E+00  0.00000000000E+00  0.55175495458E+03  0.10496909777E+04  0.89298242916E+03 0.  0.
        4    1    3    3  502    0  0.11172000714E+03 -0.78682895798E+01  0.78394104692E+03  0.79190179184E+03  0.12699999809E+01 0. -1.
       -4    1    3    3    0  502 -0.11172000714E+03  0.78682895798E+01 -0.23218609234E+03  0.25778918587E+03  0.12699999809E+01 0.  1.
</event>
<event>
 5   0  0.6524705E-03  0.8992559E+03  0.7818609E-02  0.9426512E-01
       -2   -1    0    0    0  501  0.00000000000E+00  0.00000000000E+00  0.29437255116E+03  0.29437255117E+03  0.25500000920E-02 0.  1.
        2   -1    0    0  501    0  0.00000000000E+00  0.00000000000E+00 -0.68676672177E+03  0.68676672178E+03  0.25500000920E-02 0. -1.
    10030    2    1    2    0    0  0.00000000000E+00  0.00000000000E+00 -0.39239417061E+03  0.98113927295E+03  0.89925585224E+03 0.  0.
        3    1    3    3  502    0 -0.52763032298E+02 -0.19000660777E+03 -0.63706886925E+03  0.66689069789E+03  0.10100000352E+00 0. -1.
       -3    1    3    3    0  502  0.52763032298E+02  0.19000660777E+03  0.24467469863E+03  0.31424857506E+03  0.10100000352E+00 0.  1.
</event>
<event>
 5   0  0.3943549E-03  0.9089599E+03  0.7818609E-02  0.9414450E-01
       -1   -1    0    0    0  501  0.00000000000E+00  0.00000000000E+00  0.69202088801E+03  0.69202088803E+03  0.50400001928E-02 0.  1.
        1   -1    0    0  501    0  0.00000000000E+00  0.00000000000E+00 -0.29847660226E+03  0.29847660230E+03  0.50400001928E-02 0. -1.
    10030    2    1    2    0    0  0.00000000000E+00  0.00000000000E+00  0.39354428575E+03  0.99049749033E+03  0.90895994054E+03 0.  0.
        3    1    3    3  502    0  0.18637527369E+03  0.23440586043E+03 -0.17575721021E+03  0.34723544921E+03  0.10100000352E+00 0. -1.
       -3    1    3    3    0  502 -0.18637527369E+03 -0.23440586043E+03  0.56930149596E+03  0.64326204112E+03  0.10100000352E+00 0.  1.
</event>
<event>
 5   0  0.6609191E-03  0.8896805E+03  0.7818609E-02  0.9438574E-01
        2   -1    0    0  501    0  0.00000000000E+00  0.00000000000E+00  0.71880136623E+03  0.71880136623E+03  0.25500000920E-02 0.  1.
       -2   -1    0    0    0  501  0.00000000000E+00  0.00000000000E+00 -0.27529557170E+03  0.27529557171E+03  0.25500000920E-02 0. -1.
    10030    2    1    2    0    0  0.00000000000E+00  0.00000000000E+00  0.44350579452E+03  0.99409693795E+03  0.88968046638E+03 0.  0.
        2    1    3    3  502    0  0.13981479339E+03  0.32722711081E+03  0.52002227965E+03  0.63011818719E+03  0.25500000920E-02 0.  1.
       -2    1    3    3    0  502 -0.13981479339E+03 -0.32722711081E+03 -0.76516485122E+02  0.36397875075E+03  0.25500000920E-02 0. -1.
</event>
<event>
 5   0  0.6524705E-03  0.9007279E+03  0.7818609E-02  0.9424672E-01
        2   -1    0    0  501    0  0.00000000000E+00  0.00000000000E+00  0.10307126344E+04  0.10307126344E+04  0.25500000920E-02 0.  1.
       -2   -1    0    0    0  501  0.00000000000E+00  0.00000000000E+00 -0.19678393167E+03  0.19678393169E+03  0.25500000920E-02 0. -1.
    10030    2    1    2    0    0  0.00000000000E+00  0.00000000000E+00  0.83392870275E+03  0.12274965661E+04  0.90072789374E+03 0.  0.
        3    1    3    3  502    0 -0.14566427813E+01 -0.40109160792E+03  0.69608901914E+03  0.80337820018E+03  0.10100000352E+00 0.  1.
       -3    1    3    3    0  502  0.14566427813E+01  0.40109160792E+03  0.13783968361E+03  0.42411836594E+03  0.10100000352E+00 0. -1.
</event>
<event>
 5   0  0.6609191E-03  0.9004492E+03  0.7818609E-02  0.9425020E-01
        2   -1    0    0  501    0  0.00000000000E+00  0.00000000000E+00  0.10626526422E+04  0.10626526422E+04  0.25500000920E-02 0.  1.
       -2   -1    0    0    0  501  0.00000000000E+00  0.00000000000E+00 -0.19075112049E+03  0.19075112051E+03  0.25500000920E-02 0. -1.
    10030    2    1    2    0    0  0.00000000000E+00  0.00000000000E+00  0.87190152175E+03  0.12534037627E+04  0.90044918171E+03 0.  0.
        2    1    3    3  502    0  0.23732504697E+03  0.58007904599E+02 -0.90455681591E+02  0.26051933758E+03  0.25500000920E-02 0. -1.
       -2    1    3    3    0  502 -0.23732504697E+03 -0.58007904599E+02  0.96235720334E+03  0.99288442517E+03  0.25500000920E-02 0.  1.
</event>
<event>
 5   0  0.6609191E-03  0.8916523E+03  0.7818609E-02  0.9436077E-01
       -2   -1    0    0    0  501  0.00000000000E+00  0.00000000000E+00  0.34928514481E+03  0.34928514482E+03  0.25500000920E-02 0.  1.
        2   -1    0    0  501    0  0.00000000000E+00  0.00000000000E+00 -0.56905065606E+03  0.56905065607E+03  0.25500000920E-02 0. -1.
    10030    2    1    2    0    0  0.00000000000E+00  0.00000000000E+00 -0.21976551125E+03  0.91833580089E+03  0.89165226589E+03 0.  0.
        2    1    3    3  502    0  0.32192519584E+03 -0.40410732146E+02  0.20503229201E+03  0.38380607051E+03  0.25500000920E-02 0.  1.
       -2    1    3    3    0  502 -0.32192519584E+03  0.40410732146E+02 -0.42479780326E+03  0.53452973037E+03  0.25500000920E-02 0. -1.
</event>
<event>
 5   0  0.3794006E-03  0.9359384E+03  0.7818609E-02  0.9381739E-01
        1   -1    0    0  501    0  0.00000000000E+00  0.00000000000E+00  0.17988510767E+03  0.17988510774E+03  0.50400001928E-02 0. -1.
       -1   -1    0    0    0  501  0.00000000000E+00  0.00000000000E+00 -0.12174168260E+04  0.12174168260E+04  0.50400001928E-02 0.  1.
    10030    2    1    2    0    0  0.00000000000E+00  0.00000000000E+00 -0.10375317183E+04  0.13973019337E+04  0.93593836736E+03 0.  0.
        5    1    3    3  502    0 -0.21770100377E+03 -0.37379581291E+03 -0.78523003871E+03  0.89650730085E+03  0.46999998093E+01 0.  1.
       -5    1    3    3    0  502  0.21770100377E+03  0.37379581291E+03 -0.25230167958E+03  0.50079463286E+03  0.46999998093E+01 0. -1.
</event>
<event>
 5   0  0.3998066E-03  0.8752701E+03  0.7818609E-02  0.9457034E-01
        1   -1    0    0  501    0  0.00000000000E+00  0.00000000000E+00  0.53549995421E+03  0.53549995424E+03  0.50400001928E-02 0. -1.
       -1   -1    0    0    0  501  0.00000000000E+00  0.00000000000E+00 -0.35765534646E+03  0.35765534650E+03  0.50400001928E-02 0.  1.
    10030    2    1    2    0    0  0.00000000000E+00  0.00000000000E+00  0.17784460775E+03  0.89315530074E+03  0.87527006502E+03 0.  0.
        4    1    3    3  502    0 -0.28004919578E+03 -0.11833218799E+03 -0.23230011277E+03  0.38261601386E+03  0.12699999809E+01 0.  1.
       -4    1    3    3    0  502  0.28004919578E+03  0.11833218799E+03  0.41014472052E+03  0.51053928687E+03  0.12699999809E+01 0. -1.
</event>
<event>
 5   0  0.6609191E-03  0.8983858E+03  0.7818609E-02  0.9427601E-01
        2   -1    0    0  501    0  0.00000000000E+00  0.00000000000E+00  0.40785057584E+03  0.40785057585E+03  0.25500000920E-02 0.  1.
       -2   -1    0    0    0  501  0.00000000000E+00  0.00000000000E+00 -0.49472596654E+03  0.49472596655E+03  0.25500000920E-02 0. -1.
    10030    2    1    2    0    0  0.00000000000E+00  0.00000000000E+00 -0.86875390700E+02  0.90257654240E+03  0.89838581989E+03 0.  0.
        2    1    3    3  502    0 -0.32569956641E+03 -0.23044556848E+03 -0.25077114774E+03  0.47124466696E+03  0.25500000920E-02 0. -1.
       -2    1    3    3    0  502  0.32569956641E+03  0.23044556848E+03  0.16389575704E+03  0.43133187544E+03  0.25500000920E-02 0.  1.
</event>
<event>
 5   0  0.6609191E-03  0.9008461E+03  0.7818609E-02  0.9424524E-01
       -2   -1    0    0    0  501  0.00000000000E+00  0.00000000000E+00  0.11905801258E+03  0.11905801261E+03  0.25500000920E-02 0. -1.
        2   -1    0    0  501    0  0.00000000000E+00  0.00000000000E+00 -0.17040511005E+04  0.17040511005E+04  0.25500000920E-02 0.  1.
    10030    2    1    2    0    0  0.00000000000E+00  0.00000000000E+00 -0.15849930879E+04  0.18231091131E+04  0.90084612980E+03 0.  0.
        2    1    3    3  502    0  0.88877594543E+02  0.30603095004E+03 -0.14829147103E+03  0.35148901772E+03  0.25500000920E-02 0. -1.
       -2    1    3    3    0  502 -0.88877594543E+02 -0.30603095004E+03 -0.14367016169E+04  0.14716200954E+04  0.25500000920E-02 0.  1.
</event>
<event>
 5   0  0.2560250E-03  0.8934409E+03  0.7818609E-02  0.9433818E-01
       -3   -1    0    0    0  501  0.00000000000E+00  0.00000000000E+00  0.39246570466E+03  0.39246571766E+03  0.10100000352E+00 0. -1.
        3   -1    0    0  501    0  0.00000000000E+00  0.00000000000E+00 -0.50847537930E+03  0.50847538933E+03  0.10100000352E+00 0.  1.
    10030    2    1    2    0    0  0.00000000000E+00  0.00000000000E+00 -0.11600967464E+03  0.90094110699E+03  0.89344089544E+03 0.  0.
        1    1    3    3  502    0  0.12126941255E+03 -0.36368778899E+03 -0.28924204464E+03  0.48024581070E+03  0.50400001928E-02 0.  1.
       -1    1    3    3    0  502 -0.12126941255E+03  0.36368778899E+03  0.17323237000E+03  0.42069529629E+03  0.50400001928E-02 0. -1.
</event>
<event>
 5   0  0.6524705E-03  0.8999503E+03  0.7818609E-02  0.9425644E-01
        2   -1    0    0  501    0  0.00000000000E+00  0.00000000000E+00  0.11789153565E+04  0.11789153565E+04  0.25500000920E-02 0.  1.
       -2   -1    0    0    0  501  0.00000000000E+00  0.00000000000E+00 -0.17174909859E+03  0.17174909861E+03  0.25500000920E-02 0. -1.
    10030    2    1    2    0    0  0.00000000000E+00  0.00000000000E+00  0.10071662579E+04  0.13506644551E+04  0.89995033154E+03 0.  0.
        3    1    3    3  502    0 -0.26922099601E+03 -0.35941524920E+03  0.54651746239E+03  0.70734758990E+03  0.10100000352E+00 0.  1.
       -3    1    3    3    0  502  0.26922099601E+03  0.35941524920E+03  0.46064879553E+03  0.64331686522E+03  0.10100000352E+00 0. -1.
</event>
<event>
 5   0  0.2560250E-03  0.8997600E+03  0.7818609E-02  0.9425881E-01
        4   -1    0    0  501    0  0.00000000000E+00  0.00000000000E+00  0.26832639338E+03  0.26832939884E+03  0.12699999809E+01 0.  1.
       -4   -1    0    0    0  501  0.00000000000E+00  0.00000000000E+00 -0.75426769749E+03  0.75426876667E+03  0.12699999809E+01 0. -1.
    10030    2    1    2    0    0  0.00000000000E+00  0.00000000000E+00 -0.48594130411E+03  0.10225981655E+04  0.89975999970E+03 0.  0.
        5    1    3    3  502    0 -0.14608498481E+03 -0.26824907080E+03  0.13237729498E+03  0.33293276348E+03  0.46999998093E+01 0.  1.
       -5    1    3    3    0  502  0.14608498481E+03  0.26824907080E+03 -0.61831859909E+03  0.68966540203E+03  0.46999998093E+01 0. -1.
</event>
<event>
 5   0  0.3969536E-03  0.9011685E+03  0.7818609E-02  0.9424122E-01
        1   -1    0    0  501    0  0.00000000000E+00  0.00000000000E+00  0.42310501454E+03  0.42310501457E+03  0.50400001928E-02 0. -1.
       -1   -1    0    0    0  501  0.00000000000E+00  0.00000000000E+00 -0.47984820149E+03  0.47984820152E+03  0.50400001928E-02 0.  1.
    10030    2    1    2    0    0  0.00000000000E+00  0.00000000000E+00 -0.56743186954E+02  0.90295321609E+03  0.90116853095E+03 0.  0.
        1    1    3    3  502    0  0.32877903057E+02  0.32746095561E+03  0.27999517754E+03  0.43209829140E+03  0.50400001928E-02 0. -1.
       -1    1    3    3    0  502 -0.32877903057E+02 -0.32746095561E+03 -0.33673836450E+03  0.47085492469E+03  0.50400001928E-02 0.  1.
</event>
<event>
 5   0  0.6609191E-03  0.8905665E+03  0.7818609E-02  0.9437451E-01
       -2   -1    0    0    0  501  0.00000000000E+00  0.00000000000E+00  0.10210226415E+04  0.10210226415E+04  0.25500000920E-02 0.  1.
        2   -1    0    0  501    0  0.00000000000E+00  0.00000000000E+00 -0.19419469409E+03  0.19419469411E+03  0.25500000920E-02 0. -1.
    10030    2    1    2    0    0  0.00000000000E+00  0.00000000000E+00  0.82682794740E+03  0.12152173356E+04  0.89056651528E+03 0.  0.
        2    1    3    3  502    0 -0.36639781658E+03 -0.21479596326E+03  0.59593935889E+03  0.73179804954E+03  0.25500000920E-02 0. -1.
       -2    1    3    3    0  502  0.36639781658E+03  0.21479596326E+03  0.23088858851E+03  0.48341928606E+03  0.25500000920E-02 0.  1.
</event>
<event>
 5   0  0.6724773E-03  0.9015041E+03  0.7818609E-02  0.9423703E-01
        2   -1    0    0  501    0  0.00000000000E+00  0.00000000000E+00  0.65455418576E+03  0.65455418576E+03  0.25500000920E-02 0. -1.
       -2   -1    0    0    0  501  0.00000000000E+00  0.00000000000E+00 -0.31040577092E+03  0.31040577093E+03  0.25500000920E-02 0.  1.
    10030    2    1    2    0    0  0.00000000000E+00  0.00000000000E+00  0.34414841484E+03  0.96495995669E+03  0.90150406909E+03 0.  0.
        5    1    3    3  502    0 -0.19093107876E+03  0.40814846825E+03  0.16057274654E+03  0.47837803660E+03  0.46999998093E+01 0. -1.
       -5    1    3    3    0  502  0.19093107876E+03 -0.40814846825E+03  0.18357566830E+03  0.48658192009E+03  0.46999998093E+01 0.  1.
</event>
<event>
 5   0  0.2560250E-03  0.8981279E+03  0.7818609E-02  0.9427925E-01
       -4   -1    0    0    0  501  0.00000000000E+00  0.00000000000E+00  0.13336272926E+03  0.13336877616E+03  0.12699999809E+01 0.  1.
        4   -1    0    0  501    0  0.00000000000E+00  0.00000000000E+00 -0.15120643715E+04  0.15120649049E+04  0.12699999809E+01 0. -1.
    10030    2    1    2    0    0  0.00000000000E+00  0.00000000000E+00 -0.13787016423E+04  0.16454336811E+04  0.89812793092E+03 0.  0.
        3    1    3    3  502    0 -0.31737028657E+01 -0.28339593819E+03 -0.13275193962E+04  0.13574354819E+04  0.10100000352E+00 0. -1.
       -3    1    3    3    0  502  0.31737028657E+01  0.28339593819E+03 -0.51182246096E+02  0.28799819911E+03  0.10100000352E+00 0.  1.
</event>
<event>
 5   0  0.3794006E-03  0.8927321E+03  0.7818609E-02  0.9434713E-01
        1   -1    0    0  501    0  0.00000000000E+00  0.00000000000E+00  0.69355065554E+03  0.69355065555E+03  0.50400001928E-02 0. -1.
       -1   -1    0    0    0  501  0.00000000000E+00  0.00000000000E+00 -0.28727913597E+03  0.28727913601E+03  0.50400001928E-02 0.  1.
    10030    2    1    2    0    0  0.00000000000E+00  0.00000000000E+00  0.40627151957E+03  0.98082979157E+03  0.89273206082E+03 0.  0.
        5    1    3    3  502    0  0.18829844496E+03  0.40315254861E+03  0.24170347548E+03  0.50639010840E+03  0.46999998093E+01 0. -1.
       -5    1    3    3    0  502 -0.18829844496E+03 -0.40315254861E+03  0.16456804408E+03  0.47443968316E+03  0.46999998093E+01 0.  1.
</event>
<event>
 5   0  0.6534628E-03  0.8898919E+03  0.7818609E-02  0.9438306E-01
        2   -1    0    0  501    0  0.00000000000E+00  0.00000000000E+00  0.10912635764E+04  0.10912635764E+04  0.25500000920E-02 0. -1.
       -2   -1    0    0    0  501  0.00000000000E+00  0.00000000000E+00 -0.18141986922E+03  0.18141986924E+03  0.25500000920E-02 0.  1.
    10030    2    1    2    0    0  0.00000000000E+00  0.00000000000E+00  0.90984370716E+03  0.12726834456E+04  0.88989189306E+03 0.  0.
        4    1    3    3  502    0 -0.23408281975E+02  0.38841719125E+03  0.76351546217E+03  0.85695585417E+03  0.12699999809E+01 0. -1.
       -4    1    3    3    0  502  0.23408281975E+02 -0.38841719125E+03  0.14632824499E+03  0.41572759147E+03  0.12699999809E+01 0.  1.
</event>
<event>
 5   0  0.3943549E-03  0.9284045E+03  0.7818609E-02  0.9390755E-01
       -1   -1    0    0    0  501  0.00000000000E+00  0.00000000000E+00  0.24996845481E+03  0.24996845487E+03  0.50400001928E-02 0.  1.
        1   -1    0    0  501    0  0.00000000000E+00  0.00000000000E+00 -0.86204377274E+03  0.86204377276E+03  0.50400001928E-02 0. -1.
    10030    2    1    2    0    0  0.00000000000E+00  0.00000000000E+00 -0.61207531793E+03  0.11120122276E+04  0.92840454521E+03 0.  0.
        3    1    3    3  502    0 -0.40261830886E+03 -0.21031311811E+03 -0.19146056885E+03  0.49294043241E+03  0.10100000352E+00 0. -1.
       -3    1    3    3    0  502  0.40261830886E+03  0.21031311811E+03 -0.42061474908E+03  0.61907179521E+03  0.10100000352E+00 0.  1.
</event>
<event>
 5   0  0.3927993E-03  0.9019445E+03  0.7818609E-02  0.9423154E-01
        1   -1    0    0  501    0  0.00000000000E+00  0.00000000000E+00  0.11678143543E+04  0.11678143543E+04  0.50400001928E-02 0.  1.
       -1   -1    0    0    0  501  0.00000000000E+00  0.00000000000E+00 -0.17415095421E+03  0.17415095428E+03  0.50400001928E-02 0. -1.
    10030    2    1    2    0    0  0.00000000000E+00  0.00000000000E+00  0.99366340010E+03  0.13419653086E+04  0.90194453088E+03 0.  0.
        2    1    3    3  502    0  0.14348906632E+03 -0.37599702018E+03  0.19404946019E+03  0.44678637440E+03  0.25500000920E-02 0. -1.
       -2    1    3    3    0  502 -0.14348906632E+03  0.37599702018E+03  0.79961393991E+03  0.89517893421E+03  0.25500000920E-02 0.  1.
</event>
<event>
 5   0  0.6609191E-03  0.8814049E+03  0.7818609E-02  0.9449129E-01
       -2   -1    0    0    0  501  0.00000000000E+00  0.00000000000E+00  0.16245716452E+03  0.16245716454E+03  0.25500000920E-02 0.  1.
        2   -1    0    0  501    0  0.00000000000E+00  0.00000000000E+00 -0.11955067564E+04  0.11955067564E+04  0.25500000920E-02 0. -1.
    10030    2    1    2    0    0  0.00000000000E+00  0.00000000000E+00 -0.10330495919E+04  0.13579639210E+04  0.88140487367E+03 0.  0.
        2    1    3    3  502    0  0.28638758541E+03  0.19315557274E+03 -0.94896579290E+02  0.35823495799E+03  0.25500000920E-02 0.  1.
       -2    1    3    3    0  502 -0.28638758541E+03 -0.19315557274E+03 -0.93815301260E+03  0.99972896297E+03  0.25500000920E-02 0. -1.
</event>
<event>
 5   0  0.6724773E-03  0.8944688E+03  0.7818609E-02  0.9432522E-01
       -2   -1    0    0    0  501  0.00000000000E+00  0.00000000000E+00  0.45813276818E+03  0.45813276819E+03  0.25500000920E-02 0. -1.
        2   -1    0    0  501    0  0.00000000000E+00  0.00000000000E+00 -0.43659532281E+03  0.43659532282E+03  0.25500000920E-02 0.  1.
    10030    2    1    2    0    0  0.00000000000E+00  0.00000000000E+00  0.21537445374E+02  0.89472809101E+03  0.89446883416E+03 0.  0.
        5    1    3    3  502    0 -0.39900034227E+03 -0.17990577921E+03 -0.81068406535E+02  0.44515338824E+03  0.46999998093E+01 0.  1.
       -5    1    3    3    0  502  0.39900034227E+03  0.17990577921E+03  0.10260585191E+03  0.44957470277E+03  0.46999998093E+01 0. -1.
</event>
<event>
 5   0  0.3998066E-03  0.8997994E+03  0.7818609E-02  0.9425832E-01
        1   -1    0    0  501    0  0.00000000000E+00  0.00000000000E+00  0.25427460103E+04  0.25427460103E+04  0.50400001928E-02 0. -1.
       -1   -1    0    0    0  501  0.00000000000E+00  0.00000000000E+00 -0.79602819815E+02  0.79602819974E+02  0.50400001928E-02 0.  1.
    10030    2    1    2    0    0  0.00000000000E+00  0.00000000000E+00  0.24631431905E+04  0.26223488303E+04  0.89979942811E+03 0.  0.
        4    1    3    3  502    0  0.46649547849E+02  0.32152115218E+03  0.21385736197E+04  0.21631113636E+04  0.12699999809E+01 0. -1.
       -4    1    3    3    0  502 -0.46649547849E+02 -0.32152115218E+03  0.32456957080E+03  0.45923746668E+03  0.12699999809E+01 0.  1.
</event>
<event>
 5   0  0.6724773E-03  0.9152827E+03  0.7818609E-02  0.9406676E-01
       -2   -1    0    0    0  501  0.00000000000E+00  0.00000000000E+00  0.11429469124E+03  0.11429469127E+03  0.25500000920E-02 0.  1.
        2   -1    0    0  501    0  0.00000000000E+00  0.00000000000E+00 -0.18324175195E+04  0.18324175195E+04  0.25500000920E-02 0. -1.
    10030    2    1    2    0    0  0.00000000000E+00  0.00000000000E+00 -0.17181228282E+04  0.19467122107E+04  0.91528267685E+03 0.  0.
        5    1    3    3  502    0 -0.28832619478E+03 -0.76164349855E+02 -0.12080896873E+03  0.32179170236E+03  0.46999998093E+01 0.  1.
       -5    1    3    3    0  502  0.28832619478E+03  0.76164349855E+02 -0.15973138595E+04  0.16249205084E+04  0.46999998093E+01 0. -1.
</event>
<event>
 5   0  0.3943549E-03  0.9408409E+03  0.7818609E-02  0.9375921E-01
       -1   -1    0    0    0  501  0.00000000000E+00  0.00000000000E+00  0.30245823680E+03  0.30245823684E+03  0.50400001928E-02 0.  1.
        1   -1    0    0  501    0  0.00000000000E+00  0.00000000000E+00 -0.73165602050E+03  0.73165602051E+03  0.50400001928E-02 0. -1.
    10030    2    1    2    0    0  0.00000000000E+00  0.00000000000E+00 -0.42919778370E+03  0.10341142574E+04  0.94084087907E+03 0.  0.
        3    1    3    3  502    0  0.54000644007E+01 -0.45785155450E+03 -0.33317433392E+03  0.56627056575E+03  0.10100000352E+00 0. -1.
       -3    1    3    3    0  502 -0.54000644007E+01  0.45785155450E+03 -0.96023449781E+02  0.46784369160E+03  0.10100000352E+00 0.  1.
</event>
<event>
 5   0  0.6609191E-03  0.8956503E+03  0.7818609E-02  0.9431035E-01
       -2   -1    0    0    0  501  0.00000000000E+00  0.00000000000E+00  0.12266992160E+03  0.12266992162E+03  0.25500000920E-02 0.  1.
        2   -1    0    0  501    0  0.00000000000E+00  0.00000000000E+00 -0.16348536020E+04  0.16348536020E+04  0.25500000920E-02 0. -1.
    10030    2    1    2    0    0  0.00000000000E+00  0.00000000000E+00 -0.15121836804E+04  0.17575235236E+04  0.89565029605E+03 0.  0.
        2    1    3    3  502    0  0.22140471211E+01  0.18861393729E+03  0.40914051922E+02  0.19301315757E+03  0.25500000920E-02 0.  1.
       -2    1    3    3    0  502 -0.22140471211E+01 -0.18861393729E+03 -0.15530977323E+04  0.15645103660E+04  0.25500000920E-02 0. -1.
</event>
<event>
 5   0  0.6524705E-03  0.9046912E+03  0.7818609E-02  0.9419736E-01
        2   -1    0    0  501    0  0.00000000000E+00  0.00000000000E+00  0.25034489591E+04  0.25034489591E+04  0.25500000920E-02 0. -1.
       -2   -1    0    0    0  501  0.00000000000E+00  0.00000000000E+00 -0.81733848993E+02  0.81733849033E+02  0.25500000920E-02 0.  1.
    10030    2    1    2    0    0  0.00000000000E+00  0.00000000000E+00  0.24217151101E+04  0.25851828081E+04  0.90469115003E+03 0.  0.
        3    1    3    3  502    0 -0.11772542475E+03 -0.39054323343E+03  0.65211553490E+03  0.76918006596E+03  0.10100000352E+00 0.  1.
       -3    1    3    3    0  502  0.11772542475E+03  0.39054323343E+03  0.17695995752E+04  0.18160027422E+04  0.10100000352E+00 0. -1.
</event>
<event>
 5   0  0.6863405E-03  0.9369707E+03  0.7818609E-02  0.9380511E-01
       -2   -1    0    0    0  501  0.00000000000E+00  0.00000000000E+00  0.16425669358E+03  0.16425669359E+03  0.25500000920E-02 0.  1.
        2   -1    0    0  501    0  0.00000000000E+00  0.00000000000E+00 -0.13361922175E+04  0.13361922175E+04  0.25500000920E-02 0. -1.
    10030    2    1    2    0    0  0.00000000000E+00  0.00000000000E+00 -0.11719355240E+04  0.15004489111E+04  0.93697068396E+03 0.  0.
        1    1    3    3  502    0 -0.23189369629E+03  0.18404889518E+03 -0.11674039543E+04  0.12043590306E+04  0.50400001928E-02 0. -1.
       -1    1    3    3    0  502  0.23189369629E+03 -0.18404889518E+03 -0.45315697035E+01  0.29608988051E+03  0.50400001928E-02 0.  1.
</event>
<event>
 5   0  0.3969536E-03  0.9020421E+03  0.7818609E-02  0.9423032E-01
        1   -1    0    0  501    0  0.00000000000E+00  0.00000000000E+00  0.11202220142E+04  0.11202220142E+04  0.50400001928E-02 0.  1.
       -1   -1    0    0    0  501  0.00000000000E+00  0.00000000000E+00 -0.18158898407E+03  0.18158898414E+03  0.50400001928E-02 0. -1.
    10030    2    1    2    0    0  0.00000000000E+00  0.00000000000E+00  0.93863303010E+03  0.13018109983E+04  0.90204207783E+03 0.  0.
        1    1    3    3  502    0 -0.39957984272E+03 -0.79259779134E-02  0.16743287153E+03  0.43324106138E+03  0.50400001928E-02 0. -1.
       -1    1    3    3    0  502  0.39957984272E+03  0.79259779134E-02  0.77120015857E+03  0.86856993695E+03  0.50400001928E-02 0.  1.
</event>
<event>
 5   0  0.6524705E-03  0.8996128E+03  0.7818609E-02  0.9426066E-01
        2   -1    0    0  501    0  0.00000000000E+00  0.00000000000E+00  0.19420201665E+04  0.19420201665E+04  0.25500000920E-02 0. -1.
       -2   -1    0    0    0  501  0.00000000000E+00  0.00000000000E+00 -0.10418314908E+03  0.10418314911E+03  0.25500000920E-02 0.  1.
    10030    2    1    2    0    0  0.00000000000E+00  0.00000000000E+00  0.18378370175E+04  0.20462033157E+04  0.89961275350E+03 0.  0.
        3    1    3    3  502    0  0.14026529009E+02 -0.35628476712E+03  0.15426156659E+04  0.15832873023E+04  0.10100000352E+00 0. -1.
       -3    1    3    3    0  502 -0.14026529009E+02  0.35628476712E+03  0.29522135158E+03  0.46291601336E+03  0.10100000352E+00 0.  1.
</event>
<event>
 5   0  0.3998066E-03  0.8965594E+03  0.7818609E-02  0.9429893E-01
       -1   -1    0    0    0  501  0.00000000000E+00  0.00000000000E+00  0.30494022520E+03  0.30494022524E+03  0.50400001928E-02 0.  1.
        1   -1    0    0  501    0  0.00000000000E+00  0.00000000000E+00 -0.65899704843E+03  0.65899704845E+03  0.50400001928E-02 0. -1.
    10030    2    1    2    0    0  0.00000000000E+00  0.00000000000E+00 -0.35405682323E+03  0.96393727370E+03  0.89655944228E+03 0.  0.
        4    1    3    3  502    0 -0.35788852978E+03  0.25740575300E+03 -0.26444804500E+03  0.51407810966E+03  0.12699999809E+01 0. -1.
       -4    1    3    3    0  502  0.35788852978E+03 -0.25740575300E+03 -0.89608778235E+02  0.44985916403E+03  0.12699999809E+01 0.  1.
</event>
<event>
 5   0  0.6724773E-03  0.8725068E+03  0.7818609E-02  0.9460617E-01
       -2   -1    0    0    0  501  0.00000000000E+00  0.00000000000E+00  0.24955828957E+04  0.24955828957E+04  0.25500000920E-02 0.  1.
        2   -1    0    0  501    0  0.00000000000E+00  0.00000000000E+00 -0.76261553966E+02  0.76261554009E+02  0.25500000920E-02 0. -1.
    10030    2    1    2    0    0  0.00000000000E+00  0.00000000000E+00  0.24193213418E+04  0.25718444497E+04  0.87250680166E+03 0.  0.
        5    1    3    3  502    0  0.36321076101E+02 -0.16680496889E+03  0.26364426211E+02  0.17280130550E+03  0.46999998093E+01 0. -1.
       -5    1    3    3    0  502 -0.36321076101E+02  0.16680496889E+03  0.23929569155E+04  0.23990431442E+04  0.46999998093E+01 0.  1.
</event>
<event>
 5   0  0.3998066E-03  0.8997747E+03  0.7818609E-02  0.9425863E-01
       -1   -1    0    0    0  501  0.00000000000E+00  0.00000000000E+00  0.83939378573E+03  0.83939378575E+03  0.50400001928E-02 0.  1.
        1   -1    0    0  501    0  0.00000000000E+00  0.00000000000E+00 -0.24112478455E+03  0.24112478460E+03  0.50400001928E-02 0. -1.
    10030    2    1    2    0    0  0.00000000000E+00  0.00000000000E+00  0.59826900119E+03  0.10805185703E+04  0.89977474019E+03 0.  0.
        4    1    3    3  502    0 -0.15544135732E+03  0.40898429839E+03  0.17337534648E+03  0.47062808624E+03  0.12699999809E+01 0. -1.
       -4    1    3    3    0  502  0.15544135732E+03 -0.40898429839E+03  0.42489365471E+03  0.60989048411E+03  0.12699999809E+01 0.  1.
</event>
<event>
 5   0  0.3943549E-03  0.8995372E+03  0.7818609E-02  0.9426160E-01
       -1   -1    0    0    0  501  0.00000000000E+00  0.00000000000E+00  0.24558704158E+03  0.24558704163E+03  0.50400001928E-02 0. -1.
        1   -1    0    0  501    0  0.00000000000E+00  0.00000000000E+00 -0.82370707997E+03  0.82370707999E+03  0.50400001928E-02 0.  1.
    10030    2    1    2    0    0  0.00000000000E+00  0.00000000000E+00 -0.57812003839E+03  0.10692941216E+04  0.89953718085E+03 0.  0.
        3    1    3    3  502    0 -0.17652903729E+03  0.39193899578E+03 -0.13174885655E+03  0.44959587278E+03  0.10100000352E+00 0.  1.
       -3    1    3    3    0  502  0.17652903729E+03 -0.39193899578E+03 -0.44637118184E+03  0.61969824883E+03  0.10100000352E+00 0. -1.
</event>
<event>
 5   0  0.6863405E-03  0.9014278E+03  0.7818609E-02  0.9423798E-01
        2   -1    0    0  501    0  0.00000000000E+00  0.00000000000E+00  0.28716715395E+03  0.28716715396E+03  0.25500000920E-02 0.  1.
       -2   -1    0    0    0  501  0.00000000000E+00  0.00000000000E+00 -0.70740333078E+03  0.70740333078E+03  0.25500000920E-02 0. -1.
    10030    2    1    2    0    0  0.00000000000E+00  0.00000000000E+00 -0.42023617683E+03  0.99457048474E+03  0.90142775906E+03 0.  0.
        1    1    3    3  502    0 -0.12868245787E+03  0.22201918520E+03  0.19869628783E+03  0.32454877659E+03  0.50400001928E-02 0.  1.
       -1    1    3    3    0  502  0.12868245787E+03 -0.22201918520E+03 -0.61893246466E+03  0.67002170816E+03  0.50400001928E-02 0. -1.
</event>
<event>
 5   0  0.6534628E-03  0.8939565E+03  0.7818609E-02  0.9433168E-01
       -2   -1    0    0    0  501  0.00000000000E+00  0.00000000000E+00  0.14803681661E+03  0.14803681663E+03  0.25500000920E-02 0. -1.
        2   -1    0    0  501    0  0.00000000000E+00  0.00000000000E+00 -0.13495936575E+04  0.13495936575E+04  0.25500000920E-02 0.  1.
    10030    2    1    2    0    0  0.00000000000E+00  0.00000000000E+00 -0.12015568409E+04  0.14976304741E+04  0.89395648391E+03 0.  0.
        4    1    3    3  502    0 -0.33914836496E+03  0.41463115782E+02 -0.11799693067E+03  0.36147709744E+03  0.12699999809E+01 0. -1.
       -4    1    3    3    0  502  0.33914836496E+03 -0.41463115782E+02 -0.10835599102E+04  0.11361533767E+04  0.12699999809E+01 0.  1.
</event>
<event>
 5   0  0.6524705E-03  0.8911728E+03  0.7818609E-02  0.9436684E-01
       -2   -1    0    0    0  501  0.00000000000E+00  0.00000000000E+00  0.16725995267E+03  0.16725995269E+03  0.25500000920E-02 0. -1.
        2   -1    0    0  501    0  0.00000000000E+00  0.00000000000E+00 -0.11870578064E+04  0.11870578064E+04  0.25500000920E-02 0.  1.
    10030    2    1    2    0    0  0.00000000000E+00  0.00000000000E+00 -0.10197978538E+04  0.13543177591E+04  0.89117278355E+03 0.  0.
        3    1    3    3  502    0  0.30353124715E+03 -0.10176677913E+03 -0.98090757437E+03  0.10318272021E+04  0.10100000352E+00 0.  1.
       -3    1    3    3    0  502 -0.30353124715E+03  0.10176677913E+03 -0.38890279375E+02  0.32249055701E+03  0.10100000352E+00 0. -1.
</event>
<event>
 5   0  0.3927993E-03  0.9044521E+03  0.7818609E-02  0.9420033E-01
        1   -1    0    0  501    0  0.00000000000E+00  0.00000000000E+00  0.69452693288E+03  0.69452693290E+03  0.50400001928E-02 0.  1.
       -1   -1    0    0    0  501  0.00000000000E+00  0.00000000000E+00 -0.29445712161E+03  0.29445712165E+03  0.50400001928E-02 0. -1.
    10030    2    1    2    0    0  0.00000000000E+00  0.00000000000E+00  0.40006981127E+03  0.98898405455E+03  0.90445210281E+03 0.  0.
        2    1    3    3  502    0  0.32332358443E+03 -0.27888070712E+03  0.36294171602E+03  0.56039207550E+03  0.25500000920E-02 0. -1.
       -2    1    3    3    0  502 -0.32332358443E+03  0.27888070712E+03  0.37128095252E+02  0.42859197906E+03  0.25500000920E-02 0.  1.
</event>
<event>
 5   0  0.3927993E-03  0.8951231E+03  0.7818609E-02  0.9431698E-01
       -1   -1    0    0    0  501  0.00000000000E+00  0.00000000000E+00  0.45683917210E+03  0.45683917213E+03  0.50400001928E-02 0.  1.
        1   -1    0    0  501    0  0.00000000000E+00  0.00000000000E+00 -0.43847238672E+03  0.43847238675E+03  0.50400001928E-02 0. -1.
    10030    2    1    2    0    0  0.00000000000E+00  0.00000000000E+00  0.18366785383E+02  0.89531155888E+03  0.89512314720E+03 0.  0.
        2    1    3    3  502    0  0.13177096011E+03  0.10811011745E+03  0.42310619018E+03  0.45614716002E+03  0.25500000920E-02 0.  1.
       -2    1    3    3    0  502 -0.13177096011E+03 -0.10811011745E+03 -0.40473940479E+03  0.43916439886E+03  0.25500000920E-02 0. -1.
</event>
<event>
 5   0  0.6724773E-03  0.8977285E+03  0.7818609E-02  0.9428425E-01
       -2   -1    0    0    0  501  0.00000000000E+00  0.00000000000E+00  0.36469668581E+03  0.36469668582E+03  0.25500000920E-02 0. -1.
        2   -1    0    0  501    0  0.00000000000E+00  0.00000000000E+00 -0.55245661691E+03  0.55245661691E+03  0.25500000920E-02 0.  1.
    10030    2    1    2    0    0  0.00000000000E+00  0.00000000000E+00 -0.18775993110E+03  0.91715330273E+03  0.89772846060E+03 0.  0.
        5    1    3    3  502    0  0.14250654850E+03 -0.76292664956E+02  0.33390249723E+03  0.37100088241E+03  0.46999998093E+01 0. -1.
       -5    1    3    3    0  502 -0.14250654850E+03  0.76292664956E+02 -0.52166242833E+03  0.54615242032E+03  0.46999998093E+01 0.  1.
</event>
<event>
 5   0  0.3969536E-03  0.9041014E+03  0.7818609E-02  0.9420469E-01
       -1   -1    0    0    0  501  0.00000000000E+00  0.00000000000E+00  0.15856062218E+03  0.15856062226E+03  0.50400001928E-02 0.  1.
        1   -1    0    0  501    0  0.00000000000E+00  0.00000000000E+00 -0.12887803677E+04  0.12887803677E+04  0.50400001928E-02 0. -1.
    10030    2    1    2    0    0  0.00000000000E+00  0.00000000000E+00 -0.11302197455E+04  0.14473409900E+04  0.90410135942E+03 0.  0.
        1    1    3    3  502    0  0.29558230491E+03 -0.20164581106E+03 -0.10073647113E+04  0.10690245992E+04  0.50400001928E-02 0. -1.
       -1    1    3    3    0  502 -0.29558230491E+03  0.20164581106E+03 -0.12285503427E+03  0.37831639082E+03  0.50400001928E-02 0.  1.
</event>
<event>
 5   0  0.6524705E-03  0.9030586E+03  0.7818609E-02  0.9421766E-01
        2   -1    0    0  501    0  0.00000000000E+00  0.00000000000E+00  0.13142124177E+04  0.13142124177E+04  0.25500000920E-02 0. -1.
       -2   -1    0    0    0  501  0.00000000000E+00  0.00000000000E+00 -0.15513377051E+03  0.15513377053E+03  0.25500000920E-02 0.  1.
    10030    2    1    2    0    0  0.00000000000E+00  0.00000000000E+00  0.11590786472E+04  0.14693461882E+04  0.90305864178E+03 0.  0.
        3    1    3    3  502    0 -0.21547669557E+03 -0.39617314698E+03  0.61575225577E+03  0.76323929368E+03  0.10100000352E+00 0. -1.
       -3    1    3    3    0  502  0.21547669557E+03  0.39617314698E+03  0.54332639142E+03  0.70610689456E+03  0.10100000352E+00 0.  1.
</event>
<event>
 5   0  0.3927993E-03  0.9040793E+03  0.7818609E-02  0.9420496E-01
       -1   -1    0    0    0  501  0.00000000000E+00  0.00000000000E+00  0.57689850771E+03  0.57689850773E+03  0.50400001928E-02 0. -1.
        1   -1    0    0  501    0  0.00000000000E+00  0.00000000000E+00 -0.35420415045E+03  0.35420415048E+03  0.50400001928E-02 0.  1.
    10030    2    1    2    0    0  0.00000000000E+00  0.00000000000E+00  0.22269435727E+03  0.93110265822E+03  0.90407930149E+03 0.  0.
        2    1    3    3  502    0  0.18644308566E+02 -0.39962436568E+02  0.57467799527E+03  0.57636742173E+03  0.25500000920E-02 0. -1.
       -2    1    3    3    0  502 -0.18644308566E+02  0.39962436568E+02 -0.35198363800E+03  0.35473523649E+03  0.25500000920E-02 0.  1.
</event>
<event>
 5   0  0.3998066E-03  0.9000093E+03  0.7818609E-02  0.9425570E-01
        1   -1    0    0  501    0  0.00000000000E+00  0.00000000000E+00  0.65464122824E+03  0.65464122826E+03  0.50400001928E-02 0.  1.
       -1   -1    0    0    0  501  0.00000000000E+00  0.00000000000E+00 -0.30933610298E+03  0.30933610302E+03  0.50400001928E-02 0. -1.
    10030    2    1    2    0    0  0.00000000000E+00  0.00000000000E+00  0.34530512526E+03  0.96397733127E+03  0.90000925866E+03 0.  0.
        4    1    3    3  502    0  0.23713862795E+03 -0.26611299401E+03 -0.12155535492E+03  0.37660081208E+03  0.12699999809E+01 0. -1.
       -4    1    3    3    0  502 -0.23713862795E+03  0.26611299401E+03  0.46686048019E+03  0.58737651920E+03  0.12699999809E+01 0.  1.
</event>
<event>
 5   0  0.2560250E-03  0.8972045E+03  0.7818609E-02  0.9429083E-01
       -3   -1    0    0    0  501  0.00000000000E+00  0.00000000000E+00  0.43710378383E+03  0.43710379550E+03  0.10100000352E+00 0.  1.
        3   -1    0    0  501    0  0.00000000000E+00  0.00000000000E+00 -0.46040320764E+03  0.46040321872E+03  0.10100000352E+00 0. -1.
    10030    2    1    2    0    0  0.00000000000E+00  0.00000000000E+00 -0.23299423806E+02  0.89750701422E+03  0.89720453489E+03 0.  0.
        2    1    3    3  502    0 -0.33234748299E+03  0.15012549391E+03 -0.27298763243E+03  0.45553788079E+03  0.25500000920E-02 0. -1.
       -2    1    3    3    0  502  0.33234748299E+03 -0.15012549391E+03  0.24968820862E+03  0.44196913343E+03  0.25500000920E-02 0.  1.
</event>
<event>
 5   0  0.6534628E-03  0.8042735E+03  0.7818609E-02  0.9553852E-01
        2   -1    0    0  501    0  0.00000000000E+00  0.00000000000E+00  0.11943206233E+04  0.11943206233E+04  0.25500000920E-02 0.  1.
       -2   -1    0    0    0  501  0.00000000000E+00  0.00000000000E+00 -0.13540248142E+03  0.13540248144E+03  0.25500000920E-02 0. -1.
    10030    2    1    2    0    0  0.00000000000E+00  0.00000000000E+00  0.10589181419E+04  0.13297231048E+04  0.80427352567E+03 0.  0.
        4    1    3    3  502    0  0.17372558639E+03  0.67288017223E+02  0.11186639351E+04  0.11340718095E+04  0.12699999809E+01 0.  1.
       -4    1    3    3    0  502 -0.17372558639E+03 -0.67288017223E+02 -0.59745793165E+02  0.19565129524E+03  0.12699999809E+01 0. -1.
</event>
<event>
 5   0  0.3794006E-03  0.9048924E+03  0.7818609E-02  0.9419486E-01
       -1   -1    0    0    0  501  0.00000000000E+00  0.00000000000E+00  0.19325943654E+03  0.19325943660E+03  0.50400001928E-02 0. -1.
        1   -1    0    0  501    0  0.00000000000E+00  0.00000000000E+00 -0.10592370228E+04  0.10592370229E+04  0.50400001928E-02 0.  1.
    10030    2    1    2    0    0  0.00000000000E+00  0.00000000000E+00 -0.86597758631E+03  0.12524964595E+04  0.90489236983E+03 0.  0.
        5    1    3    3  502    0 -0.14302372209E+02 -0.78046359538E+02 -0.10494973463E+04  0.10525029986E+04  0.46999998093E+01 0.  1.
       -5    1    3    3    0  502  0.14302372209E+02  0.78046359538E+02  0.18351976000E+03  0.19999346089E+03  0.46999998093E+01 0. -1.
</event>
<event>
 5   0  0.6609191E-03  0.8956909E+03  0.7818609E-02  0.9430984E-01
       -2   -1    0    0    0  501  0.00000000000E+00  0.00000000000E+00  0.11441672024E+03  0.11441672027E+03  0.25500000920E-02 0.  1.
        2   -1    0    0  501    0  0.00000000000E+00  0.00000000000E+00 -0.17529392468E+04  0.17529392468E+04  0.25500000920E-02 0. -1.
    10030    2    1    2    0    0  0.00000000000E+00  0.00000000000E+00 -0.16385225266E+04  0.18673559671E+04  0.89569092756E+03 0.  0.
        2    1    3    3  502    0 -0.43707944774E+03 -0.21173210832E+02 -0.62061361667E+03  0.75937343231E+03  0.25500000920E-02 0. -1.
       -2    1    3    3    0  502  0.43707944774E+03  0.21173210832E+02 -0.10179089099E+04  0.11079825348E+04  0.25500000920E-02 0.  1.
</event>
<event>
 5   0  0.3927993E-03  0.9055019E+03  0.7818609E-02  0.9418730E-01
        1   -1    0    0  501    0  0.00000000000E+00  0.00000000000E+00  0.19090422208E+04  0.19090422208E+04  0.50400001928E-02 0.  1.
       -1   -1    0    0    0  501  0.00000000000E+00  0.00000000000E+00 -0.10737501525E+03  0.10737501537E+03  0.50400001928E-02 0. -1.
    10030    2    1    2    0    0  0.00000000000E+00  0.00000000000E+00  0.18016672055E+04  0.20164172361E+04  0.90550193307E+03 0.  0.
        2    1    3    3  502    0 -0.23652889726E+02  0.11362458808E+03 -0.73686131840E+02  0.13747600605E+03  0.25500000920E-02 0. -1.
       -2    1    3    3    0  502  0.23652889726E+02 -0.11362458808E+03  0.18753533374E+04  0.18789412301E+04  0.25500000920E-02 0.  1.
</event>
<event>
 5   0  0.3969536E-03  0.8952345E+03  0.7818609E-02  0.9431558E-01
        1   -1    0    0  501    0  0.00000000000E+00  0.00000000000E+00  0.21201028531E+03  0.21201028537E+03  0.50400001928E-02 0.  1.
       -1   -1    0    0    0  501  0.00000000000E+00  0.00000000000E+00 -0.94505406195E+03  0.94505406196E+03  0.50400001928E-02 0. -1.
    10030    2    1    2    0    0  0.00000000000E+00  0.00000000000E+00 -0.73304377663E+03  0.11570643473E+04  0.89523445276E+03 0.  0.
        1    1    3    3  502    0 -0.35654982288E+03  0.74548247107E+02 -0.30290735484E+02  0.36551709403E+03  0.50400001928E-02 0.  1.
       -1    1    3    3    0  502  0.35654982288E+03 -0.74548247107E+02 -0.70275304115E+03  0.79154725331E+03  0.50400001928E-02 0. -1.
</event>
<event>
 5   0  0.6609191E-03  0.9087401E+03  0.7818609E-02  0.9414721E-01
       -2   -1    0    0    0  501  0.00000000000E+00  0.00000000000E+00  0.31180055285E+03  0.31180055286E+03  0.25500000920E-02 0.  1.
        2   -1    0    0  501    0  0.00000000000E+00  0.00000000000E+00 -0.66212890174E+03  0.66212890175E+03  0.25500000920E-02 0. -1.
    10030    2    1    2    0    0  0.00000000000E+00  0.00000000000E+00 -0.35032834889E+03  0.97392945461E+03  0.90874013366E+03 0.  0.
        2    1    3    3  502    0  0.14386291708E+03  0.41213097044E+03 -0.31032057967E+03  0.53558130837E+03  0.25500000920E-02 0.  1.
       -2    1    3    3    0  502 -0.14386291708E+03 -0.41213097044E+03 -0.40007769221E+02  0.43834814624E+03  0.25500000920E-02 0. -1.
</event>
<event>
 5   0  0.6863405E-03  0.8753694E+03  0.7818609E-02  0.9456906E-01
       -2   -1    0    0    0  501  0.00000000000E+00  0.00000000000E+00  0.20932712992E+03  0.20932712994E+03  0.25500000920E-02 0. -1.
        2   -1    0    0  501    0  0.00000000000E+00  0.00000000000E+00 -0.91516043007E+03  0.91516043008E+03  0.25500000920E-02 0.  1.
    10030    2    1    2    0    0  0.00000000000E+00  0.00000000000E+00 -0.70583330015E+03  0.11244875600E+04  0.87536942203E+03 0.  0.
        1    1    3    3  502    0  0.22146660102E+03  0.33082587869E+03 -0.58653726727E+03  0.70888587466E+03  0.50400001928E-02 0.  1.
       -1    1    3    3    0  502 -0.22146660102E+03 -0.33082587869E+03 -0.11929603288E+03  0.41560168535E+03  0.50400001928E-02 0. -1.
</event>
<event>
 5   0  0.3927993E-03  0.8973286E+03  0.7818609E-02  0.9428927E-01
       -1   -1    0    0    0  501  0.00000000000E+00  0.00000000000E+00  0.21220585668E+03  0.21220585674E+03  0.50400001928E-02 0.  1.
        1   -1    0    0  501    0  0.00000000000E+00  0.00000000000E+00 -0.94860549915E+03  0.94860549917E+03  0.50400001928E-02 0. -1.
    10030    2    1    2    0    0  0.00000000000E+00  0.00000000000E+00 -0.73639964247E+03  0.11608113559E+04  0.89732857448E+03 0.  0.
        2    1    3    3  502    0  0.24615314251E+03  0.49730111386E+02  0.11277180380E+03  0.27528518537E+03  0.25500000920E-02 0.  1.
       -2    1    3    3    0  502 -0.24615314251E+03 -0.49730111386E+02 -0.84917144627E+03  0.88552617054E+03  0.25500000920E-02 0. -1.
</event>
<event>
 5   0  0.3969536E-03  0.8992211E+03  0.7818609E-02  0.9426556E-01
        1   -1    0    0  501    0  0.00000000000E+00  0.00000000000E+00  0.60784859901E+03  0.60784859904E+03  0.50400001928E-02 0. -1.
       -1   -1    0    0    0  501  0.00000000000E+00  0.00000000000E+00 -0.33256576028E+03  0.33256576032E+03  0.50400001928E-02 0.  1.
    10030    2    1    2    0    0  0.00000000000E+00  0.00000000000E+00  0.27528283873E+03  0.94041435936E+03  0.89922106625E+03 0.  0.
        1    1    3    3  502    0  0.43579934734E+03  0.34522129264E+02  0.24751013039E+03  0.50236850341E+03  0.50400001928E-02 0. -1.
       -1    1    3    3    0  502 -0.43579934734E+03 -0.34522129264E+02  0.27772708346E+02  0.43804585594E+03  0.50400001928E-02 0.  1.
</event>
<event>
 5   0  0.3998066E-03  0.9029963E+03  0.7818609E-02  0.9421844E-01
        1   -1    0    0  501    0  0.00000000000E+00  0.00000000000E+00  0.62672409651E+03  0.62672409654E+03  0.50400001928E-02 0.  1.
       -1   -1    0    0    0  501  0.00000000000E+00  0.00000000000E+00 -0.32526365125E+03  0.32526365129E+03  0.50400001928E-02 0. -1.
    10030    2    1    2    0    0  0.00000000000E+00  0.00000000000E+00  0.30146044527E+03  0.95198774782E+03  0.90299627460E+03 0.  0.
        4    1    3    3  502    0  0.18001711911E+03  0.49496085276E+02  0.58412100240E+03  0.61323322152E+03  0.12699999809E+01 0.  1.
       -4    1    3    3    0  502 -0.18001711911E+03 -0.49496085276E+02 -0.28266055713E+03  0.33875452630E+03  0.12699999809E+01 0. -1.
</event>
<event>
 5   0  0.6534628E-03  0.8973160E+03  0.7818609E-02  0.9428943E-01
        2   -1    0    0  501    0  0.00000000000E+00  0.00000000000E+00  0.33546273447E+03  0.33546273448E+03  0.25500000920E-02 0. -1.
       -2   -1    0    0    0  501  0.00000000000E+00  0.00000000000E+00 -0.60004874674E+03  0.60004874674E+03  0.25500000920E-02 0.  1.
    10030    2    1    2    0    0  0.00000000000E+00  0.00000000000E+00 -0.26458601227E+03  0.93551148122E+03  0.89731598314E+03 0.  0.
        4    1    3    3  502    0  0.28116552499E+03  0.25619200755E+03  0.11575013099E+03  0.39760294629E+03  0.12699999809E+01 0. -1.
       -4    1    3    3    0  502 -0.28116552499E+03 -0.25619200755E+03 -0.38033614326E+03  0.53790853492E+03  0.12699999809E+01 0.  1.
</event>
<event>
 5   0  0.3943549E-03  0.8830385E+03  0.7818609E-02  0.9447036E-01
        1   -1    0    0  501    0  0.00000000000E+00  0.00000000000E+00  0.26135653634E+03  0.26135653639E+03  0.50400001928E-02 0.  1.
       -1   -1    0    0    0  501  0.00000000000E+00  0.00000000000E+00 -0.74587469888E+03  0.74587469890E+03  0.50400001928E-02 0. -1.
    10030    2    1    2    0    0  0.00000000000E+00  0.00000000000E+00 -0.48451816254E+03  0.10072312353E+04  0.88303845415E+03 0.  0.
        3    1    3    3  502    0 -0.39791002123E+03  0.18506502707E+03 -0.29764509943E+03  0.53025848852E+03  0.10100000352E+00 0. -1.
       -3    1    3    3    0  502  0.39791002123E+03 -0.18506502707E+03 -0.18687306311E+03  0.47697274676E+03  0.10100000352E+00 0.  1.
</event>
<event>
 5   0  0.3969536E-03  0.8949625E+03  0.7818609E-02  0.9431901E-01
        1   -1    0    0  501    0  0.00000000000E+00  0.00000000000E+00  0.19189780064E+03  0.19189780070E+03  0.50400001928E-02 0. -1.
       -1   -1    0    0    0  501  0.00000000000E+00  0.00000000000E+00 -0.10434692762E+04  0.10434692762E+04  0.50400001928E-02 0.  1.
    10030    2    1    2    0    0  0.00000000000E+00  0.00000000000E+00 -0.85157147556E+03  0.12353670769E+04  0.89496247783E+03 0.  0.
        1    1    3    3  502    0  0.24631500488E+03 -0.15144078350E+03  0.45629812955E+02  0.29272422584E+03  0.50400001928E-02 0. -1.
       -1    1    3    3    0  502 -0.24631500488E+03  0.15144078350E+03 -0.89720128851E+03  0.94264285107E+03  0.50400001928E-02 0.  1.
</event>
<event>
 5   0  0.3969536E-03  0.9023679E+03  0.7818609E-02  0.9422626E-01
        1   -1    0    0  501    0  0.00000000000E+00  0.00000000000E+00  0.35524165567E+03  0.35524165571E+03  0.50400001928E-02 0. -1.
       -1   -1    0    0    0  501  0.00000000000E+00  0.00000000000E+00 -0.57303799494E+03  0.57303799496E+03  0.50400001928E-02 0.  1.
    10030    2    1    2    0    0  0.00000000000E+00  0.00000000000E+00 -0.21779633927E+03  0.92827965067E+03  0.90236792078E+03 0.  0.
        1    1    3    3  502    0  0.20719521485E+03 -0.29121078840E+03 -0.39218436104E+03  0.53060545927E+03  0.50400001928E-02 0.  1.
       -1    1    3    3    0  502 -0.20719521485E+03  0.29121078840E+03  0.17438802177E+03  0.39767419140E+03  0.50400001928E-02 0. -1.
</event>
<event>
 5   0  0.6534628E-03  0.8976341E+03  0.7818609E-02  0.9428544E-01
       -2   -1    0    0    0  501  0.00000000000E+00  0.00000000000E+00  0.43418420151E+03  0.43418420152E+03  0.25500000920E-02 0. -1.
        2   -1    0    0  501    0  0.00000000000E+00  0.00000000000E+00 -0.46394310255E+03  0.46394310256E+03  0.25500000920E-02 0.  1.
    10030    2    1    2    0    0  0.00000000000E+00  0.00000000000E+00 -0.29758901034E+02  0.89812730408E+03  0.89763414716E+03 0.  0.
        4    1    3    3  502    0 -0.14995814549E+03 -0.35403766484E+03  0.21677537053E+03  0.44138791068E+03  0.12699999809E+01 0. -1.
       -4    1    3    3    0  502  0.14995814549E+03  0.35403766484E+03 -0.24653427156E+03  0.45673939340E+03  0.12699999809E+01 0.  1.
</event>
<event>
 5   0  0.6524705E-03  0.9014399E+03  0.7818609E-02  0.9423783E-01
        2   -1    0    0  501    0  0.00000000000E+00  0.00000000000E+00  0.40580006911E+03  0.40580006911E+03  0.25500000920E-02 0.  1.
       -2   -1    0    0    0  501  0.00000000000E+00  0.00000000000E+00 -0.50061218276E+03  0.50061218277E+03  0.25500000920E-02 0. -1.
    10030    2    1    2    0    0  0.00000000000E+00  0.00000000000E+00 -0.94812113658E+02  0.90641225188E+03  0.90143986681E+03 0.  0.
        3    1    3    3  502    0  0.39529523365E+03 -0.83359493505E+02  0.15354959249E+03  0.43218585639E+03  0.10100000352E+00 0.  1.
       -3    1    3    3    0  502 -0.39529523365E+03  0.83359493505E+02 -0.24836170615E+03  0.47422639550E+03  0.10100000352E+00 0. -1.
</event>
<event>
 5   0  0.6724773E-03  0.8918664E+03  0.7818609E-02  0.9435806E-01
       -2   -1    0    0    0  501  0.00000000000E+00  0.00000000000E+00  0.12894288711E+03  0.12894288714E+03  0.25500000920E-02 0. -1.
        2   -1    0    0  501    0  0.00000000000E+00  0.00000000000E+00 -0.15422054760E+04  0.15422054760E+04  0.25500000920E-02 0.  1.
    10030    2    1    2    0    0  0.00000000000E+00  0.00000000000E+00 -0.14132625889E+04  0.16711483632E+04  0.89186641741E+03 0.  0.
        5    1    3    3  502    0 -0.26911253711E+03  0.31924417908E+02 -0.13701495871E+04  0.13967006505E+04  0.46999998093E+01 0.  1.
       -5    1    3    3    0  502  0.26911253711E+03 -0.31924417908E+02 -0.43113001865E+02  0.27444771272E+03  0.46999998093E+01 0. -1.
</event>
<event>
 5   0  0.6524705E-03  0.9000087E+03  0.7818609E-02  0.9425571E-01
        2   -1    0    0  501    0  0.00000000000E+00  0.00000000000E+00  0.44998477567E+03  0.44998477568E+03  0.25500000920E-02 0.  1.
       -2   -1    0    0    0  501  0.00000000000E+00  0.00000000000E+00 -0.45002388331E+03  0.45002388331E+03  0.25500000920E-02 0. -1.
    10030    2    1    2    0    0  0.00000000000E+00  0.00000000000E+00 -0.39107638709E-01  0.90000865899E+03  0.90000865814E+03 0.  0.
        3    1    3    3  502    0  0.21496418598E+03 -0.39416896871E+03  0.30396048080E+02  0.45000300786E+03  0.10100000352E+00 0. -1.
       -3    1    3    3    0  502 -0.21496418598E+03  0.39416896871E+03 -0.30435155719E+02  0.45000565113E+03  0.10100000352E+00 0.  1.
</event>
<event>
 5   0  0.3794006E-03  0.8977448E+03  0.7818609E-02  0.9428405E-01
        1   -1    0    0  501    0  0.00000000000E+00  0.00000000000E+00  0.41690556790E+03  0.41690556793E+03  0.50400001928E-02 0.  1.
       -1   -1    0    0    0  501  0.00000000000E+00  0.00000000000E+00 -0.48329030545E+03  0.48329030548E+03  0.50400001928E-02 0. -1.
    10030    2    1    2    0    0  0.00000000000E+00  0.00000000000E+00 -0.66384737545E+02  0.90019587341E+03  0.89774477282E+03 0.  0.
        5    1    3    3  502    0 -0.11109215008E+03  0.30813903385E+03  0.27452201335E+03  0.42740561040E+03  0.46999998093E+01 0.  1.
       -5    1    3    3    0  502  0.11109215008E+03 -0.30813903385E+03 -0.34090675089E+03  0.47279026301E+03  0.46999998093E+01 0. -1.
</event>
<event>
 5   0  0.6724773E-03  0.9093942E+03  0.7818609E-02  0.9413914E-01
        2   -1    0    0  501    0  0.00000000000E+00  0.00000000000E+00  0.62958846353E+03  0.62958846353E+03  0.25500000920E-02 0. -1.
       -2   -1    0    0    0  501  0.00000000000E+00  0.00000000000E+00 -0.32838827964E+03  0.32838827965E+03  0.25500000920E-02 0.  1.
    10030    2    1    2    0    0  0.00000000000E+00  0.00000000000E+00  0.30120018389E+03  0.95797674318E+03  0.90939424327E+03 0.  0.
        5    1    3    3  502    0  0.36778498622E+01  0.44815974396E+03  0.23128637249E+03  0.50435717382E+03  0.46999998093E+01 0.  1.
       -5    1    3    3    0  502 -0.36778498622E+01 -0.44815974396E+03  0.69913811405E+02  0.45361956936E+03  0.46999998093E+01 0. -1.
</event>
<event>
 5   0  0.6609191E-03  0.8946118E+03  0.7818609E-02  0.9432342E-01
       -2   -1    0    0    0  501  0.00000000000E+00  0.00000000000E+00  0.13787297056E+03  0.13787297058E+03  0.25500000920E-02 0. -1.
        2   -1    0    0  501    0  0.00000000000E+00  0.00000000000E+00 -0.14512095943E+04  0.14512095943E+04  0.25500000920E-02 0.  1.
    10030    2    1    2    0    0  0.00000000000E+00  0.00000000000E+00 -0.13133366238E+04  0.15890825649E+04  0.89461182127E+03 0.  0.
        2    1    3    3  502    0  0.27321228056E+03  0.44140312333E+02 -0.32464488259E+02  0.27865258015E+03  0.25500000920E-02 0. -1.
       -2    1    3    3    0  502 -0.27321228056E+03 -0.44140312333E+02 -0.12808721355E+04  0.13104299847E+04  0.25500000920E-02 0.  1.
</event>
<event>
 5   0  0.6724773E-03  0.8895593E+03  0.7818609E-02  0.9438728E-01
       -2   -1    0    0    0  501  0.00000000000E+00  0.00000000000E+00  0.21499290262E+03  0.21499290264E+03  0.25500000920E-02 0. -1.
        2   -1    0    0  501    0  0.00000000000E+00  0.00000000000E+00 -0.92016492243E+03  0.92016492244E+03  0.25500000920E-02 0.  1.
    10030    2    1    2    0    0  0.00000000000E+00  0.00000000000E+00 -0.70517201981E+03  0.11351578251E+04  0.88955927869E+03 0.  0.
        5    1    3    3  502    0 -0.15067453108E+03 -0.32866294419E+03 -0.22069567454E+02  0.36225861067E+03  0.46999998093E+01 0. -1.
       -5    1    3    3    0  502  0.15067453108E+03  0.32866294419E+03 -0.68310245236E+03  0.77289921440E+03  0.46999998093E+01 0.  1.
</event>
<event>
 5   0  0.3969536E-03  0.9052864E+03  0.7818609E-02  0.9418997E-01
        1   -1    0    0  501    0  0.00000000000E+00  0.00000000000E+00  0.14200536864E+04  0.14200536864E+04  0.50400001928E-02 0. -1.
       -1   -1    0    0    0  501  0.00000000000E+00  0.00000000000E+00 -0.14428037149E+03  0.14428037158E+03  0.50400001928E-02 0.  1.
    10030    2    1    2    0    0  0.00000000000E+00  0.00000000000E+00  0.12757733149E+04  0.15643340580E+04  0.90528641542E+03 0.  0.
        1    1    3    3  502    0 -0.17716704807E+03  0.39459196877E+03  0.40737593311E+03  0.59417685552E+03  0.50400001928E-02 0. -1.
       -1    1    3    3    0  502  0.17716704807E+03 -0.39459196877E+03  0.86839738184E+03  0.97015720250E+03  0.50400001928E-02 0.  1.
</event>
<event>
 5   0  0.6609191E-03  0.8996346E+03  0.7818609E-02  0.9426038E-01
        2   -1    0    0  501    0  0.00000000000E+00  0.00000000000E+00  0.16919266116E+04  0.16919266116E+04  0.25500000920E-02 0. -1.
       -2   -1    0    0    0  501  0.00000000000E+00  0.00000000000E+00 -0.11958888493E+03  0.11958888496E+03  0.25500000920E-02 0.  1.
    10030    2    1    2    0    0  0.00000000000E+00  0.00000000000E+00  0.15723377267E+04  0.18115154966E+04  0.89963463006E+03 0.  0.
        2    1    3    3  502    0 -0.57767148886E+02  0.19871065752E+03  0.15903862375E+04  0.16037928025E+04  0.25500000920E-02 0.  1.
       -2    1    3    3    0  502  0.57767148886E+02 -0.19871065752E+03 -0.18048510784E+02  0.20772269412E+03  0.25500000920E-02 0. -1.
</event>
<event>
 5   0  0.3794006E-03  0.8491257E+03  0.7818609E-02  0.9491511E-01
       -1   -1    0    0    0  501  0.00000000000E+00  0.00000000000E+00  0.14197517618E+03  0.14197517627E+03  0.50400001928E-02 0.  1.
        1   -1    0    0  501    0  0.00000000000E+00  0.00000000000E+00 -0.12696135154E+04  0.12696135154E+04  0.50400001928E-02 0. -1.
    10030    2    1    2    0    0  0.00000000000E+00  0.00000000000E+00 -0.11276383392E+04  0.14115886917E+04  0.84912567409E+03 0.  0.
        5    1    3    3  502    0 -0.27627288124E+03  0.18339990921E+03 -0.10044947174E+04  0.10578251079E+04  0.46999998093E+01 0. -1.
       -5    1    3    3    0  502  0.27627288124E+03 -0.18339990921E+03 -0.12314362178E+03  0.35376358376E+03  0.46999998093E+01 0.  1.
</event>
<event>
 5   0  0.3943549E-03  0.9018550E+03  0.7818609E-02  0.9423266E-01
        1   -1    0    0  501    0  0.00000000000E+00  0.00000000000E+00  0.26323053679E+03  0.26323053684E+03  0.50400001928E-02 0.  1.
       -1   -1    0    0    0  501  0.00000000000E+00  0.00000000000E+00 -0.77246213662E+03  0.77246213664E+03  0.50400001928E-02 0. -1.
    10030    2    1    2    0    0  0.00000000000E+00  0.00000000000E+00 -0.50923159984E+03  0.10356926735E+04  0.90185502805E+03 0.  0.
        3    1    3    3  502    0 -0.37839395647E+03  0.60638057202E+02  0.18299979541E+02  0.38365851968E+03  0.10100000352E+00 0.  1.
       -3    1    3    3    0  502  0.37839395647E+03 -0.60638057202E+02 -0.52753157938E+03  0.65203415379E+03  0.10100000352E+00 0. -1.
</event>
<event>
 5   0  0.6534628E-03  0.8927262E+03  0.7818609E-02  0.9434720E-01
        2   -1    0    0  501    0  0.00000000000E+00  0.00000000000E+00  0.17575934502E+04  0.17575934502E+04  0.25500000920E-02 0.  1.
       -2   -1    0    0    0  501  0.00000000000E+00  0.00000000000E+00 -0.11335955228E+03  0.11335955231E+03  0.25500000920E-02 0. -1.
    10030    2    1    2    0    0  0.00000000000E+00  0.00000000000E+00  0.16442338979E+04  0.18709530025E+04  0.89272617668E+03 0.  0.
        4    1    3    3  502    0 -0.56401527763E+02  0.49331404907E+02 -0.10008033137E+03  0.12502961838E+03  0.12699999809E+01 0. -1.
       -4    1    3    3    0  502  0.56401527763E+02 -0.49331404907E+02  0.17443142293E+04  0.17459233841E+04  0.12699999809E+01 0.  1.
</event>
<event>
 5   0  0.3794006E-03  0.9031706E+03  0.7818609E-02  0.9421627E-01
       -1   -1    0    0    0  501  0.00000000000E+00  0.00000000000E+00  0.23772393492E+03  0.23772393497E+03  0.50400001928E-02 0. -1.
        1   -1    0    0  501    0  0.00000000000E+00  0.00000000000E+00 -0.85784072189E+03  0.85784072190E+03  0.50400001928E-02 0.  1.
    10030    2    1    2    0    0  0.00000000000E+00  0.00000000000E+00 -0.62011678697E+03  0.10955646569E+04  0.90317057520E+03 0.  0.
        5    1    3    3  502    0 -0.34771352186E+03 -0.23131503182E+01  0.39403472706E+02  0.34997823876E+03  0.46999998093E+01 0. -1.
       -5    1    3    3    0  502  0.34771352186E+03  0.23131503182E+01 -0.65952025968E+03  0.74558641811E+03  0.46999998093E+01 0.  1.
</event>
<event>
 5   0  0.3969536E-03  0.9012461E+03  0.7818609E-02  0.9424025E-01
       -1   -1    0    0    0  501  0.00000000000E+00  0.00000000000E+00  0.65601701142E+03  0.65601701144E+03  0.50400001928E-02 0. -1.
        1   -1    0    0  501    0  0.00000000000E+00  0.00000000000E+00 -0.30953639157E+03  0.30953639161E+03  0.50400001928E-02 0.  1.
    10030    2    1    2    0    0  0.00000000000E+00  0.00000000000E+00  0.34648061985E+03  0.96555340305E+03  0.90124611190E+03 0.  0.
        1    1    3    3  502    0  0.18770648765E+03  0.60551253479E+02  0.60731836908E+03  0.63854191816E+03  0.50400001928E-02 0. -1.
       -1    1    3    3    0  502 -0.18770648765E+03 -0.60551253479E+02 -0.26083774922E+03  0.32701148489E+03  0.50400001928E-02 0.  1.
</event>
<event>
 5   0  0.3794006E-03  0.8946896E+03  0.7818609E-02  0.9432244E-01
        1   -1    0    0  501    0  0.00000000000E+00  0.00000000000E+00  0.44084303500E+03  0.44084303503E+03  0.50400001928E-02 0. -1.
       -1   -1    0    0    0  501  0.00000000000E+00  0.00000000000E+00 -0.45394245271E+03  0.45394245273E+03  0.50400001928E-02 0.  1.
    10030    2    1    2    0    0  0.00000000000E+00  0.00000000000E+00 -0.13099417700E+02  0.89478548777E+03  0.89468959666E+03 0.  0.
        5    1    3    3  502    0 -0.39418661140E+02  0.10803541613E+03 -0.43888043346E+03  0.45372194884E+03  0.46999998093E+01 0.  1.
       -5    1    3    3    0  502  0.39418661140E+02 -0.10803541613E+03  0.42578101576E+03  0.44106353892E+03  0.46999998093E+01 0. -1.
</event>
<event>
 5   0  0.6724773E-03  0.8967532E+03  0.7818609E-02  0.9429649E-01
       -2   -1    0    0    0  501  0.00000000000E+00  0.00000000000E+00  0.86340584467E+02  0.86340584505E+02  0.25500000920E-02 0.  1.
        2   -1    0    0  501    0  0.00000000000E+00  0.00000000000E+00 -0.23284712434E+04  0.23284712434E+04  0.25500000920E-02 0. -1.
    10030    2    1    2    0    0  0.00000000000E+00  0.00000000000E+00 -0.22421306590E+04  0.24148118279E+04  0.89675318370E+03 0.  0.
        5    1    3    3  502    0  0.11111169451E+03 -0.41732359073E+03 -0.14454902829E+04  0.15086315110E+04  0.46999998093E+01 0. -1.
       -5    1    3    3    0  502 -0.11111169451E+03  0.41732359073E+03 -0.79664037610E+03  0.90618031697E+03  0.46999998093E+01 0.  1.
</event>
<event>
 5   0  0.3998066E-03  0.8962971E+03  0.7818609E-02  0.9430222E-01
        1   -1    0    0  501    0  0.00000000000E+00  0.00000000000E+00  0.23477216093E+03  0.23477216098E+03  0.50400001928E-02 0.  1.
       -1   -1    0    0    0  501  0.00000000000E+00  0.00000000000E+00 -0.85545545779E+03  0.85545545780E+03  0.50400001928E-02 0. -1.
    10030    2    1    2    0    0  0.00000000000E+00  0.00000000000E+00 -0.62068329686E+03  0.10902276188E+04  0.89629710797E+03 0.  0.
        4    1    3    3  502    0 -0.44121697780E+03 -0.73713416001E+02 -0.34319315648E+03  0.56381667655E+03  0.12699999809E+01 0. -1.
       -4    1    3    3    0  502  0.44121697780E+03  0.73713416001E+02 -0.27749014037E+03  0.52641094223E+03  0.12699999809E+01 0.  1.
</event>
<event>
 5   0  0.2560250E-03  0.9850961E+03  0.7818609E-02  0.9325044E-01
        3   -1    0    0  501    0  0.00000000000E+00  0.00000000000E+00  0.69453430545E+03  0.69453431279E+03  0.10100000352E+00 0.  1.
       -3   -1    0    0    0  501  0.00000000000E+00  0.00000000000E+00 -0.34930394441E+03  0.34930395901E+03  0.10100000352E+00 0. -1.
    10030    2    1    2    0    0  0.00000000000E+00  0.00000000000E+00  0.34523036104E+03  0.10438382718E+04  0.98509610469E+03 0.  0.
        2    1    3    3  502    0  0.27042386753E+03  0.32597180470E+03 -0.93807507653E+02  0.43380471884E+03  0.25500000920E-02 0. -1.
       -2    1    3    3    0  502 -0.27042386753E+03 -0.32597180470E+03  0.43903786869E+03  0.61003355296E+03  0.25500000920E-02 0.  1.
</event>
<event>
 5   0  0.6724773E-03  0.8997161E+03  0.7818609E-02  0.9425936E-01
       -2   -1    0    0    0  501  0.00000000000E+00  0.00000000000E+00  0.28464095802E+03  0.28464095803E+03  0.25500000920E-02 0. -1.
        2   -1    0    0  501    0  0.00000000000E+00  0.00000000000E+00 -0.71097380442E+03  0.71097380443E+03  0.25500000920E-02 0.  1.
    10030    2    1    2    0    0  0.00000000000E+00  0.00000000000E+00 -0.42633284640E+03  0.99561476246E+03  0.89971609928E+03 0.  0.
        5    1    3    3  502    0  0.12142696269E+03  0.25495253111E+03 -0.60063786987E+03  0.66372678197E+03  0.46999998093E+01 0.  1.
       -5    1    3    3    0  502 -0.12142696269E+03 -0.25495253111E+03  0.17430502347E+03  0.33188798049E+03  0.46999998093E+01 0. -1.
</event>
<event>
 5   0  0.3794006E-03  0.8944112E+03  0.7818609E-02  0.9432595E-01
        1   -1    0    0  501    0  0.00000000000E+00  0.00000000000E+00  0.83561324419E+03  0.83561324420E+03  0.50400001928E-02 0.  1.
       -1   -1    0    0    0  501  0.00000000000E+00  0.00000000000E+00 -0.23933660472E+03  0.23933660478E+03  0.50400001928E-02 0. -1.
    10030    2    1    2    0    0  0.00000000000E+00  0.00000000000E+00  0.59627663946E+03  0.10749498490E+04  0.89441117337E+03 0.  0.
        5    1    3    3  502    0 -0.82997438302E+02  0.29691727815E+03  0.68743875756E+03  0.75342058654E+03  0.46999998093E+01 0.  1.
       -5    1    3    3    0  502  0.82997438302E+02 -0.29691727815E+03 -0.91162118103E+02  0.32152926244E+03  0.46999998093E+01 0. -1.
</event>
<event>
 5   0  0.6534628E-03  0.9028617E+03  0.7818609E-02  0.9422011E-01
        2   -1    0    0  501    0  0.00000000000E+00  0.00000000000E+00  0.17063831255E+04  0.17063831255E+04  0.25500000920E-02 0.  1.
       -2   -1    0    0    0  501  0.00000000000E+00  0.00000000000E+00 -0.11942794581E+03  0.11942794584E+03  0.25500000920E-02 0. -1.
    10030    2    1    2    0    0  0.00000000000E+00  0.00000000000E+00  0.15869551797E+04  0.18258110714E+04  0.90286174242E+03 0.  0.
        4    1    3    3  502    0 -0.22648757675E+03  0.26813552603E+03  0.21937637958E+03  0.41390927938E+03  0.12699999809E+01 0. -1.
       -4    1    3    3    0  502  0.22648757675E+03 -0.26813552603E+03  0.13675788001E+04  0.14119017920E+04  0.12699999809E+01 0.  1.
</event>
<event>
 5   0  0.3998066E-03  0.8949488E+03  0.7818609E-02  0.9431918E-01
       -1   -1    0    0    0  501  0.00000000000E+00  0.00000000000E+00  0.10572302226E+03  0.10572302238E+03  0.50400001928E-02 0. -1.
        1   -1    0    0  501    0  0.00000000000E+00  0.00000000000E+00 -0.18939427589E+04  0.18939427589E+04  0.50400001928E-02 0.  1.
    10030    2    1    2    0    0  0.00000000000E+00  0.00000000000E+00 -0.17882197367E+04  0.19996657813E+04  0.89494883115E+03 0.  0.
        4    1    3    3  502    0  0.23130041105E+02 -0.66239684972E+02  0.93352122900E+02  0.11678581428E+03  0.12699999809E+01 0. -1.
       -4    1    3    3    0  502 -0.23130041105E+02  0.66239684972E+02 -0.18815718596E+04  0.18828799670E+04  0.12699999809E+01 0.  1.
</event>
<event>
 5   0  0.3927993E-03  0.8990179E+03  0.7818609E-02  0.9426810E-01
       -1   -1    0    0    0  501  0.00000000000E+00  0.00000000000E+00  0.13198502614E+03  0.13198502623E+03  0.50400001928E-02 0. -1.
        1   -1    0    0  501    0  0.00000000000E+00  0.00000000000E+00 -0.15309183178E+04  0.15309183178E+04  0.50400001928E-02 0.  1.
    10030    2    1    2    0    0  0.00000000000E+00  0.00000000000E+00 -0.13989332916E+04  0.16629033440E+04  0.89901789586E+03 0.  0.
        2    1    3    3  502    0 -0.22674857494E+03  0.41281349758E+02  0.14377199203E+02  0.23092373187E+03  0.25500000920E-02 0. -1.
       -2    1    3    3    0  502  0.22674857494E+03 -0.41281349758E+02 -0.14133104908E+04  0.14319796121E+04  0.25500000920E-02 0.  1.
</event>
<event>
 5   0  0.3943549E-03  0.8854754E+03  0.7818609E-02  0.9443922E-01
        1   -1    0    0  501    0  0.00000000000E+00  0.00000000000E+00  0.57501659263E+03  0.57501659265E+03  0.50400001928E-02 0.  1.
       -1   -1    0    0    0  501  0.00000000000E+00  0.00000000000E+00 -0.34088868715E+03  0.34088868719E+03  0.50400001928E-02 0. -1.
    10030    2    1    2    0    0  0.00000000000E+00  0.00000000000E+00  0.23412790547E+03  0.91590527984E+03  0.88547535568E+03 0.  0.
        3    1    3    3  502    0 -0.44690083095E+02  0.40715778736E+03  0.29089270279E+03  0.50238754171E+03  0.10100000352E+00 0.  1.
       -3    1    3    3    0  502  0.44690083095E+02 -0.40715778736E+03 -0.56764797313E+02  0.41351773813E+03  0.10100000352E+00 0. -1.
</event>
<event>
 5   0  0.6524705E-03  0.9061205E+03  0.7818609E-02  0.9417963E-01
       -2   -1    0    0    0  501  0.00000000000E+00  0.00000000000E+00  0.72527112925E+03  0.72527112925E+03  0.25500000920E-02 0.  1.
        2   -1    0    0  501    0  0.00000000000E+00  0.00000000000E+00 -0.28301637058E+03  0.28301637059E+03  0.25500000920E-02 0. -1.
    10030    2    1    2    0    0  0.00000000000E+00  0.00000000000E+00  0.44225475867E+03  0.10082874998E+04  0.90612052773E+03 0.  0.
        3    1    3    3  502    0  0.17831553665E+03  0.60038091384E+02 -0.23748659515E+03  0.30298662694E+03  0.10100000352E+00 0. -1.
       -3    1    3    3    0  502 -0.17831553665E+03 -0.60038091384E+02  0.67974135382E+03  0.70530087290E+03  0.10100000352E+00 0.  1.
</event>
<event>
 5   0  0.3927993E-03  0.9181423E+03  0.7818609E-02  0.9403183E-01
       -1   -1    0    0    0  501  0.00000000000E+00  0.00000000000E+00  0.12262114739E+03  0.12262114750E+03  0.50400001928E-02 0. -1.
        1   -1    0    0  501    0  0.00000000000E+00  0.00000000000E+00 -0.17186785424E+04  0.17186785424E+04  0.50400001928E-02 0.  1.
    10030    2    1    2    0    0  0.00000000000E+00  0.00000000000E+00 -0.15960573950E+04  0.18412996899E+04  0.91814233095E+03 0.  0.
        2    1    3    3  502    0 -0.94648520381E+02  0.24046320302E+03 -0.15589567484E+04  0.15802300586E+04  0.25500000920E-02 0.  1.
       -2    1    3    3    0  502  0.94648520381E+02 -0.24046320302E+03 -0.37100646524E+02  0.26106963132E+03  0.25500000920E-02 0. -1.
</event>
<event>
 5   0  0.2560250E-03  0.9056581E+03  0.7818609E-02  0.9418536E-01
        3   -1    0    0  501    0  0.00000000000E+00  0.00000000000E+00  0.16367011684E+04  0.16367011715E+04  0.10100000352E+00 0.  1.
       -3   -1    0    0    0  501  0.00000000000E+00  0.00000000000E+00 -0.12528500452E+03  0.12528504523E+03  0.10100000352E+00 0. -1.
    10030    2    1    2    0    0  0.00000000000E+00  0.00000000000E+00  0.15114161639E+04  0.17619862168E+04  0.90565810746E+03 0.  0.
        5    1    3    3  502    0 -0.41973271520E+03  0.39527431536E+02  0.10771278267E+04  0.11567041174E+04  0.46999998093E+01 0.  1.
       -5    1    3    3    0  502  0.41973271520E+03 -0.39527431536E+02  0.43428833718E+03  0.60528209940E+03  0.46999998093E+01 0. -1.
</event>
<event>
 5   0  0.3927993E-03  0.9002901E+03  0.7818609E-02  0.9425219E-01
       -1   -1    0    0    0  501  0.00000000000E+00  0.00000000000E+00  0.19175446584E+03  0.19175446591E+03  0.50400001928E-02 0. -1.
        1   -1    0    0  501    0  0.00000000000E+00  0.00000000000E+00 -0.10567188526E+04  0.10567188526E+04  0.50400001928E-02 0.  1.
    10030    2    1    2    0    0  0.00000000000E+00  0.00000000000E+00 -0.86496438679E+03  0.12484733186E+04  0.90029008476E+03 0.  0.
        2    1    3    3  502    0 -0.32768771760E+03 -0.21781012815E+03 -0.12926314928E+03  0.41416114492E+03  0.25500000920E-02 0. -1.
       -2    1    3    3    0  502  0.32768771760E+03  0.21781012815E+03 -0.73570123752E+03  0.83431217364E+03  0.25500000920E-02 0.  1.
</event>
<event>
 5   0  0.6724773E-03  0.8992410E+03  0.7818609E-02  0.9426531E-01
        2   -1    0    0  501    0  0.00000000000E+00  0.00000000000E+00  0.16480248199E+04  0.16480248199E+04  0.25500000920E-02 0. -1.
       -2   -1    0    0    0  501  0.00000000000E+00  0.00000000000E+00 -0.12266720493E+03  0.12266720496E+03  0.25500000920E-02 0.  1.
    10030    2    1    2    0    0  0.00000000000E+00  0.00000000000E+00  0.15253576149E+04  0.17706920248E+04  0.89924100960E+03 0.  0.
        5    1    3    3  502    0 -0.12808022871E+03 -0.96948001549E+02 -0.64184622070E+02  0.17304685983E+03  0.46999998093E+01 0.  1.
       -5    1    3    3    0  502  0.12808022871E+03  0.96948001549E+02  0.15895422370E+04  0.15976451650E+04  0.46999998093E+01 0. -1.
</event>
<event>
 5   0  0.6534628E-03  0.9021945E+03  0.7818609E-02  0.9422842E-01
       -2   -1    0    0    0  501  0.00000000000E+00  0.00000000000E+00  0.18315935202E+03  0.18315935204E+03  0.25500000920E-02 0.  1.
        2   -1    0    0  501    0  0.00000000000E+00  0.00000000000E+00 -0.11109929165E+04  0.11109929165E+04  0.25500000920E-02 0. -1.
    10030    2    1    2    0    0  0.00000000000E+00  0.00000000000E+00 -0.92783356452E+03  0.12941522686E+04  0.90219453047E+03 0.  0.
        4    1    3    3  502    0  0.31774348761E+03 -0.13782683706E+03 -0.87849487370E+03  0.94430504444E+03  0.12699999809E+01 0. -1.
       -4    1    3    3    0  502 -0.31774348761E+03  0.13782683706E+03 -0.49338690826E+02  0.34984722415E+03  0.12699999809E+01 0.  1.
</event>
<event>
 5   0  0.3927993E-03  0.9010459E+03  0.7818609E-02  0.9424275E-01
       -1   -1    0    0    0  501  0.00000000000E+00  0.00000000000E+00  0.72686473335E+03  0.72686473337E+03  0.50400001928E-02 0.  1.
        1   -1    0    0  501    0  0.00000000000E+00  0.00000000000E+00 -0.27924169580E+03  0.27924169585E+03  0.50400001928E-02 0. -1.
    10030    2    1    2    0    0  0.00000000000E+00  0.00000000000E+00  0.44762303755E+03  0.10061064292E+04  0.90104592733E+03 0.  0.
        2    1    3    3  502    0 -0.30693169858E+03 -0.27221646153E+03  0.43169704426E+03  0.59554278398E+03  0.25500000920E-02 0.  1.
       -2    1    3    3    0  502  0.30693169858E+03  0.27221646153E+03  0.15925993295E+02  0.41056364524E+03  0.25500000920E-02 0. -1.
</event>
<event>
 5   0  0.3943549E-03  0.8989887E+03  0.7818609E-02  0.9426846E-01
        1   -1    0    0  501    0  0.00000000000E+00  0.00000000000E+00  0.23685131002E+03  0.23685131008E+03  0.50400001928E-02 0. -1.
       -1   -1    0    0    0  501  0.00000000000E+00  0.00000000000E+00 -0.85304653573E+03  0.85304653574E+03  0.50400001928E-02 0.  1.
    10030    2    1    2    0    0  0.00000000000E+00  0.00000000000E+00 -0.61619522571E+03  0.10898978458E+04  0.89898874194E+03 0.  0.
        3    1    3    3  502    0 -0.27713487124E+03 -0.35346446457E+03 -0.28694845639E+03  0.53299183052E+03  0.10100000352E+00 0.  1.
       -3    1    3    3    0  502  0.27713487124E+03  0.35346446457E+03 -0.32924676931E+03  0.55690601530E+03  0.10100000352E+00 0. -1.
</event>
<event>
 5   0  0.3943549E-03  0.9007976E+03  0.7818609E-02  0.9424585E-01
       -1   -1    0    0    0  501  0.00000000000E+00  0.00000000000E+00  0.72196445560E+03  0.72196445561E+03  0.50400001928E-02 0.  1.
        1   -1    0    0  501    0  0.00000000000E+00  0.00000000000E+00 -0.28098208139E+03  0.28098208143E+03  0.50400001928E-02 0. -1.
    10030    2    1    2    0    0  0.00000000000E+00  0.00000000000E+00  0.44098237421E+03  0.10029465370E+04  0.90079759203E+03 0.  0.
        3    1    3    3  502    0  0.71584267219E+02 -0.35059456747E+03  0.52503810965E+03  0.63537853665E+03  0.10100000352E+00 0.  1.
       -3    1    3    3    0  502 -0.71584267219E+02  0.35059456747E+03 -0.84055735440E+02  0.36756800039E+03  0.10100000352E+00 0. -1.
</event>
<event>
 5   0  0.6609191E-03  0.8976134E+03  0.7818609E-02  0.9428570E-01
        2   -1    0    0  501    0  0.00000000000E+00  0.00000000000E+00  0.11329799368E+04  0.11329799368E+04  0.25500000920E-02 0. -1.
       -2   -1    0    0    0  501  0.00000000000E+00  0.00000000000E+00 -0.17778553684E+03  0.17778553686E+03  0.25500000920E-02 0.  1.
    10030    2    1    2    0    0  0.00000000000E+00  0.00000000000E+00  0.95519439998E+03  0.13107654737E+04  0.89761338295E+03 0.  0.
        2    1    3    3  502    0 -0.80295851789E+01 -0.20247094569E+03 -0.10718640983E+03  0.22923325358E+03  0.25500000920E-02 0.  1.
       -2    1    3    3    0  502  0.80295851789E+01  0.20247094569E+03  0.10623808098E+04  0.10815322201E+04  0.25500000920E-02 0. -1.
</event>
<event>
 5   0  0.3969536E-03  0.9100531E+03  0.7818609E-02  0.9413101E-01
       -1   -1    0    0    0  501  0.00000000000E+00  0.00000000000E+00  0.75471308207E+03  0.75471308209E+03  0.50400001928E-02 0.  1.
        1   -1    0    0  501    0  0.00000000000E+00  0.00000000000E+00 -0.27434157149E+03  0.27434157154E+03  0.50400001928E-02 0. -1.
    10030    2    1    2    0    0  0.00000000000E+00  0.00000000000E+00  0.48037151058E+03  0.10290546536E+04  0.91005312590E+03 0.  0.
        1    1    3    3  502    0  0.15944763384E+02 -0.33932367388E+03 -0.10214688649E+03  0.35472352273E+03  0.50400001928E-02 0. -1.
       -1    1    3    3    0  502 -0.15944763384E+02  0.33932367388E+03  0.58251839707E+03  0.67433113089E+03  0.50400001928E-02 0.  1.
</event>
<event>
 5   0  0.6724773E-03  0.9001744E+03  0.7818609E-02  0.9425363E-01
        2   -1    0    0  501    0  0.00000000000E+00  0.00000000000E+00  0.37034344679E+03  0.37034344680E+03  0.25500000920E-02 0.  1.
       -2   -1    0    0    0  501  0.00000000000E+00  0.00000000000E+00 -0.54700174065E+03  0.54700174065E+03  0.25500000920E-02 0. -1.
    10030    2    1    2    0    0  0.00000000000E+00  0.00000000000E+00 -0.17665829385E+03  0.91734518745E+03  0.90017444985E+03 0.  0.
        5    1    3    3  502    0  0.12337328595E+03 -0.32535542065E+03 -0.37921979321E+03  0.51469103256E+03  0.46999998093E+01 0. -1.
       -5    1    3    3    0  502 -0.12337328595E+03  0.32535542065E+03  0.20256149936E+03  0.40265415489E+03  0.46999998093E+01 0.  1.
</event>
<event>
 5   0  0.3943549E-03  0.8961592E+03  0.7818609E-02  0.9430395E-01
       -1   -1    0    0    0  501  0.00000000000E+00  0.00000000000E+00  0.34603132052E+04  0.34603132052E+04  0.50400001928E-02 0. -1.
        1   -1    0    0  501    0  0.00000000000E+00  0.00000000000E+00 -0.58022297092E+02  0.58022297311E+02  0.50400001928E-02 0.  1.
    10030    2    1    2    0    0  0.00000000000E+00  0.00000000000E+00  0.34022909081E+04  0.35183355026E+04  0.89615918501E+03 0.  0.
        3    1    3    3  502    0  0.37648219158E+02  0.26421823509E+03  0.28807056624E+03  0.39270004519E+03  0.10100000352E+00 0.  1.
       -3    1    3    3    0  502 -0.37648219158E+02 -0.26421823509E+03  0.31142203419E+04  0.31256354574E+04  0.10100000352E+00 0. -1.
</event>
<event>
 5   0  0.6609191E-03  0.7896296E+03  0.7818609E-02  0.9575150E-01
        2   -1    0    0  501    0  0.00000000000E+00  0.00000000000E+00  0.10698271051E+04  0.10698271051E+04  0.25500000920E-02 0.  1.
       -2   -1    0    0    0  501  0.00000000000E+00  0.00000000000E+00 -0.14570459412E+03  0.14570459414E+03  0.25500000920E-02 0. -1.
    10030    2    1    2    0    0  0.00000000000E+00  0.00000000000E+00  0.92412251095E+03  0.12155316992E+04  0.78962959452E+03 0.  0.
        2    1    3    3  502    0  0.26561940413E+03  0.14320426102E+03  0.85397395055E+03  0.90572216295E+03  0.25500000920E-02 0. -1.
       -2    1    3    3    0  502 -0.26561940413E+03 -0.14320426102E+03  0.70148560397E+02  0.30980953626E+03  0.25500000920E-02 0.  1.
</event>
<event>
 5   0  0.2560250E-03  0.9088185E+03  0.7818609E-02  0.9414625E-01
        3   -1    0    0  501    0  0.00000000000E+00  0.00000000000E+00  0.17556533209E+03  0.17556536114E+03  0.10100000352E+00 0. -1.
       -3   -1    0    0    0  501  0.00000000000E+00  0.00000000000E+00 -0.11761304623E+04  0.11761304666E+04  0.10100000352E+00 0.  1.
    10030    2    1    2    0    0  0.00000000000E+00  0.00000000000E+00 -0.10005651302E+04  0.13516958278E+04  0.90881848080E+03 0.  0.
        1    1    3    3  502    0 -0.39860618830E+02 -0.72787676916E+02  0.16419911051E+03  0.18397897369E+03  0.50400001928E-02 0. -1.
       -1    1    3    3    0  502  0.39860618830E+02  0.72787676916E+02 -0.11647642407E+04  0.11677168541E+04  0.50400001928E-02 0.  1.
</event>
<event>
 5   0  0.6724773E-03  0.8975996E+03  0.7818609E-02  0.9428587E-01
        2   -1    0    0  501    0  0.00000000000E+00  0.00000000000E+00  0.70121986949E+03  0.70121986949E+03  0.25500000920E-02 0.  1.
       -2   -1    0    0    0  501  0.00000000000E+00  0.00000000000E+00 -0.28724407714E+03  0.28724407715E+03  0.25500000920E-02 0. -1.
    10030    2    1    2    0    0  0.00000000000E+00  0.00000000000E+00  0.41397579235E+03  0.98846394665E+03  0.89759958622E+03 0.  0.
        5    1    3    3  502    0  0.27030263930E+03 -0.27652963718E+03 -0.43809939639E+02  0.38919604040E+03  0.46999998093E+01 0. -1.
       -5    1    3    3    0  502 -0.27030263930E+03  0.27652963718E+03  0.45778573199E+03  0.59926790625E+03  0.46999998093E+01 0.  1.
</event>
<event>
 5   0  0.3969536E-03  0.8894263E+03  0.7818609E-02  0.9438896E-01
        1   -1    0    0  501    0  0.00000000000E+00  0.00000000000E+00  0.54273505201E+03  0.54273505203E+03  0.50400001928E-02 0.  1.
       -1   -1    0    0    0  501  0.00000000000E+00  0.00000000000E+00 -0.36439469384E+03  0.36439469388E+03  0.50400001928E-02 0. -1.
    10030    2    1    2    0    0  0.00000000000E+00  0.00000000000E+00  0.17834035817E+03  0.90712974591E+03  0.88942627158E+03 0.  0.
        1    1    3    3  502    0  0.21974518726E+03  0.15772479527E+03  0.44919023294E+03  0.52434427981E+03  0.50400001928E-02 0.  1.
       -1    1    3    3    0  502 -0.21974518726E+03 -0.15772479527E+03 -0.27084987478E+03  0.38278546611E+03  0.50400001928E-02 0. -1.
</event>
<event>
 5   0  0.3927993E-03  0.8974972E+03  0.7818609E-02  0.9428715E-01
       -1   -1    0    0    0  501  0.00000000000E+00  0.00000000000E+00  0.28777165111E+03  0.28777165115E+03  0.50400001928E-02 0.  1.
        1   -1    0    0  501    0  0.00000000000E+00  0.00000000000E+00 -0.69977471896E+03  0.69977471898E+03  0.50400001928E-02 0. -1.
    10030    2    1    2    0    0  0.00000000000E+00  0.00000000000E+00 -0.41200306785E+03  0.98754637013E+03  0.89749724525E+03 0.  0.
        2    1    3    3  502    0 -0.14581636805E+03 -0.31360193715E+03  0.10863757924E+03  0.36250615416E+03  0.25500000920E-02 0.  1.
       -2    1    3    3    0  502  0.14581636805E+03  0.31360193715E+03 -0.52064064709E+03  0.62504021597E+03  0.25500000920E-02 0. -1.
</event>
<event>
 5   0  0.6524705E-03  0.8986355E+03  0.7818609E-02  0.9427289E-01
        2   -1    0    0  501    0  0.00000000000E+00  0.00000000000E+00  0.22711027749E+03  0.22711027751E+03  0.25500000920E-02 0.  1.
       -2   -1    0    0    0  501  0.00000000000E+00  0.00000000000E+00 -0.88893576858E+03  0.88893576858E+03  0.25500000920E-02 0. -1.
    10030    2    1    2    0    0  0.00000000000E+00  0.00000000000E+00 -0.66182549108E+03  0.11160460461E+04  0.89863551918E+03 0.  0.
        3    1    3    3  502    0 -0.22803105580E+03 -0.19812929577E-01 -0.81173256954E+03  0.84315356694E+03  0.10100000352E+00 0. -1.
       -3    1    3    3    0  502  0.22803105580E+03  0.19812929577E-01  0.14990707846E+03  0.27289247914E+03  0.10100000352E+00 0.  1.
</event>
<event>
 5   0  0.3794006E-03  0.9030810E+03  0.7818609E-02  0.9421738E-01
       -1   -1    0    0    0  501  0.00000000000E+00  0.00000000000E+00  0.40983065834E+03  0.40983065837E+03  0.50400001928E-02 0. -1.
        1   -1    0    0  501    0  0.00000000000E+00  0.00000000000E+00 -0.49749526946E+03  0.49749526949E+03  0.50400001928E-02 0.  1.
    10030    2    1    2    0    0  0.00000000000E+00  0.00000000000E+00 -0.87664611124E+02  0.90732592786E+03  0.90308097938E+03 0.  0.
        5    1    3    3  502    0 -0.10995398855E+03  0.41352800349E+03  0.10096813129E+03  0.43967254043E+03  0.46999998093E+01 0. -1.
       -5    1    3    3    0  502  0.10995398855E+03 -0.41352800349E+03 -0.18863274241E+03  0.46765338743E+03  0.46999998093E+01 0.  1.
</event>
<event>
 5   0  0.6863405E-03  0.9033213E+03  0.7818609E-02  0.9421439E-01
        2   -1    0    0  501    0  0.00000000000E+00  0.00000000000E+00  0.78965251980E+03  0.78965251981E+03  0.25500000920E-02 0.  1.
       -2   -1    0    0    0  501  0.00000000000E+00  0.00000000000E+00 -0.25833812625E+03  0.25833812626E+03  0.25500000920E-02 0. -1.
    10030    2    1    2    0    0  0.00000000000E+00  0.00000000000E+00  0.53131439355E+03  0.10479906461E+04  0.90332132127E+03 0.  0.
        1    1    3    3  502    0  0.80800263334E+02  0.23464203893E+03 -0.17215525357E+03  0.30203145588E+03  0.50400001928E-02 0. -1.
       -1    1    3    3    0  502 -0.80800263334E+02 -0.23464203893E+03  0.70346964712E+03  0.74595919019E+03  0.50400001928E-02 0.  1.
</event>
<event>
 5   0  0.3969536E-03  0.9014902E+03  0.7818609E-02  0.9423720E-01
        1   -1    0    0  501    0  0.00000000000E+00  0.00000000000E+00  0.42559917976E+03  0.42559917979E+03  0.50400001928E-02 0.  1.
       -1   -1    0    0    0  501  0.00000000000E+00  0.00000000000E+00 -0.47737677943E+03  0.47737677946E+03  0.50400001928E-02 0. -1.
    10030    2    1    2    0    0  0.00000000000E+00  0.00000000000E+00 -0.51777599669E+02  0.90297595926E+03  0.90149024574E+03 0.  0.
        1    1    3    3  502    0  0.26332596641E+03  0.36371027852E+03 -0.65265602970E+02  0.45374588730E+03  0.50400001928E-02 0. -1.
       -1    1    3    3    0  502 -0.26332596641E+03 -0.36371027852E+03  0.13488003301E+02  0.44923007195E+03  0.50400001928E-02 0.  1.
</event>
<event>
 5   0  0.6609191E-03  0.9603598E+03  0.7818609E-02  0.9353123E-01
        2   -1    0    0  501    0  0.00000000000E+00  0.00000000000E+00  0.35241202885E+03  0.35241202886E+03  0.25500000920E-02 0.  1.
       -2   -1    0    0    0  501  0.00000000000E+00  0.00000000000E+00 -0.65427031193E+03  0.65427031194E+03  0.25500000920E-02 0. -1.
    10030    2    1    2    0    0  0.00000000000E+00  0.00000000000E+00 -0.30185828308E+03  0.10066823408E+04  0.96035978270E+03 0.  0.
        2    1    3    3  502    0  0.99740421874E+01  0.26695672098E+03  0.26732480749E+03  0.37792581957E+03  0.25500000920E-02 0.  1.
       -2    1    3    3    0  502 -0.99740421874E+01 -0.26695672098E+03 -0.56918309056E+03  0.62875652123E+03  0.25500000920E-02 0. -1.
</event>
<event>
 5   0  0.3943549E-03  0.9322550E+03  0.7818609E-02  0.9386136E-01
       -1   -1    0    0    0  501  0.00000000000E+00  0.00000000000E+00  0.15797230544E+04  0.15797230544E+04  0.50400001928E-02 0.  1.
        1   -1    0    0  501    0  0.00000000000E+00  0.00000000000E+00 -0.13753983153E+03  0.13753983162E+03  0.50400001928E-02 0. -1.
    10030    2    1    2    0    0  0.00000000000E+00  0.00000000000E+00  0.14421832229E+04  0.17172628860E+04  0.93225499269E+03 0.  0.
        3    1    3    3  502    0  0.42280767238E+03  0.11246997752E+03  0.10173072646E+04  0.11073978077E+04  0.10100000352E+00 0.  1.
       -3    1    3    3    0  502 -0.42280767238E+03 -0.11246997752E+03  0.42487595830E+03  0.60986507837E+03  0.10100000352E+00 0. -1.
</event>
<event>
 5   0  0.6534628E-03  0.8976648E+03  0.7818609E-02  0.9428505E-01
        2   -1    0    0  501    0  0.00000000000E+00  0.00000000000E+00  0.63461988407E+03  0.63461988407E+03  0.25500000920E-02 0.  1.
       -2   -1    0    0    0  501  0.00000000000E+00  0.00000000000E+00 -0.31743495942E+03  0.31743495943E+03  0.25500000920E-02 0. -1.
    10030    2    1    2    0    0  0.00000000000E+00  0.00000000000E+00  0.31718492464E+03  0.95205484351E+03  0.89766483089E+03 0.  0.
        4    1    3    3  502    0  0.53798161339E+02  0.44177696569E+03  0.22032388658E+03  0.49659375497E+03  0.12699999809E+01 0.  1.
       -4    1    3    3    0  502 -0.53798161339E+02 -0.44177696569E+03  0.96861038065E+02  0.45546108854E+03  0.12699999809E+01 0. -1.
</event>
<event>
 5   0  0.6863405E-03  0.9159854E+03  0.7818609E-02  0.9405817E-01
        2   -1    0    0  501    0  0.00000000000E+00  0.00000000000E+00  0.52593710768E+03  0.52593710769E+03  0.25500000920E-02 0. -1.
       -2   -1    0    0    0  501  0.00000000000E+00  0.00000000000E+00 -0.39882588486E+03  0.39882588487E+03  0.25500000920E-02 0.  1.
    10030    2    1    2    0    0  0.00000000000E+00  0.00000000000E+00  0.12711122282E+03  0.92476299256E+03  0.91598544172E+03 0.  0.
        1    1    3    3  502    0 -0.40450021438E+03 -0.18135364629E+03  0.17975749287E+03  0.47835376525E+03  0.50400001928E-02 0. -1.
       -1    1    3    3    0  502  0.40450021438E+03  0.18135364629E+03 -0.52646270052E+02  0.44640922732E+03  0.50400001928E-02 0.  1.
</event>
<event>
 5   0  0.3943549E-03  0.8993457E+03  0.7818609E-02  0.9426400E-01
        1   -1    0    0  501    0  0.00000000000E+00  0.00000000000E+00  0.16442110209E+04  0.16442110210E+04  0.50400001928E-02 0.  1.
       -1   -1    0    0    0  501  0.00000000000E+00  0.00000000000E+00 -0.12298035499E+03  0.12298035510E+03  0.50400001928E-02 0. -1.
    10030    2    1    2    0    0  0.00000000000E+00  0.00000000000E+00  0.15212306660E+04  0.17671913761E+04  0.89934566244E+03 0.  0.
        3    1    3    3  502    0  0.25992036724E+03  0.24619641738E+03  0.12952703379E+04  0.13438364974E+04  0.10100000352E+00 0.  1.
       -3    1    3    3    0  502 -0.25992036724E+03 -0.24619641738E+03  0.22596032804E+03  0.42335487866E+03  0.10100000352E+00 0. -1.
</event>
<event>
 5   0  0.3794006E-03  0.8487667E+03  0.7818609E-02  0.9491994E-01
        1   -1    0    0  501    0  0.00000000000E+00  0.00000000000E+00  0.39235641070E+03  0.39235641074E+03  0.50400001928E-02 0.  1.
       -1   -1    0    0    0  501  0.00000000000E+00  0.00000000000E+00 -0.45902459244E+03  0.45902459247E+03  0.50400001928E-02 0. -1.
    10030    2    1    2    0    0  0.00000000000E+00  0.00000000000E+00 -0.66668181736E+02  0.85138100320E+03  0.84876673248E+03 0.  0.
        5    1    3    3  502    0  0.97161380448E+02 -0.40390555860E+03 -0.12019826274E+03  0.43249248141E+03  0.46999998093E+01 0.  1.
       -5    1    3    3    0  502 -0.97161380448E+02  0.40390555860E+03  0.53530081008E+02  0.41888852179E+03  0.46999998093E+01 0. -1.
</event>
<event>
 5   0  0.3943549E-03  0.8827877E+03  0.7818609E-02  0.9447357E-01
        1   -1    0    0  501    0  0.00000000000E+00  0.00000000000E+00  0.24105312368E+03  0.24105312373E+03  0.50400001928E-02 0. -1.
       -1   -1    0    0    0  501  0.00000000000E+00  0.00000000000E+00 -0.80823906729E+03  0.80823906731E+03  0.50400001928E-02 0.  1.
    10030    2    1    2    0    0  0.00000000000E+00  0.00000000000E+00 -0.56718594361E+03  0.10492921910E+04  0.88278774773E+03 0.  0.
        3    1    3    3  502    0 -0.42144178630E+03  0.67849531226E+02 -0.41707682747E+03  0.59679965511E+03  0.10100000352E+00 0. -1.
       -3    1    3    3    0  502  0.42144178630E+03 -0.67849531226E+02 -0.15010911614E+03  0.45249253593E+03  0.10100000352E+00 0.  1.
</event>
<event>
 5   0  0.3794006E-03  0.8962305E+03  0.7818609E-02  0.9430306E-01
       -1   -1    0    0    0  501  0.00000000000E+00  0.00000000000E+00  0.18134744595E+03  0.18134744602E+03  0.50400001928E-02 0.  1.
        1   -1    0    0  501    0  0.00000000000E+00  0.00000000000E+00 -0.11073068488E+04  0.11073068488E+04  0.50400001928E-02 0. -1.
    10030    2    1    2    0    0  0.00000000000E+00  0.00000000000E+00 -0.92595940280E+03  0.12886542948E+04  0.89623048143E+03 0.  0.
        5    1    3    3  502    0  0.40565250968E+03 -0.17767836794E+03 -0.56115111673E+03  0.71486797861E+03  0.46999998093E+01 0.  1.
       -5    1    3    3    0  502 -0.40565250968E+03  0.17767836794E+03 -0.36480828607E+03  0.57378631618E+03  0.46999998093E+01 0. -1.
</event>
<event>
 5   0  0.6609191E-03  0.9399513E+03  0.7818609E-02  0.9376974E-01
        2   -1    0    0  501    0  0.00000000000E+00  0.00000000000E+00  0.32211851153E+03  0.32211851154E+03  0.25500000920E-02 0.  1.
       -2   -1    0    0    0  501  0.00000000000E+00  0.00000000000E+00 -0.68570134120E+03  0.68570134120E+03  0.25500000920E-02 0. -1.
    10030    2    1    2    0    0  0.00000000000E+00  0.00000000000E+00 -0.36358282967E+03  0.10078198527E+04  0.93995126552E+03 0.  0.
        2    1    3    3  502    0 -0.24207514878E+03  0.13611224234E+03 -0.58831127129E+03  0.65056673148E+03  0.25500000920E-02 0. -1.
       -2    1    3    3    0  502  0.24207514878E+03 -0.13611224234E+03  0.22472844162E+03  0.35725312126E+03  0.25500000920E-02 0.  1.
</event>
<event>
 5   0  0.3943549E-03  0.8714613E+03  0.7818609E-02  0.9461976E-01
       -1   -1    0    0    0  501  0.00000000000E+00  0.00000000000E+00  0.52485770780E+03  0.52485770783E+03  0.50400001928E-02 0. -1.
        1   -1    0    0  501    0  0.00000000000E+00  0.00000000000E+00 -0.36173846096E+03  0.36173846099E+03  0.50400001928E-02 0.  1.
    10030    2    1    2    0    0  0.00000000000E+00  0.00000000000E+00  0.16311924684E+03  0.88659616882E+03  0.87146134617E+03 0.  0.
        3    1    3    3  502    0 -0.70243471911E+02  0.69478420221E+02  0.51331161805E+03  0.52273341547E+03  0.10100000352E+00 0. -1.
       -3    1    3    3    0  502  0.70243471911E+02 -0.69478420221E+02 -0.35019237121E+03  0.36386275335E+03  0.10100000352E+00 0.  1.
</event>
<event>
 5   0  0.6863405E-03  0.9644765E+03  0.7818609E-02  0.9348388E-01
       -2   -1    0    0    0  501  0.00000000000E+00  0.00000000000E+00  0.12513207138E+04  0.12513207138E+04  0.25500000920E-02 0.  1.
        2   -1    0    0  501    0  0.00000000000E+00  0.00000000000E+00 -0.18584662650E+03  0.18584662651E+03  0.25500000920E-02 0. -1.
    10030    2    1    2    0    0  0.00000000000E+00  0.00000000000E+00  0.10654740873E+04  0.14371673403E+04  0.96447650742E+03 0.  0.
        1    1    3    3  502    0 -0.16353676686E+03  0.44629678010E+03  0.65405581671E+03  0.80852588174E+03  0.50400001928E-02 0.  1.
       -1    1    3    3    0  502  0.16353676686E+03 -0.44629678010E+03  0.41141827059E+03  0.62864145858E+03  0.50400001928E-02 0. -1.
</event>
<event>
 5   0  0.6534628E-03  0.8888780E+03  0.7818609E-02  0.9439592E-01
       -2   -1    0    0    0  501  0.00000000000E+00  0.00000000000E+00  0.42161266754E+03  0.42161266755E+03  0.25500000920E-02 0.  1.
        2   -1    0    0  501    0  0.00000000000E+00  0.00000000000E+00 -0.46850119194E+03  0.46850119195E+03  0.25500000920E-02 0. -1.
    10030    2    1    2    0    0  0.00000000000E+00  0.00000000000E+00 -0.46888524405E+02  0.89011385950E+03  0.88887802827E+03 0.  0.
        4    1    3    3  502    0 -0.11586700907E+03 -0.27519320548E+03  0.30620631577E+03  0.42769192750E+03  0.12699999809E+01 0.  1.
       -4    1    3    3    0  502  0.11586700907E+03  0.27519320548E+03 -0.35309484017E+03  0.46242193200E+03  0.12699999809E+01 0. -1.
</event>
<event>
 5   0  0.3794006E-03  0.9028223E+03  0.7818609E-02  0.9422060E-01
        1   -1    0    0  501    0  0.00000000000E+00  0.00000000000E+00  0.80036976970E+03  0.80036976972E+03  0.50400001928E-02 0. -1.
       -1   -1    0    0    0  501  0.00000000000E+00  0.00000000000E+00 -0.25459733925E+03  0.25459733930E+03  0.50400001928E-02 0.  1.
    10030    2    1    2    0    0  0.00000000000E+00  0.00000000000E+00  0.54577243045E+03  0.10549671090E+04  0.90282227225E+03 0.  0.
        5    1    3    3  502    0 -0.28554999673E+03 -0.21246021547E+03  0.59728883297E+03  0.69530869675E+03  0.46999998093E+01 0. -1.
       -5    1    3    3    0  502  0.28554999673E+03  0.21246021547E+03 -0.51516402519E+02  0.35965841227E+03  0.46999998093E+01 0.  1.
</event>
<event>
 5   0  0.6524705E-03  0.8914333E+03  0.7818609E-02  0.9436354E-01
       -2   -1    0    0    0  501  0.00000000000E+00  0.00000000000E+00  0.61432859573E+03  0.61432859574E+03  0.25500000920E-02 0.  1.
        2   -1    0    0  501    0  0.00000000000E+00  0.00000000000E+00 -0.32338284707E+03  0.32338284708E+03  0.25500000920E-02 0. -1.
    10030    2    1    2    0    0  0.00000000000E+00  0.00000000000E+00  0.29094574867E+03  0.93771144282E+03  0.89143329606E+03 0.  0.
        3    1    3    3  502    0  0.29856088035E+03 -0.25388394353E+03 -0.77839551085E+02  0.39956809429E+03  0.10100000352E+00 0. -1.
       -3    1    3    3    0  502 -0.29856088035E+03  0.25388394353E+03  0.36878529975E+03  0.53814334853E+03  0.10100000352E+00 0.  1.
</event>
<event>
 5   0  0.6524705E-03  0.8948122E+03  0.7818609E-02  0.9432090E-01
        2   -1    0    0  501    0  0.00000000000E+00  0.00000000000E+00  0.53684000580E+03  0.53684000580E+03  0.25500000920E-02 0.  1.
       -2   -1    0    0    0  501  0.00000000000E+00  0.00000000000E+00 -0.37287123576E+03  0.37287123577E+03  0.25500000920E-02 0. -1.
    10030    2    1    2    0    0  0.00000000000E+00  0.00000000000E+00  0.16396877004E+03  0.90971124157E+03  0.89481215096E+03 0.  0.
        3    1    3    3  502    0 -0.40633469135E+03  0.15186112651E+03  0.19336448432E+03  0.47493106567E+03  0.10100000352E+00 0. -1.
       -3    1    3    3    0  502  0.40633469135E+03 -0.15186112651E+03 -0.29395714280E+02  0.43478017590E+03  0.10100000352E+00 0.  1.
</event>
<event>
 5   0  0.3927993E-03  0.8990306E+03  0.7818609E-02  0.9426794E-01
        1   -1    0    0  501    0  0.00000000000E+00  0.00000000000E+00  0.77685369826E+03  0.77685369828E+03  0.50400001928E-02 0. -1.
       -1   -1    0    0    0  501  0.00000000000E+00  0.00000000000E+00 -0.26010560849E+03  0.26010560854E+03  0.50400001928E-02 0.  1.
    10030    2    1    2    0    0  0.00000000000E+00  0.00000000000E+00  0.51674808977E+03  0.10369593068E+04  0.89903059775E+03 0.  0.
        2    1    3    3  502    0 -0.81652820656E+02 -0.23683250686E+03  0.68887488014E+03  0.73301120040E+03  0.25500000920E-02 0. -1.
       -2    1    3    3    0  502  0.81652820656E+02  0.23683250686E+03 -0.17212679036E+03  0.30394810641E+03  0.25500000920E-02 0.  1.
</event>
<event>
 5   0  0.3794006E-03  0.8928030E+03  0.7818609E-02  0.9434623E-01
        1   -1    0    0  501    0  0.00000000000E+00  0.00000000000E+00  0.11075177363E+04  0.11075177363E+04  0.50400001928E-02 0.  1.
       -1   -1    0    0    0  501  0.00000000000E+00  0.00000000000E+00 -0.17992876056E+03  0.17992876063E+03  0.50400001928E-02 0. -1.
    10030    2    1    2    0    0  0.00000000000E+00  0.00000000000E+00  0.92758897569E+03  0.12874464969E+04  0.89280298753E+03 0.  0.
        5    1    3    3  502    0  0.43127998335E+02 -0.15917944606E+02  0.11040592605E+04  0.11050259481E+04  0.46999998093E+01 0.  1.
       -5    1    3    3    0  502 -0.43127998335E+02  0.15917944606E+02 -0.17647028483E+03  0.18242054881E+03  0.46999998093E+01 0. -1.
</event>
<event>
 5   0  0.3969536E-03  0.8997334E+03  0.7818609E-02  0.9425915E-01
       -1   -1    0    0    0  501  0.00000000000E+00  0.00000000000E+00  0.21093896236E+03  0.21093896242E+03  0.50400001928E-02 0. -1.
        1   -1    0    0  501    0  0.00000000000E+00  0.00000000000E+00 -0.95942462905E+03  0.95942462906E+03  0.50400001928E-02 0.  1.
    10030    2    1    2    0    0  0.00000000000E+00  0.00000000000E+00 -0.74848566669E+03  0.11703635915E+04  0.89973337331E+03 0.  0.
        1    1    3    3  502    0 -0.39726403281E+03  0.18681791664E+03 -0.50209388445E+03  0.66694671045E+03  0.50400001928E-02 0.  1.
       -1    1    3    3    0  502  0.39726403281E+03 -0.18681791664E+03 -0.24639178223E+03  0.50341688104E+03  0.50400001928E-02 0. -1.
</event>
<event>
 5   0  0.6724773E-03  0.9022386E+03  0.7818609E-02  0.9422787E-01
       -2   -1    0    0    0  501  0.00000000000E+00  0.00000000000E+00  0.63466151252E+03  0.63466151252E+03  0.25500000920E-02 0.  1.
        2   -1    0    0  501    0  0.00000000000E+00  0.00000000000E+00 -0.32065696295E+03  0.32065696297E+03  0.25500000920E-02 0. -1.
    10030    2    1    2    0    0  0.00000000000E+00  0.00000000000E+00  0.31400454956E+03  0.95531847549E+03  0.90223862279E+03 0.  0.
        5    1    3    3  502    0  0.90802122425E+00  0.24299833796E+03 -0.24540588977E+03  0.34539131067E+03  0.46999998093E+01 0. -1.
       -5    1    3    3    0  502 -0.90802122425E+00 -0.24299833796E+03  0.55941043933E+03  0.60992716482E+03  0.46999998093E+01 0.  1.
</event>
<event>
 5   0  0.6524705E-03  0.9015750E+03  0.7818609E-02  0.9423615E-01
       -2   -1    0    0    0  501  0.00000000000E+00  0.00000000000E+00  0.15958088564E+03  0.15958088566E+03  0.25500000920E-02 0.  1.
        2   -1    0    0  501    0  0.00000000000E+00  0.00000000000E+00 -0.12733940844E+04  0.12733940844E+04  0.25500000920E-02 0. -1.
    10030    2    1    2    0    0  0.00000000000E+00  0.00000000000E+00 -0.11138131988E+04  0.14329749701E+04  0.90157496810E+03 0.  0.
        3    1    3    3  502    0 -0.50913926400E+02 -0.32982271162E+03 -0.10385645554E+04  0.10908673590E+04  0.10100000352E+00 0. -1.
       -3    1    3    3    0  502  0.50913926400E+02  0.32982271162E+03 -0.75248643322E+02  0.34210761103E+03  0.10100000352E+00 0.  1.
</event>
<event>
 5   0  0.6534628E-03  0.8981091E+03  0.7818609E-02  0.9427948E-01
       -2   -1    0    0    0  501  0.00000000000E+00  0.00000000000E+00  0.47323350212E+03  0.47323350213E+03  0.25500000920E-02 0. -1.
        2   -1    0    0  501    0  0.00000000000E+00  0.00000000000E+00 -0.42611100565E+03  0.42611100566E+03  0.25500000920E-02 0.  1.
    10030    2    1    2    0    0  0.00000000000E+00  0.00000000000E+00  0.47122496465E+02  0.89934450779E+03  0.89810913258E+03 0.  0.
        4    1    3    3  502    0  0.27490710480E+03  0.35460955269E+03  0.54659884255E+01  0.44872412578E+03  0.12699999809E+01 0. -1.
       -4    1    3    3    0  502 -0.27490710480E+03 -0.35460955269E+03  0.41656508039E+02  0.45062038201E+03  0.12699999809E+01 0.  1.
</event>
<event>
 5   0  0.6524705E-03  0.8978970E+03  0.7818609E-02  0.9428214E-01
        2   -1    0    0  501    0  0.00000000000E+00  0.00000000000E+00  0.12741792252E+04  0.12741792252E+04  0.25500000920E-02 0.  1.
       -2   -1    0    0    0  501  0.00000000000E+00  0.00000000000E+00 -0.15818400723E+03  0.15818400725E+03  0.25500000920E-02 0. -1.
    10030    2    1    2    0    0  0.00000000000E+00  0.00000000000E+00  0.11159952180E+04  0.14323632325E+04  0.89789704486E+03 0.  0.
        3    1    3    3  502    0  0.43879071941E+03  0.94018399764E+01  0.70873808109E+03  0.83362783532E+03  0.10100000352E+00 0.  1.
       -3    1    3    3    0  502 -0.43879071941E+03 -0.94018399764E+01  0.40725713689E+03  0.59873539714E+03  0.10100000352E+00 0. -1.
</event>
<event>
 5   0  0.3794006E-03  0.8991738E+03  0.7818609E-02  0.9426615E-01
        1   -1    0    0  501    0  0.00000000000E+00  0.00000000000E+00  0.28598618203E+03  0.28598618207E+03  0.50400001928E-02 0.  1.
       -1   -1    0    0    0  501  0.00000000000E+00  0.00000000000E+00 -0.70677668875E+03  0.70677668877E+03  0.50400001928E-02 0. -1.
    10030    2    1    2    0    0  0.00000000000E+00  0.00000000000E+00 -0.42079050672E+03  0.99276287084E+03  0.89917376917E+03 0.  0.
        5    1    3    3  502    0  0.12252364703E+03  0.50244248890E+02  0.26393645437E+03  0.29533213602E+03  0.46999998093E+01 0.  1.
       -5    1    3    3    0  502 -0.12252364703E+03 -0.50244248890E+02 -0.68472696109E+03  0.69743073481E+03  0.46999998093E+01 0. -1.
</event>
<event>
 5   0  0.3998066E-03  0.9011525E+03  0.7818609E-02  0.9424142E-01
        1   -1    0    0  501    0  0.00000000000E+00  0.00000000000E+00  0.86834303258E+03  0.86834303260E+03  0.50400001928E-02 0. -1.
       -1   -1    0    0    0  501  0.00000000000E+00  0.00000000000E+00 -0.23380042735E+03  0.23380042740E+03  0.50400001928E-02 0.  1.
    10030    2    1    2    0    0  0.00000000000E+00  0.00000000000E+00  0.63454260524E+03  0.11021434600E+04  0.90115253346E+03 0.  0.
        4    1    3    3  502    0 -0.33235631227E+03  0.21600224476E+03  0.55245169856E+02  0.40021410487E+03  0.12699999809E+01 0.  1.
       -4    1    3    3    0  502  0.33235631227E+03 -0.21600224476E+03  0.57929743538E+03  0.70192935513E+03  0.12699999809E+01 0. -1.
</event>
<event>
 5   0  0.3794006E-03  0.9010106E+03  0.7818609E-02  0.9424319E-01
       -1   -1    0    0    0  501  0.00000000000E+00  0.00000000000E+00  0.31661468778E+03  0.31661468782E+03  0.50400001928E-02 0.  1.
        1   -1    0    0  501    0  0.00000000000E+00  0.00000000000E+00 -0.64101587076E+03  0.64101587078E+03  0.50400001928E-02 0. -1.
    10030    2    1    2    0    0  0.00000000000E+00  0.00000000000E+00 -0.32440118298E+03  0.95763055861E+03  0.90101063216E+03 0.  0.
        5    1    3    3  502    0 -0.42477833847E+03  0.10097818378E+03 -0.28007395656E+03  0.51874535331E+03  0.46999998093E+01 0.  1.
       -5    1    3    3    0  502  0.42477833847E+03 -0.10097818378E+03 -0.44327226415E+02  0.43888520530E+03  0.46999998093E+01 0. -1.
</event>
<event>
 5   0  0.3998066E-03  0.8614538E+03  0.7818609E-02  0.9475092E-01
       -1   -1    0    0    0  501  0.00000000000E+00  0.00000000000E+00  0.21289919151E+03  0.21289919157E+03  0.50400001928E-02 0. -1.
        1   -1    0    0  501    0  0.00000000000E+00  0.00000000000E+00 -0.87142492523E+03  0.87142492525E+03  0.50400001928E-02 0.  1.
    10030    2    1    2    0    0  0.00000000000E+00  0.00000000000E+00 -0.65852573372E+03  0.10843241168E+04  0.86145379931E+03 0.  0.
        4    1    3    3  502    0  0.32114016621E+03 -0.57494415312E+01 -0.69049407241E+03  0.76154299902E+03  0.12699999809E+01 0.  1.
       -4    1    3    3    0  502 -0.32114016621E+03  0.57494415312E+01  0.31968338688E+02  0.32278111780E+03  0.12699999809E+01 0. -1.
</event>
<event>
 5   0  0.6524705E-03  0.8973519E+03  0.7818609E-02  0.9428898E-01
       -2   -1    0    0    0  501  0.00000000000E+00  0.00000000000E+00  0.20881482485E+03  0.20881482487E+03  0.25500000920E-02 0.  1.
        2   -1    0    0  501    0  0.00000000000E+00  0.00000000000E+00 -0.96406041303E+03  0.96406041303E+03  0.25500000920E-02 0. -1.
    10030    2    1    2    0    0  0.00000000000E+00  0.00000000000E+00 -0.75524558818E+03  0.11728752379E+04  0.89735189597E+03 0.  0.
        3    1    3    3  502    0 -0.73938175969E+02 -0.44013100335E+03 -0.31732951017E+03  0.54761316840E+03  0.10100000352E+00 0.  1.
       -3    1    3    3    0  502  0.73938175969E+02  0.44013100335E+03 -0.43791607801E+03  0.62526206950E+03  0.10100000352E+00 0. -1.
</event>
<event>
 5   0  0.3943549E-03  0.8998037E+03  0.7818609E-02  0.9425827E-01
       -1   -1    0    0    0  501  0.00000000000E+00  0.00000000000E+00  0.12958323587E+03  0.12958323597E+03  0.50400001928E-02 0. -1.
        1   -1    0    0  501    0  0.00000000000E+00  0.00000000000E+00 -0.15620204596E+04  0.15620204597E+04  0.50400001928E-02 0.  1.
    10030    2    1    2    0    0  0.00000000000E+00  0.00000000000E+00 -0.14324372238E+04  0.16916036956E+04  0.89980368025E+03 0.  0.
        3    1    3    3  502    0 -0.83101684175E+02  0.14403907247E+03  0.69686345589E+02  0.18030346994E+03  0.10100000352E+00 0. -1.
       -3    1    3    3    0  502  0.83101684175E+02 -0.14403907247E+03 -0.15021235694E+04  0.15113002257E+04  0.10100000352E+00 0.  1.
</event>
<event>
 5   0  0.2560250E-03  0.8970787E+03  0.7818609E-02  0.9429241E-01
       -4   -1    0    0    0  501  0.00000000000E+00  0.00000000000E+00  0.50846950694E+03  0.50847109297E+03  0.12699999809E+01 0.  1.
        4   -1    0    0  501    0  0.00000000000E+00  0.00000000000E+00 -0.39566956708E+03  0.39567160526E+03  0.12699999809E+01 0. -1.
    10030    2    1    2    0    0  0.00000000000E+00  0.00000000000E+00  0.11279993987E+03  0.90414269824E+03  0.89707869908E+03 0.  0.
        4    1    3    3  502    0 -0.37929670113E+03  0.13673084220E+03  0.25447903153E+03  0.47678349498E+03  0.12699999809E+01 0. -1.
       -4    1    3    3    0  502  0.37929670113E+03 -0.13673084220E+03 -0.14167909167E+03  0.42735920326E+03  0.12699999809E+01 0.  1.
</event>
<event>
 5   0  0.6524705E-03  0.9031200E+03  0.7818609E-02  0.9421690E-01
       -2   -1    0    0    0  501  0.00000000000E+00  0.00000000000E+00  0.13313908789E+03  0.13313908792E+03  0.25500000920E-02 0. -1.
        2   -1    0    0  501    0  0.00000000000E+00  0.00000000000E+00 -0.15315294396E+04  0.15315294396E+04  0.25500000920E-02 0.  1.
    10030    2    1    2    0    0  0.00000000000E+00  0.00000000000E+00 -0.13983903517E+04  0.16646685276E+04  0.90311999800E+03 0.  0.
        3    1    3    3  502    0 -0.38782867029E+03 -0.22440338413E+03 -0.59593305583E+03  0.74558981588E+03  0.10100000352E+00 0. -1.
       -3    1    3    3    0  502  0.38782867029E+03  0.22440338413E+03 -0.80245729591E+03  0.91907871168E+03  0.10100000352E+00 0.  1.
</event>
<event>
 5   0  0.3943549E-03  0.8980098E+03  0.7818609E-02  0.9428073E-01
       -1   -1    0    0    0  501  0.00000000000E+00  0.00000000000E+00  0.30315771473E+03  0.30315771477E+03  0.50400001928E-02 0.  1.
        1   -1    0    0  501    0  0.00000000000E+00  0.00000000000E+00 -0.66501814211E+03  0.66501814213E+03  0.50400001928E-02 0. -1.
    10030    2    1    2    0    0  0.00000000000E+00  0.00000000000E+00 -0.36186042738E+03  0.96817585690E+03  0.89800975551E+03 0.  0.
        3    1    3    3  502    0  0.80713193399E+02  0.31993498297E+03 -0.50924379120E+03  0.60679672213E+03  0.10100000352E+00 0. -1.
       -3    1    3    3    0  502 -0.80713193399E+02 -0.31993498297E+03  0.14738336382E+03  0.36137913477E+03  0.10100000352E+00 0.  1.
</event>
<event>
 5   0  0.6534628E-03  0.8907974E+03  0.7818609E-02  0.9437159E-01
       -2   -1    0    0    0  501  0.00000000000E+00  0.00000000000E+00  0.17894938544E+03  0.17894938546E+03  0.25500000920E-02 0.  1.
        2   -1    0    0  501    0  0.00000000000E+00  0.00000000000E+00 -0.11085816621E+04  0.11085816621E+04  0.25500000920E-02 0. -1.
    10030    2    1    2    0    0  0.00000000000E+00  0.00000000000E+00 -0.92963227663E+03  0.12875310475E+04  0.89079741165E+03 0.  0.
        4    1    3    3  502    0 -0.43156596397E+03 -0.99361617797E+02 -0.53347469847E+03  0.69333886315E+03  0.12699999809E+01 0. -1.
       -4    1    3    3    0  502  0.43156596397E+03  0.99361617797E+02 -0.39615757815E+03  0.59419218438E+03  0.12699999809E+01 0.  1.
</event>
<event>
 5   0  0.2560250E-03  0.9038912E+03  0.7818609E-02  0.9420730E-01
       -4   -1    0    0    0  501  0.00000000000E+00  0.00000000000E+00  0.46128352958E+03  0.46128527785E+03  0.12699999809E+01 0. -1.
        4   -1    0    0  501    0  0.00000000000E+00  0.00000000000E+00 -0.44279317983E+03  0.44279500110E+03  0.12699999809E+01 0.  1.
    10030    2    1    2    0    0  0.00000000000E+00  0.00000000000E+00  0.18490349757E+02  0.90408027896E+03  0.90389117584E+03 0.  0.
        4    1    3    3  502    0  0.33299753022E+03 -0.17036528539E+03  0.26295453722E+03  0.45722903139E+03  0.12699999809E+01 0. -1.
       -4    1    3    3    0  502 -0.33299753022E+03  0.17036528539E+03 -0.24446418747E+03  0.44685124757E+03  0.12699999809E+01 0.  1.
</event>
<event>
 5   0  0.3927993E-03  0.8757648E+03  0.7818609E-02  0.9456394E-01
        1   -1    0    0  501    0  0.00000000000E+00  0.00000000000E+00  0.22847573098E+03  0.22847573103E+03  0.50400001928E-02 0. -1.
       -1   -1    0    0    0  501  0.00000000000E+00  0.00000000000E+00 -0.83921815477E+03  0.83921815479E+03  0.50400001928E-02 0.  1.
    10030    2    1    2    0    0  0.00000000000E+00  0.00000000000E+00 -0.61074242379E+03  0.10676938858E+04  0.87576476613E+03 0.  0.
        2    1    3    3  502    0  0.17623863266E+02  0.50274225664E+02  0.22451007237E+03  0.23074416769E+03  0.25500000920E-02 0. -1.
       -2    1    3    3    0  502 -0.17623863266E+02 -0.50274225664E+02 -0.83525249616E+03  0.83694971813E+03  0.25500000920E-02 0.  1.
</event>
<event>
 5   0  0.3998066E-03  0.8927185E+03  0.7818609E-02  0.9434730E-01
        1   -1    0    0  501    0  0.00000000000E+00  0.00000000000E+00  0.71340273070E+03  0.71340273071E+03  0.50400001928E-02 0. -1.
       -1   -1    0    0    0  501  0.00000000000E+00  0.00000000000E+00 -0.27927643463E+03  0.27927643467E+03  0.50400001928E-02 0.  1.
    10030    2    1    2    0    0  0.00000000000E+00  0.00000000000E+00  0.43412629607E+03  0.99267916539E+03  0.89271847996E+03 0.  0.
        4    1    3    3  502    0 -0.24531596857E+02  0.42076891170E+03  0.53687498265E+02  0.42489085266E+03  0.12699999809E+01 0. -1.
       -4    1    3    3    0  502  0.24531596857E+02 -0.42076891170E+03  0.38043879780E+03  0.56778831273E+03  0.12699999809E+01 0.  1.
</event>
<event>
 5   0  0.3943549E-03  0.9203714E+03  0.7818609E-02  0.9400468E-01
        1   -1    0    0  501    0  0.00000000000E+00  0.00000000000E+00  0.27651989801E+03  0.27651989806E+03  0.50400001928E-02 0.  1.
       -1   -1    0    0    0  501  0.00000000000E+00  0.00000000000E+00 -0.76584312634E+03  0.76584312636E+03  0.50400001928E-02 0. -1.
    10030    2    1    2    0    0  0.00000000000E+00  0.00000000000E+00 -0.48932322833E+03  0.10423630244E+04  0.92037136683E+03 0.  0.
        3    1    3    3  502    0 -0.80893339052E+02  0.33482229126E+03 -0.59026665863E+03  0.68342112751E+03  0.10100000352E+00 0. -1.
       -3    1    3    3    0  502  0.80893339052E+02 -0.33482229126E+03  0.10094343030E+03  0.35894189690E+03  0.10100000352E+00 0.  1.
</event>
<event>
 5   0  0.3794006E-03  0.9074919E+03  0.7818609E-02  0.9416264E-01
        1   -1    0    0  501    0  0.00000000000E+00  0.00000000000E+00  0.14298779020E+04  0.14298779020E+04  0.50400001928E-02 0.  1.
       -1   -1    0    0    0  501  0.00000000000E+00  0.00000000000E+00 -0.14398808878E+03  0.14398808887E+03  0.50400001928E-02 0. -1.
    10030    2    1    2    0    0  0.00000000000E+00  0.00000000000E+00  0.12858898132E+04  0.15738659909E+04  0.90749189830E+03 0.  0.
        5    1    3    3  502    0  0.69778071084E+02 -0.68166567515E+02  0.14114342209E+04  0.14148089306E+04  0.46999998093E+01 0.  1.
       -5    1    3    3    0  502 -0.69778071084E+02  0.68166567515E+02 -0.12554440768E+03  0.15905706029E+03  0.46999998093E+01 0. -1.
</event>
<event>
 5   0  0.6524705E-03  0.9015056E+03  0.7818609E-02  0.9423701E-01
       -2   -1    0    0    0  501  0.00000000000E+00  0.00000000000E+00  0.17600096534E+03  0.17600096536E+03  0.25500000920E-02 0. -1.
        2   -1    0    0  501    0  0.00000000000E+00  0.00000000000E+00 -0.11544145346E+04  0.11544145346E+04  0.25500000920E-02 0.  1.
    10030    2    1    2    0    0  0.00000000000E+00  0.00000000000E+00 -0.97841356928E+03  0.13304155000E+04  0.90150556850E+03 0.  0.
        3    1    3    3  502    0 -0.20919128975E+03 -0.90426300360E+02 -0.10631282037E+04  0.10872807822E+04  0.10100000352E+00 0.  1.
       -3    1    3    3    0  502  0.20919128975E+03  0.90426300360E+02  0.84714634467E+02  0.24313471780E+03  0.10100000352E+00 0. -1.
</event>
<event>
 5   0  0.3969536E-03  0.9008190E+03  0.7818609E-02  0.9424558E-01
        1   -1    0    0  501    0  0.00000000000E+00  0.00000000000E+00  0.60009407615E+03  0.60009407617E+03  0.50400001928E-02 0.  1.
       -1   -1    0    0    0  501  0.00000000000E+00  0.00000000000E+00 -0.33806151217E+03  0.33806151221E+03  0.50400001928E-02 0. -1.
    10030    2    1    2    0    0  0.00000000000E+00  0.00000000000E+00  0.26203256397E+03  0.93815558838E+03  0.90081898483E+03 0.  0.
        1    1    3    3  502    0 -0.16339500909E+03  0.24998052719E+03  0.48215632756E+03  0.56715334541E+03  0.50400001928E-02 0.  1.
       -1    1    3    3    0  502  0.16339500909E+03 -0.24998052719E+03 -0.22012376359E+03  0.37100224297E+03  0.50400001928E-02 0. -1.
</event>
<event>
 5   0  0.6863405E-03  0.8979801E+03  0.7818609E-02  0.9428110E-01
        2   -1    0    0  501    0  0.00000000000E+00  0.00000000000E+00  0.50854736804E+03  0.50854736805E+03  0.25500000920E-02 0.  1.
       -2   -1    0    0    0  501  0.00000000000E+00  0.00000000000E+00 -0.39640764657E+03  0.39640764657E+03  0.25500000920E-02 0. -1.
    10030    2    1    2    0    0  0.00000000000E+00  0.00000000000E+00  0.11213972148E+03  0.90495501463E+03  0.89798010076E+03 0.  0.
        1    1    3    3  502    0  0.13442082369E+03  0.99426660458E+02  0.47600476466E+03  0.50451477149E+03  0.50400001928E-02 0.  1.
       -1    1    3    3    0  502 -0.13442082369E+03 -0.99426660458E+02 -0.36386504318E+03  0.40044024314E+03  0.50400001928E-02 0. -1.
</event>
<event>
 5   0  0.3943549E-03  0.8951693E+03  0.7818609E-02  0.9431640E-01
       -1   -1    0    0    0  501  0.00000000000E+00  0.00000000000E+00  0.27646393906E+03  0.27646393911E+03  0.50400001928E-02 0. -1.
        1   -1    0    0  501    0  0.00000000000E+00  0.00000000000E+00 -0.72462253515E+03  0.72462253517E+03  0.50400001928E-02 0.  1.
    10030    2    1    2    0    0  0.00000000000E+00  0.00000000000E+00 -0.44815859608E+03  0.10010864743E+04  0.89516925871E+03 0.  0.
        3    1    3    3  502    0 -0.22347705204E+03  0.38741874274E+03 -0.24334284895E+03  0.50916699358E+03  0.10100000352E+00 0. -1.
       -3    1    3    3    0  502  0.22347705204E+03 -0.38741874274E+03 -0.20481574713E+03  0.49191948070E+03  0.10100000352E+00 0.  1.
</event>
<event>
 5   0  0.3927993E-03  0.9724251E+03  0.7818609E-02  0.9339316E-01
       -1   -1    0    0    0  501  0.00000000000E+00  0.00000000000E+00  0.16128697203E+03  0.16128697211E+03  0.50400001928E-02 0.  1.
        1   -1    0    0  501    0  0.00000000000E+00  0.00000000000E+00 -0.14657269348E+04  0.14657269348E+04  0.50400001928E-02 0. -1.
    10030    2    1    2    0    0  0.00000000000E+00  0.00000000000E+00 -0.13044399628E+04  0.16270139069E+04  0.97242513174E+03 0.  0.
        2    1    3    3  502    0  0.63583984277E+01 -0.42527471578E+03 -0.10464011270E+04  0.11295372201E+04  0.25500000920E-02 0. -1.
       -2    1    3    3    0  502 -0.63583984277E+01  0.42527471578E+03 -0.25803883578E+03  0.49747668678E+03  0.25500000920E-02 0.  1.
</event>
<event>
 5   0  0.3794006E-03  0.9024044E+03  0.7818609E-02  0.9422581E-01
        1   -1    0    0  501    0  0.00000000000E+00  0.00000000000E+00  0.53845385764E+03  0.53845385766E+03  0.50400001928E-02 0.  1.
       -1   -1    0    0    0  501  0.00000000000E+00  0.00000000000E+00 -0.37808893663E+03  0.37808893666E+03  0.50400001928E-02 0. -1.
    10030    2    1    2    0    0  0.00000000000E+00  0.00000000000E+00  0.16036492101E+03  0.91654279432E+03  0.90240444698E+03 0.  0.
        5    1    3    3  502    0  0.27068017789E+03 -0.19246473428E+03  0.39033696441E+03  0.51253826045E+03  0.46999998093E+01 0.  1.
       -5    1    3    3    0  502 -0.27068017789E+03  0.19246473428E+03 -0.22997204340E+03  0.40400453387E+03  0.46999998093E+01 0. -1.
</event>
<event>
 5   0  0.6724773E-03  0.8680233E+03  0.7818609E-02  0.9466461E-01
       -2   -1    0    0    0  501  0.00000000000E+00  0.00000000000E+00  0.17592065698E+03  0.17592065700E+03  0.25500000920E-02 0.  1.
        2   -1    0    0  501    0  0.00000000000E+00  0.00000000000E+00 -0.10707448009E+04  0.10707448009E+04  0.25500000920E-02 0. -1.
    10030    2    1    2    0    0  0.00000000000E+00  0.00000000000E+00 -0.89482414391E+03  0.12466654579E+04  0.86802333805E+03 0.  0.
        5    1    3    3  502    0 -0.31577067968E+03  0.26925559975E+03 -0.26498297459E+03  0.49238985262E+03  0.46999998093E+01 0.  1.
       -5    1    3    3    0  502  0.31577067968E+03 -0.26925559975E+03 -0.62984116932E+03  0.75427560527E+03  0.46999998093E+01 0. -1.
</event>
<event>
 5   0  0.6724773E-03  0.8958205E+03  0.7818609E-02  0.9430821E-01
       -2   -1    0    0    0  501  0.00000000000E+00  0.00000000000E+00  0.22652558272E+03  0.22652558274E+03  0.25500000920E-02 0.  1.
        2   -1    0    0  501    0  0.00000000000E+00  0.00000000000E+00 -0.88565538752E+03  0.88565538752E+03  0.25500000920E-02 0. -1.
    10030    2    1    2    0    0  0.00000000000E+00  0.00000000000E+00 -0.65912980480E+03  0.11121809703E+04  0.89582052390E+03 0.  0.
        5    1    3    3  502    0 -0.25578358409E+03 -0.27066738688E+03 -0.63849051841E+03  0.73917407173E+03  0.46999998093E+01 0. -1.
       -5    1    3    3    0  502  0.25578358409E+03  0.27066738688E+03 -0.20639286385E+02  0.37300689853E+03  0.46999998093E+01 0.  1.
</event>
<event>
 5   0  0.6724773E-03  0.9135651E+03  0.7818609E-02  0.9408781E-01
        2   -1    0    0  501    0  0.00000000000E+00  0.00000000000E+00  0.97489004382E+03  0.97489004383E+03  0.25500000920E-02 0.  1.
       -2   -1    0    0    0  501  0.00000000000E+00  0.00000000000E+00 -0.21402445020E+03  0.21402445022E+03  0.25500000920E-02 0. -1.
    10030    2    1    2    0    0  0.00000000000E+00  0.00000000000E+00  0.76086559362E+03  0.11889144940E+04  0.91356511677E+03 0.  0.
        5    1    3    3  502    0  0.12339690579E+03  0.10225778692E+03  0.93706855993E+03  0.95068555651E+03  0.46999998093E+01 0.  1.
       -5    1    3    3    0  502 -0.12339690579E+03 -0.10225778692E+03 -0.17620296631E+03  0.23822893753E+03  0.46999998093E+01 0. -1.
</event>
<event>
 5   0  0.3998066E-03  0.9188314E+03  0.7818609E-02  0.9402343E-01
       -1   -1    0    0    0  501  0.00000000000E+00  0.00000000000E+00  0.69553570420E+03  0.69553570422E+03  0.50400001928E-02 0. -1.
        1   -1    0    0  501    0  0.00000000000E+00  0.00000000000E+00 -0.30345358145E+03  0.30345358149E+03  0.50400001928E-02 0.  1.
    10030    2    1    2    0    0  0.00000000000E+00  0.00000000000E+00  0.39208212275E+03  0.99898928571E+03  0.91883143284E+03 0.  0.
        4    1    3    3  502    0 -0.64035999047E+02 -0.33299173627E+02 -0.29724888167E+03  0.30588879465E+03  0.12699999809E+01 0.  1.
       -4    1    3    3    0  502  0.64035999047E+02  0.33299173627E+02  0.68933100443E+03  0.69310049106E+03  0.12699999809E+01 0. -1.
</event>
<event>
 5   0  0.6609191E-03  0.8981548E+03  0.7818609E-02  0.9427891E-01
        2   -1    0    0  501    0  0.00000000000E+00  0.00000000000E+00  0.94748396638E+03  0.94748396639E+03  0.25500000920E-02 0.  1.
       -2   -1    0    0    0  501  0.00000000000E+00  0.00000000000E+00 -0.21284845407E+03  0.21284845408E+03  0.25500000920E-02 0. -1.
    10030    2    1    2    0    0  0.00000000000E+00  0.00000000000E+00  0.73463551232E+03  0.11603324205E+04  0.89815476953E+03 0.  0.
        2    1    3    3  502    0  0.14361116661E+03  0.41882267848E+03  0.27034815831E+03  0.51877232954E+03  0.25500000920E-02 0. -1.
       -2    1    3    3    0  502 -0.14361116661E+03 -0.41882267848E+03  0.46428735400E+03  0.64156009093E+03  0.25500000920E-02 0.  1.
</event>
<event>
 5   0  0.6524705E-03  0.9056163E+03  0.7818609E-02  0.9418588E-01
        2   -1    0    0  501    0  0.00000000000E+00  0.00000000000E+00  0.14517296559E+04  0.14517296559E+04  0.25500000920E-02 0. -1.
       -2   -1    0    0    0  501  0.00000000000E+00  0.00000000000E+00 -0.14123511211E+03  0.14123511213E+03  0.25500000920E-02 0.  1.
    10030    2    1    2    0    0  0.00000000000E+00  0.00000000000E+00  0.13104945438E+04  0.15929647680E+04  0.90561625587E+03 0.  0.
        3    1    3    3  502    0  0.17771470239E+03 -0.19237346298E+03  0.55052223179E+01  0.26195492432E+03  0.10100000352E+00 0.  1.
       -3    1    3    3    0  502 -0.17771470239E+03  0.19237346298E+03  0.13049893215E+04  0.13310098437E+04  0.10100000352E+00 0. -1.
</event>
<event>
 5   0  0.3943549E-03  0.8983095E+03  0.7818609E-02  0.9427697E-01
       -1   -1    0    0    0  501  0.00000000000E+00  0.00000000000E+00  0.29128911734E+03  0.29128911738E+03  0.50400001928E-02 0.  1.
        1   -1    0    0  501    0  0.00000000000E+00  0.00000000000E+00 -0.69257640757E+03  0.69257640759E+03  0.50400001928E-02 0. -1.
    10030    2    1    2    0    0  0.00000000000E+00  0.00000000000E+00 -0.40128729023E+03  0.98386552497E+03  0.89830945777E+03 0.  0.
        3    1    3    3  502    0  0.38308550587E+03  0.95747470806E+02  0.33793947637E+02  0.39631316414E+03  0.10100000352E+00 0. -1.
       -3    1    3    3    0  502 -0.38308550587E+03 -0.95747470806E+02 -0.43508123787E+03  0.58755236083E+03  0.10100000352E+00 0.  1.
</event>
<event>
 5   0  0.6524705E-03  0.8255746E+03  0.7818609E-02  0.9523719E-01
        2   -1    0    0  501    0  0.00000000000E+00  0.00000000000E+00  0.44065571355E+03  0.44065571356E+03  0.25500000920E-02 0. -1.
       -2   -1    0    0    0  501  0.00000000000E+00  0.00000000000E+00 -0.38668139422E+03  0.38668139423E+03  0.25500000920E-02 0.  1.
    10030    2    1    2    0    0  0.00000000000E+00  0.00000000000E+00  0.53974319324E+02  0.82733710779E+03  0.82557462581E+03 0.  0.
        3    1    3    3  502    0  0.29333358278E+03  0.56310362108E+02 -0.25853846774E+03  0.39504126008E+03  0.10100000352E+00 0.  1.
       -3    1    3    3    0  502 -0.29333358278E+03 -0.56310362108E+02  0.31251278706E+03  0.43229584771E+03  0.10100000352E+00 0. -1.
</event>
<event>
 5   0  0.3998066E-03  0.9015290E+03  0.7818609E-02  0.9423672E-01
        1   -1    0    0  501    0  0.00000000000E+00  0.00000000000E+00  0.93283370857E+03  0.93283370858E+03  0.50400001928E-02 0.  1.
       -1   -1    0    0    0  501  0.00000000000E+00  0.00000000000E+00 -0.21781869651E+03  0.21781869656E+03  0.50400001928E-02 0. -1.
    10030    2    1    2    0    0  0.00000000000E+00  0.00000000000E+00  0.71501501206E+03  0.11506524051E+04  0.90152897346E+03 0.  0.
        4    1    3    3  502    0  0.98323080941E+02  0.88914526307E+02 -0.19237458851E+03  0.23362965659E+03  0.12699999809E+01 0. -1.
       -4    1    3    3    0  502 -0.98323080941E+02 -0.88914526307E+02  0.90738960057E+03  0.91702274855E+03  0.12699999809E+01 0.  1.
</event>
<event>
 5   0  0.6724773E-03  0.8957735E+03  0.7818609E-02  0.9430880E-01
        2   -1    0    0  501    0  0.00000000000E+00  0.00000000000E+00  0.12801808667E+04  0.12801808667E+04  0.25500000920E-02 0. -1.
       -2   -1    0    0    0  501  0.00000000000E+00  0.00000000000E+00 -0.15669858506E+03  0.15669858508E+03  0.25500000920E-02 0.  1.
    10030    2    1    2    0    0  0.00000000000E+00  0.00000000000E+00  0.11234822817E+04  0.14368794518E+04  0.89577347685E+03 0.  0.
        5    1    3    3  502    0  0.22771449686E+03  0.98687150490E+02  0.11597530627E+04  0.11860195202E+04  0.46999998093E+01 0. -1.
       -5    1    3    3    0  502 -0.22771449686E+03 -0.98687150490E+02 -0.36270781037E+02  0.25085993165E+03  0.46999998093E+01 0.  1.
</event>
<event>
 5   0  0.3943549E-03  0.8984299E+03  0.7818609E-02  0.9427546E-01
        1   -1    0    0  501    0  0.00000000000E+00  0.00000000000E+00  0.92061027544E+03  0.92061027545E+03  0.50400001928E-02 0.  1.
       -1   -1    0    0    0  501  0.00000000000E+00  0.00000000000E+00 -0.21919596455E+03  0.21919596461E+03  0.50400001928E-02 0. -1.
    10030    2    1    2    0    0  0.00000000000E+00  0.00000000000E+00  0.70141431089E+03  0.11398062401E+04  0.89842986892E+03 0.  0.
        3    1    3    3  502    0  0.37457561063E+03 -0.70910917739E+02  0.65215534023E+03  0.75540839573E+03  0.10100000352E+00 0.  1.
       -3    1    3    3    0  502 -0.37457561063E+03  0.70910917739E+02  0.49258970651E+02  0.38439784433E+03  0.10100000352E+00 0. -1.
</event>
<event>
 5   0  0.6609191E-03  0.9033131E+03  0.7818609E-02  0.9421449E-01
       -2   -1    0    0    0  501  0.00000000000E+00  0.00000000000E+00  0.10469174749E+04  0.10469174749E+04  0.25500000920E-02 0.  1.
        2   -1    0    0  501    0  0.00000000000E+00  0.00000000000E+00 -0.19485170668E+03  0.19485170670E+03  0.25500000920E-02 0. -1.
    10030    2    1    2    0    0  0.00000000000E+00  0.00000000000E+00  0.85206576826E+03  0.12417691816E+04  0.90331313896E+03 0.  0.
        2    1    3    3  502    0  0.19240908540E+03 -0.11725812334E+03 -0.11206890484E+03  0.25165484909E+03  0.25500000920E-02 0. -1.
       -2    1    3    3    0  502 -0.19240908540E+03  0.11725812334E+03  0.96413467309E+03  0.99011433254E+03  0.25500000920E-02 0.  1.
</event>
<event>
 5   0  0.3794006E-03  0.9023558E+03  0.7818609E-02  0.9422641E-01
        1   -1    0    0  501    0  0.00000000000E+00  0.00000000000E+00  0.45523774838E+03  0.45523774841E+03  0.50400001928E-02 0.  1.
       -1   -1    0    0    0  501  0.00000000000E+00  0.00000000000E+00 -0.44715423721E+03  0.44715423724E+03  0.50400001928E-02 0. -1.
    10030    2    1    2    0    0  0.00000000000E+00  0.00000000000E+00  0.80835111644E+01  0.90239198565E+03  0.90235577940E+03 0.  0.
        5    1    3    3  502    0 -0.39377643957E+03  0.14994072370E+03 -0.15720147513E+03  0.44975159673E+03  0.46999998093E+01 0. -1.
       -5    1    3    3    0  502  0.39377643957E+03 -0.14994072370E+03  0.16528498630E+03  0.45264038891E+03  0.46999998093E+01 0.  1.
</event>
<event>
 5   0  0.3927993E-03  0.9023550E+03  0.7818609E-02  0.9422642E-01
        1   -1    0    0  501    0  0.00000000000E+00  0.00000000000E+00  0.10932764506E+04  0.10932764506E+04  0.50400001928E-02 0. -1.
       -1   -1    0    0    0  501  0.00000000000E+00  0.00000000000E+00 -0.18619365511E+03  0.18619365518E+03  0.50400001928E-02 0.  1.
    10030    2    1    2    0    0  0.00000000000E+00  0.00000000000E+00  0.90708279544E+03  0.12794701057E+04  0.90235500426E+03 0.  0.
        2    1    3    3  502    0 -0.14205285506E+03 -0.42394428427E+03  0.53924507563E+03  0.70049484037E+03  0.25500000920E-02 0. -1.
       -2    1    3    3    0  502  0.14205285506E+03  0.42394428427E+03  0.36783771981E+03  0.57897526538E+03  0.25500000920E-02 0.  1.
</event>
<event>
 5   0  0.3794006E-03  0.8990869E+03  0.7818609E-02  0.9426724E-01
        1   -1    0    0  501    0  0.00000000000E+00  0.00000000000E+00  0.45495385893E+03  0.45495385896E+03  0.50400001928E-02 0. -1.
       -1   -1    0    0    0  501  0.00000000000E+00  0.00000000000E+00 -0.44419739248E+03  0.44419739251E+03  0.50400001928E-02 0.  1.
    10030    2    1    2    0    0  0.00000000000E+00  0.00000000000E+00  0.10756466448E+02  0.89915125146E+03  0.89908690984E+03 0.  0.
        5    1    3    3  502    0  0.35334320004E+03 -0.49682043410E+02  0.27879769879E+03  0.45284651848E+03  0.46999998093E+01 0. -1.
       -5    1    3    3    0  502 -0.35334320004E+03  0.49682043410E+02 -0.26804123235E+03  0.44630473298E+03  0.46999998093E+01 0.  1.
</event>
<event>
 5   0  0.6724773E-03  0.9132106E+03  0.7818609E-02  0.9409217E-01
        2   -1    0    0  501    0  0.00000000000E+00  0.00000000000E+00  0.14820712315E+04  0.14820712315E+04  0.25500000920E-02 0.  1.
       -2   -1    0    0    0  501  0.00000000000E+00  0.00000000000E+00 -0.14067366380E+03  0.14067366382E+03  0.25500000920E-02 0. -1.
    10030    2    1    2    0    0  0.00000000000E+00  0.00000000000E+00  0.13413975677E+04  0.16227448953E+04  0.91321057849E+03 0.  0.
        5    1    3    3  502    0  0.17343991237E+03 -0.14564643944E+03  0.13751759545E+04  0.13937091821E+04  0.46999998093E+01 0.  1.
       -5    1    3    3    0  502 -0.17343991237E+03  0.14564643944E+03 -0.33778386764E+02  0.22903571323E+03  0.46999998093E+01 0. -1.
</event>
<event>
 5   0  0.3794006E-03  0.9254287E+03  0.7818609E-02  0.9394341E-01
       -1   -1    0    0    0  501  0.00000000000E+00  0.00000000000E+00  0.18646944046E+03  0.18646944053E+03  0.50400001928E-02 0. -1.
        1   -1    0    0  501    0  0.00000000000E+00  0.00000000000E+00 -0.11482017990E+04  0.11482017990E+04  0.50400001928E-02 0.  1.
    10030    2    1    2    0    0  0.00000000000E+00  0.00000000000E+00 -0.96173235853E+03  0.13346712395E+04  0.92542865105E+03 0.  0.
        5    1    3    3  502    0  0.29233898793E+03  0.64302431945E+02  0.27985096748E+02  0.30066949007E+03  0.46999998093E+01 0. -1.
       -5    1    3    3    0  502 -0.29233898793E+03 -0.64302431945E+02 -0.98971745528E+03  0.10340017495E+04  0.46999998093E+01 0.  1.
</event>
<event>
 5   0  0.6863405E-03  0.9334548E+03  0.7818609E-02  0.9384701E-01
       -2   -1    0    0    0  501  0.00000000000E+00  0.00000000000E+00  0.25905107007E+03  0.25905107008E+03  0.25500000920E-02 0. -1.
        2   -1    0    0  501    0  0.00000000000E+00  0.00000000000E+00 -0.84089392580E+03  0.84089392581E+03  0.25500000920E-02 0.  1.
    10030    2    1    2    0    0  0.00000000000E+00  0.00000000000E+00 -0.58184285573E+03  0.10999449959E+04  0.93345481156E+03 0.  0.
        1    1    3    3  502    0  0.40199376958E+03 -0.32020352710E+02 -0.56779865782E+03  0.69643349260E+03  0.50400001928E-02 0. -1.
       -1    1    3    3    0  502 -0.40199376958E+03  0.32020352710E+02 -0.14044197910E+02  0.40351150329E+03  0.50400001928E-02 0.  1.
</event>
<event>
 5   0  0.6724773E-03  0.8981161E+03  0.7818609E-02  0.9427939E-01
       -2   -1    0    0    0  501  0.00000000000E+00  0.00000000000E+00  0.14480710497E+03  0.14480710499E+03  0.25500000920E-02 0.  1.
        2   -1    0    0  501    0  0.00000000000E+00  0.00000000000E+00 -0.13925638060E+04  0.13925638060E+04  0.25500000920E-02 0. -1.
    10030    2    1    2    0    0  0.00000000000E+00  0.00000000000E+00 -0.12477567010E+04  0.15373709110E+04  0.89811610218E+03 0.  0.
        5    1    3    3  502    0  0.76000558537E+02 -0.31477704649E+03 -0.11563756086E+04  0.12008693985E+04  0.46999998093E+01 0. -1.
       -5    1    3    3    0  502 -0.76000558537E+02  0.31477704649E+03 -0.91381092397E+02  0.33650151254E+03  0.46999998093E+01 0.  1.
</event>
<event>
 5   0  0.6724773E-03  0.8979537E+03  0.7818609E-02  0.9428143E-01
       -2   -1    0    0    0  501  0.00000000000E+00  0.00000000000E+00  0.10970815571E+03  0.10970815574E+03  0.25500000920E-02 0.  1.
        2   -1    0    0  501    0  0.00000000000E+00  0.00000000000E+00 -0.18374224451E+04  0.18374224451E+04  0.25500000920E-02 0. -1.
    10030    2    1    2    0    0  0.00000000000E+00  0.00000000000E+00 -0.17277142894E+04  0.19471306008E+04  0.89795373542E+03 0.  0.
        5    1    3    3  502    0 -0.25838046285E+03  0.35019641583E+03 -0.11029741641E+04  0.11857369396E+04  0.46999998093E+01 0. -1.
       -5    1    3    3    0  502  0.25838046285E+03 -0.35019641583E+03 -0.62474012528E+03  0.76139366124E+03  0.46999998093E+01 0.  1.
</event>
<event>
 5   0  0.3794006E-03  0.9002278E+03  0.7818609E-02  0.9425297E-01
        1   -1    0    0  501    0  0.00000000000E+00  0.00000000000E+00  0.89349739933E+03  0.89349739935E+03  0.50400001928E-02 0. -1.
       -1   -1    0    0    0  501  0.00000000000E+00  0.00000000000E+00 -0.22675221951E+03  0.22675221956E+03  0.50400001928E-02 0.  1.
    10030    2    1    2    0    0  0.00000000000E+00  0.00000000000E+00  0.66674517983E+03  0.11202496189E+04  0.90022778998E+03 0.  0.
        5    1    3    3  502    0  0.38128020774E+03 -0.23910435999E+03  0.34072793771E+03  0.56450253260E+03  0.46999998093E+01 0. -1.
       -5    1    3    3    0  502 -0.38128020774E+03  0.23910435999E+03  0.32601724212E+03  0.55574708631E+03  0.46999998093E+01 0.  1.
</event>
<event>
 5   0  0.3794006E-03  0.8975731E+03  0.7818609E-02  0.9428620E-01
        1   -1    0    0  501    0  0.00000000000E+00  0.00000000000E+00  0.14017726873E+03  0.14017726882E+03  0.50400001928E-02 0. -1.
       -1   -1    0    0    0  501  0.00000000000E+00  0.00000000000E+00 -0.14368191738E+04  0.14368191738E+04  0.50400001928E-02 0.  1.
    10030    2    1    2    0    0  0.00000000000E+00  0.00000000000E+00 -0.12966419051E+04  0.15769964426E+04  0.89757314469E+03 0.  0.
        5    1    3    3  502    0 -0.21687704069E+03 -0.38078242218E+03 -0.81826858061E+03  0.92823297928E+03  0.46999998093E+01 0. -1.
       -5    1    3    3    0  502  0.21687704069E+03  0.38078242218E+03 -0.47837332445E+03  0.64876346334E+03  0.46999998093E+01 0.  1.
</event>
<event>
 5   0  0.6724773E-03  0.8945298E+03  0.7818609E-02  0.9432445E-01
        2   -1    0    0  501    0  0.00000000000E+00  0.00000000000E+00  0.19331429254E+04  0.19331429254E+04  0.25500000920E-02 0. -1.
       -2   -1    0    0    0  501  0.00000000000E+00  0.00000000000E+00 -0.10348220237E+03  0.10348220240E+03  0.25500000920E-02 0.  1.
    10030    2    1    2    0    0  0.00000000000E+00  0.00000000000E+00  0.18296607230E+04  0.20366251278E+04  0.89452979256E+03 0.  0.
        5    1    3    3  502    0 -0.13499281303E+03 -0.40380382371E+03  0.60312930671E+03  0.73828696198E+03  0.46999998093E+01 0.  1.
       -5    1    3    3    0  502  0.13499281303E+03  0.40380382371E+03  0.12265314163E+04  0.12983381658E+04  0.46999998093E+01 0. -1.
</event>
<event>
 5   0  0.3998066E-03  0.8972237E+03  0.7818609E-02  0.9429059E-01
        1   -1    0    0  501    0  0.00000000000E+00  0.00000000000E+00  0.23550712299E+03  0.23550712305E+03  0.50400001928E-02 0.  1.
       -1   -1    0    0    0  501  0.00000000000E+00  0.00000000000E+00 -0.85454986785E+03  0.85454986786E+03  0.50400001928E-02 0. -1.
    10030    2    1    2    0    0  0.00000000000E+00  0.00000000000E+00 -0.61904274485E+03  0.10900569909E+04  0.89722367528E+03 0.  0.
        4    1    3    3  502    0 -0.34664861080E+03 -0.15107498181E+02  0.35947211179E+02  0.34883708341E+03  0.12699999809E+01 0.  1.
       -4    1    3    3    0  502  0.34664861080E+03  0.15107498181E+02 -0.65498995603E+03  0.74121990750E+03  0.12699999809E+01 0. -1.
</event>
<event>
 5   0  0.6863405E-03  0.8988171E+03  0.7818609E-02  0.9427061E-01
        2   -1    0    0  501    0  0.00000000000E+00  0.00000000000E+00  0.37804248325E+03  0.37804248326E+03  0.25500000920E-02 0. -1.
       -2   -1    0    0    0  501  0.00000000000E+00  0.00000000000E+00 -0.53424693013E+03  0.53424693013E+03  0.25500000920E-02 0.  1.
    10030    2    1    2    0    0  0.00000000000E+00  0.00000000000E+00 -0.15620444688E+03  0.91228941339E+03  0.89881708070E+03 0.  0.
        1    1    3    3  502    0 -0.15409165412E+03 -0.32712700873E+03 -0.34895734443E+03  0.50252118957E+03  0.50400001928E-02 0. -1.
       -1    1    3    3    0  502  0.15409165412E+03  0.32712700873E+03  0.19275289755E+03  0.40976822382E+03  0.50400001928E-02 0.  1.
</event>
<event>
 5   0  0.3794006E-03  0.9060127E+03  0.7818609E-02  0.9418096E-01
        1   -1    0    0  501    0  0.00000000000E+00  0.00000000000E+00  0.85177706579E+03  0.85177706580E+03  0.50400001928E-02 0.  1.
       -1   -1    0    0    0  501  0.00000000000E+00  0.00000000000E+00 -0.24092540492E+03  0.24092540498E+03  0.50400001928E-02 0. -1.
    10030    2    1    2    0    0  0.00000000000E+00  0.00000000000E+00  0.61085166086E+03  0.10927024708E+04  0.90601265889E+03 0.  0.
        5    1    3    3  502    0  0.42069085252E+03  0.88798965905E+02  0.13347670388E+03  0.45022679864E+03  0.46999998093E+01 0. -1.
       -5    1    3    3    0  502 -0.42069085252E+03 -0.88798965905E+02  0.47737495698E+03  0.64247567214E+03  0.46999998093E+01 0.  1.
</event>
<event>
 5   0  0.3969536E-03  0.9530980E+03  0.7818609E-02  0.9361537E-01
       -1   -1    0    0    0  501  0.00000000000E+00  0.00000000000E+00  0.35867518405E+03  0.35867518408E+03  0.50400001928E-02 0. -1.
        1   -1    0    0  501    0  0.00000000000E+00  0.00000000000E+00 -0.63316051250E+03  0.63316051252E+03  0.50400001928E-02 0.  1.
    10030    2    1    2    0    0  0.00000000000E+00  0.00000000000E+00 -0.27448532845E+03  0.99183569660E+03  0.95309802933E+03 0.  0.
        1    1    3    3  502    0  0.90580433070E+02  0.23047573075E+03 -0.56094591309E+03  0.61317550078E+03  0.50400001928E-02 0.  1.
       -1    1    3    3    0  502 -0.90580433070E+02 -0.23047573075E+03  0.28646058464E+03  0.37866019582E+03  0.50400001928E-02 0. -1.
</event>
<event>
 5   0  0.3969536E-03  0.9290584E+03  0.7818609E-02  0.9389969E-01
       -1   -1    0    0    0  501  0.00000000000E+00  0.00000000000E+00  0.17814624370E+03  0.17814624377E+03  0.50400001928E-02 0. -1.
        1   -1    0    0  501    0  0.00000000000E+00  0.00000000000E+00 -0.12112934919E+04  0.12112934919E+04  0.50400001928E-02 0.  1.
    10030    2    1    2    0    0  0.00000000000E+00  0.00000000000E+00 -0.10331472482E+04  0.13894397357E+04  0.92905841721E+03 0.  0.
        1    1    3    3  502    0 -0.43769829284E+03  0.13787532776E+03 -0.62439730759E+03  0.77489444398E+03  0.50400001928E-02 0.  1.
       -1    1    3    3    0  502  0.43769829284E+03 -0.13787532776E+03 -0.40874994059E+03  0.61454529167E+03  0.50400001928E-02 0. -1.
</event>
<event>
 5   0  0.3998066E-03  0.8877036E+03  0.7818609E-02  0.9441084E-01
       -1   -1    0    0    0  501  0.00000000000E+00  0.00000000000E+00  0.26074368187E+03  0.26074368192E+03  0.50400001928E-02 0. -1.
        1   -1    0    0  501    0  0.00000000000E+00  0.00000000000E+00 -0.75554813258E+03  0.75554813260E+03  0.50400001928E-02 0.  1.
    10030    2    1    2    0    0  0.00000000000E+00  0.00000000000E+00 -0.49480445071E+03  0.10162918145E+04  0.88770355853E+03 0.  0.
        4    1    3    3  502    0 -0.32484157310E+03  0.58132091823E+02  0.92412250072E+02  0.34269961275E+03  0.12699999809E+01 0. -1.
       -4    1    3    3    0  502  0.32484157310E+03 -0.58132091823E+02 -0.58721670078E+03  0.67359220177E+03  0.12699999809E+01 0.  1.
</event>
<event>
 5   0  0.6534628E-03  0.8884332E+03  0.7818609E-02  0.9440157E-01
        2   -1    0    0  501    0  0.00000000000E+00  0.00000000000E+00  0.10988278195E+04  0.10988278195E+04  0.25500000920E-02 0.  1.
       -2   -1    0    0    0  501  0.00000000000E+00  0.00000000000E+00 -0.17958082050E+03  0.17958082052E+03  0.25500000920E-02 0. -1.
    10030    2    1    2    0    0  0.00000000000E+00  0.00000000000E+00  0.91924699901E+03  0.12784086400E+04  0.88843323086E+03 0.  0.
        4    1    3    3  502    0 -0.38657171472E+03 -0.91331904167E+02  0.17346617555E+03  0.43344126972E+03  0.12699999809E+01 0.  1.
       -4    1    3    3    0  502  0.38657171472E+03  0.91331904167E+02  0.74578082346E+03  0.84496737030E+03  0.12699999809E+01 0. -1.
</event>
<event>
 5   0  0.6524705E-03  0.8988285E+03  0.7818609E-02  0.9427047E-01
        2   -1    0    0  501    0  0.00000000000E+00  0.00000000000E+00  0.72050589645E+03  0.72050589645E+03  0.25500000920E-02 0. -1.
       -2   -1    0    0    0  501  0.00000000000E+00  0.00000000000E+00 -0.28032131784E+03  0.28032131785E+03  0.25500000920E-02 0.  1.
    10030    2    1    2    0    0  0.00000000000E+00  0.00000000000E+00  0.44018457861E+03  0.10008272143E+04  0.89882848734E+03 0.  0.
        3    1    3    3  502    0 -0.27052637440E+03 -0.17190825756E+03  0.57085814000E+03  0.65468770759E+03  0.10100000352E+00 0. -1.
       -3    1    3    3    0  502  0.27052637440E+03  0.17190825756E+03 -0.13067356139E+03  0.34613950672E+03  0.10100000352E+00 0.  1.
</event>
<event>
 5   0  0.3998066E-03  0.9040179E+03  0.7818609E-02  0.9420573E-01
       -1   -1    0    0    0  501  0.00000000000E+00  0.00000000000E+00  0.35763149931E+03  0.35763149934E+03  0.50400001928E-02 0. -1.
        1   -1    0    0  501    0  0.00000000000E+00  0.00000000000E+00 -0.57129217265E+03  0.57129217267E+03  0.50400001928E-02 0.  1.
    10030    2    1    2    0    0  0.00000000000E+00  0.00000000000E+00 -0.21366067334E+03  0.92892367202E+03  0.90401786769E+03 0.  0.
        4    1    3    3  502    0  0.25874575807E+03  0.69641014467E+02 -0.48088007103E+03  0.55049658839E+03  0.12699999809E+01 0.  1.
       -4    1    3    3    0  502 -0.25874575807E+03 -0.69641014467E+02  0.26721939769E+03  0.37842708362E+03  0.12699999809E+01 0. -1.
</event>
<event>
 5   0  0.6724773E-03  0.9019197E+03  0.7818609E-02  0.9423185E-01
        2   -1    0    0  501    0  0.00000000000E+00  0.00000000000E+00  0.87485640811E+03  0.87485640811E+03  0.25500000920E-02 0.  1.
       -2   -1    0    0    0  501  0.00000000000E+00  0.00000000000E+00 -0.23245505396E+03  0.23245505397E+03  0.25500000920E-02 0. -1.
    10030    2    1    2    0    0  0.00000000000E+00  0.00000000000E+00  0.64240135415E+03  0.11073114621E+04  0.90191971607E+03 0.  0.
        5    1    3    3  502    0 -0.28796235045E+03  0.28312764793E+03  0.56754018588E+03  0.69656839785E+03  0.46999998093E+01 0.  1.
       -5    1    3    3    0  502  0.28796235045E+03 -0.28312764793E+03  0.74861168268E+02  0.41074306423E+03  0.46999998093E+01 0. -1.
</event>
<event>
 5   0  0.6524705E-03  0.9015152E+03  0.7818609E-02  0.9423689E-01
       -2   -1    0    0    0  501  0.00000000000E+00  0.00000000000E+00  0.69545350936E+03  0.69545350936E+03  0.25500000920E-02 0. -1.
        2   -1    0    0  501    0  0.00000000000E+00  0.00000000000E+00 -0.29215813435E+03  0.29215813437E+03  0.25500000920E-02 0.  1.
    10030    2    1    2    0    0  0.00000000000E+00  0.00000000000E+00  0.40329537501E+03  0.98761164373E+03  0.90151516866E+03 0.  0.
        3    1    3    3  502    0 -0.17569974925E+03 -0.17882441678E+03  0.61203538210E+03  0.66138936570E+03  0.10100000352E+00 0. -1.
       -3    1    3    3    0  502  0.17569974925E+03  0.17882441678E+03 -0.20874000709E+03  0.32622227803E+03  0.10100000352E+00 0.  1.
</event>
<event>
 5   0  0.6534628E-03  0.8940961E+03  0.7818609E-02  0.9432992E-01
       -2   -1    0    0    0  501  0.00000000000E+00  0.00000000000E+00  0.27173489211E+03  0.27173489212E+03  0.25500000920E-02 0.  1.
        2   -1    0    0  501    0  0.00000000000E+00  0.00000000000E+00 -0.73546668163E+03  0.73546668164E+03  0.25500000920E-02 0. -1.
    10030    2    1    2    0    0  0.00000000000E+00  0.00000000000E+00 -0.46373178952E+03  0.10072015738E+04  0.89409610086E+03 0.  0.
        4    1    3    3  502    0  0.18490102649E+03 -0.10509448162E+03  0.21109049007E+03  0.29965654933E+03  0.12699999809E+01 0.  1.
       -4    1    3    3    0  502 -0.18490102649E+03  0.10509448162E+03 -0.67482227959E+03  0.70754502443E+03  0.12699999809E+01 0. -1.
</event>
<event>
 5   0  0.6609191E-03  0.8990592E+03  0.7818609E-02  0.9426758E-01
       -2   -1    0    0    0  501  0.00000000000E+00  0.00000000000E+00  0.10558364540E+04  0.10558364540E+04  0.25500000920E-02 0. -1.
        2   -1    0    0  501    0  0.00000000000E+00  0.00000000000E+00 -0.19139032387E+03  0.19139032389E+03  0.25500000920E-02 0.  1.
    10030    2    1    2    0    0  0.00000000000E+00  0.00000000000E+00  0.86444613009E+03  0.12472267779E+04  0.89905924364E+03 0.  0.
        2    1    3    3  502    0  0.15977427403E+03 -0.13194538095E+03 -0.12118576138E+03  0.24004872623E+03  0.25500000920E-02 0.  1.
       -2    1    3    3    0  502 -0.15977427403E+03  0.13194538095E+03  0.98563189147E+03  0.10071780516E+04  0.25500000920E-02 0. -1.
</event>
<event>
 5   0  0.6609191E-03  0.9116296E+03  0.7818609E-02  0.9411159E-01
        2   -1    0    0  501    0  0.00000000000E+00  0.00000000000E+00  0.76050594219E+03  0.76050594220E+03  0.25500000920E-02 0. -1.
       -2   -1    0    0    0  501  0.00000000000E+00  0.00000000000E+00 -0.27319595990E+03  0.27319595991E+03  0.25500000920E-02 0.  1.
    10030    2    1    2    0    0  0.00000000000E+00  0.00000000000E+00  0.48730998229E+03  0.10337019021E+04  0.91162964168E+03 0.  0.
        2    1    3    3  502    0 -0.29202456816E+03 -0.34945257298E+03  0.22179378275E+03  0.50654509300E+03  0.25500000920E-02 0. -1.
       -2    1    3    3    0  502  0.29202456816E+03  0.34945257298E+03  0.26551619955E+03  0.52715680911E+03  0.25500000920E-02 0.  1.
</event>
<event>
 5   0  0.6609191E-03  0.8759648E+03  0.7818609E-02  0.9456135E-01
       -2   -1    0    0    0  501  0.00000000000E+00  0.00000000000E+00  0.20445590173E+03  0.20445590175E+03  0.25500000920E-02 0. -1.
        2   -1    0    0  501    0  0.00000000000E+00  0.00000000000E+00 -0.93823950421E+03  0.93823950421E+03  0.25500000920E-02 0.  1.
    10030    2    1    2    0    0  0.00000000000E+00  0.00000000000E+00 -0.73378360248E+03  0.11426954060E+04  0.87596484834E+03 0.  0.
        2    1    3    3  502    0  0.40392590027E+03 -0.14483188495E+03 -0.25245074320E+03  0.49785920255E+03  0.25500000920E-02 0.  1.
       -2    1    3    3    0  502 -0.40392590027E+03  0.14483188495E+03 -0.48133285927E+03  0.64483620341E+03  0.25500000920E-02 0. -1.
</event>
<event>
 5   0  0.6524705E-03  0.8997742E+03  0.7818609E-02  0.9425864E-01
       -2   -1    0    0    0  501  0.00000000000E+00  0.00000000000E+00  0.11329619826E+03  0.11329619829E+03  0.25500000920E-02 0.  1.
        2   -1    0    0  501    0  0.00000000000E+00  0.00000000000E+00 -0.17864536129E+04  0.17864536129E+04  0.25500000920E-02 0. -1.
    10030    2    1    2    0    0  0.00000000000E+00  0.00000000000E+00 -0.16731574147E+04  0.18997498112E+04  0.89977419999E+03 0.  0.
        3    1    3    3  502    0 -0.29866281069E+03 -0.12085025541E+03 -0.17361704945E+03  0.36598790797E+03  0.10100000352E+00 0.  1.
       -3    1    3    3    0  502  0.29866281069E+03  0.12085025541E+03 -0.14995403652E+04  0.15337619033E+04  0.10100000352E+00 0. -1.
</event>
<event>
 5   0  0.6534628E-03  0.9009837E+03  0.7818609E-02  0.9424353E-01
       -2   -1    0    0    0  501  0.00000000000E+00  0.00000000000E+00  0.84630347369E+03  0.84630347369E+03  0.25500000920E-02 0. -1.
        2   -1    0    0  501    0  0.00000000000E+00  0.00000000000E+00 -0.23979921920E+03  0.23979921921E+03  0.25500000920E-02 0.  1.
    10030    2    1    2    0    0  0.00000000000E+00  0.00000000000E+00  0.60650425449E+03  0.10861026929E+04  0.90098371174E+03 0.  0.
        4    1    3    3  502    0  0.24053462090E+03  0.63927535468E+02 -0.14939514968E+03  0.29028289183E+03  0.12699999809E+01 0.  1.
       -4    1    3    3    0  502 -0.24053462090E+03 -0.63927535468E+02  0.75589940417E+03  0.79581980107E+03  0.12699999809E+01 0. -1.
</event>
<event>
 5   0  0.6863405E-03  0.8941139E+03  0.7818609E-02  0.9432969E-01
       -2   -1    0    0    0  501  0.00000000000E+00  0.00000000000E+00  0.22640803484E+03  0.22640803486E+03  0.25500000920E-02 0. -1.
        2   -1    0    0  501    0  0.00000000000E+00  0.00000000000E+00 -0.88274211580E+03  0.88274211580E+03  0.25500000920E-02 0.  1.
    10030    2    1    2    0    0  0.00000000000E+00  0.00000000000E+00 -0.65633408096E+03  0.11091501507E+04  0.89411388026E+03 0.  0.
        1    1    3    3  502    0 -0.17922483686E+03  0.27443423507E+03  0.48962362534E+02  0.33141062822E+03  0.50400001928E-02 0. -1.
       -1    1    3    3    0  502  0.17922483686E+03 -0.27443423507E+03 -0.70529644349E+03  0.77773952244E+03  0.50400001928E-02 0.  1.
</event>
<event>
 5   0  0.3969536E-03  0.8976003E+03  0.7818609E-02  0.9428586E-01
        1   -1    0    0  501    0  0.00000000000E+00  0.00000000000E+00  0.22739262644E+04  0.22739262644E+04  0.50400001928E-02 0. -1.
       -1   -1    0    0    0  501  0.00000000000E+00  0.00000000000E+00 -0.88578771221E+02  0.88578771365E+02  0.50400001928E-02 0.  1.
    10030    2    1    2    0    0  0.00000000000E+00  0.00000000000E+00  0.21853474932E+04  0.23625050357E+04  0.89760034430E+03 0.  0.
        1    1    3    3  502    0 -0.93485885455E+02  0.43129566991E+02 -0.57077142267E+02  0.11771818264E+03  0.50400001928E-02 0.  1.
       -1    1    3    3    0  502  0.93485885455E+02 -0.43129566991E+02  0.22424246354E+04  0.22447868531E+04  0.50400001928E-02 0. -1.
</event>
<event>
 5   0  0.3943549E-03  0.8982572E+03  0.7818609E-02  0.9427763E-01
        1   -1    0    0  501    0  0.00000000000E+00  0.00000000000E+00  0.68765581860E+03  0.68765581862E+03  0.50400001928E-02 0.  1.
       -1   -1    0    0    0  501  0.00000000000E+00  0.00000000000E+00 -0.29333935752E+03  0.29333935756E+03  0.50400001928E-02 0. -1.
    10030    2    1    2    0    0  0.00000000000E+00  0.00000000000E+00  0.39431646108E+03  0.98099517618E+03  0.89825723721E+03 0.  0.
        3    1    3    3  502    0  0.69479746765E+01 -0.34203076978E+03 -0.12064970433E+03  0.36275292305E+03  0.10100000352E+00 0. -1.
       -3    1    3    3    0  502 -0.69479746765E+01  0.34203076978E+03  0.51496616541E+03  0.61824225312E+03  0.10100000352E+00 0.  1.
</event>
<event>
 5   0  0.3969536E-03  0.8888375E+03  0.7818609E-02  0.9439644E-01
       -1   -1    0    0    0  501  0.00000000000E+00  0.00000000000E+00  0.34232726683E+03  0.34232726687E+03  0.50400001928E-02 0. -1.
        1   -1    0    0  501    0  0.00000000000E+00  0.00000000000E+00 -0.57695673749E+03  0.57695673751E+03  0.50400001928E-02 0.  1.
    10030    2    1    2    0    0  0.00000000000E+00  0.00000000000E+00 -0.23462947065E+03  0.91928400438E+03  0.88883749483E+03 0.  0.
        1    1    3    3  502    0  0.43760332423E+03  0.61186218770E+02 -0.16656522903E+03  0.47221223860E+03  0.50400001928E-02 0.  1.
       -1    1    3    3    0  502 -0.43760332423E+03 -0.61186218770E+02 -0.68064241630E+02  0.44707176578E+03  0.50400001928E-02 0. -1.
</event>
<event>
 5   0  0.6534628E-03  0.9002789E+03  0.7818609E-02  0.9425233E-01
       -2   -1    0    0    0  501  0.00000000000E+00  0.00000000000E+00  0.31744114992E+03  0.31744114993E+03  0.25500000920E-02 0. -1.
        2   -1    0    0  501    0  0.00000000000E+00  0.00000000000E+00 -0.63830894146E+03  0.63830894146E+03  0.25500000920E-02 0.  1.
    10030    2    1    2    0    0  0.00000000000E+00  0.00000000000E+00 -0.32086779153E+03  0.95575009139E+03  0.90027889987E+03 0.  0.
        4    1    3    3  502    0  0.41161862411E+03 -0.11192932493E+02 -0.35348668803E+03  0.54268740999E+03  0.12699999809E+01 0.  1.
       -4    1    3    3    0  502 -0.41161862411E+03  0.11192932493E+02  0.32618896493E+02  0.41306268140E+03  0.12699999809E+01 0. -1.
</event>
<event>
 5   0  0.6609191E-03  0.9257079E+03  0.7818609E-02  0.9394004E-01
       -2   -1    0    0    0  501  0.00000000000E+00  0.00000000000E+00  0.24266432611E+03  0.24266432612E+03  0.25500000920E-02 0. -1.
        2   -1    0    0  501    0  0.00000000000E+00  0.00000000000E+00 -0.88284001952E+03  0.88284001952E+03  0.25500000920E-02 0.  1.
    10030    2    1    2    0    0  0.00000000000E+00  0.00000000000E+00 -0.64017569341E+03  0.11255043456E+04  0.92570789865E+03 0.  0.
        2    1    3    3  502    0  0.17890643555E+03 -0.38448157832E+03 -0.94584197250E+02  0.43448793669E+03  0.25500000920E-02 0. -1.
       -2    1    3    3    0  502 -0.17890643555E+03  0.38448157832E+03 -0.54559149616E+03  0.69101640895E+03  0.25500000920E-02 0.  1.
</event>
<event>
 5   0  0.6609191E-03  0.8999978E+03  0.7818609E-02  0.9425584E-01
        2   -1    0    0  501    0  0.00000000000E+00  0.00000000000E+00  0.90649366248E+03  0.90649366249E+03  0.25500000920E-02 0. -1.
       -2   -1    0    0    0  501  0.00000000000E+00  0.00000000000E+00 -0.22338710990E+03  0.22338710991E+03  0.25500000920E-02 0.  1.
    10030    2    1    2    0    0  0.00000000000E+00  0.00000000000E+00  0.68310655258E+03  0.11298807724E+04  0.89999777648E+03 0.  0.
        2    1    3    3  502    0 -0.29021347898E+03 -0.79742450531E+02 -0.78435621438E+02  0.31102229585E+03  0.25500000920E-02 0.  1.
       -2    1    3    3    0  502  0.29021347898E+03  0.79742450531E+02  0.76154217402E+03  0.81885847655E+03  0.25500000920E-02 0. -1.
</event>
<event>
 5   0  0.6863405E-03  0.9113383E+03  0.7818609E-02  0.9411518E-01
        2   -1    0    0  501    0  0.00000000000E+00  0.00000000000E+00  0.13973536366E+04  0.13973536366E+04  0.25500000920E-02 0.  1.
       -2   -1    0    0    0  501  0.00000000000E+00  0.00000000000E+00 -0.14859113449E+03  0.14859113452E+03  0.25500000920E-02 0. -1.
    10030    2    1    2    0    0  0.00000000000E+00  0.00000000000E+00  0.12487625021E+04  0.15459447711E+04  0.91133827346E+03 0.  0.
        1    1    3    3  502    0 -0.68310241145E+02 -0.27610975366E+03  0.20492954166E+02  0.28517160852E+03  0.50400001928E-02 0. -1.
       -1    1    3    3    0  502  0.68310241145E+02  0.27610975366E+03  0.12282695479E+04  0.12607731626E+04  0.50400001928E-02 0.  1.
</event>
<event>
 5   0  0.6724773E-03  0.8958200E+03  0.7818609E-02  0.9430822E-01
        2   -1    0    0  501    0  0.00000000000E+00  0.00000000000E+00  0.54124434521E+03  0.54124434522E+03  0.25500000920E-02 0.  1.
       -2   -1    0    0    0  501  0.00000000000E+00  0.00000000000E+00 -0.37067062345E+03  0.37067062346E+03  0.25500000920E-02 0. -1.
    10030    2    1    2    0    0  0.00000000000E+00  0.00000000000E+00  0.17057372176E+03  0.91191496868E+03  0.89582002408E+03 0.  0.
        5    1    3    3  502    0 -0.10556715657E+03  0.38573616281E+03 -0.11999055612E+03  0.41756033744E+03  0.46999998093E+01 0. -1.
       -5    1    3    3    0  502  0.10556715657E+03 -0.38573616281E+03  0.29056427788E+03  0.49435463124E+03  0.46999998093E+01 0.  1.
</event>
<event>
 5   0  0.3927993E-03  0.9236944E+03  0.7818609E-02  0.9396438E-01
       -1   -1    0    0    0  501  0.00000000000E+00  0.00000000000E+00  0.35573269789E+03  0.35573269793E+03  0.50400001928E-02 0. -1.
        1   -1    0    0  501    0  0.00000000000E+00  0.00000000000E+00 -0.59961551458E+03  0.59961551460E+03  0.50400001928E-02 0.  1.
    10030    2    1    2    0    0  0.00000000000E+00  0.00000000000E+00 -0.24388281669E+03  0.95534821253E+03  0.92369441858E+03 0.  0.
        2    1    3    3  502    0  0.17948650702E+03  0.98231134505E+02 -0.55018120735E+03  0.58699584574E+03  0.25500000920E-02 0.  1.
       -2    1    3    3    0  502 -0.17948650702E+03 -0.98231134505E+02  0.30629839067E+03  0.36835236679E+03  0.25500000920E-02 0. -1.
</event>
<event>
 5   0  0.3943549E-03  0.9009943E+03  0.7818609E-02  0.9424339E-01
       -1   -1    0    0    0  501  0.00000000000E+00  0.00000000000E+00  0.30535692103E+03  0.30535692107E+03  0.50400001928E-02 0. -1.
        1   -1    0    0  501    0  0.00000000000E+00  0.00000000000E+00 -0.66462448188E+03  0.66462448189E+03  0.50400001928E-02 0.  1.
    10030    2    1    2    0    0  0.00000000000E+00  0.00000000000E+00 -0.35926756085E+03  0.96998140297E+03  0.90099430732E+03 0.  0.
        3    1    3    3  502    0  0.22224252633E+03  0.20767910264E+03 -0.53738053615E+03  0.61749510202E+03  0.10100000352E+00 0.  1.
       -3    1    3    3    0  502 -0.22224252633E+03 -0.20767910264E+03  0.17811297530E+03  0.35248630095E+03  0.10100000352E+00 0. -1.
</event>
<event>
 5   0  0.3969536E-03  0.9000413E+03  0.7818609E-02  0.9425530E-01
        1   -1    0    0  501    0  0.00000000000E+00  0.00000000000E+00  0.24177697105E+04  0.24177697105E+04  0.50400001928E-02 0.  1.
       -1   -1    0    0    0  501  0.00000000000E+00  0.00000000000E+00 -0.83762570711E+02  0.83762570863E+02  0.50400001928E-02 0. -1.
    10030    2    1    2    0    0  0.00000000000E+00  0.00000000000E+00  0.23340071398E+04  0.25015322814E+04  0.90004134691E+03 0.  0.
        1    1    3    3  502    0  0.74003112110E+02 -0.29497046432E+03  0.24505174514E+03  0.39055651735E+03  0.50400001928E-02 0. -1.
       -1    1    3    3    0  502 -0.74003112110E+02  0.29497046432E+03  0.20889553947E+04  0.21109757640E+04  0.50400001928E-02 0.  1.
</event>
<event>
 5   0  0.3927993E-03  0.9011265E+03  0.7818609E-02  0.9424174E-01
        1   -1    0    0  501    0  0.00000000000E+00  0.00000000000E+00  0.16452148413E+04  0.16452148413E+04  0.50400001928E-02 0. -1.
       -1   -1    0    0    0  501  0.00000000000E+00  0.00000000000E+00 -0.12339253487E+03  0.12339253498E+03  0.50400001928E-02 0.  1.
    10030    2    1    2    0    0  0.00000000000E+00  0.00000000000E+00  0.15218223064E+04  0.17686073763E+04  0.90112647231E+03 0.  0.
        2    1    3    3  502    0  0.41831666645E+03  0.11477940730E+03  0.52178758342E+03  0.67854655551E+03  0.25500000920E-02 0. -1.
       -2    1    3    3    0  502 -0.41831666645E+03 -0.11477940730E+03  0.10000347230E+04  0.10900608208E+04  0.25500000920E-02 0.  1.
</event>
<event>
 5   0  0.6524705E-03  0.8968349E+03  0.7818609E-02  0.9429547E-01
       -2   -1    0    0    0  501  0.00000000000E+00  0.00000000000E+00  0.43095748237E+03  0.43095748238E+03  0.25500000920E-02 0.  1.
        2   -1    0    0  501    0  0.00000000000E+00  0.00000000000E+00 -0.46658484591E+03  0.46658484592E+03  0.25500000920E-02 0. -1.
    10030    2    1    2    0    0  0.00000000000E+00  0.00000000000E+00 -0.35627363540E+02  0.89754232829E+03  0.89683494694E+03 0.  0.
        3    1    3    3  502    0 -0.22660800172E+03 -0.22460060470E+03 -0.33315204187E+03  0.46128831686E+03  0.10100000352E+00 0. -1.
       -3    1    3    3    0  502  0.22660800172E+03  0.22460060470E+03  0.29752467833E+03  0.43625401143E+03  0.10100000352E+00 0.  1.
</event>
<event>
 5   0  0.3927993E-03  0.9341401E+03  0.7818609E-02  0.9383883E-01
       -1   -1    0    0    0  501  0.00000000000E+00  0.00000000000E+00  0.40678537178E+03  0.40678537181E+03  0.50400001928E-02 0.  1.
        1   -1    0    0  501    0  0.00000000000E+00  0.00000000000E+00 -0.53628874718E+03  0.53628874720E+03  0.50400001928E-02 0. -1.
    10030    2    1    2    0    0  0.00000000000E+00  0.00000000000E+00 -0.12950337540E+03  0.94307411901E+03  0.93414006964E+03 0.  0.
        2    1    3    3  502    0  0.42966496694E+03 -0.35697254750E+02 -0.24610303601E+03  0.49644031076E+03  0.25500000920E-02 0. -1.
       -2    1    3    3    0  502 -0.42966496694E+03  0.35697254750E+02  0.11659966061E+03  0.44663380825E+03  0.25500000920E-02 0.  1.
</event>
<event>
 5   0  0.6724773E-03  0.8911846E+03  0.7818609E-02  0.9436669E-01
       -2   -1    0    0    0  501  0.00000000000E+00  0.00000000000E+00  0.11588507354E+03  0.11588507357E+03  0.25500000920E-02 0.  1.
        2   -1    0    0  501    0  0.00000000000E+00  0.00000000000E+00 -0.17133567901E+04  0.17133567901E+04  0.25500000920E-02 0. -1.
    10030    2    1    2    0    0  0.00000000000E+00  0.00000000000E+00 -0.15974717165E+04  0.18292418636E+04  0.89118455473E+03 0.  0.
        5    1    3    3  502    0 -0.49910209366E+02 -0.88428841489E+02 -0.16892401519E+04  0.16922957986E+04  0.46999998093E+01 0. -1.
       -5    1    3    3    0  502  0.49910209366E+02  0.88428841489E+02  0.91768435392E+02  0.13694606507E+03  0.46999998093E+01 0.  1.
</event>
<event>
 5   0  0.6863405E-03  0.8989144E+03  0.7818609E-02  0.9426940E-01
        2   -1    0    0  501    0  0.00000000000E+00  0.00000000000E+00  0.94910544075E+03  0.94910544075E+03  0.25500000920E-02 0.  1.
       -2   -1    0    0    0  501  0.00000000000E+00  0.00000000000E+00 -0.21284439080E+03  0.21284439081E+03  0.25500000920E-02 0. -1.
    10030    2    1    2    0    0  0.00000000000E+00  0.00000000000E+00  0.73626104995E+03  0.11619498316E+04  0.89891438825E+03 0.  0.
        1    1    3    3  502    0 -0.35752948392E+03  0.18804986037E+03  0.11344383455E+03  0.41959454892E+03  0.50400001928E-02 0. -1.
       -1    1    3    3    0  502  0.35752948392E+03 -0.18804986037E+03  0.62281721540E+03  0.74235528265E+03  0.50400001928E-02 0.  1.
</event>
<event>
 5   0  0.3794006E-03  0.8994937E+03  0.7818609E-02  0.9426215E-01
        1   -1    0    0  501    0  0.00000000000E+00  0.00000000000E+00  0.79294016648E+03  0.79294016650E+03  0.50400001928E-02 0. -1.
       -1   -1    0    0    0  501  0.00000000000E+00  0.00000000000E+00 -0.25509141984E+03  0.25509141989E+03  0.50400001928E-02 0.  1.
    10030    2    1    2    0    0  0.00000000000E+00  0.00000000000E+00  0.53784874664E+03  0.10480315864E+04  0.89949370860E+03 0.  0.
        5    1    3    3  502    0  0.19840879564E+03 -0.26979744344E+03 -0.80797509722E+02  0.34453887770E+03  0.46999998093E+01 0.  1.
       -5    1    3    3    0  502 -0.19840879564E+03  0.26979744344E+03  0.61864625636E+03  0.70349270869E+03  0.46999998093E+01 0. -1.
</event>
<event>
 5   0  0.3943549E-03  0.8951306E+03  0.7818609E-02  0.9431689E-01
        1   -1    0    0  501    0  0.00000000000E+00  0.00000000000E+00  0.15451599539E+04  0.15451599539E+04  0.50400001928E-02 0. -1.
       -1   -1    0    0    0  501  0.00000000000E+00  0.00000000000E+00 -0.12964009362E+03  0.12964009372E+03  0.50400001928E-02 0.  1.
    10030    2    1    2    0    0  0.00000000000E+00  0.00000000000E+00  0.14155198603E+04  0.16748000477E+04  0.89513056294E+03 0.  0.
        3    1    3    3  502    0 -0.29447203398E+03  0.23440736150E+03  0.25462692500E+03  0.45441772749E+03  0.10100000352E+00 0. -1.
       -3    1    3    3    0  502  0.29447203398E+03 -0.23440736150E+03  0.11608929353E+04  0.12203823202E+04  0.10100000352E+00 0.  1.
</event>
<event>
 5   0  0.3998066E-03  0.8989955E+03  0.7818609E-02  0.9426838E-01
       -1   -1    0    0    0  501  0.00000000000E+00  0.00000000000E+00  0.14827861725E+03  0.14827861733E+03  0.50400001928E-02 0. -1.
        1   -1    0    0  501    0  0.00000000000E+00  0.00000000000E+00 -0.13626255786E+04  0.13626255786E+04  0.50400001928E-02 0.  1.
    10030    2    1    2    0    0  0.00000000000E+00  0.00000000000E+00 -0.12143469613E+04  0.15109041959E+04  0.89899552098E+03 0.  0.
        4    1    3    3  502    0 -0.25145517958E+02  0.36892222095E+03 -0.10366818594E+04  0.11006574366E+04  0.12699999809E+01 0.  1.
       -4    1    3    3    0  502  0.25145517958E+02 -0.36892222095E+03 -0.17766510186E+03  0.41024675928E+03  0.12699999809E+01 0. -1.
</event>
<event>
 5   0  0.3794006E-03  0.8964188E+03  0.7818609E-02  0.9430069E-01
        1   -1    0    0  501    0  0.00000000000E+00  0.00000000000E+00  0.98529491396E+02  0.98529491525E+02  0.50400001928E-02 0. -1.
       -1   -1    0    0    0  501  0.00000000000E+00  0.00000000000E+00 -0.20388990232E+04  0.20388990232E+04  0.50400001928E-02 0.  1.
    10030    2    1    2    0    0  0.00000000000E+00  0.00000000000E+00 -0.19403695318E+04  0.21374285147E+04  0.89641883939E+03 0.  0.
        5    1    3    3  502    0  0.42371109747E+03 -0.14530786586E+03 -0.93448834157E+03  0.10363088442E+04  0.46999998093E+01 0. -1.
       -5    1    3    3    0  502 -0.42371109747E+03  0.14530786586E+03 -0.10058811902E+04  0.11011196705E+04  0.46999998093E+01 0.  1.
</event>
<event>
 5   0  0.6609191E-03  0.9153547E+03  0.7818609E-02  0.9406588E-01
       -2   -1    0    0    0  501  0.00000000000E+00  0.00000000000E+00  0.11584255740E+03  0.11584255742E+03  0.25500000920E-02 0. -1.
        2   -1    0    0  501    0  0.00000000000E+00  0.00000000000E+00 -0.18082176253E+04  0.18082176253E+04  0.25500000920E-02 0.  1.
    10030    2    1    2    0    0  0.00000000000E+00  0.00000000000E+00 -0.16923750679E+04  0.19240601827E+04  0.91535469425E+03 0.  0.
        2    1    3    3  502    0  0.15952871039E+03 -0.99717429822E+02 -0.17231846457E+04  0.17334238658E+04  0.25500000920E-02 0.  1.
       -2    1    3    3    0  502 -0.15952871039E+03  0.99717429822E+02  0.30809577795E+02  0.19063631695E+03  0.25500000920E-02 0. -1.
</event>
<event>
 5   0  0.3927993E-03  0.9021067E+03  0.7818609E-02  0.9422952E-01
        1   -1    0    0  501    0  0.00000000000E+00  0.00000000000E+00  0.15640852906E+04  0.15640852906E+04  0.50400001928E-02 0. -1.
       -1   -1    0    0    0  501  0.00000000000E+00  0.00000000000E+00 -0.13007546619E+03  0.13007546629E+03  0.50400001928E-02 0.  1.
    10030    2    1    2    0    0  0.00000000000E+00  0.00000000000E+00  0.14340098244E+04  0.16941607569E+04  0.90210669751E+03 0.  0.
        2    1    3    3  502    0  0.16812078532E+03 -0.66855286348E+02  0.14929525564E+04  0.15038755146E+04  0.25500000920E-02 0. -1.
       -2    1    3    3    0  502 -0.16812078532E+03  0.66855286348E+02 -0.58942731991E+02  0.19028524228E+03  0.25500000920E-02 0.  1.
</event>
<event>
 5   0  0.6724773E-03  0.8969683E+03  0.7818609E-02  0.9429379E-01
       -2   -1    0    0    0  501  0.00000000000E+00  0.00000000000E+00  0.18889173083E+03  0.18889173085E+03  0.25500000920E-02 0. -1.
        2   -1    0    0  501    0  0.00000000000E+00  0.00000000000E+00 -0.10648324902E+04  0.10648324902E+04  0.25500000920E-02 0.  1.
    10030    2    1    2    0    0  0.00000000000E+00  0.00000000000E+00 -0.87594075936E+03  0.12537242210E+04  0.89696834309E+03 0.  0.
        5    1    3    3  502    0  0.29425018802E+03  0.33706332020E+03 -0.39554946993E+03  0.59722385094E+03  0.46999998093E+01 0.  1.
       -5    1    3    3    0  502 -0.29425018802E+03 -0.33706332020E+03 -0.48039128943E+03  0.65650037010E+03  0.46999998093E+01 0. -1.
</event>
<event>
 5   0  0.3969536E-03  0.8144048E+03  0.7818609E-02  0.9539398E-01
        1   -1    0    0  501    0  0.00000000000E+00  0.00000000000E+00  0.48455932587E+03  0.48455932589E+03  0.50400001928E-02 0. -1.
       -1   -1    0    0    0  501  0.00000000000E+00  0.00000000000E+00 -0.34219501350E+03  0.34219501354E+03  0.50400001928E-02 0.  1.
    10030    2    1    2    0    0  0.00000000000E+00  0.00000000000E+00  0.14236431236E+03  0.82675433943E+03  0.81440477671E+03 0.  0.
        1    1    3    3  502    0  0.35963634441E+03  0.37075145482E+02 -0.11901123010E+03  0.38062650926E+03  0.50400001928E-02 0.  1.
       -1    1    3    3    0  502 -0.35963634441E+03 -0.37075145482E+02  0.26137554246E+03  0.44612783018E+03  0.50400001928E-02 0. -1.
</event>
<event>
 5   0  0.6524705E-03  0.8984094E+03  0.7818609E-02  0.9427572E-01
       -2   -1    0    0    0  501  0.00000000000E+00  0.00000000000E+00  0.26901293707E+03  0.26901293708E+03  0.25500000920E-02 0. -1.
        2   -1    0    0  501    0  0.00000000000E+00  0.00000000000E+00 -0.75009344443E+03  0.75009344444E+03  0.25500000920E-02 0.  1.
    10030    2    1    2    0    0  0.00000000000E+00  0.00000000000E+00 -0.48108050736E+03  0.10191063815E+04  0.89840935118E+03 0.  0.
        3    1    3    3  502    0 -0.10182392745E+03 -0.41417674462E+03 -0.80624355689E+02  0.43406311167E+03  0.10100000352E+00 0. -1.
       -3    1    3    3    0  502  0.10182392745E+03  0.41417674462E+03 -0.40045615167E+03  0.58504326985E+03  0.10100000352E+00 0.  1.
</event>
<event>
 5   0  0.6724773E-03  0.9037179E+03  0.7818609E-02  0.9420946E-01
        2   -1    0    0  501    0  0.00000000000E+00  0.00000000000E+00  0.23037156960E+04  0.23037156960E+04  0.25500000920E-02 0. -1.
       -2   -1    0    0    0  501  0.00000000000E+00  0.00000000000E+00 -0.88629221768E+02  0.88629221805E+02  0.25500000920E-02 0.  1.
    10030    2    1    2    0    0  0.00000000000E+00  0.00000000000E+00  0.22150864742E+04  0.23923449178E+04  0.90371794130E+03 0.  0.
        5    1    3    3  502    0  0.40403706482E+03  0.19884285865E+03  0.12055265932E+04  0.12868958346E+04  0.46999998093E+01 0. -1.
       -5    1    3    3    0  502 -0.40403706482E+03 -0.19884285865E+03  0.10095598810E+04  0.11054490832E+04  0.46999998093E+01 0.  1.
</event>
<event>
 5   0  0.6724773E-03  0.9002494E+03  0.7818609E-02  0.9425270E-01
        2   -1    0    0  501    0  0.00000000000E+00  0.00000000000E+00  0.29508153096E+03  0.29508153097E+03  0.25500000920E-02 0.  1.
       -2   -1    0    0    0  501  0.00000000000E+00  0.00000000000E+00 -0.68663140295E+03  0.68663140296E+03  0.25500000920E-02 0. -1.
    10030    2    1    2    0    0  0.00000000000E+00  0.00000000000E+00 -0.39154987199E+03  0.98171293392E+03  0.90024940010E+03 0.  0.
        5    1    3    3  502    0 -0.26691731655E+03  0.35998511684E+02  0.19748152213E+03  0.33400866500E+03  0.46999998093E+01 0.  1.
       -5    1    3    3    0  502  0.26691731655E+03 -0.35998511684E+02 -0.58903139412E+03  0.64770426892E+03  0.46999998093E+01 0. -1.
</event>
<event>
 5   0  0.6524705E-03  0.8980027E+03  0.7818609E-02  0.9428082E-01
       -2   -1    0    0    0  501  0.00000000000E+00  0.00000000000E+00  0.11446256693E+03  0.11446256695E+03  0.25500000920E-02 0.  1.
        2   -1    0    0  501    0  0.00000000000E+00  0.00000000000E+00 -0.17612938963E+04  0.17612938963E+04  0.25500000920E-02 0. -1.
    10030    2    1    2    0    0  0.00000000000E+00  0.00000000000E+00 -0.16468313294E+04  0.18757564633E+04  0.89800271829E+03 0.  0.
        3    1    3    3  502    0  0.11789425310E+03  0.17433982804E+02  0.80822181291E+02  0.14399733977E+03  0.10100000352E+00 0.  1.
       -3    1    3    3    0  502 -0.11789425310E+03 -0.17433982804E+02 -0.17276535107E+04  0.17317591235E+04  0.10100000352E+00 0. -1.
</event>
<event>
 5   0  0.3969536E-03  0.9167832E+03  0.7818609E-02  0.9404841E-01
       -1   -1    0    0    0  501  0.00000000000E+00  0.00000000000E+00  0.18877370586E+03  0.18877370593E+03  0.50400001928E-02 0.  1.
        1   -1    0    0  501    0  0.00000000000E+00  0.00000000000E+00 -0.11130939629E+04  0.11130939629E+04  0.50400001928E-02 0. -1.
    10030    2    1    2    0    0  0.00000000000E+00  0.00000000000E+00 -0.92432025700E+03  0.13018676688E+04  0.91678322933E+03 0.  0.
        1    1    3    3  502    0 -0.35364647401E+03 -0.97841809765E+02 -0.85230661812E+03  0.92793610752E+03  0.50400001928E-02 0. -1.
       -1    1    3    3    0  502  0.35364647401E+03  0.97841809765E+02 -0.72013638881E+02  0.37393156129E+03  0.50400001928E-02 0.  1.
</event>
<event>
 5   0  0.3927993E-03  0.9035012E+03  0.7818609E-02  0.9421215E-01
        1   -1    0    0  501    0  0.00000000000E+00  0.00000000000E+00  0.53038429924E+03  0.53038429927E+03  0.50400001928E-02 0. -1.
       -1   -1    0    0    0  501  0.00000000000E+00  0.00000000000E+00 -0.38477499930E+03  0.38477499933E+03  0.50400001928E-02 0.  1.
    10030    2    1    2    0    0  0.00000000000E+00  0.00000000000E+00  0.14560929994E+03  0.91515929860E+03  0.90350123054E+03 0.  0.
        2    1    3    3  502    0  0.22223825723E+03 -0.37902871841E+03  0.17916433960E+03  0.47450234240E+03  0.25500000920E-02 0. -1.
       -2    1    3    3    0  502 -0.22223825723E+03  0.37902871841E+03 -0.33555039658E+02  0.44065695620E+03  0.25500000920E-02 0.  1.
</event>
<event>
 5   0  0.3794006E-03  0.8968787E+03  0.7818609E-02  0.9429492E-01
        1   -1    0    0  501    0  0.00000000000E+00  0.00000000000E+00  0.62666703498E+03  0.62666703500E+03  0.50400001928E-02 0.  1.
       -1   -1    0    0    0  501  0.00000000000E+00  0.00000000000E+00 -0.32090064879E+03  0.32090064883E+03  0.50400001928E-02 0. -1.
    10030    2    1    2    0    0  0.00000000000E+00  0.00000000000E+00  0.30576638619E+03  0.94756768383E+03  0.89687871672E+03 0.  0.
        5    1    3    3  502    0 -0.33549778818E+03  0.48638103967E+02 -0.15722092524E+03  0.37371772819E+03  0.46999998093E+01 0. -1.
       -5    1    3    3    0  502  0.33549778818E+03 -0.48638103967E+02  0.46298731144E+03  0.57384995564E+03  0.46999998093E+01 0.  1.
</event>
<event>
 5   0  0.6609191E-03  0.8940041E+03  0.7818609E-02  0.9433108E-01
       -2   -1    0    0    0  501  0.00000000000E+00  0.00000000000E+00  0.31608695645E+03  0.31608695646E+03  0.25500000920E-02 0.  1.
        2   -1    0    0  501    0  0.00000000000E+00  0.00000000000E+00 -0.63213874839E+03  0.63213874839E+03  0.25500000920E-02 0. -1.
    10030    2    1    2    0    0  0.00000000000E+00  0.00000000000E+00 -0.31605179194E+03  0.94822570485E+03  0.89400405600E+03 0.  0.
        2    1    3    3  502    0  0.39248143889E+02  0.27841706006E+03  0.21054717713E+03  0.35126427363E+03  0.25500000920E-02 0. -1.
       -2    1    3    3    0  502 -0.39248143889E+02 -0.27841706006E+03 -0.52659896907E+03  0.59696143121E+03  0.25500000920E-02 0.  1.
</event>
<event>
 5   0  0.3943549E-03  0.8996507E+03  0.7818609E-02  0.9426018E-01
       -1   -1    0    0    0  501  0.00000000000E+00  0.00000000000E+00  0.17649773174E+03  0.17649773181E+03  0.50400001928E-02 0. -1.
        1   -1    0    0  501    0  0.00000000000E+00  0.00000000000E+00 -0.11464330850E+04  0.11464330850E+04  0.50400001928E-02 0.  1.
    10030    2    1    2    0    0  0.00000000000E+00  0.00000000000E+00 -0.96993535325E+03  0.13229308168E+04  0.89965068587E+03 0.  0.
        3    1    3    3  502    0 -0.12162692442E+03  0.19730520069E+03  0.81927025761E+02  0.24583429117E+03  0.10100000352E+00 0. -1.
       -3    1    3    3    0  502  0.12162692442E+03 -0.19730520069E+03 -0.10518623790E+04  0.10770965256E+04  0.10100000352E+00 0.  1.
</event>
<event>
 5   0  0.3998066E-03  0.8991283E+03  0.7818609E-02  0.9426672E-01
       -1   -1    0    0    0  501  0.00000000000E+00  0.00000000000E+00  0.51762024591E+03  0.51762024594E+03  0.50400001928E-02 0. -1.
        1   -1    0    0  501    0  0.00000000000E+00  0.00000000000E+00 -0.39045596726E+03  0.39045596729E+03  0.50400001928E-02 0.  1.
    10030    2    1    2    0    0  0.00000000000E+00  0.00000000000E+00  0.12716427865E+03  0.90807621323E+03  0.89912827521E+03 0.  0.
        4    1    3    3  502    0 -0.44004067707E+02 -0.40695122813E+03 -0.12417287218E+03  0.42774545601E+03  0.12699999809E+01 0.  1.
       -4    1    3    3    0  502  0.44004067707E+02  0.40695122813E+03  0.25133715083E+03  0.48033075723E+03  0.12699999809E+01 0. -1.
</event>
<event>
 5   0  0.6534628E-03  0.9033854E+03  0.7818609E-02  0.9421359E-01
        2   -1    0    0  501    0  0.00000000000E+00  0.00000000000E+00  0.68691776551E+03  0.68691776552E+03  0.25500000920E-02 0. -1.
       -2   -1    0    0    0  501  0.00000000000E+00  0.00000000000E+00 -0.29701708679E+03  0.29701708680E+03  0.25500000920E-02 0.  1.
    10030    2    1    2    0    0  0.00000000000E+00  0.00000000000E+00  0.38990067872E+03  0.98393485232E+03  0.90338544063E+03 0.  0.
        4    1    3    3  502    0 -0.80737460227E+02  0.39099996639E+03  0.42503268367E+03  0.58314141191E+03  0.12699999809E+01 0. -1.
       -4    1    3    3    0  502  0.80737460227E+02 -0.39099996639E+03 -0.35132004945E+02  0.40079344040E+03  0.12699999809E+01 0.  1.
</event>
<event>
 5   0  0.3998066E-03  0.8987976E+03  0.7818609E-02  0.9427086E-01
        1   -1    0    0  501    0  0.00000000000E+00  0.00000000000E+00  0.79194091214E+03  0.79194091216E+03  0.50400001928E-02 0. -1.
       -1   -1    0    0    0  501  0.00000000000E+00  0.00000000000E+00 -0.25501811826E+03  0.25501811831E+03  0.50400001928E-02 0.  1.
    10030    2    1    2    0    0  0.00000000000E+00  0.00000000000E+00  0.53692279389E+03  0.10469590305E+04  0.89879759950E+03 0.  0.
        4    1    3    3  502    0  0.28582092394E+03 -0.39082710581E+02 -0.13292264792E+03  0.31763359718E+03  0.12699999809E+01 0.  1.
       -4    1    3    3    0  502 -0.28582092394E+03  0.39082710581E+02  0.66984544180E+03  0.72932543328E+03  0.12699999809E+01 0. -1.
</event>
<event>
 5   0  0.3998066E-03  0.8839550E+03  0.7818609E-02  0.9445864E-01
       -1   -1    0    0    0  501  0.00000000000E+00  0.00000000000E+00  0.65160479980E+03  0.65160479982E+03  0.50400001928E-02 0.  1.
        1   -1    0    0  501    0  0.00000000000E+00  0.00000000000E+00 -0.29978924259E+03  0.29978924264E+03  0.50400001928E-02 0. -1.
    10030    2    1    2    0    0  0.00000000000E+00  0.00000000000E+00  0.35181555721E+03  0.95139404246E+03  0.88395499757E+03 0.  0.
        4    1    3    3  502    0  0.15450460545E+03 -0.47938910217E+02 -0.26677781848E+03  0.31199652169E+03  0.12699999809E+01 0. -1.
       -4    1    3    3    0  502 -0.15450460545E+03  0.47938910217E+02  0.61859337569E+03  0.63939752077E+03  0.12699999809E+01 0.  1.
</event>
<event>
 5   0  0.3969536E-03  0.8960445E+03  0.7818609E-02  0.9430540E-01
        1   -1    0    0  501    0  0.00000000000E+00  0.00000000000E+00  0.11485247849E+04  0.11485247849E+04  0.50400001928E-02 0. -1.
       -1   -1    0    0    0  501  0.00000000000E+00  0.00000000000E+00 -0.17476673037E+03  0.17476673044E+03  0.50400001928E-02 0.  1.
    10030    2    1    2    0    0  0.00000000000E+00  0.00000000000E+00  0.97375805453E+03  0.13232915154E+04  0.89604446645E+03 0.  0.
        1    1    3    3  502    0  0.35262624062E+03  0.11343573115E+01  0.89501823114E+03  0.96197930666E+03  0.50400001928E-02 0. -1.
       -1    1    3    3    0  502 -0.35262624062E+03 -0.11343573115E+01  0.78739823384E+02  0.36131220869E+03  0.50400001928E-02 0.  1.
</event>
<event>
 5   0  0.6863405E-03  0.8947162E+03  0.7818609E-02  0.9432211E-01
        2   -1    0    0  501    0  0.00000000000E+00  0.00000000000E+00  0.92618598698E+03  0.92618598699E+03  0.25500000920E-02 0. -1.
       -2   -1    0    0    0  501  0.00000000000E+00  0.00000000000E+00 -0.21607892089E+03  0.21607892091E+03  0.25500000920E-02 0.  1.
    10030    2    1    2    0    0  0.00000000000E+00  0.00000000000E+00  0.71010706609E+03  0.11422649079E+04  0.89471619773E+03 0.  0.
        1    1    3    3  502    0 -0.11741705733E+03  0.15510184730E+03  0.86935996568E+03  0.89085919109E+03  0.50400001928E-02 0. -1.
       -1    1    3    3    0  502  0.11741705733E+03 -0.15510184730E+03 -0.15925289959E+03  0.25140571680E+03  0.50400001928E-02 0.  1.
</event>
<event>
 5   0  0.3943549E-03  0.8998401E+03  0.7818609E-02  0.9425781E-01
       -1   -1    0    0    0  501  0.00000000000E+00  0.00000000000E+00  0.25899980651E+03  0.25899980656E+03  0.50400001928E-02 0. -1.
        1   -1    0    0  501    0  0.00000000000E+00  0.00000000000E+00 -0.78157600865E+03  0.78157600867E+03  0.50400001928E-02 0.  1.
    10030    2    1    2    0    0  0.00000000000E+00  0.00000000000E+00 -0.52257620214E+03  0.10405758152E+04  0.89984006367E+03 0.  0.
        3    1    3    3  502    0 -0.35763906104E+03  0.24326556444E+03 -0.11804278998E+03  0.44835024622E+03  0.10100000352E+00 0.  1.
       -3    1    3    3    0  502  0.35763906104E+03 -0.24326556444E+03 -0.40453341216E+03  0.59222556900E+03  0.10100000352E+00 0. -1.
</event>
<event>
 5   0  0.6609191E-03  0.8928546E+03  0.7818609E-02  0.9434558E-01
        2   -1    0    0  501    0  0.00000000000E+00  0.00000000000E+00  0.13453975831E+04  0.13453975831E+04  0.25500000920E-02 0.  1.
       -2   -1    0    0    0  501  0.00000000000E+00  0.00000000000E+00 -0.14813266935E+03  0.14813266938E+03  0.25500000920E-02 0. -1.
    10030    2    1    2    0    0  0.00000000000E+00  0.00000000000E+00  0.11972649138E+04  0.14935302525E+04  0.89285460261E+03 0.  0.
        2    1    3    3  502    0 -0.10340814013E+03 -0.25496129494E+03  0.11867179442E+04  0.12181945593E+04  0.25500000920E-02 0.  1.
       -2    1    3    3    0  502  0.10340814013E+03  0.25496129494E+03  0.10546969600E+02  0.27533569317E+03  0.25500000920E-02 0. -1.
</event>
<event>
 5   0  0.6524705E-03  0.9043554E+03  0.7818609E-02  0.9420153E-01
       -2   -1    0    0    0  501  0.00000000000E+00  0.00000000000E+00  0.53806633116E+03  0.53806633117E+03  0.25500000920E-02 0. -1.
        2   -1    0    0  501    0  0.00000000000E+00  0.00000000000E+00 -0.37999899967E+03  0.37999899968E+03  0.25500000920E-02 0.  1.
    10030    2    1    2    0    0  0.00000000000E+00  0.00000000000E+00  0.15806733150E+03  0.91806533085E+03  0.90435538944E+03 0.  0.
        3    1    3    3  502    0  0.33781735332E+02  0.25085135501E+03  0.45940996315E+03  0.52452371957E+03  0.10100000352E+00 0. -1.
       -3    1    3    3    0  502 -0.33781735332E+02 -0.25085135501E+03 -0.30134263165E+03  0.39354161127E+03  0.10100000352E+00 0.  1.
</event>
<event>
 5   0  0.2560250E-03  0.9003892E+03  0.7818609E-02  0.9425095E-01
        3   -1    0    0  501    0  0.00000000000E+00  0.00000000000E+00  0.80881685771E+03  0.80881686402E+03  0.10100000352E+00 0. -1.
       -3   -1    0    0    0  501  0.00000000000E+00  0.00000000000E+00 -0.25058224182E+03  0.25058226217E+03  0.10100000352E+00 0.  1.
    10030    2    1    2    0    0  0.00000000000E+00  0.00000000000E+00  0.55823461590E+03  0.10593991262E+04  0.90038915041E+03 0.  0.
        1    1    3    3  502    0  0.21305597208E+03 -0.33194910046E+03  0.23786393998E+02  0.39515673485E+03  0.50400001928E-02 0.  1.
       -1    1    3    3    0  502 -0.21305597208E+03  0.33194910046E+03  0.53444822190E+03  0.66424239134E+03  0.50400001928E-02 0. -1.
</event>
<event>
 5   0  0.3794006E-03  0.8981461E+03  0.7818609E-02  0.9427902E-01
       -1   -1    0    0    0  501  0.00000000000E+00  0.00000000000E+00  0.57691961225E+03  0.57691961227E+03  0.50400001928E-02 0.  1.
        1   -1    0    0  501    0  0.00000000000E+00  0.00000000000E+00 -0.34955753358E+03  0.34955753362E+03  0.50400001928E-02 0. -1.
    10030    2    1    2    0    0  0.00000000000E+00  0.00000000000E+00  0.22736207867E+03  0.92647714589E+03  0.89814608335E+03 0.  0.
        5    1    3    3  502    0  0.32005370095E+03  0.16182540942E+03  0.39243214003E+03  0.53164547317E+03  0.46999998093E+01 0.  1.
       -5    1    3    3    0  502 -0.32005370095E+03 -0.16182540942E+03 -0.16507006136E+03  0.39483167271E+03  0.46999998093E+01 0. -1.
</event>
<event>
 5   0  0.6534628E-03  0.9000277E+03  0.7818609E-02  0.9425547E-01
       -2   -1    0    0    0  501  0.00000000000E+00  0.00000000000E+00  0.89855699701E+02  0.89855699737E+02  0.25500000920E-02 0. -1.
        2   -1    0    0  501    0  0.00000000000E+00  0.00000000000E+00 -0.22537517771E+04  0.22537517771E+04  0.25500000920E-02 0.  1.
    10030    2    1    2    0    0  0.00000000000E+00  0.00000000000E+00 -0.21638960774E+04  0.23436074769E+04  0.90002765053E+03 0.  0.
        4    1    3    3  502    0 -0.14390106033E+03 -0.42513163810E+03 -0.11669815551E+04  0.12503167550E+04  0.12699999809E+01 0. -1.
       -4    1    3    3    0  502  0.14390106033E+03  0.42513163810E+03 -0.99691452228E+03  0.10932907219E+04  0.12699999809E+01 0.  1.
</event>
<event>
 5   0  0.6534628E-03  0.9020267E+03  0.7818609E-02  0.9423052E-01
        2   -1    0    0  501    0  0.00000000000E+00  0.00000000000E+00  0.12119505950E+04  0.12119505950E+04  0.25500000920E-02 0.  1.
       -2   -1    0    0    0  501  0.00000000000E+00  0.00000000000E+00 -0.16783937449E+03  0.16783937450E+03  0.25500000920E-02 0. -1.
    10030    2    1    2    0    0  0.00000000000E+00  0.00000000000E+00  0.10441112205E+04  0.13797899695E+04  0.90202667320E+03 0.  0.
        4    1    3    3  502    0 -0.16645536841E+03  0.25064144700E+03  0.81212342839E+01  0.30099184702E+03  0.12699999809E+01 0. -1.
       -4    1    3    3    0  502  0.16645536841E+03 -0.25064144700E+03  0.10359899863E+04  0.10787981225E+04  0.12699999809E+01 0.  1.
</event>
<event>
 5   0  0.6609191E-03  0.9111742E+03  0.7818609E-02  0.9411720E-01
        2   -1    0    0  501    0  0.00000000000E+00  0.00000000000E+00  0.13120107716E+03  0.13120107718E+03  0.25500000920E-02 0.  1.
       -2   -1    0    0    0  501  0.00000000000E+00  0.00000000000E+00 -0.15819961967E+04  0.15819961967E+04  0.25500000920E-02 0. -1.
    10030    2    1    2    0    0  0.00000000000E+00  0.00000000000E+00 -0.14507951195E+04  0.17131972739E+04  0.91117419868E+03 0.  0.
        2    1    3    3  502    0  0.27726311194E+03  0.35692677981E+03 -0.83321149134E+03  0.94789922919E+03  0.25500000920E-02 0.  1.
       -2    1    3    3    0  502 -0.27726311194E+03 -0.35692677981E+03 -0.61758362819E+03  0.76529804468E+03  0.25500000920E-02 0. -1.
</event>
<event>
 5   0  0.3794006E-03  0.8673367E+03  0.7818609E-02  0.9467359E-01
       -1   -1    0    0    0  501  0.00000000000E+00  0.00000000000E+00  0.25702935212E+03  0.25702935217E+03  0.50400001928E-02 0. -1.
        1   -1    0    0  501    0  0.00000000000E+00  0.00000000000E+00 -0.73169941989E+03  0.73169941991E+03  0.50400001928E-02 0.  1.
    10030    2    1    2    0    0  0.00000000000E+00  0.00000000000E+00 -0.47467006778E+03  0.98872877208E+03  0.86733667713E+03 0.  0.
        5    1    3    3  502    0 -0.25102630561E+02  0.26548852899E+03  0.15247754239E+03  0.30722270752E+03  0.46999998093E+01 0. -1.
       -5    1    3    3    0  502  0.25102630561E+02 -0.26548852899E+03 -0.62714761017E+03  0.68150606456E+03  0.46999998093E+01 0.  1.
</event>
<event>
 5   0  0.6524705E-03  0.9121330E+03  0.7818609E-02  0.9410540E-01
        2   -1    0    0  501    0  0.00000000000E+00  0.00000000000E+00  0.15279307015E+04  0.15279307015E+04  0.25500000920E-02 0.  1.
       -2   -1    0    0    0  501  0.00000000000E+00  0.00000000000E+00 -0.13612965220E+03  0.13612965223E+03  0.25500000920E-02 0. -1.
    10030    2    1    2    0    0  0.00000000000E+00  0.00000000000E+00  0.13918010493E+04  0.16640603537E+04  0.91213304953E+03 0.  0.
        3    1    3    3  502    0  0.38189654998E+03 -0.16684240210E+02  0.11496985617E+04  0.12115816654E+04  0.10100000352E+00 0. -1.
       -3    1    3    3    0  502 -0.38189654998E+03  0.16684240210E+02  0.24210248757E+03  0.45247868838E+03  0.10100000352E+00 0.  1.
</event>
<event>
 5   0  0.2560250E-03  0.9008841E+03  0.7818609E-02  0.9424477E-01
       -3   -1    0    0    0  501  0.00000000000E+00  0.00000000000E+00  0.37483099013E+03  0.37483100374E+03  0.10100000352E+00 0. -1.
        3   -1    0    0  501    0  0.00000000000E+00  0.00000000000E+00 -0.54130540805E+03  0.54130541748E+03  0.10100000352E+00 0.  1.
    10030    2    1    2    0    0  0.00000000000E+00  0.00000000000E+00 -0.16647441792E+03  0.91613642122E+03  0.90088412710E+03 0.  0.
        4    1    3    3  502    0 -0.29211363415E+03 -0.29501048183E+03 -0.26093798449E+03  0.49035885257E+03  0.12699999809E+01 0.  1.
       -4    1    3    3    0  502  0.29211363415E+03  0.29501048183E+03  0.94463566567E+02  0.42577756864E+03  0.12699999809E+01 0. -1.
</event>
<event>
 5   0  0.3943549E-03  0.9153469E+03  0.7818609E-02  0.9406598E-01
       -1   -1    0    0    0  501  0.00000000000E+00  0.00000000000E+00  0.55506463874E+03  0.55506463876E+03  0.50400001928E-02 0.  1.
        1   -1    0    0  501    0  0.00000000000E+00  0.00000000000E+00 -0.37737040807E+03  0.37737040811E+03  0.50400001928E-02 0. -1.
    10030    2    1    2    0    0  0.00000000000E+00  0.00000000000E+00  0.17769423067E+03  0.93243504687E+03  0.91534686159E+03 0.  0.
        3    1    3    3  502    0 -0.10077014960E+03  0.30950633078E+03  0.41659280108E+03  0.52867604822E+03  0.10100000352E+00 0.  1.
       -3    1    3    3    0  502  0.10077014960E+03 -0.30950633078E+03 -0.23889857042E+03  0.40375899865E+03  0.10100000352E+00 0. -1.
</event>
<event>
 5   0  0.2560250E-03  0.9005510E+03  0.7818609E-02  0.9424893E-01
        3   -1    0    0  501    0  0.00000000000E+00  0.00000000000E+00  0.45090921113E+03  0.45090922244E+03  0.10100000352E+00 0. -1.
       -3   -1    0    0    0  501  0.00000000000E+00  0.00000000000E+00 -0.44964267378E+03  0.44964268512E+03  0.10100000352E+00 0.  1.
    10030    2    1    2    0    0  0.00000000000E+00  0.00000000000E+00  0.12665373511E+01  0.90055190757E+03  0.90055101694E+03 0.  0.
        4    1    3    3  502    0  0.64183617610E+02 -0.57770037282E+02 -0.44128289184E+03  0.44965444233E+03  0.12699999809E+01 0.  1.
       -4    1    3    3    0  502 -0.64183617610E+02  0.57770037282E+02  0.44254942919E+03  0.45089746524E+03  0.12699999809E+01 0. -1.
</event>
<event>
 5   0  0.6534628E-03  0.8998292E+03  0.7818609E-02  0.9425795E-01
        2   -1    0    0  501    0  0.00000000000E+00  0.00000000000E+00  0.13028655967E+04  0.13028655967E+04  0.25500000920E-02 0. -1.
       -2   -1    0    0    0  501  0.00000000000E+00  0.00000000000E+00 -0.15536763570E+03  0.15536763573E+03  0.25500000920E-02 0.  1.
    10030    2    1    2    0    0  0.00000000000E+00  0.00000000000E+00  0.11474979610E+04  0.14582332325E+04  0.89982920029E+03 0.  0.
        4    1    3    3  502    0 -0.77849376086E+02  0.28655103283E+03  0.25984217594E+02  0.29807517884E+03  0.12699999809E+01 0.  1.
       -4    1    3    3    0  502  0.77849376086E+02 -0.28655103283E+03  0.11215137434E+04  0.11601580536E+04  0.12699999809E+01 0. -1.
</event>
<event>
 5   0  0.3998066E-03  0.9021730E+03  0.7818609E-02  0.9422869E-01
       -1   -1    0    0    0  501  0.00000000000E+00  0.00000000000E+00  0.11632419887E+04  0.11632419887E+04  0.50400001928E-02 0. -1.
        1   -1    0    0  501    0  0.00000000000E+00  0.00000000000E+00 -0.17492406438E+03  0.17492406445E+03  0.50400001928E-02 0.  1.
    10030    2    1    2    0    0  0.00000000000E+00  0.00000000000E+00  0.98831792433E+03  0.13381660532E+04  0.90217296917E+03 0.  0.
        4    1    3    3  502    0  0.33366542313E+03  0.21424061610E+03  0.17518436360E+03  0.43350066935E+03  0.12699999809E+01 0.  1.
       -4    1    3    3    0  502 -0.33366542313E+03 -0.21424061610E+03  0.81313356074E+03  0.90466538382E+03  0.12699999809E+01 0. -1.
</event>
<event>
 5   0  0.3943549E-03  0.8939293E+03  0.7818609E-02  0.9433202E-01
        1   -1    0    0  501    0  0.00000000000E+00  0.00000000000E+00  0.11016149855E+04  0.11016149855E+04  0.50400001928E-02 0. -1.
       -1   -1    0    0    0  501  0.00000000000E+00  0.00000000000E+00 -0.18134957844E+03  0.18134957851E+03  0.50400001928E-02 0.  1.
    10030    2    1    2    0    0  0.00000000000E+00  0.00000000000E+00  0.92026540701E+03  0.12829645640E+04  0.89392933337E+03 0.  0.
        3    1    3    3  502    0  0.83065620439E+02  0.33971318267E+03  0.85960359972E+03  0.92802117574E+03  0.10100000352E+00 0. -1.
       -3    1    3    3    0  502 -0.83065620439E+02 -0.33971318267E+03  0.60661807296E+02  0.35494338823E+03  0.10100000352E+00 0.  1.
</event>
<event>
 5   0  0.6609191E-03  0.9000132E+03  0.7818609E-02  0.9425565E-01
        2   -1    0    0  501    0  0.00000000000E+00  0.00000000000E+00  0.18940928386E+04  0.18940928386E+04  0.25500000920E-02 0.  1.
       -2   -1    0    0    0  501  0.00000000000E+00  0.00000000000E+00 -0.10691446800E+03  0.10691446803E+03  0.25500000920E-02 0. -1.
    10030    2    1    2    0    0  0.00000000000E+00  0.00000000000E+00  0.17871783706E+04  0.20010073067E+04  0.90001317374E+03 0.  0.
        2    1    3    3  502    0  0.36491714295E+03  0.22993378640E+03  0.60824361115E+03  0.74565029193E+03  0.25500000920E-02 0. -1.
       -2    1    3    3    0  502 -0.36491714295E+03 -0.22993378640E+03  0.11789347595E+04  0.12553570148E+04  0.25500000920E-02 0.  1.
</event>
<event>
 5   0  0.3943549E-03  0.8994083E+03  0.7818609E-02  0.9426321E-01
       -1   -1    0    0    0  501  0.00000000000E+00  0.00000000000E+00  0.92698284710E+03  0.92698284711E+03  0.50400001928E-02 0.  1.
        1   -1    0    0  501    0  0.00000000000E+00  0.00000000000E+00 -0.21816350281E+03  0.21816350286E+03  0.50400001928E-02 0. -1.
    10030    2    1    2    0    0  0.00000000000E+00  0.00000000000E+00  0.70881934429E+03  0.11451463500E+04  0.89940830551E+03 0.  0.
        3    1    3    3  502    0  0.10458337063E+02  0.41487057738E+03  0.57496332007E+03  0.70909082804E+03  0.10100000352E+00 0.  1.
       -3    1    3    3    0  502 -0.10458337063E+02 -0.41487057738E+03  0.13385602422E+03  0.43605552193E+03  0.10100000352E+00 0. -1.
</event>
<event>
 5   0  0.6534628E-03  0.9001128E+03  0.7818609E-02  0.9425440E-01
        2   -1    0    0  501    0  0.00000000000E+00  0.00000000000E+00  0.10285486926E+04  0.10285486926E+04  0.25500000920E-02 0. -1.
       -2   -1    0    0    0  501  0.00000000000E+00  0.00000000000E+00 -0.19692870942E+03  0.19692870944E+03  0.25500000920E-02 0.  1.
    10030    2    1    2    0    0  0.00000000000E+00  0.00000000000E+00  0.83161998318E+03  0.12254774020E+04  0.90011280765E+03 0.  0.
        4    1    3    3  502    0  0.26784234864E+03  0.25168453385E+03  0.62182434600E+02  0.37276386142E+03  0.12699999809E+01 0.  1.
       -4    1    3    3    0  502 -0.26784234864E+03 -0.25168453385E+03  0.76943754858E+03  0.85271354062E+03  0.12699999809E+01 0. -1.
</event>
<event>
 5   0  0.6863405E-03  0.8987107E+03  0.7818609E-02  0.9427195E-01
        2   -1    0    0  501    0  0.00000000000E+00  0.00000000000E+00  0.32440306322E+03  0.32440306323E+03  0.25500000920E-02 0. -1.
       -2   -1    0    0    0  501  0.00000000000E+00  0.00000000000E+00 -0.62243631292E+03  0.62243631292E+03  0.25500000920E-02 0.  1.
    10030    2    1    2    0    0  0.00000000000E+00  0.00000000000E+00 -0.29803324970E+03  0.94683937615E+03  0.89871073562E+03 0.  0.
        1    1    3    3  502    0  0.19860447544E+02 -0.31906797074E+03 -0.48171497706E+03  0.57814196049E+03  0.50400001928E-02 0.  1.
       -1    1    3    3    0  502 -0.19860447544E+02  0.31906797074E+03  0.18368172736E+03  0.36869741567E+03  0.50400001928E-02 0. -1.
</event>
<event>
 5   0  0.6524705E-03  0.8959720E+03  0.7818609E-02  0.9430631E-01
       -2   -1    0    0    0  501  0.00000000000E+00  0.00000000000E+00  0.42136611116E+03  0.42136611117E+03  0.25500000920E-02 0.  1.
        2   -1    0    0  501    0  0.00000000000E+00  0.00000000000E+00 -0.47628762155E+03  0.47628762155E+03  0.25500000920E-02 0. -1.
    10030    2    1    2    0    0  0.00000000000E+00  0.00000000000E+00 -0.54921510386E+02  0.89765373272E+03  0.89597201494E+03 0.  0.
        3    1    3    3  502    0  0.32210570613E+02  0.41142212113E+03 -0.20210308636E+03  0.45951207855E+03  0.10100000352E+00 0. -1.
       -3    1    3    3    0  502 -0.32210570613E+02 -0.41142212113E+03  0.14718157598E+03  0.43814165417E+03  0.10100000352E+00 0.  1.
</event>
<event>
 5   0  0.6524705E-03  0.9034001E+03  0.7818609E-02  0.9421341E-01
        2   -1    0    0  501    0  0.00000000000E+00  0.00000000000E+00  0.11882604544E+04  0.11882604544E+04  0.25500000920E-02 0. -1.
       -2   -1    0    0    0  501  0.00000000000E+00  0.00000000000E+00 -0.17170724394E+03  0.17170724396E+03  0.25500000920E-02 0.  1.
    10030    2    1    2    0    0  0.00000000000E+00  0.00000000000E+00  0.10165532104E+04  0.13599676983E+04  0.90340008349E+03 0.  0.
        3    1    3    3  502    0 -0.19834534709E+03  0.25305551354E+03  0.30674721556E+02  0.32298439341E+03  0.10100000352E+00 0.  1.
       -3    1    3    3    0  502  0.19834534709E+03 -0.25305551354E+03  0.98587848887E+03  0.10369833049E+04  0.10100000352E+00 0. -1.
</event>
<event>
 5   0  0.6724773E-03  0.9037507E+03  0.7818609E-02  0.9420905E-01
       -2   -1    0    0    0  501  0.00000000000E+00  0.00000000000E+00  0.47101255033E+03  0.47101255034E+03  0.25500000920E-02 0. -1.
        2   -1    0    0  501    0  0.00000000000E+00  0.00000000000E+00 -0.43351571960E+03  0.43351571961E+03  0.25500000920E-02 0.  1.
    10030    2    1    2    0    0  0.00000000000E+00  0.00000000000E+00  0.37496830730E+02  0.90452826995E+03  0.90375072826E+03 0.  0.
        5    1    3    3  502    0  0.28633684086E+03  0.34802522165E+03 -0.13820530379E+02  0.45091400333E+03  0.46999998093E+01 0.  1.
       -5    1    3    3    0  502 -0.28633684086E+03 -0.34802522165E+03  0.51317361109E+02  0.45361426663E+03  0.46999998093E+01 0. -1.
</event>
<event>
 5   0  0.3943549E-03  0.8936290E+03  0.7818609E-02  0.9433581E-01
        1   -1    0    0  501    0  0.00000000000E+00  0.00000000000E+00  0.26345100200E+03  0.26345100205E+03  0.50400001928E-02 0. -1.
       -1   -1    0    0    0  501  0.00000000000E+00  0.00000000000E+00 -0.75780012774E+03  0.75780012776E+03  0.50400001928E-02 0.  1.
    10030    2    1    2    0    0  0.00000000000E+00  0.00000000000E+00 -0.49434912574E+03  0.10212511298E+04  0.89362901251E+03 0.  0.
        3    1    3    3  502    0 -0.22949276375E+03 -0.21296954450E+03  0.11713065555E+03  0.33427915903E+03  0.10100000352E+00 0. -1.
       -3    1    3    3    0  502  0.22949276375E+03  0.21296954450E+03 -0.61147978129E+03  0.68697197077E+03  0.10100000352E+00 0.  1.
</event>
<event>
 5   0  0.3998066E-03  0.8867803E+03  0.7818609E-02  0.9442259E-01
        1   -1    0    0  501    0  0.00000000000E+00  0.00000000000E+00  0.41997860225E+03  0.41997860228E+03  0.50400001928E-02 0. -1.
       -1   -1    0    0    0  501  0.00000000000E+00  0.00000000000E+00 -0.46810677576E+03  0.46810677579E+03  0.50400001928E-02 0.  1.
    10030    2    1    2    0    0  0.00000000000E+00  0.00000000000E+00 -0.48128173512E+02  0.88808537807E+03  0.88678030969E+03 0.  0.
        4    1    3    3  502    0 -0.21951365143E+03  0.32232563427E+03 -0.23535600487E+03  0.45549327064E+03  0.12699999809E+01 0.  1.
       -4    1    3    3    0  502  0.21951365143E+03 -0.32232563427E+03  0.18722783136E+03  0.43259210742E+03  0.12699999809E+01 0. -1.
</event>
<event>
 5   0  0.6534628E-03  0.8997745E+03  0.7818609E-02  0.9425863E-01
        2   -1    0    0  501    0  0.00000000000E+00  0.00000000000E+00  0.92019007372E+03  0.92019007373E+03  0.25500000920E-02 0.  1.
       -2   -1    0    0    0  501  0.00000000000E+00  0.00000000000E+00 -0.21995296655E+03  0.21995296657E+03  0.25500000920E-02 0. -1.
    10030    2    1    2    0    0  0.00000000000E+00  0.00000000000E+00  0.70023710717E+03  0.11401430403E+04  0.89977449734E+03 0.  0.
        4    1    3    3  502    0 -0.34139574353E+01  0.29889042669E+03  0.77616850908E+03  0.83173692335E+03  0.12699999809E+01 0.  1.
       -4    1    3    3    0  502  0.34139574353E+01 -0.29889042669E+03 -0.75931401914E+02  0.30840611694E+03  0.12699999809E+01 0. -1.
</event>
<event>
 5   0  0.3943549E-03  0.9050750E+03  0.7818609E-02  0.9419260E-01
        1   -1    0    0  501    0  0.00000000000E+00  0.00000000000E+00  0.77128045879E+03  0.77128045881E+03  0.50400001928E-02 0.  1.
       -1   -1    0    0    0  501  0.00000000000E+00  0.00000000000E+00 -0.26551976237E+03  0.26551976241E+03  0.50400001928E-02 0. -1.
    10030    2    1    2    0    0  0.00000000000E+00  0.00000000000E+00  0.50576069643E+03  0.10368002212E+04  0.90507503373E+03 0.  0.
        3    1    3    3  502    0  0.16459231169E+03  0.16939576749E+03  0.69507184874E+03  0.73410519698E+03  0.10100000352E+00 0.  1.
       -3    1    3    3    0  502 -0.16459231169E+03 -0.16939576749E+03 -0.18931115232E+03  0.30269502424E+03  0.10100000352E+00 0. -1.
</event>
<event>
 5   0  0.3927993E-03  0.8916316E+03  0.7818609E-02  0.9436103E-01
       -1   -1    0    0    0  501  0.00000000000E+00  0.00000000000E+00  0.48670534885E+03  0.48670534887E+03  0.50400001928E-02 0.  1.
        1   -1    0    0  501    0  0.00000000000E+00  0.00000000000E+00 -0.40836154720E+03  0.40836154723E+03  0.50400001928E-02 0. -1.
    10030    2    1    2    0    0  0.00000000000E+00  0.00000000000E+00  0.78343801650E+02  0.89506689610E+03  0.89163164886E+03 0.  0.
        2    1    3    3  502    0 -0.16673143647E+02  0.17972480678E+03 -0.37004157057E+03  0.41171563468E+03  0.25500000920E-02 0. -1.
       -2    1    3    3    0  502  0.16673143647E+02 -0.17972480678E+03  0.44838537222E+03  0.48335126142E+03  0.25500000920E-02 0.  1.
</event>
<event>
 5   0  0.3943549E-03  0.8904296E+03  0.7818609E-02  0.9437625E-01
       -1   -1    0    0    0  501  0.00000000000E+00  0.00000000000E+00  0.14153392928E+03  0.14153392937E+03  0.50400001928E-02 0.  1.
        1   -1    0    0  501    0  0.00000000000E+00  0.00000000000E+00 -0.14004854136E+04  0.14004854136E+04  0.50400001928E-02 0. -1.
    10030    2    1    2    0    0  0.00000000000E+00  0.00000000000E+00 -0.12589514843E+04  0.15420193430E+04  0.89042956725E+03 0.  0.
        3    1    3    3  502    0  0.28371845721E+03  0.45923326104E+02 -0.12183058055E+04  0.12517484415E+04  0.10100000352E+00 0. -1.
       -3    1    3    3    0  502 -0.28371845721E+03 -0.45923326104E+02 -0.40645678810E+02  0.29027090148E+03  0.10100000352E+00 0.  1.
</event>
<event>
 5   0  0.3943549E-03  0.8992246E+03  0.7818609E-02  0.9426551E-01
       -1   -1    0    0    0  501  0.00000000000E+00  0.00000000000E+00  0.70429121646E+03  0.70429121648E+03  0.50400001928E-02 0. -1.
        1   -1    0    0  501    0  0.00000000000E+00  0.00000000000E+00 -0.28702788602E+03  0.28702788606E+03  0.50400001928E-02 0.  1.
    10030    2    1    2    0    0  0.00000000000E+00  0.00000000000E+00  0.41726333044E+03  0.99131910254E+03  0.89922459715E+03 0.  0.
        3    1    3    3  502    0  0.30649477067E+03  0.32558986973E+03  0.15688384279E+03  0.47387799912E+03  0.10100000352E+00 0.  1.
       -3    1    3    3    0  502 -0.30649477067E+03 -0.32558986973E+03  0.26037948765E+03  0.51744110342E+03  0.10100000352E+00 0. -1.
</event>
<event>
 5   0  0.3794006E-03  0.8991207E+03  0.7818609E-02  0.9426681E-01
       -1   -1    0    0    0  501  0.00000000000E+00  0.00000000000E+00  0.19632490622E+03  0.19632490629E+03  0.50400001928E-02 0. -1.
        1   -1    0    0  501    0  0.00000000000E+00  0.00000000000E+00 -0.10294390542E+04  0.10294390542E+04  0.50400001928E-02 0.  1.
    10030    2    1    2    0    0  0.00000000000E+00  0.00000000000E+00 -0.83311414796E+03  0.12257639605E+04  0.89912073899E+03 0.  0.
        5    1    3    3  502    0 -0.41717088820E+03 -0.10339693788E+03 -0.23693356263E+03  0.49079739182E+03  0.46999998093E+01 0. -1.
       -5    1    3    3    0  502  0.41717088820E+03  0.10339693788E+03 -0.59618058533E+03  0.73496656866E+03  0.46999998093E+01 0.  1.
</event>
<event>
 5   0  0.3927993E-03  0.8596152E+03  0.7818609E-02  0.9477522E-01
       -1   -1    0    0    0  501  0.00000000000E+00  0.00000000000E+00  0.13520601754E+03  0.13520601763E+03  0.50400001928E-02 0.  1.
        1   -1    0    0  501    0  0.00000000000E+00  0.00000000000E+00 -0.13663191992E+04  0.13663191992E+04  0.50400001928E-02 0. -1.
    10030    2    1    2    0    0  0.00000000000E+00  0.00000000000E+00 -0.12311131817E+04  0.15015252168E+04  0.85961521086E+03 0.  0.
        2    1    3    3  502    0 -0.39836406050E+03 -0.74018590621E+02 -0.86602916131E+03  0.95612718019E+03  0.25500000920E-02 0. -1.
       -2    1    3    3    0  502  0.39836406050E+03  0.74018590621E+02 -0.36508402034E+03  0.54539803663E+03  0.25500000920E-02 0.  1.
</event>
<event>
 5   0  0.2560250E-03  0.9027463E+03  0.7818609E-02  0.9422155E-01
       -3   -1    0    0    0  501  0.00000000000E+00  0.00000000000E+00  0.11532632612E+04  0.11532632656E+04  0.10100000352E+00 0. -1.
        3   -1    0    0  501    0  0.00000000000E+00  0.00000000000E+00 -0.17666190043E+03  0.17666192930E+03  0.10100000352E+00 0.  1.
    10030    2    1    2    0    0  0.00000000000E+00  0.00000000000E+00  0.97660136076E+03  0.13299251949E+04  0.90274625793E+03 0.  0.
        3    1    3    3  502    0  0.29034223543E+03 -0.28215280805E+03  0.78230960424E+03  0.88086159404E+03  0.10100000352E+00 0. -1.
       -3    1    3    3    0  502 -0.29034223543E+03  0.28215280805E+03  0.19429175652E+03  0.44906360086E+03  0.10100000352E+00 0.  1.
</event>
<event>
 5   0  0.3927993E-03  0.8975810E+03  0.7818609E-02  0.9428610E-01
        1   -1    0    0  501    0  0.00000000000E+00  0.00000000000E+00  0.11463421129E+04  0.11463421129E+04  0.50400001928E-02 0. -1.
       -1   -1    0    0    0  501  0.00000000000E+00  0.00000000000E+00 -0.17570051452E+03  0.17570051459E+03  0.50400001928E-02 0.  1.
    10030    2    1    2    0    0  0.00000000000E+00  0.00000000000E+00  0.97064159839E+03  0.13220426275E+04  0.89758096929E+03 0.  0.
        2    1    3    3  502    0  0.38306462929E+03 -0.26183002631E+02  0.82755532286E+03  0.91228935774E+03  0.25500000920E-02 0. -1.
       -2    1    3    3    0  502 -0.38306462929E+03  0.26183002631E+02  0.14308627553E+03  0.40975326978E+03  0.25500000920E-02 0.  1.
</event>
<event>
 5   0  0.6724773E-03  0.8956067E+03  0.7818609E-02  0.9431090E-01
        2   -1    0    0  501    0  0.00000000000E+00  0.00000000000E+00  0.33565076072E+03  0.33565076073E+03  0.25500000920E-02 0. -1.
       -2   -1    0    0    0  501  0.00000000000E+00  0.00000000000E+00 -0.59742999634E+03  0.59742999634E+03  0.25500000920E-02 0.  1.
    10030    2    1    2    0    0  0.00000000000E+00  0.00000000000E+00 -0.26177923562E+03  0.93308075707E+03  0.89560668321E+03 0.  0.
        5    1    3    3  502    0  0.20922011275E+02  0.12208053470E+03 -0.57920186263E+03  0.59231602644E+03  0.46999998093E+01 0.  1.
       -5    1    3    3    0  502 -0.20922011275E+02 -0.12208053470E+03  0.31742262701E+03  0.34076473063E+03  0.46999998093E+01 0. -1.
</event>
<event>
 5   0  0.3943549E-03  0.8895395E+03  0.7818609E-02  0.9438753E-01
       -1   -1    0    0    0  501  0.00000000000E+00  0.00000000000E+00  0.32158062968E+03  0.32158062972E+03  0.50400001928E-02 0. -1.
        1   -1    0    0  501    0  0.00000000000E+00  0.00000000000E+00 -0.61514934213E+03  0.61514934215E+03  0.50400001928E-02 0.  1.
    10030    2    1    2    0    0  0.00000000000E+00  0.00000000000E+00 -0.29356871245E+03  0.93672997188E+03  0.88953946022E+03 0.  0.
        3    1    3    3  502    0  0.22264557111E+03  0.33579456667E+03 -0.34516929193E+03  0.53053830364E+03  0.10100000352E+00 0.  1.
       -3    1    3    3    0  502 -0.22264557111E+03 -0.33579456667E+03  0.51600579484E+02  0.40619166823E+03  0.10100000352E+00 0. -1.
</event>
<event>
 5   0  0.6724773E-03  0.8992158E+03  0.7818609E-02  0.9426562E-01
       -2   -1    0    0    0  501  0.00000000000E+00  0.00000000000E+00  0.68896158197E+03  0.68896158197E+03  0.25500000920E-02 0. -1.
        2   -1    0    0  501    0  0.00000000000E+00  0.00000000000E+00 -0.29340863322E+03  0.29340863323E+03  0.25500000920E-02 0.  1.
    10030    2    1    2    0    0  0.00000000000E+00  0.00000000000E+00  0.39555294875E+03  0.98237021520E+03  0.89921582752E+03 0.  0.
        5    1    3    3  502    0  0.10332630758E+03  0.24313995233E+03 -0.19963773683E+03  0.33116563563E+03  0.46999998093E+01 0.  1.
       -5    1    3    3    0  502 -0.10332630758E+03 -0.24313995233E+03  0.59519068558E+03  0.65120457957E+03  0.46999998093E+01 0. -1.
</event>
<event>
 5   0  0.3943549E-03  0.8888332E+03  0.7818609E-02  0.9439649E-01
       -1   -1    0    0    0  501  0.00000000000E+00  0.00000000000E+00  0.10784428738E+04  0.10784428738E+04  0.50400001928E-02 0.  1.
        1   -1    0    0  501    0  0.00000000000E+00  0.00000000000E+00 -0.18314008254E+03  0.18314008261E+03  0.50400001928E-02 0. -1.
    10030    2    1    2    0    0  0.00000000000E+00  0.00000000000E+00  0.89530279122E+03  0.12615829564E+04  0.88883320588E+03 0.  0.
        3    1    3    3  502    0 -0.36988394493E+03  0.62995841551E+02  0.10960442797E+03  0.39089096894E+03  0.10100000352E+00 0. -1.
       -3    1    3    3    0  502  0.36988394493E+03 -0.62995841551E+02  0.78569836326E+03  0.87069198744E+03  0.10100000352E+00 0.  1.
</event>
<event>
 5   0  0.6534628E-03  0.8832409E+03  0.7818609E-02  0.9446777E-01
       -2   -1    0    0    0  501  0.00000000000E+00  0.00000000000E+00  0.13080412626E+03  0.13080412629E+03  0.25500000920E-02 0. -1.
        2   -1    0    0  501    0  0.00000000000E+00  0.00000000000E+00 -0.14909975315E+04  0.14909975316E+04  0.25500000920E-02 0.  1.
    10030    2    1    2    0    0  0.00000000000E+00  0.00000000000E+00 -0.13601934053E+04  0.16218016578E+04  0.88324091707E+03 0.  0.
        4    1    3    3  502    0  0.13808420809E+02  0.22952432166E+03  0.12211572251E+02  0.23026684980E+03  0.12699999809E+01 0. -1.
       -4    1    3    3    0  502 -0.13808420809E+02 -0.22952432166E+03 -0.13724049775E+04  0.13915348080E+04  0.12699999809E+01 0.  1.
</event>
<event>
 5   0  0.3998066E-03  0.8945429E+03  0.7818609E-02  0.9432429E-01
       -1   -1    0    0    0  501  0.00000000000E+00  0.00000000000E+00  0.14972451578E+03  0.14972451586E+03  0.50400001928E-02 0. -1.
        1   -1    0    0  501    0  0.00000000000E+00  0.00000000000E+00 -0.13361323352E+04  0.13361323352E+04  0.50400001928E-02 0.  1.
    10030    2    1    2    0    0  0.00000000000E+00  0.00000000000E+00 -0.11864078195E+04  0.14858568511E+04  0.89454293798E+03 0.  0.
        4    1    3    3  502    0 -0.16307212110E+03 -0.24270086760E+03 -0.31016948196E+02  0.29404062949E+03  0.12699999809E+01 0. -1.
       -4    1    3    3    0  502  0.16307212110E+03  0.24270086760E+03 -0.11553908713E+04  0.11918162216E+04  0.12699999809E+01 0.  1.
</event>
<event>
 5   0  0.6534628E-03  0.9097619E+03  0.7818609E-02  0.9413460E-01
        2   -1    0    0  501    0  0.00000000000E+00  0.00000000000E+00  0.21259696663E+04  0.21259696663E+04  0.25500000920E-02 0.  1.
       -2   -1    0    0    0  501  0.00000000000E+00  0.00000000000E+00 -0.97328142241E+02  0.97328142275E+02  0.25500000920E-02 0. -1.
    10030    2    1    2    0    0  0.00000000000E+00  0.00000000000E+00  0.20286415241E+04  0.22232978086E+04  0.90976189879E+03 0.  0.
        4    1    3    3  502    0 -0.35636172707E+01  0.44204987077E+03  0.75231506391E+03  0.87258257827E+03  0.12699999809E+01 0. -1.
       -4    1    3    3    0  502  0.35636172707E+01 -0.44204987077E+03  0.12763264602E+04  0.13507152303E+04  0.12699999809E+01 0.  1.
</event>
<event>
 5   0  0.6609191E-03  0.8460822E+03  0.7818609E-02  0.9495610E-01
        2   -1    0    0  501    0  0.00000000000E+00  0.00000000000E+00  0.12200505912E+04  0.12200505912E+04  0.25500000920E-02 0.  1.
       -2   -1    0    0    0  501  0.00000000000E+00  0.00000000000E+00 -0.14668554036E+03  0.14668554039E+03  0.25500000920E-02 0. -1.
    10030    2    1    2    0    0  0.00000000000E+00  0.00000000000E+00  0.10733650509E+04  0.13667361316E+04  0.84608221885E+03 0.  0.
        2    1    3    3  502    0  0.32426706604E+03  0.17565883905E+03  0.20187340446E+03  0.42042600930E+03  0.25500000920E-02 0. -1.
       -2    1    3    3    0  502 -0.32426706604E+03 -0.17565883905E+03  0.87149164641E+03  0.94631012233E+03  0.25500000920E-02 0.  1.
</event>
<event>
 5   0  0.3969536E-03  0.8837376E+03  0.7818609E-02  0.9446142E-01
       -1   -1    0    0    0  501  0.00000000000E+00  0.00000000000E+00  0.38285873499E+03  0.38285873502E+03  0.50400001928E-02 0.  1.
        1   -1    0    0  501    0  0.00000000000E+00  0.00000000000E+00 -0.50997407824E+03  0.50997407827E+03  0.50400001928E-02 0. -1.
    10030    2    1    2    0    0  0.00000000000E+00  0.00000000000E+00 -0.12711534325E+03  0.89283281329E+03  0.88373758661E+03 0.  0.
        1    1    3    3  502    0 -0.28695027973E+03 -0.23425492576E+03  0.17982033150E+03  0.41176593463E+03  0.50400001928E-02 0. -1.
       -1    1    3    3    0  502  0.28695027973E+03  0.23425492576E+03 -0.30693567475E+03  0.48106687865E+03  0.50400001928E-02 0.  1.
</event>
<event>
 5   0  0.2560250E-03  0.8887209E+03  0.7818609E-02  0.9439792E-01
        3   -1    0    0  501    0  0.00000000000E+00  0.00000000000E+00  0.82821785057E+02  0.82821846641E+02  0.10100000352E+00 0. -1.
       -3   -1    0    0    0  501  0.00000000000E+00  0.00000000000E+00 -0.23841087249E+04  0.23841087270E+04  0.10100000352E+00 0.  1.
    10030    2    1    2    0    0  0.00000000000E+00  0.00000000000E+00 -0.23012869399E+04  0.24669305737E+04  0.88872092125E+03 0.  0.
        4    1    3    3  502    0  0.11393885314E+03  0.41968180894E+03 -0.89714967205E+03  0.99699249243E+03  0.12699999809E+01 0. -1.
       -4    1    3    3    0  502 -0.11393885314E+03 -0.41968180894E+03 -0.14041372678E+04  0.14699380813E+04  0.12699999809E+01 0.  1.
</event>
<event>
 5   0  0.3969536E-03  0.8988869E+03  0.7818609E-02  0.9426974E-01
        1   -1    0    0  501    0  0.00000000000E+00  0.00000000000E+00  0.78473058454E+03  0.78473058455E+03  0.50400001928E-02 0.  1.
       -1   -1    0    0    0  501  0.00000000000E+00  0.00000000000E+00 -0.25741245829E+03  0.25741245834E+03  0.50400001928E-02 0. -1.
    10030    2    1    2    0    0  0.00000000000E+00  0.00000000000E+00  0.52731812625E+03  0.10421430429E+04  0.89888693147E+03 0.  0.
        1    1    3    3  502    0 -0.33200019228E+03  0.30965491174E+02 -0.85726135755E+02  0.34428470732E+03  0.50400001928E-02 0. -1.
       -1    1    3    3    0  502  0.33200019228E+03 -0.30965491174E+02  0.61304426200E+03  0.69785833557E+03  0.50400001928E-02 0.  1.
</event>
<event>
 5   0  0.6724773E-03  0.8845439E+03  0.7818609E-02  0.9445111E-01
        2   -1    0    0  501    0  0.00000000000E+00  0.00000000000E+00  0.41326725224E+03  0.41326725225E+03  0.25500000920E-02 0. -1.
       -2   -1    0    0    0  501  0.00000000000E+00  0.00000000000E+00 -0.47331230145E+03  0.47331230146E+03  0.25500000920E-02 0.  1.
    10030    2    1    2    0    0  0.00000000000E+00  0.00000000000E+00 -0.60045049211E+02  0.88657955371E+03  0.88454389214E+03 0.  0.
        5    1    3    3  502    0 -0.41169572849E+03  0.12482679026E+03  0.72718420399E+02  0.43633147845E+03  0.46999998093E+01 0.  1.
       -5    1    3    3    0  502  0.41169572849E+03 -0.12482679026E+03 -0.13276346961E+03  0.45024807527E+03  0.46999998093E+01 0. -1.
</event>
<event>
 5   0  0.6524705E-03  0.8954055E+03  0.7818609E-02  0.9431343E-01
        2   -1    0    0  501    0  0.00000000000E+00  0.00000000000E+00  0.14665791914E+04  0.14665791914E+04  0.25500000920E-02 0.  1.
       -2   -1    0    0    0  501  0.00000000000E+00  0.00000000000E+00 -0.13667025462E+03  0.13667025464E+03  0.25500000920E-02 0. -1.
    10030    2    1    2    0    0  0.00000000000E+00  0.00000000000E+00  0.13299089368E+04  0.16032494460E+04  0.89540549814E+03 0.  0.
        3    1    3    3  502    0 -0.22598729233E+03  0.24330563921E+03  0.12728915739E+03  0.35562681305E+03  0.10100000352E+00 0. -1.
       -3    1    3    3    0  502  0.22598729233E+03 -0.24330563921E+03  0.12026197794E+04  0.12476226330E+04  0.10100000352E+00 0.  1.
</event>
<event>
 5   0  0.6724773E-03  0.8965991E+03  0.7818609E-02  0.9429843E-01
        2   -1    0    0  501    0  0.00000000000E+00  0.00000000000E+00  0.78127982787E+03  0.78127982787E+03  0.25500000920E-02 0. -1.
       -2   -1    0    0    0  501  0.00000000000E+00  0.00000000000E+00 -0.25723496721E+03  0.25723496722E+03  0.25500000920E-02 0.  1.
    10030    2    1    2    0    0  0.00000000000E+00  0.00000000000E+00  0.52404486066E+03  0.10385147951E+04  0.89659910977E+03 0.  0.
        5    1    3    3  502    0  0.70168746862E+02 -0.10041331260E+03 -0.23744292511E+03  0.26722222787E+03  0.46999998093E+01 0.  1.
       -5    1    3    3    0  502 -0.70168746862E+02  0.10041331260E+03  0.76148778577E+03  0.77129256723E+03  0.46999998093E+01 0. -1.
</event>
<event>
 5   0  0.3927993E-03  0.8984157E+03  0.7818609E-02  0.9427564E-01
       -1   -1    0    0    0  501  0.00000000000E+00  0.00000000000E+00  0.93709322933E+03  0.93709322934E+03  0.50400001928E-02 0. -1.
        1   -1    0    0  501    0  0.00000000000E+00  0.00000000000E+00 -0.21533365295E+03  0.21533365301E+03  0.50400001928E-02 0.  1.
    10030    2    1    2    0    0  0.00000000000E+00  0.00000000000E+00  0.72175957638E+03  0.11524268824E+04  0.89841573510E+03 0.  0.
        2    1    3    3  502    0 -0.51029710618E+01  0.75360104529E+02  0.92888912350E+03  0.93195503616E+03  0.25500000920E-02 0. -1.
       -2    1    3    3    0  502  0.51029710618E+01 -0.75360104529E+02 -0.20712954712E+03  0.22047184619E+03  0.25500000920E-02 0.  1.
</event>
<event>
 5   0  0.6534628E-03  0.8974037E+03  0.7818609E-02  0.9428833E-01
        2   -1    0    0  501    0  0.00000000000E+00  0.00000000000E+00  0.61133830253E+03  0.61133830253E+03  0.25500000920E-02 0. -1.
       -2   -1    0    0    0  501  0.00000000000E+00  0.00000000000E+00 -0.32933215235E+03  0.32933215236E+03  0.25500000920E-02 0.  1.
    10030    2    1    2    0    0  0.00000000000E+00  0.00000000000E+00  0.28200615017E+03  0.94067045489E+03  0.89740371961E+03 0.  0.
        4    1    3    3  502    0 -0.28897025790E+03 -0.58321023163E+01  0.50076158913E+03  0.57818820934E+03  0.12699999809E+01 0. -1.
       -4    1    3    3    0  502  0.28897025790E+03  0.58321023163E+01 -0.21875543896E+03  0.36248224555E+03  0.12699999809E+01 0.  1.
</event>
<event>
 5   0  0.3969536E-03  0.8961064E+03  0.7818609E-02  0.9430462E-01
        1   -1    0    0  501    0  0.00000000000E+00  0.00000000000E+00  0.98552867920E+03  0.98552867921E+03  0.50400001928E-02 0.  1.
       -1   -1    0    0    0  501  0.00000000000E+00  0.00000000000E+00 -0.20369946473E+03  0.20369946480E+03  0.50400001928E-02 0. -1.
    10030    2    1    2    0    0  0.00000000000E+00  0.00000000000E+00  0.78182921447E+03  0.11892281440E+04  0.89610638761E+03 0.  0.
        1    1    3    3  502    0 -0.39896594417E+03  0.18421211481E+03  0.50694144665E+03  0.67089310490E+03  0.50400001928E-02 0. -1.
       -1    1    3    3    0  502  0.39896594417E+03 -0.18421211481E+03  0.27488776781E+03  0.51833503911E+03  0.50400001928E-02 0.  1.
</event>
<event>
 5   0  0.6524705E-03  0.8583795E+03  0.7818609E-02  0.9479159E-01
       -2   -1    0    0    0  501  0.00000000000E+00  0.00000000000E+00  0.13964314114E+03  0.13964314117E+03  0.25500000920E-02 0. -1.
        2   -1    0    0  501    0  0.00000000000E+00  0.00000000000E+00 -0.13191041606E+04  0.13191041606E+04  0.25500000920E-02 0.  1.
    10030    2    1    2    0    0  0.00000000000E+00  0.00000000000E+00 -0.11794610195E+04  0.14587473018E+04  0.85837951629E+03 0.  0.
        3    1    3    3  502    0  0.29335902975E+03  0.12911110789E+03 -0.10465210032E+03  0.33716653277E+03  0.10100000352E+00 0. -1.
       -3    1    3    3    0  502 -0.29335902975E+03 -0.12911110789E+03 -0.10748089191E+04  0.11215807690E+04  0.10100000352E+00 0.  1.
</event>
<event>
 5   0  0.3969536E-03  0.8786524E+03  0.7818609E-02  0.9452668E-01
        1   -1    0    0  501    0  0.00000000000E+00  0.00000000000E+00  0.22461611814E+03  0.22461611820E+03  0.50400001928E-02 0.  1.
       -1   -1    0    0    0  501  0.00000000000E+00  0.00000000000E+00 -0.85927725923E+03  0.85927725924E+03  0.50400001928E-02 0. -1.
    10030    2    1    2    0    0  0.00000000000E+00  0.00000000000E+00 -0.63466114109E+03  0.10838933774E+04  0.87865242824E+03 0.  0.
        1    1    3    3  502    0  0.20951852604E+03 -0.33194532323E+03 -0.56069997232E+03  0.68444880697E+03  0.50400001928E-02 0. -1.
       -1    1    3    3    0  502 -0.20951852604E+03  0.33194532323E+03 -0.73961168768E+02  0.39944457048E+03  0.50400001928E-02 0.  1.
</event>
<event>
 5   0  0.6724773E-03  0.8950100E+03  0.7818609E-02  0.9431841E-01
       -2   -1    0    0    0  501  0.00000000000E+00  0.00000000000E+00  0.80256426510E+02  0.80256426551E+02  0.25500000920E-02 0. -1.
        2   -1    0    0  501    0  0.00000000000E+00  0.00000000000E+00 -0.24952611333E+04  0.24952611333E+04  0.25500000920E-02 0.  1.
    10030    2    1    2    0    0  0.00000000000E+00  0.00000000000E+00 -0.24150047068E+04  0.25755175599E+04  0.89501003754E+03 0.  0.
        5    1    3    3  502    0 -0.16749678385E+03 -0.20899622513E+03 -0.17594108153E+03  0.32048704948E+03  0.46999998093E+01 0. -1.
       -5    1    3    3    0  502  0.16749678385E+03  0.20899622513E+03 -0.22390636253E+04  0.22550305104E+04  0.46999998093E+01 0.  1.
</event>
<event>
 5   0  0.2560250E-03  0.9002851E+03  0.7818609E-02  0.9425225E-01
        3   -1    0    0  501    0  0.00000000000E+00  0.00000000000E+00  0.79434860190E+03  0.79434860832E+03  0.10100000352E+00 0. -1.
       -3   -1    0    0    0  501  0.00000000000E+00  0.00000000000E+00 -0.25508736932E+03  0.25508738932E+03  0.10100000352E+00 0.  1.
    10030    2    1    2    0    0  0.00000000000E+00  0.00000000000E+00  0.53926123258E+03  0.10494359976E+04  0.90028508606E+03 0.  0.
        1    1    3    3  502    0  0.13451668197E+03  0.32429540992E+03 -0.58761942433E+02  0.35597080853E+03  0.50400001928E-02 0.  1.
       -1    1    3    3    0  502 -0.13451668197E+03 -0.32429540992E+03  0.59802317501E+03  0.69346518911E+03  0.50400001928E-02 0. -1.
</event>
<event>
 5   0  0.3998066E-03  0.9011048E+03  0.7818609E-02  0.9424201E-01
        1   -1    0    0  501    0  0.00000000000E+00  0.00000000000E+00  0.41245596153E+03  0.41245596157E+03  0.50400001928E-02 0. -1.
       -1   -1    0    0    0  501  0.00000000000E+00  0.00000000000E+00 -0.49216764896E+03  0.49216764899E+03  0.50400001928E-02 0.  1.
    10030    2    1    2    0    0  0.00000000000E+00  0.00000000000E+00 -0.79711687430E+02  0.90462361056E+03  0.90110483500E+03 0.  0.
        4    1    3    3  502    0 -0.75008285597E+02  0.18771549285E+03  0.36437333900E+03  0.41669280320E+03  0.12699999809E+01 0. -1.
       -4    1    3    3    0  502  0.75008285597E+02 -0.18771549285E+03 -0.44408502643E+03  0.48793080735E+03  0.12699999809E+01 0.  1.
</event>
<event>
 5   0  0.6609191E-03  0.9262975E+03  0.7818609E-02  0.9393292E-01
        2   -1    0    0  501    0  0.00000000000E+00  0.00000000000E+00  0.40562838857E+03  0.40562838858E+03  0.25500000920E-02 0. -1.
       -2   -1    0    0    0  501  0.00000000000E+00  0.00000000000E+00 -0.52882582985E+03  0.52882582985E+03  0.25500000920E-02 0.  1.
    10030    2    1    2    0    0  0.00000000000E+00  0.00000000000E+00 -0.12319744128E+03  0.93445421843E+03  0.92629750988E+03 0.  0.
        2    1    3    3  502    0  0.45673571812E+03  0.42582146949E+02 -0.12608353356E+03  0.47572871774E+03  0.25500000920E-02 0.  1.
       -2    1    3    3    0  502 -0.45673571812E+03 -0.42582146949E+02  0.28860922834E+01  0.45872550069E+03  0.25500000920E-02 0. -1.
</event>
<event>
 5   0  0.6524705E-03  0.8944565E+03  0.7818609E-02  0.9432538E-01
        2   -1    0    0  501    0  0.00000000000E+00  0.00000000000E+00  0.12050338964E+04  0.12050338964E+04  0.25500000920E-02 0. -1.
       -2   -1    0    0    0  501  0.00000000000E+00  0.00000000000E+00 -0.16598130967E+03  0.16598130969E+03  0.25500000920E-02 0.  1.
    10030    2    1    2    0    0  0.00000000000E+00  0.00000000000E+00  0.10390525867E+04  0.13710152061E+04  0.89445649269E+03 0.  0.
        3    1    3    3  502    0 -0.15239677949E+03  0.36387908622E+03  0.84243391541E+03  0.93022990697E+03  0.10100000352E+00 0.  1.
       -3    1    3    3    0  502  0.15239677949E+03 -0.36387908622E+03  0.19661867128E+03  0.44078529908E+03  0.10100000352E+00 0. -1.
</event>
<event>
 5   0  0.3794006E-03  0.9143963E+03  0.7818609E-02  0.9407762E-01
       -1   -1    0    0    0  501  0.00000000000E+00  0.00000000000E+00  0.46663880000E+03  0.46663880003E+03  0.50400001928E-02 0.  1.
        1   -1    0    0  501    0  0.00000000000E+00  0.00000000000E+00 -0.44794851942E+03  0.44794851944E+03  0.50400001928E-02 0. -1.
    10030    2    1    2    0    0  0.00000000000E+00  0.00000000000E+00  0.18690280586E+02  0.91458731947E+03  0.91439632455E+03 0.  0.
        5    1    3    3  502    0 -0.23680713245E+02  0.12719488832E+03  0.44792133962E+03  0.46625629463E+03  0.46999998093E+01 0.  1.
       -5    1    3    3    0  502  0.23680713245E+02 -0.12719488832E+03 -0.42923105904E+03  0.44833102484E+03  0.46999998093E+01 0. -1.
</event>
<event>
 5   0  0.2560250E-03  0.9048632E+03  0.7818609E-02  0.9419523E-01
       -4   -1    0    0    0  501  0.00000000000E+00  0.00000000000E+00  0.64425391439E+03  0.64425516615E+03  0.12699999809E+01 0. -1.
        4   -1    0    0  501    0  0.00000000000E+00  0.00000000000E+00 -0.31772024398E+03  0.31772278221E+03  0.12699999809E+01 0.  1.
    10030    2    1    2    0    0  0.00000000000E+00  0.00000000000E+00  0.32653367041E+03  0.96197794836E+03  0.90486315828E+03 0.  0.
        1    1    3    3  502    0  0.29695535247E+03 -0.33405218701E+03  0.23784443429E+03  0.50630358477E+03  0.50400001928E-02 0.  1.
       -1    1    3    3    0  502 -0.29695535247E+03  0.33405218701E+03  0.88689236120E+02  0.45567436359E+03  0.50400001928E-02 0. -1.
</event>
<event>
 5   0  0.6534628E-03  0.9039150E+03  0.7818609E-02  0.9420701E-01
       -2   -1    0    0    0  501  0.00000000000E+00  0.00000000000E+00  0.69722565530E+03  0.69722565530E+03  0.25500000920E-02 0. -1.
        2   -1    0    0  501    0  0.00000000000E+00  0.00000000000E+00 -0.29296911084E+03  0.29296911085E+03  0.25500000920E-02 0.  1.
    10030    2    1    2    0    0  0.00000000000E+00  0.00000000000E+00  0.40425654445E+03  0.99019476615E+03  0.90391499666E+03 0.  0.
        4    1    3    3  502    0 -0.29818433268E+03 -0.49116210368E+02 -0.16601125025E+03  0.34480087948E+03  0.12699999809E+01 0.  1.
       -4    1    3    3    0  502  0.29818433268E+03  0.49116210368E+02  0.57026779471E+03  0.64539388667E+03  0.12699999809E+01 0. -1.
</event>
<event>
 5   0  0.6609191E-03  0.8993989E+03  0.7818609E-02  0.9426333E-01
        2   -1    0    0  501    0  0.00000000000E+00  0.00000000000E+00  0.62422264497E+03  0.62422264498E+03  0.25500000920E-02 0.  1.
       -2   -1    0    0    0  501  0.00000000000E+00  0.00000000000E+00 -0.32397027197E+03  0.32397027198E+03  0.25500000920E-02 0. -1.
    10030    2    1    2    0    0  0.00000000000E+00  0.00000000000E+00  0.30025237300E+03  0.94819291696E+03  0.89939886607E+03 0.  0.
        2    1    3    3  502    0  0.96234217261E+01  0.32520735789E+03 -0.17716280492E+03  0.37045795352E+03  0.25500000920E-02 0. -1.
       -2    1    3    3    0  502 -0.96234217261E+01 -0.32520735789E+03  0.47741517793E+03  0.57773496345E+03  0.25500000920E-02 0.  1.
</event>
<event>
 5   0  0.3927993E-03  0.9102703E+03  0.7818609E-02  0.9412833E-01
        1   -1    0    0  501    0  0.00000000000E+00  0.00000000000E+00  0.35539177919E+03  0.35539177922E+03  0.50400001928E-02 0.  1.
       -1   -1    0    0    0  501  0.00000000000E+00  0.00000000000E+00 -0.58287229363E+03  0.58287229365E+03  0.50400001928E-02 0. -1.
    10030    2    1    2    0    0  0.00000000000E+00  0.00000000000E+00 -0.22748051444E+03  0.93826407287E+03  0.91027033676E+03 0.  0.
        2    1    3    3  502    0  0.16278386323E+03  0.38581453779E+03  0.70059480227E+02  0.42457010548E+03  0.25500000920E-02 0.  1.
       -2    1    3    3    0  502 -0.16278386323E+03 -0.38581453779E+03 -0.29753999467E+03  0.51369396739E+03  0.25500000920E-02 0. -1.
</event>
<event>
 5   0  0.6609191E-03  0.9106655E+03  0.7818609E-02  0.9412346E-01
        2   -1    0    0  501    0  0.00000000000E+00  0.00000000000E+00  0.12074087507E+04  0.12074087507E+04  0.25500000920E-02 0. -1.
       -2   -1    0    0    0  501  0.00000000000E+00  0.00000000000E+00 -0.17171311925E+03  0.17171311927E+03  0.25500000920E-02 0.  1.
    10030    2    1    2    0    0  0.00000000000E+00  0.00000000000E+00  0.10356956314E+04  0.13791218699E+04  0.91066552105E+03 0.  0.
        2    1    3    3  502    0  0.24753486212E+03 -0.33826592322E+03  0.24851000263E+03  0.48729309885E+03  0.25500000920E-02 0.  1.
       -2    1    3    3    0  502 -0.24753486212E+03  0.33826592322E+03  0.78718562879E+03  0.89182877110E+03  0.25500000920E-02 0. -1.
</event>
<event>
 5   0  0.6724773E-03  0.9041768E+03  0.7818609E-02  0.9420375E-01
       -2   -1    0    0    0  501  0.00000000000E+00  0.00000000000E+00  0.15099960255E+03  0.15099960257E+03  0.25500000920E-02 0. -1.
        2   -1    0    0  501    0  0.00000000000E+00  0.00000000000E+00 -0.13535394651E+04  0.13535394651E+04  0.25500000920E-02 0.  1.
    10030    2    1    2    0    0  0.00000000000E+00  0.00000000000E+00 -0.12025398626E+04  0.15045390677E+04  0.90417679972E+03 0.  0.
        5    1    3    3  502    0  0.25033538851E+03  0.32210155658E+03 -0.27713549960E+03  0.49319711539E+03  0.46999998093E+01 0. -1.
       -5    1    3    3    0  502 -0.25033538851E+03 -0.32210155658E+03 -0.92540436297E+03  0.10113419523E+04  0.46999998093E+01 0.  1.
</event>
<event>
 5   0  0.6534628E-03  0.8898593E+03  0.7818609E-02  0.9438347E-01
       -2   -1    0    0    0  501  0.00000000000E+00  0.00000000000E+00  0.39129691839E+03  0.39129691840E+03  0.25500000920E-02 0.  1.
        2   -1    0    0  501    0  0.00000000000E+00  0.00000000000E+00 -0.50591345340E+03  0.50591345340E+03  0.25500000920E-02 0. -1.
    10030    2    1    2    0    0  0.00000000000E+00  0.00000000000E+00 -0.11461653500E+03  0.89721037180E+03  0.88985925919E+03 0.  0.
        4    1    3    3  502    0 -0.39469784634E+03 -0.17076657348E+03  0.57709299704E+02  0.43391195962E+03  0.12699999809E+01 0. -1.
       -4    1    3    3    0  502  0.39469784634E+03  0.17076657348E+03 -0.17232583471E+03  0.46329841219E+03  0.12699999809E+01 0.  1.
</event>
<event>
 5   0  0.6609191E-03  0.8995405E+03  0.7818609E-02  0.9426156E-01
       -2   -1    0    0    0  501  0.00000000000E+00  0.00000000000E+00  0.89570287315E+03  0.89570287315E+03  0.25500000920E-02 0.  1.
        2   -1    0    0  501    0  0.00000000000E+00  0.00000000000E+00 -0.22584861817E+03  0.22584861818E+03  0.25500000920E-02 0. -1.
    10030    2    1    2    0    0  0.00000000000E+00  0.00000000000E+00  0.66985425498E+03  0.11215514913E+04  0.89954045201E+03 0.  0.
        2    1    3    3  502    0 -0.41556982436E+03 -0.13545446421E+03  0.46715351388E+03  0.63974885410E+03  0.25500000920E-02 0. -1.
       -2    1    3    3    0  502  0.41556982436E+03  0.13545446421E+03  0.20270074111E+03  0.48180263723E+03  0.25500000920E-02 0.  1.
</event>
<event>
 5   0  0.2560250E-03  0.8593557E+03  0.7818609E-02  0.9477865E-01
        4   -1    0    0  501    0  0.00000000000E+00  0.00000000000E+00  0.12597776529E+04  0.12597782931E+04  0.12699999809E+01 0. -1.
       -4   -1    0    0    0  501  0.00000000000E+00  0.00000000000E+00 -0.14654866533E+03  0.14655416818E+03  0.12699999809E+01 0.  1.
    10030    2    1    2    0    0  0.00000000000E+00  0.00000000000E+00  0.11132289876E+04  0.14063324613E+04  0.85935569629E+03 0.  0.
        2    1    3    3  502    0 -0.27379329500E+03  0.75234424867E+01  0.10984002892E+04  0.11320347017E+04  0.25500000920E-02 0. -1.
       -2    1    3    3    0  502  0.27379329500E+03 -0.75234424867E+01  0.14828698377E+02  0.27429775952E+03  0.25500000920E-02 0.  1.
</event>
<event>
 5   0  0.3969536E-03  0.9005236E+03  0.7818609E-02  0.9424927E-01
       -1   -1    0    0    0  501  0.00000000000E+00  0.00000000000E+00  0.12934687610E+03  0.12934687620E+03  0.50400001928E-02 0.  1.
        1   -1    0    0  501    0  0.00000000000E+00  0.00000000000E+00 -0.15673796872E+04  0.15673796872E+04  0.50400001928E-02 0. -1.
    10030    2    1    2    0    0  0.00000000000E+00  0.00000000000E+00 -0.14380328111E+04  0.16967265634E+04  0.90052355060E+03 0.  0.
        1    1    3    3  502    0 -0.94959523919E+02 -0.20257634852E+03 -0.14552396671E+04  0.14723372497E+04  0.50400001928E-02 0. -1.
       -1    1    3    3    0  502  0.94959523919E+02  0.20257634852E+03  0.17206856046E+02  0.22438931366E+03  0.50400001928E-02 0.  1.
</event>
<event>
 5   0  0.6524705E-03  0.9009309E+03  0.7818609E-02  0.9424418E-01
        2   -1    0    0  501    0  0.00000000000E+00  0.00000000000E+00  0.68437755321E+03  0.68437755321E+03  0.25500000920E-02 0.  1.
       -2   -1    0    0    0  501  0.00000000000E+00  0.00000000000E+00 -0.29650172278E+03  0.29650172279E+03  0.25500000920E-02 0. -1.
    10030    2    1    2    0    0  0.00000000000E+00  0.00000000000E+00  0.38787583043E+03  0.98087927600E+03  0.90093090427E+03 0.  0.
        3    1    3    3  502    0 -0.27641536498E+03 -0.30447298759E+03 -0.62536408587E+01  0.41127651573E+03  0.10100000352E+00 0. -1.
       -3    1    3    3    0  502  0.27641536498E+03  0.30447298759E+03  0.39412947129E+03  0.56960276027E+03  0.10100000352E+00 0.  1.
</event>
<event>
 5   0  0.3969536E-03  0.8865260E+03  0.7818609E-02  0.9442583E-01
        1   -1    0    0  501    0  0.00000000000E+00  0.00000000000E+00  0.11399061034E+04  0.11399061035E+04  0.50400001928E-02 0. -1.
       -1   -1    0    0    0  501  0.00000000000E+00  0.00000000000E+00 -0.17236690257E+03  0.17236690265E+03  0.50400001928E-02 0.  1.
    10030    2    1    2    0    0  0.00000000000E+00  0.00000000000E+00  0.96753920088E+03  0.13122730061E+04  0.88652599360E+03 0.  0.
        1    1    3    3  502    0 -0.25059513315E+03  0.36369506835E+03  0.42818536436E+03  0.61515423251E+03  0.50400001928E-02 0.  1.
       -1    1    3    3    0  502  0.25059513315E+03 -0.36369506835E+03  0.53935383652E+03  0.69711877359E+03  0.50400001928E-02 0. -1.
</event>
<event>
 5   0  0.6609191E-03  0.8968096E+03  0.7818609E-02  0.9429578E-01
        2   -1    0    0  501    0  0.00000000000E+00  0.00000000000E+00  0.14256154928E+04  0.14256154928E+04  0.25500000920E-02 0.  1.
       -2   -1    0    0    0  501  0.00000000000E+00  0.00000000000E+00 -0.14103864715E+03  0.14103864717E+03  0.25500000920E-02 0. -1.
    10030    2    1    2    0    0  0.00000000000E+00  0.00000000000E+00  0.12845768456E+04  0.15666541400E+04  0.89680963526E+03 0.  0.
        2    1    3    3  502    0 -0.12402147740E+03 -0.40552530467E+03  0.89685228833E+03  0.99205651385E+03  0.25500000920E-02 0.  1.
       -2    1    3    3    0  502  0.12402147740E+03  0.40552530467E+03  0.38772455730E+03  0.57459762610E+03  0.25500000920E-02 0. -1.
</event>
<event>
 5   0  0.6724773E-03  0.9025528E+03  0.7818609E-02  0.9422396E-01
       -2   -1    0    0    0  501  0.00000000000E+00  0.00000000000E+00  0.33927817010E+03  0.33927817011E+03  0.25500000920E-02 0. -1.
        2   -1    0    0  501    0  0.00000000000E+00  0.00000000000E+00 -0.60024609334E+03  0.60024609335E+03  0.25500000920E-02 0.  1.
    10030    2    1    2    0    0  0.00000000000E+00  0.00000000000E+00 -0.26096792325E+03  0.93952426345E+03  0.90255281544E+03 0.  0.
        5    1    3    3  502    0 -0.43203456021E+03 -0.20750259770E+02 -0.26437575274E+03  0.50695272278E+03  0.46999998093E+01 0.  1.
       -5    1    3    3    0  502  0.43203456021E+03  0.20750259770E+02  0.34078294936E+01  0.43257154067E+03  0.46999998093E+01 0. -1.
</event>
<event>
 5   0  0.3943549E-03  0.8859466E+03  0.7818609E-02  0.9443321E-01
       -1   -1    0    0    0  501  0.00000000000E+00  0.00000000000E+00  0.19251374469E+03  0.19251374476E+03  0.50400001928E-02 0. -1.
        1   -1    0    0  501    0  0.00000000000E+00  0.00000000000E+00 -0.10192797373E+04  0.10192797373E+04  0.50400001928E-02 0.  1.
    10030    2    1    2    0    0  0.00000000000E+00  0.00000000000E+00 -0.82676599257E+03  0.12117934820E+04  0.88594663306E+03 0.  0.
        3    1    3    3  502    0 -0.25233115799E+03  0.31467184115E+02  0.82740545682E+02  0.26740831152E+03  0.10100000352E+00 0. -1.
       -3    1    3    3    0  502  0.25233115799E+03 -0.31467184115E+02 -0.90950653825E+03  0.94438517051E+03  0.10100000352E+00 0.  1.
</event>
<event>
 5   0  0.3998066E-03  0.9023495E+03  0.7818609E-02  0.9422649E-01
        1   -1    0    0  501    0  0.00000000000E+00  0.00000000000E+00  0.60320538464E+03  0.60320538466E+03  0.50400001928E-02 0. -1.
       -1   -1    0    0    0  501  0.00000000000E+00  0.00000000000E+00 -0.33746159606E+03  0.33746159610E+03  0.50400001928E-02 0.  1.
    10030    2    1    2    0    0  0.00000000000E+00  0.00000000000E+00  0.26574378858E+03  0.94066698075E+03  0.90234949300E+03 0.  0.
        4    1    3    3  502    0 -0.36564722737E+03  0.22030996547E+03 -0.19351655293E+02  0.42732946918E+03  0.12699999809E+01 0.  1.
       -4    1    3    3    0  502  0.36564722737E+03 -0.22030996547E+03  0.28509544387E+03  0.51333751157E+03  0.12699999809E+01 0. -1.
</event>
<event>
 5   0  0.3794006E-03  0.8978424E+03  0.7818609E-02  0.9428283E-01
        1   -1    0    0  501    0  0.00000000000E+00  0.00000000000E+00  0.92177131183E+03  0.92177131184E+03  0.50400001928E-02 0.  1.
       -1   -1    0    0    0  501  0.00000000000E+00  0.00000000000E+00 -0.21863368571E+03  0.21863368577E+03  0.50400001928E-02 0. -1.
    10030    2    1    2    0    0  0.00000000000E+00  0.00000000000E+00  0.70313762612E+03  0.11404049976E+04  0.89784243456E+03 0.  0.
        5    1    3    3  502    0  0.73681834138E+02 -0.33783517110E+03  0.71516919567E+03  0.79438698626E+03  0.46999998093E+01 0.  1.
       -5    1    3    3    0  502 -0.73681834138E+02  0.33783517110E+03 -0.12031569546E+02  0.34601801135E+03  0.46999998093E+01 0. -1.
</event>
<event>
 5   0  0.2560250E-03  0.9135389E+03  0.7818609E-02  0.9408814E-01
       -3   -1    0    0    0  501  0.00000000000E+00  0.00000000000E+00  0.10088535037E+04  0.10088535087E+04  0.10100000352E+00 0. -1.
        3   -1    0    0  501    0  0.00000000000E+00  0.00000000000E+00 -0.20680734690E+03  0.20680737156E+03  0.10100000352E+00 0.  1.
    10030    2    1    2    0    0  0.00000000000E+00  0.00000000000E+00  0.80204615678E+03  0.12156608803E+04  0.91353890900E+03 0.  0.
        1    1    3    3  502    0  0.41233247067E+03 -0.19127026868E+03  0.46106702245E+03  0.64744511834E+03  0.50400001928E-02 0. -1.
       -1    1    3    3    0  502 -0.41233247067E+03  0.19127026868E+03  0.34097913433E+03  0.56821576194E+03  0.50400001928E-02 0.  1.
</event>
<event>
 5   0  0.2560250E-03  0.9012091E+03  0.7818609E-02  0.9424071E-01
       -3   -1    0    0    0  501  0.00000000000E+00  0.00000000000E+00  0.47964097889E+03  0.47964098952E+03  0.10100000352E+00 0.  1.
        3   -1    0    0  501    0  0.00000000000E+00  0.00000000000E+00 -0.42332591390E+03  0.42332592595E+03  0.10100000352E+00 0. -1.
    10030    2    1    2    0    0  0.00000000000E+00  0.00000000000E+00  0.56315064983E+02  0.90296691547E+03  0.90120911219E+03 0.  0.
        4    1    3    3  502    0  0.27325802909E+03 -0.35278764781E+03 -0.34524687140E+02  0.44757417467E+03  0.12699999809E+01 0. -1.
       -4    1    3    3    0  502 -0.27325802909E+03  0.35278764781E+03  0.90839752123E+02  0.45539274080E+03  0.12699999809E+01 0.  1.
</event>
<event>
 5   0  0.3943549E-03  0.8994974E+03  0.7818609E-02  0.9426210E-01
       -1   -1    0    0    0  501  0.00000000000E+00  0.00000000000E+00  0.53164507895E+03  0.53164507898E+03  0.50400001928E-02 0. -1.
        1   -1    0    0  501    0  0.00000000000E+00  0.00000000000E+00 -0.38046794309E+03  0.38046794312E+03  0.50400001928E-02 0.  1.
    10030    2    1    2    0    0  0.00000000000E+00  0.00000000000E+00  0.15117713587E+03  0.91211302210E+03  0.89949743673E+03 0.  0.
        3    1    3    3  502    0 -0.99329607108E+02  0.47055194399E+02 -0.36663957335E+03  0.38275991054E+03  0.10100000352E+00 0.  1.
       -3    1    3    3    0  502  0.99329607108E+02 -0.47055194399E+02  0.51781670922E+03  0.52935311156E+03  0.10100000352E+00 0. -1.
</event>
<event>
 5   0  0.6724773E-03  0.8978083E+03  0.7818609E-02  0.9428325E-01
        2   -1    0    0  501    0  0.00000000000E+00  0.00000000000E+00  0.11949789254E+04  0.11949789254E+04  0.25500000920E-02 0. -1.
       -2   -1    0    0    0  501  0.00000000000E+00  0.00000000000E+00 -0.16863473237E+03  0.16863473238E+03  0.25500000920E-02 0.  1.
    10030    2    1    2    0    0  0.00000000000E+00  0.00000000000E+00  0.10263441931E+04  0.13636136578E+04  0.89780833430E+03 0.  0.
        5    1    3    3  502    0  0.14873598139E+03 -0.38602776267E+03  0.77778363345E+03  0.88097065568E+03  0.46999998093E+01 0. -1.
       -5    1    3    3    0  502 -0.14873598139E+03  0.38602776267E+03  0.24856055960E+03  0.48264300212E+03  0.46999998093E+01 0.  1.
</event>
<event>
 5   0  0.2560250E-03  0.8980495E+03  0.7818609E-02  0.9428023E-01
        3   -1    0    0  501    0  0.00000000000E+00  0.00000000000E+00  0.73858460434E+03  0.73858461124E+03  0.10100000352E+00 0.  1.
       -3   -1    0    0    0  501  0.00000000000E+00  0.00000000000E+00 -0.27298596322E+03  0.27298598190E+03  0.10100000352E+00 0. -1.
    10030    2    1    2    0    0  0.00000000000E+00  0.00000000000E+00  0.46559864112E+03  0.10115705931E+04  0.89804953667E+03 0.  0.
        4    1    3    3  502    0  0.26520457275E+03  0.31929536402E+03  0.42573646792E+03  0.59458905801E+03  0.12699999809E+01 0.  1.
       -4    1    3    3    0  502 -0.26520457275E+03 -0.31929536402E+03  0.39862173196E+02  0.41698153513E+03  0.12699999809E+01 0. -1.
</event>
<event>
 5   0  0.6724773E-03  0.9009659E+03  0.7818609E-02  0.9424375E-01
        2   -1    0    0  501    0  0.00000000000E+00  0.00000000000E+00  0.52124435516E+03  0.52124435517E+03  0.25500000920E-02 0.  1.
       -2   -1    0    0    0  501  0.00000000000E+00  0.00000000000E+00 -0.38932777440E+03  0.38932777441E+03  0.25500000920E-02 0. -1.
    10030    2    1    2    0    0  0.00000000000E+00  0.00000000000E+00  0.13191658076E+03  0.91057212958E+03  0.90096593659E+03 0.  0.
        5    1    3    3  502    0  0.23204471183E+02 -0.44127019274E+03  0.15438391420E+03  0.46809647878E+03  0.46999998093E+01 0. -1.
       -5    1    3    3    0  502 -0.23204471183E+02  0.44127019274E+03 -0.22467333438E+02  0.44247565080E+03  0.46999998093E+01 0.  1.
</event>
<event>
 5   0  0.3998066E-03  0.8998425E+03  0.7818609E-02  0.9425778E-01
        1   -1    0    0  501    0  0.00000000000E+00  0.00000000000E+00  0.44612966333E+03  0.44612966336E+03  0.50400001928E-02 0. -1.
       -1   -1    0    0    0  501  0.00000000000E+00  0.00000000000E+00 -0.45374507655E+03  0.45374507658E+03  0.50400001928E-02 0.  1.
    10030    2    1    2    0    0  0.00000000000E+00  0.00000000000E+00 -0.76154132200E+01  0.89987473995E+03  0.89984251571E+03 0.  0.
        4    1    3    3  502    0  0.36745794284E+03  0.92283955466E+02  0.23886506642E+03  0.44788369143E+03  0.12699999809E+01 0. -1.
       -4    1    3    3    0  502 -0.36745794284E+03 -0.92283955466E+02 -0.24648047964E+03  0.45199104851E+03  0.12699999809E+01 0.  1.
</event>
<event>
 5   0  0.3794006E-03  0.9041031E+03  0.7818609E-02  0.9420467E-01
        1   -1    0    0  501    0  0.00000000000E+00  0.00000000000E+00  0.36301548712E+03  0.36301548716E+03  0.50400001928E-02 0. -1.
       -1   -1    0    0    0  501  0.00000000000E+00  0.00000000000E+00 -0.56292533740E+03  0.56292533742E+03  0.50400001928E-02 0.  1.
    10030    2    1    2    0    0  0.00000000000E+00  0.00000000000E+00 -0.19990985027E+03  0.92594082458E+03  0.90410312597E+03 0.  0.
        5    1    3    3  502    0 -0.13960965937E+03  0.40227763342E+03 -0.25531059319E+03  0.49651157120E+03  0.46999998093E+01 0.  1.
       -5    1    3    3    0  502  0.13960965937E+03 -0.40227763342E+03  0.55400742922E+02  0.42942925338E+03  0.46999998093E+01 0. -1.
</event>
<event>
 5   0  0.6524705E-03  0.9086320E+03  0.7818609E-02  0.9414855E-01
        2   -1    0    0  501    0  0.00000000000E+00  0.00000000000E+00  0.25539540770E+04  0.25539540770E+04  0.25500000920E-02 0. -1.
       -2   -1    0    0    0  501  0.00000000000E+00  0.00000000000E+00 -0.80817040061E+02  0.80817040101E+02  0.25500000920E-02 0.  1.
    10030    2    1    2    0    0  0.00000000000E+00  0.00000000000E+00  0.24731370370E+04  0.26347711171E+04  0.90863195852E+03 0.  0.
        3    1    3    3  502    0 -0.36575663047E+03  0.65722677746E+02  0.19944182331E+04  0.20287438186E+04  0.10100000352E+00 0. -1.
       -3    1    3    3    0  502  0.36575663047E+03 -0.65722677746E+02  0.47871880392E+03  0.60602729851E+03  0.10100000352E+00 0.  1.
</event>
<event>
 5   0  0.6724773E-03  0.8742593E+03  0.7818609E-02  0.9458343E-01
       -2   -1    0    0    0  501  0.00000000000E+00  0.00000000000E+00  0.28042511315E+03  0.28042511316E+03  0.25500000920E-02 0. -1.
        2   -1    0    0  501    0  0.00000000000E+00  0.00000000000E+00 -0.68140237969E+03  0.68140237969E+03  0.25500000920E-02 0.  1.
    10030    2    1    2    0    0  0.00000000000E+00  0.00000000000E+00 -0.40097726654E+03  0.96182749285E+03  0.87425931950E+03 0.  0.
        5    1    3    3  502    0 -0.18582374749E+03  0.10467634679E+03  0.21926726300E+03  0.30592127309E+03  0.46999998093E+01 0. -1.
       -5    1    3    3    0  502  0.18582374749E+03 -0.10467634679E+03 -0.62024452954E+03  0.65590621976E+03  0.46999998093E+01 0.  1.
</event>
<event>
 5   0  0.2560250E-03  0.8991707E+03  0.7818609E-02  0.9426619E-01
       -3   -1    0    0    0  501  0.00000000000E+00  0.00000000000E+00  0.94802973249E+03  0.94802973787E+03  0.10100000352E+00 0. -1.
        3   -1    0    0  501    0  0.00000000000E+00  0.00000000000E+00 -0.21320740259E+03  0.21320742652E+03  0.10100000352E+00 0.  1.
    10030    2    1    2    0    0  0.00000000000E+00  0.00000000000E+00  0.73482232990E+03  0.11612371644E+04  0.89917067092E+03 0.  0.
        4    1    3    3  502    0 -0.24524101982E+03  0.24946392379E+03  0.27042361591E+01  0.34983472222E+03  0.12699999809E+01 0.  1.
       -4    1    3    3    0  502  0.24524101982E+03 -0.24946392379E+03  0.73211809374E+03  0.81140244217E+03  0.12699999809E+01 0. -1.
</event>
<event>
 5   0  0.6534628E-03  0.9047395E+03  0.7818609E-02  0.9419676E-01
       -2   -1    0    0    0  501  0.00000000000E+00  0.00000000000E+00  0.26188160804E+03  0.26188160805E+03  0.25500000920E-02 0.  1.
        2   -1    0    0  501    0  0.00000000000E+00  0.00000000000E+00 -0.78141569422E+03  0.78141569423E+03  0.25500000920E-02 0. -1.
    10030    2    1    2    0    0  0.00000000000E+00  0.00000000000E+00 -0.51953408618E+03  0.10432973023E+04  0.90473951734E+03 0.  0.
        4    1    3    3  502    0  0.29846731677E+03  0.31976189117E+03 -0.12674779883E+03  0.45540863369E+03  0.12699999809E+01 0. -1.
       -4    1    3    3    0  502 -0.29846731677E+03 -0.31976189117E+03 -0.39278628735E+03  0.58788866859E+03  0.12699999809E+01 0.  1.
</event>
<event>
 5   0  0.3943549E-03  0.8958086E+03  0.7818609E-02  0.9430836E-01
       -1   -1    0    0    0  501  0.00000000000E+00  0.00000000000E+00  0.56779781252E+03  0.56779781254E+03  0.50400001928E-02 0.  1.
        1   -1    0    0  501    0  0.00000000000E+00  0.00000000000E+00 -0.35332690031E+03  0.35332690035E+03  0.50400001928E-02 0. -1.
    10030    2    1    2    0    0  0.00000000000E+00  0.00000000000E+00  0.21447091221E+03  0.92112471289E+03  0.89580855349E+03 0.  0.
        3    1    3    3  502    0  0.41365031012E+03  0.17178701191E+03  0.10819697594E+03  0.46078623279E+03  0.10100000352E+00 0. -1.
       -3    1    3    3    0  502 -0.41365031012E+03 -0.17178701191E+03  0.10627393627E+03  0.46033848010E+03  0.10100000352E+00 0.  1.
</event>
<event>
 5   0  0.3927993E-03  0.8917794E+03  0.7818609E-02  0.9435916E-01
        1   -1    0    0  501    0  0.00000000000E+00  0.00000000000E+00  0.11077154844E+04  0.11077154844E+04  0.50400001928E-02 0. -1.
       -1   -1    0    0    0  501  0.00000000000E+00  0.00000000000E+00 -0.17948439728E+03  0.17948439735E+03  0.50400001928E-02 0.  1.
    10030    2    1    2    0    0  0.00000000000E+00  0.00000000000E+00  0.92823108714E+03  0.12871998818E+04  0.89177944836E+03 0.  0.
        2    1    3    3  502    0  0.33321418428E+03  0.13681828440E+03  0.84780541466E+02  0.37005226086E+03  0.25500000920E-02 0.  1.
       -2    1    3    3    0  502 -0.33321418428E+03 -0.13681828440E+03  0.84345054568E+03  0.91714762092E+03  0.25500000920E-02 0. -1.
</event>
<event>
 5   0  0.3998066E-03  0.8988070E+03  0.7818609E-02  0.9427074E-01
        1   -1    0    0  501    0  0.00000000000E+00  0.00000000000E+00  0.35649741011E+03  0.35649741015E+03  0.50400001928E-02 0.  1.
       -1   -1    0    0    0  501  0.00000000000E+00  0.00000000000E+00 -0.56652161735E+03  0.56652161737E+03  0.50400001928E-02 0. -1.
    10030    2    1    2    0    0  0.00000000000E+00  0.00000000000E+00 -0.21002420723E+03  0.92301902752E+03  0.89880696344E+03 0.  0.
        4    1    3    3  502    0 -0.25102818323E+03  0.28890420718E+03 -0.34690143007E+03  0.51654913105E+03  0.12699999809E+01 0. -1.
       -4    1    3    3    0  502  0.25102818323E+03 -0.28890420718E+03  0.13687722283E+03  0.40646989647E+03  0.12699999809E+01 0.  1.
</event>
<event>
 5   0  0.3998066E-03  0.8991108E+03  0.7818609E-02  0.9426694E-01
       -1   -1    0    0    0  501  0.00000000000E+00  0.00000000000E+00  0.19592858928E+03  0.19592858934E+03  0.50400001928E-02 0. -1.
        1   -1    0    0  501    0  0.00000000000E+00  0.00000000000E+00 -0.10314986336E+04  0.10314986336E+04  0.50400001928E-02 0.  1.
    10030    2    1    2    0    0  0.00000000000E+00  0.00000000000E+00 -0.83557004430E+03  0.12274272229E+04  0.89911083224E+03 0.  0.
        4    1    3    3  502    0  0.13328636350E+03  0.37211136535E+03 -0.12541721729E+03  0.41468447549E+03  0.12699999809E+01 0.  1.
       -4    1    3    3    0  502 -0.13328636350E+03 -0.37211136535E+03 -0.71015282701E+03  0.81274274745E+03  0.12699999809E+01 0. -1.
</event>
<event>
 5   0  0.3969536E-03  0.8899693E+03  0.7818609E-02  0.9438208E-01
       -1   -1    0    0    0  501  0.00000000000E+00  0.00000000000E+00  0.66749333812E+03  0.66749333814E+03  0.50400001928E-02 0. -1.
        1   -1    0    0  501    0  0.00000000000E+00  0.00000000000E+00 -0.29664917095E+03  0.29664917099E+03  0.50400001928E-02 0.  1.
    10030    2    1    2    0    0  0.00000000000E+00  0.00000000000E+00  0.37084416717E+03  0.96414250913E+03  0.88996931496E+03 0.  0.
        1    1    3    3  502    0  0.42062422676E+03  0.14470739851E+03  0.17231523618E+03  0.47702988582E+03  0.50400001928E-02 0. -1.
       -1    1    3    3    0  502 -0.42062422676E+03 -0.14470739851E+03  0.19852893099E+03  0.48711262331E+03  0.50400001928E-02 0.  1.
</event>
<event>
 5   0  0.3794006E-03  0.8901230E+03  0.7818609E-02  0.9438013E-01
        1   -1    0    0  501    0  0.00000000000E+00  0.00000000000E+00  0.31485406199E+03  0.31485406203E+03  0.50400001928E-02 0. -1.
       -1   -1    0    0    0  501  0.00000000000E+00  0.00000000000E+00 -0.62911606351E+03  0.62911606353E+03  0.50400001928E-02 0.  1.
    10030    2    1    2    0    0  0.00000000000E+00  0.00000000000E+00 -0.31426200151E+03  0.94397012556E+03  0.89012302091E+03 0.  0.
        5    1    3    3  502    0  0.23024486921E+03  0.29357954543E+03 -0.41440957534E+03  0.55763701045E+03  0.46999998093E+01 0.  1.
       -5    1    3    3    0  502 -0.23024486921E+03 -0.29357954543E+03  0.10014757382E+03  0.38633311511E+03  0.46999998093E+01 0. -1.
</event>
<event>
 5   0  0.6534628E-03  0.8992049E+03  0.7818609E-02  0.9426576E-01
       -2   -1    0    0    0  501  0.00000000000E+00  0.00000000000E+00  0.15149801570E+03  0.15149801572E+03  0.25500000920E-02 0. -1.
        2   -1    0    0  501    0  0.00000000000E+00  0.00000000000E+00 -0.13342903588E+04  0.13342903588E+04  0.25500000920E-02 0.  1.
    10030    2    1    2    0    0  0.00000000000E+00  0.00000000000E+00 -0.11827923431E+04  0.14857883745E+04  0.89920485260E+03 0.  0.
        4    1    3    3  502    0 -0.33209894215E+03  0.29288401538E+03 -0.46266261580E+03  0.64041319693E+03  0.12699999809E+01 0. -1.
       -4    1    3    3    0  502  0.33209894215E+03 -0.29288401538E+03 -0.72012972725E+03  0.84537517755E+03  0.12699999809E+01 0.  1.
</event>
<event>
 5   0  0.3794006E-03  0.9041487E+03  0.7818609E-02  0.9420410E-01
       -1   -1    0    0    0  501  0.00000000000E+00  0.00000000000E+00  0.28945380298E+03  0.28945380302E+03  0.50400001928E-02 0.  1.
        1   -1    0    0  501    0  0.00000000000E+00  0.00000000000E+00 -0.70605811880E+03  0.70605811881E+03  0.50400001928E-02 0. -1.
    10030    2    1    2    0    0  0.00000000000E+00  0.00000000000E+00 -0.41660431582E+03  0.99551192184E+03  0.90414867725E+03 0.  0.
        5    1    3    3  502    0 -0.40853015395E+03 -0.16547327443E+03 -0.31879627834E+03  0.54399581645E+03  0.46999998093E+01 0. -1.
       -5    1    3    3    0  502  0.40853015395E+03  0.16547327443E+03 -0.97808037480E+02  0.45151610539E+03  0.46999998093E+01 0.  1.
</event>
<event>
 5   0  0.6534628E-03  0.8970297E+03  0.7818609E-02  0.9429302E-01
        2   -1    0    0  501    0  0.00000000000E+00  0.00000000000E+00  0.87482821740E+03  0.87482821741E+03  0.25500000920E-02 0.  1.
       -2   -1    0    0    0  501  0.00000000000E+00  0.00000000000E+00 -0.22994865319E+03  0.22994865321E+03  0.25500000920E-02 0. -1.
    10030    2    1    2    0    0  0.00000000000E+00  0.00000000000E+00  0.64487956421E+03  0.11047768706E+04  0.89702969935E+03 0.  0.
        4    1    3    3  502    0  0.27192413388E+03  0.30855061239E+03  0.10206438651E+03  0.42375106712E+03  0.12699999809E+01 0. -1.
       -4    1    3    3    0  502 -0.27192413388E+03 -0.30855061239E+03  0.54281517770E+03  0.68102580350E+03  0.12699999809E+01 0.  1.
</event>
<event>
 5   0  0.3969536E-03  0.8999748E+03  0.7818609E-02  0.9425613E-01
       -1   -1    0    0    0  501  0.00000000000E+00  0.00000000000E+00  0.28538042648E+03  0.28538042652E+03  0.50400001928E-02 0.  1.
        1   -1    0    0  501    0  0.00000000000E+00  0.00000000000E+00 -0.70953935489E+03  0.70953935491E+03  0.50400001928E-02 0. -1.
    10030    2    1    2    0    0  0.00000000000E+00  0.00000000000E+00 -0.42415892841E+03  0.99491978143E+03  0.89997476349E+03 0.  0.
        1    1    3    3  502    0  0.17105768311E+03  0.41258543190E+03 -0.15151702864E+03  0.47164062543E+03  0.50400001928E-02 0. -1.
       -1    1    3    3    0  502 -0.17105768311E+03 -0.41258543190E+03 -0.27264189977E+03  0.52327915599E+03  0.50400001928E-02 0.  1.
</event>
<event>
 5   0  0.6863405E-03  0.9107345E+03  0.7818609E-02  0.9412261E-01
        2   -1    0    0  501    0  0.00000000000E+00  0.00000000000E+00  0.66011070901E+03  0.66011070901E+03  0.25500000920E-02 0. -1.
       -2   -1    0    0    0  501  0.00000000000E+00  0.00000000000E+00 -0.31412808306E+03  0.31412808307E+03  0.25500000920E-02 0.  1.
    10030    2    1    2    0    0  0.00000000000E+00  0.00000000000E+00  0.34598262595E+03  0.97423879208E+03  0.91073445446E+03 0.  0.
        1    1    3    3  502    0  0.41819979865E+03  0.64316381373E+02  0.35304811504E+03  0.55106319063E+03  0.50400001928E-02 0. -1.
       -1    1    3    3    0  502 -0.41819979865E+03 -0.64316381373E+02 -0.70654890880E+01  0.42317560145E+03  0.50400001928E-02 0.  1.
</event>
<event>
 5   0  0.3943549E-03  0.9039934E+03  0.7818609E-02  0.9420603E-01
        1   -1    0    0  501    0  0.00000000000E+00  0.00000000000E+00  0.14368308302E+04  0.14368308302E+04  0.50400001928E-02 0.  1.
       -1   -1    0    0    0  501  0.00000000000E+00  0.00000000000E+00 -0.14218862282E+03  0.14218862291E+03  0.50400001928E-02 0. -1.
    10030    2    1    2    0    0  0.00000000000E+00  0.00000000000E+00  0.12946422074E+04  0.15790194531E+04  0.90399335627E+03 0.  0.
        3    1    3    3  502    0 -0.36144732049E+03  0.41991308223E+02  0.11156675296E+04  0.11735081944E+04  0.10100000352E+00 0.  1.
       -3    1    3    3    0  502  0.36144732049E+03 -0.41991308223E+02  0.17897467772E+03  0.40551125869E+03  0.10100000352E+00 0. -1.
</event>
<event>
 5   0  0.6609191E-03  0.9060675E+03  0.7818609E-02  0.9418028E-01
       -2   -1    0    0    0  501  0.00000000000E+00  0.00000000000E+00  0.66593415921E+03  0.66593415921E+03  0.25500000920E-02 0. -1.
        2   -1    0    0  501    0  0.00000000000E+00  0.00000000000E+00 -0.30819800827E+03  0.30819800828E+03  0.25500000920E-02 0.  1.
    10030    2    1    2    0    0  0.00000000000E+00  0.00000000000E+00  0.35773615094E+03  0.97413216749E+03  0.90606750635E+03 0.  0.
        2    1    3    3  502    0  0.22344203107E+03  0.38197209523E+03  0.28316344651E+03  0.52536707189E+03  0.25500000920E-02 0. -1.
       -2    1    3    3    0  502 -0.22344203107E+03 -0.38197209523E+03  0.74572704427E+02  0.44876509560E+03  0.25500000920E-02 0.  1.
</event>
<event>
 5   0  0.3969536E-03  0.8987761E+03  0.7818609E-02  0.9427113E-01
        1   -1    0    0  501    0  0.00000000000E+00  0.00000000000E+00  0.18687303000E+04  0.18687303000E+04  0.50400001928E-02 0. -1.
       -1   -1    0    0    0  501  0.00000000000E+00  0.00000000000E+00 -0.10806781774E+03  0.10806781785E+03  0.50400001928E-02 0.  1.
    10030    2    1    2    0    0  0.00000000000E+00  0.00000000000E+00  0.17606624822E+04  0.19767981178E+04  0.89877606906E+03 0.  0.
        1    1    3    3  502    0 -0.23003476414E+03 -0.31928077386E+03  0.40303189100E+03  0.56328581595E+03  0.50400001928E-02 0.  1.
       -1    1    3    3    0  502  0.23003476414E+03  0.31928077386E+03  0.13576305912E+04  0.14135123019E+04  0.50400001928E-02 0. -1.
</event>
<event>
 5   0  0.3943549E-03  0.9000536E+03  0.7818609E-02  0.9425514E-01
        1   -1    0    0  501    0  0.00000000000E+00  0.00000000000E+00  0.10310439132E+04  0.10310439132E+04  0.50400001928E-02 0. -1.
       -1   -1    0    0    0  501  0.00000000000E+00  0.00000000000E+00 -0.19642629431E+03  0.19642629438E+03  0.50400001928E-02 0.  1.
    10030    2    1    2    0    0  0.00000000000E+00  0.00000000000E+00  0.83461761888E+03  0.12274702076E+04  0.90005363216E+03 0.  0.
        3    1    3    3  502    0 -0.15997906825E+03 -0.15137462515E+03 -0.11790370589E+03  0.24981768048E+03  0.10100000352E+00 0.  1.
       -3    1    3    3    0  502  0.15997906825E+03  0.15137462515E+03  0.95252132476E+03  0.97765252710E+03  0.10100000352E+00 0. -1.
</event>
<event>
 5   0  0.3969536E-03  0.9031119E+03  0.7818609E-02  0.9421700E-01
       -1   -1    0    0    0  501  0.00000000000E+00  0.00000000000E+00  0.21720876300E+03  0.21720876306E+03  0.50400001928E-02 0.  1.
        1   -1    0    0  501    0  0.00000000000E+00  0.00000000000E+00 -0.93874097404E+03  0.93874097405E+03  0.50400001928E-02 0. -1.
    10030    2    1    2    0    0  0.00000000000E+00  0.00000000000E+00 -0.72153221104E+03  0.11559497371E+04  0.90311187743E+03 0.  0.
        1    1    3    3  502    0 -0.29653094460E+02 -0.10086426759E+03  0.20132544855E+03  0.22712296834E+03  0.50400001928E-02 0.  1.
       -1    1    3    3    0  502  0.29653094460E+02  0.10086426759E+03 -0.92285765959E+03  0.92882676877E+03  0.50400001928E-02 0. -1.
</event>
<event>
 5   0  0.6724773E-03  0.8999453E+03  0.7818609E-02  0.9425650E-01
       -2   -1    0    0    0  501  0.00000000000E+00  0.00000000000E+00  0.13550885426E+03  0.13550885429E+03  0.25500000920E-02 0. -1.
        2   -1    0    0  501    0  0.00000000000E+00  0.00000000000E+00 -0.14941856464E+04  0.14941856464E+04  0.25500000920E-02 0.  1.
    10030    2    1    2    0    0  0.00000000000E+00  0.00000000000E+00 -0.13586767921E+04  0.16296945007E+04  0.89994529838E+03 0.  0.
        5    1    3    3  502    0 -0.22082624337E+03  0.39140184932E+03 -0.63910348880E+03  0.78130339613E+03  0.46999998093E+01 0.  1.
       -5    1    3    3    0  502  0.22082624337E+03 -0.39140184932E+03 -0.71957330332E+03  0.84839110454E+03  0.46999998093E+01 0. -1.
</event>
<event>
 5   0  0.6524705E-03  0.9085137E+03  0.7818609E-02  0.9415001E-01
        2   -1    0    0  501    0  0.00000000000E+00  0.00000000000E+00  0.22594813502E+04  0.22594813502E+04  0.25500000920E-02 0. -1.
       -2   -1    0    0    0  501  0.00000000000E+00  0.00000000000E+00 -0.91325943568E+02  0.91325943603E+02  0.25500000920E-02 0.  1.
    10030    2    1    2    0    0  0.00000000000E+00  0.00000000000E+00  0.21681554067E+04  0.23508072938E+04  0.90851365719E+03 0.  0.
        3    1    3    3  502    0 -0.84525690942E+02 -0.39378994437E+03  0.16276695326E+04  0.16767597414E+04  0.10100000352E+00 0. -1.
       -3    1    3    3    0  502  0.84525690942E+02  0.39378994437E+03  0.54048587403E+03  0.67404755243E+03  0.10100000352E+00 0.  1.
</event>
<event>
 5   0  0.6863405E-03  0.9156552E+03  0.7818609E-02  0.9406221E-01
       -2   -1    0    0    0  501  0.00000000000E+00  0.00000000000E+00  0.17945871561E+03  0.17945871563E+03  0.25500000920E-02 0.  1.
        2   -1    0    0  501    0  0.00000000000E+00  0.00000000000E+00 -0.11679906271E+04  0.11679906271E+04  0.25500000920E-02 0. -1.
    10030    2    1    2    0    0  0.00000000000E+00  0.00000000000E+00 -0.98853191153E+03  0.13474493428E+04  0.91565517048E+03 0.  0.
        1    1    3    3  502    0  0.27110719904E+03 -0.14241033009E+03 -0.99508871115E+03  0.10411442544E+04  0.50400001928E-02 0. -1.
       -1    1    3    3    0  502 -0.27110719904E+03  0.14241033009E+03  0.65567996204E+01  0.30630508832E+03  0.50400001928E-02 0.  1.
</event>
<event>
 5   0  0.3927993E-03  0.9155541E+03  0.7818609E-02  0.9406344E-01
        1   -1    0    0  501    0  0.00000000000E+00  0.00000000000E+00  0.12433780123E+04  0.12433780123E+04  0.50400001928E-02 0.  1.
       -1   -1    0    0    0  501  0.00000000000E+00  0.00000000000E+00 -0.16854071468E+03  0.16854071475E+03  0.50400001928E-02 0. -1.
    10030    2    1    2    0    0  0.00000000000E+00  0.00000000000E+00  0.10748372976E+04  0.14119187271E+04  0.91555408112E+03 0.  0.
        2    1    3    3  502    0  0.24727476503E+03  0.29522535261E+03  0.91910230155E+03  0.99651987384E+03  0.25500000920E-02 0.  1.
       -2    1    3    3    0  502 -0.24727476503E+03 -0.29522535261E+03  0.15573499607E+03  0.41539885322E+03  0.25500000920E-02 0. -1.
</event>
<event>
 5   0  0.3969536E-03  0.9251522E+03  0.7818609E-02  0.9394675E-01
       -1   -1    0    0    0  501  0.00000000000E+00  0.00000000000E+00  0.25133344407E+03  0.25133344412E+03  0.50400001928E-02 0.  1.
        1   -1    0    0  501    0  0.00000000000E+00  0.00000000000E+00 -0.85136554964E+03  0.85136554966E+03  0.50400001928E-02 0. -1.
    10030    2    1    2    0    0  0.00000000000E+00  0.00000000000E+00 -0.60003210557E+03  0.11026989938E+04  0.92515217298E+03 0.  0.
        1    1    3    3  502    0  0.47478029434E+02 -0.44463746060E+03 -0.15888654426E+03  0.47455407345E+03  0.50400001928E-02 0.  1.
       -1    1    3    3    0  502 -0.47478029434E+02  0.44463746060E+03 -0.44114556131E+03  0.62814492033E+03  0.50400001928E-02 0. -1.
</event>
<event>
 5   0  0.6724773E-03  0.8992135E+03  0.7818609E-02  0.9426565E-01
       -2   -1    0    0    0  501  0.00000000000E+00  0.00000000000E+00  0.15424579861E+03  0.15424579863E+03  0.25500000920E-02 0. -1.
        2   -1    0    0  501    0  0.00000000000E+00  0.00000000000E+00 -0.13105462233E+04  0.13105462233E+04  0.25500000920E-02 0.  1.
    10030    2    1    2    0    0  0.00000000000E+00  0.00000000000E+00 -0.11563004247E+04  0.14647920219E+04  0.89921354270E+03 0.  0.
        5    1    3    3  502    0 -0.19641407491E+03 -0.12130348565E+03  0.50284293154E+02  0.23631255699E+03  0.46999998093E+01 0. -1.
       -5    1    3    3    0  502  0.19641407491E+03  0.12130348565E+03 -0.12065847178E+04  0.12284794649E+04  0.46999998093E+01 0.  1.
</event>
<event>
 5   0  0.3794006E-03  0.8982926E+03  0.7818609E-02  0.9427718E-01
       -1   -1    0    0    0  501  0.00000000000E+00  0.00000000000E+00  0.67404411402E+03  0.67404411404E+03  0.50400001928E-02 0.  1.
        1   -1    0    0  501    0  0.00000000000E+00  0.00000000000E+00 -0.29928667377E+03  0.29928667381E+03  0.50400001928E-02 0. -1.
    10030    2    1    2    0    0  0.00000000000E+00  0.00000000000E+00  0.37475744025E+03  0.97333078785E+03  0.89829264917E+03 0.  0.
        5    1    3    3  502    0 -0.33117485139E+03  0.74458774281E+01  0.51599180329E+03  0.61318990072E+03  0.46999998093E+01 0.  1.
       -5    1    3    3    0  502  0.33117485139E+03 -0.74458774281E+01 -0.14123436304E+03  0.36014088713E+03  0.46999998093E+01 0. -1.
</event>
<event>
 5   0  0.3998066E-03  0.8923458E+03  0.7818609E-02  0.9435200E-01
       -1   -1    0    0    0  501  0.00000000000E+00  0.00000000000E+00  0.48470114358E+03  0.48470114360E+03  0.50400001928E-02 0. -1.
        1   -1    0    0  501    0  0.00000000000E+00  0.00000000000E+00 -0.41070722739E+03  0.41070722742E+03  0.50400001928E-02 0.  1.
    10030    2    1    2    0    0  0.00000000000E+00  0.00000000000E+00  0.73993916186E+02  0.89540837103E+03  0.89234581373E+03 0.  0.
        4    1    3    3  502    0  0.28646531837E+03 -0.61935399865E+02  0.37455942349E+03  0.47559935556E+03  0.12699999809E+01 0. -1.
       -4    1    3    3    0  502 -0.28646531837E+03  0.61935399865E+02 -0.30056550731E+03  0.41980901547E+03  0.12699999809E+01 0.  1.
</event>
<event>
 5   0  0.6724773E-03  0.9008856E+03  0.7818609E-02  0.9424475E-01
        2   -1    0    0  501    0  0.00000000000E+00  0.00000000000E+00  0.14040223697E+04  0.14040223697E+04  0.25500000920E-02 0.  1.
       -2   -1    0    0    0  501  0.00000000000E+00  0.00000000000E+00 -0.14451244546E+03  0.14451244549E+03  0.25500000920E-02 0. -1.
    10030    2    1    2    0    0  0.00000000000E+00  0.00000000000E+00  0.12595099243E+04  0.15485348152E+04  0.90088557798E+03 0.  0.
        5    1    3    3  502    0  0.35779582836E+03  0.24188437939E+03  0.40995904252E+03  0.59549510017E+03  0.46999998093E+01 0. -1.
       -5    1    3    3    0  502 -0.35779582836E+03 -0.24188437939E+03  0.84955088174E+03  0.95303971504E+03  0.46999998093E+01 0.  1.
</event>
<event>
 5   0  0.2560250E-03  0.8960445E+03  0.7818609E-02  0.9430540E-01
       -3   -1    0    0    0  501  0.00000000000E+00  0.00000000000E+00  0.34080876478E+03  0.34080877975E+03  0.10100000352E+00 0. -1.
        3   -1    0    0  501    0  0.00000000000E+00  0.00000000000E+00 -0.58896349565E+03  0.58896350431E+03  0.10100000352E+00 0.  1.
    10030    2    1    2    0    0  0.00000000000E+00  0.00000000000E+00 -0.24815473087E+03  0.92977228405E+03  0.89604449094E+03 0.  0.
        2    1    3    3  502    0  0.15629172683E+03 -0.70263816199E+02  0.30546057114E+03  0.35024315592E+03  0.25500000920E-02 0. -1.
       -2    1    3    3    0  502 -0.15629172683E+03  0.70263816199E+02 -0.55361530200E+03  0.57952912814E+03  0.25500000920E-02 0.  1.
</event>
<event>
 5   0  0.6724773E-03  0.9063835E+03  0.7818609E-02  0.9417637E-01
        2   -1    0    0  501    0  0.00000000000E+00  0.00000000000E+00  0.16942857160E+04  0.16942857160E+04  0.25500000920E-02 0.  1.
       -2   -1    0    0    0  501  0.00000000000E+00  0.00000000000E+00 -0.12122085982E+03  0.12122085984E+03  0.25500000920E-02 0. -1.
    10030    2    1    2    0    0  0.00000000000E+00  0.00000000000E+00  0.15730648561E+04  0.18155065758E+04  0.90638351991E+03 0.  0.
        5    1    3    3  502    0 -0.27056910460E+02  0.37503994701E+03  0.12931571369E+04  0.13467236201E+04  0.46999998093E+01 0.  1.
       -5    1    3    3    0  502  0.27056910460E+02 -0.37503994701E+03  0.27990771923E+03  0.46878295568E+03  0.46999998093E+01 0. -1.
</event>
<event>
 5   0  0.6534628E-03  0.8816094E+03  0.7818609E-02  0.9448867E-01
        2   -1    0    0  501    0  0.00000000000E+00  0.00000000000E+00  0.39697660575E+03  0.39697660576E+03  0.25500000920E-02 0.  1.
       -2   -1    0    0    0  501  0.00000000000E+00  0.00000000000E+00 -0.48947160125E+03  0.48947160126E+03  0.25500000920E-02 0. -1.
    10030    2    1    2    0    0  0.00000000000E+00  0.00000000000E+00 -0.92494995500E+02  0.88644820702E+03  0.88160938036E+03 0.  0.
        4    1    3    3  502    0  0.23691521005E+03 -0.33884988793E+03  0.10742820370E+03  0.42718906254E+03  0.12699999809E+01 0.  1.
       -4    1    3    3    0  502 -0.23691521005E+03  0.33884988793E+03 -0.19992319920E+03  0.45925914448E+03  0.12699999809E+01 0. -1.
</event>
<event>
 5   0  0.6863405E-03  0.9033959E+03  0.7818609E-02  0.9421346E-01
        2   -1    0    0  501    0  0.00000000000E+00  0.00000000000E+00  0.60376680372E+03  0.60376680372E+03  0.25500000920E-02 0.  1.
       -2   -1    0    0    0  501  0.00000000000E+00  0.00000000000E+00 -0.33793017629E+03  0.33793017630E+03  0.25500000920E-02 0. -1.
    10030    2    1    2    0    0  0.00000000000E+00  0.00000000000E+00  0.26583662743E+03  0.94169698002E+03  0.90339586544E+03 0.  0.
        1    1    3    3  502    0  0.37056615599E+03  0.22760697786E+03  0.26018813610E+03  0.50677616215E+03  0.50400001928E-02 0. -1.
       -1    1    3    3    0  502 -0.37056615599E+03 -0.22760697786E+03  0.56484913268E+01  0.43492081787E+03  0.50400001928E-02 0.  1.
</event>
<event>
 5   0  0.6863405E-03  0.9104381E+03  0.7818609E-02  0.9412627E-01
        2   -1    0    0  501    0  0.00000000000E+00  0.00000000000E+00  0.62517835193E+03  0.62517835194E+03  0.25500000920E-02 0.  1.
       -2   -1    0    0    0  501  0.00000000000E+00  0.00000000000E+00 -0.33146442554E+03  0.33146442555E+03  0.25500000920E-02 0. -1.
    10030    2    1    2    0    0  0.00000000000E+00  0.00000000000E+00  0.29371392640E+03  0.95664277749E+03  0.91043809957E+03 0.  0.
        1    1    3    3  502    0  0.95314373158E+02 -0.19752874289E+02  0.61411516782E+03  0.62178167000E+03  0.50400001928E-02 0.  1.
       -1    1    3    3    0  502 -0.95314373158E+02  0.19752874289E+02 -0.32040124143E+03  0.33486110749E+03  0.50400001928E-02 0. -1.
</event>
<event>
 5   0  0.3927993E-03  0.9032832E+03  0.7818609E-02  0.9421487E-01
        1   -1    0    0  501    0  0.00000000000E+00  0.00000000000E+00  0.33714215803E+03  0.33714215807E+03  0.50400001928E-02 0. -1.
       -1   -1    0    0    0  501  0.00000000000E+00  0.00000000000E+00 -0.60502709757E+03  0.60502709759E+03  0.50400001928E-02 0.  1.
    10030    2    1    2    0    0  0.00000000000E+00  0.00000000000E+00 -0.26788493954E+03  0.94216925566E+03  0.90328321443E+03 0.  0.
        2    1    3    3  502    0  0.32347649955E+03  0.15346450572E+03 -0.42109717077E+03  0.55273070071E+03  0.25500000920E-02 0.  1.
       -2    1    3    3    0  502 -0.32347649955E+03 -0.15346450572E+03  0.15321223123E+03  0.38943855495E+03  0.25500000920E-02 0. -1.
</event>
<event>
 5   0  0.6863405E-03  0.9046248E+03  0.7818609E-02  0.9419819E-01
       -2   -1    0    0    0  501  0.00000000000E+00  0.00000000000E+00  0.14234797263E+03  0.14234797265E+03  0.25500000920E-02 0.  1.
        2   -1    0    0  501    0  0.00000000000E+00  0.00000000000E+00 -0.14372282643E+04  0.14372282643E+04  0.25500000920E-02 0. -1.
    10030    2    1    2    0    0  0.00000000000E+00  0.00000000000E+00 -0.12948802917E+04  0.15795762370E+04  0.90462484965E+03 0.  0.
        1    1    3    3  502    0 -0.58524134050E+02  0.39958459033E+03 -0.10031228042E+04  0.10813640827E+04  0.50400001928E-02 0. -1.
       -1    1    3    3    0  502  0.58524134050E+02 -0.39958459033E+03 -0.29175748748E+03  0.49821215423E+03  0.50400001928E-02 0.  1.
</event>
<event>
 5   0  0.3794006E-03  0.9043567E+03  0.7818609E-02  0.9420152E-01
       -1   -1    0    0    0  501  0.00000000000E+00  0.00000000000E+00  0.50844793049E+03  0.50844793052E+03  0.50400001928E-02 0. -1.
        1   -1    0    0  501    0  0.00000000000E+00  0.00000000000E+00 -0.40213606863E+03  0.40213606866E+03  0.50400001928E-02 0.  1.
    10030    2    1    2    0    0  0.00000000000E+00  0.00000000000E+00  0.10631186187E+03  0.91058399918E+03  0.90435668162E+03 0.  0.
        5    1    3    3  502    0  0.28434856691E+03 -0.33430207759E+03  0.16267612580E+03  0.46807862426E+03  0.46999998093E+01 0.  1.
       -5    1    3    3    0  502 -0.28434856691E+03  0.33430207759E+03 -0.56364263931E+02  0.44250537492E+03  0.46999998093E+01 0. -1.
</event>
<event>
 5   0  0.3943549E-03  0.9057002E+03  0.7818609E-02  0.9418484E-01
        1   -1    0    0  501    0  0.00000000000E+00  0.00000000000E+00  0.29413266541E+04  0.29413266541E+04  0.50400001928E-02 0. -1.
       -1   -1    0    0    0  501  0.00000000000E+00  0.00000000000E+00 -0.69721329099E+02  0.69721329281E+02  0.50400001928E-02 0.  1.
    10030    2    1    2    0    0  0.00000000000E+00  0.00000000000E+00  0.28716053250E+04  0.30110479834E+04  0.90570017980E+03 0.  0.
        3    1    3    3  502    0  0.16036376004E+03 -0.41663530641E+03  0.11832311697E+04  0.12646491709E+04  0.10100000352E+00 0. -1.
       -3    1    3    3    0  502 -0.16036376004E+03  0.41663530641E+03  0.16883741553E+04  0.17463988125E+04  0.10100000352E+00 0.  1.
</event>
<event>
 5   0  0.6534628E-03  0.9072609E+03  0.7818609E-02  0.9416550E-01
       -2   -1    0    0    0  501  0.00000000000E+00  0.00000000000E+00  0.21736106897E+03  0.21736106899E+03  0.25500000920E-02 0.  1.
        2   -1    0    0  501    0  0.00000000000E+00  0.00000000000E+00 -0.94672235471E+03  0.94672235472E+03  0.25500000920E-02 0. -1.
    10030    2    1    2    0    0  0.00000000000E+00  0.00000000000E+00 -0.72936128574E+03  0.11640834237E+04  0.90726089534E+03 0.  0.
        4    1    3    3  502    0 -0.18851471253E+03 -0.14807617303E+03 -0.85881368400E+03  0.89164281334E+03  0.12699999809E+01 0. -1.
       -4    1    3    3    0  502  0.18851471253E+03  0.14807617303E+03  0.12945239826E+03  0.27244061036E+03  0.12699999809E+01 0.  1.
</event>
<event>
 5   0  0.3998066E-03  0.8894209E+03  0.7818609E-02  0.9438903E-01
        1   -1    0    0  501    0  0.00000000000E+00  0.00000000000E+00  0.23374308184E+03  0.23374308189E+03  0.50400001928E-02 0.  1.
       -1   -1    0    0    0  501  0.00000000000E+00  0.00000000000E+00 -0.84608869771E+03  0.84608869772E+03  0.50400001928E-02 0. -1.
    10030    2    1    2    0    0  0.00000000000E+00  0.00000000000E+00 -0.61234561587E+03  0.10798317796E+04  0.88942088967E+03 0.  0.
        4    1    3    3  502    0 -0.66132679493E+02 -0.41058792714E+03 -0.11494091667E+03  0.43147306340E+03  0.12699999809E+01 0.  1.
       -4    1    3    3    0  502  0.66132679493E+02  0.41058792714E+03 -0.49740469920E+03  0.64835871622E+03  0.12699999809E+01 0. -1.
</event>
<event>
 5   0  0.6524705E-03  0.8910457E+03  0.7818609E-02  0.9436844E-01
        2   -1    0    0  501    0  0.00000000000E+00  0.00000000000E+00  0.22694200857E+03  0.22694200858E+03  0.25500000920E-02 0. -1.
       -2   -1    0    0    0  501  0.00000000000E+00  0.00000000000E+00 -0.87463142844E+03  0.87463142845E+03  0.25500000920E-02 0.  1.
    10030    2    1    2    0    0  0.00000000000E+00  0.00000000000E+00 -0.64768941988E+03  0.11015734370E+04  0.89104570733E+03 0.  0.
        3    1    3    3  502    0  0.75979067837E+02  0.20064954744E+02 -0.86599570288E+03  0.86955390216E+03  0.10100000352E+00 0.  1.
       -3    1    3    3    0  502 -0.75979067837E+02 -0.20064954744E+02  0.21830628300E+03  0.23201953486E+03  0.10100000352E+00 0. -1.
</event>
<event>
 5   0  0.6524705E-03  0.9017627E+03  0.7818609E-02  0.9423381E-01
       -2   -1    0    0    0  501  0.00000000000E+00  0.00000000000E+00  0.20943282863E+03  0.20943282864E+03  0.25500000920E-02 0. -1.
        2   -1    0    0  501    0  0.00000000000E+00  0.00000000000E+00 -0.97068830785E+03  0.97068830786E+03  0.25500000920E-02 0.  1.
    10030    2    1    2    0    0  0.00000000000E+00  0.00000000000E+00 -0.76125547922E+03  0.11801211365E+04  0.90176271389E+03 0.  0.
        3    1    3    3  502    0 -0.15416374536E+03 -0.39444199783E+02 -0.93271759601E+03  0.94619471009E+03  0.10100000352E+00 0.  1.
       -3    1    3    3    0  502  0.15416374536E+03  0.39444199783E+02  0.17146211679E+03  0.23392642641E+03  0.10100000352E+00 0. -1.
</event>
<event>
 5   0  0.6524705E-03  0.9155597E+03  0.7818609E-02  0.9406337E-01
        2   -1    0    0  501    0  0.00000000000E+00  0.00000000000E+00  0.22016295186E+04  0.22016295186E+04  0.25500000920E-02 0. -1.
       -2   -1    0    0    0  501  0.00000000000E+00  0.00000000000E+00 -0.95185135430E+02  0.95185135464E+02  0.25500000920E-02 0.  1.
    10030    2    1    2    0    0  0.00000000000E+00  0.00000000000E+00  0.21064443832E+04  0.22968146541E+04  0.91555972811E+03 0.  0.
        3    1    3    3  502    0  0.93534062466E+02  0.36097158734E+03  0.17193763539E+04  0.17593476530E+04  0.10100000352E+00 0. -1.
       -3    1    3    3    0  502 -0.93534062466E+02 -0.36097158734E+03  0.38706802929E+03  0.53746700104E+03  0.10100000352E+00 0.  1.
</event>
<event>
 5   0  0.3927993E-03  0.8748662E+03  0.7818609E-02  0.9457557E-01
        1   -1    0    0  501    0  0.00000000000E+00  0.00000000000E+00  0.33094116866E+03  0.33094116869E+03  0.50400001928E-02 0.  1.
       -1   -1    0    0    0  501  0.00000000000E+00  0.00000000000E+00 -0.57819248434E+03  0.57819248436E+03  0.50400001928E-02 0. -1.
    10030    2    1    2    0    0  0.00000000000E+00  0.00000000000E+00 -0.24725131568E+03  0.90913365305E+03  0.87486615320E+03 0.  0.
        2    1    3    3  502    0  0.28585125448E+03  0.16906584349E+03 -0.41947594746E+03  0.53502735409E+03  0.25500000920E-02 0. -1.
       -2    1    3    3    0  502 -0.28585125448E+03 -0.16906584349E+03  0.17222463178E+03  0.37410629896E+03  0.25500000920E-02 0.  1.
</event>
<event>
 5   0  0.6724773E-03  0.9009931E+03  0.7818609E-02  0.9424341E-01
        2   -1    0    0  501    0  0.00000000000E+00  0.00000000000E+00  0.19021096822E+03  0.19021096824E+03  0.25500000920E-02 0.  1.
       -2   -1    0    0    0  501  0.00000000000E+00  0.00000000000E+00 -0.10669580856E+04  0.10669580856E+04  0.25500000920E-02 0. -1.
    10030    2    1    2    0    0  0.00000000000E+00  0.00000000000E+00 -0.87674711734E+03  0.12571690538E+04  0.90099307549E+03 0.  0.
        5    1    3    3  502    0 -0.34049472219E+03 -0.14016190711E+03 -0.80046523157E+03  0.88110651626E+03  0.46999998093E+01 0. -1.
       -5    1    3    3    0  502  0.34049472219E+03  0.14016190711E+03 -0.76281885768E+02  0.37606253754E+03  0.46999998093E+01 0.  1.
</event>
<event>
 5   0  0.6724773E-03  0.9037180E+03  0.7818609E-02  0.9420946E-01
       -2   -1    0    0    0  501  0.00000000000E+00  0.00000000000E+00  0.15165164907E+03  0.15165164909E+03  0.25500000920E-02 0. -1.
        2   -1    0    0  501    0  0.00000000000E+00  0.00000000000E+00 -0.13463523030E+04  0.13463523030E+04  0.25500000920E-02 0.  1.
    10030    2    1    2    0    0  0.00000000000E+00  0.00000000000E+00 -0.11947006539E+04  0.14980039521E+04  0.90371798035E+03 0.  0.
        5    1    3    3  502    0 -0.26916586311E+03 -0.31274058698E+03 -0.29216475256E+03  0.50560782158E+03  0.46999998093E+01 0. -1.
       -5    1    3    3    0  502  0.26916586311E+03  0.31274058698E+03 -0.90253590137E+03  0.99239613052E+03  0.46999998093E+01 0.  1.
</event>
<event>
 5   0  0.6534628E-03  0.8992244E+03  0.7818609E-02  0.9426551E-01
       -2   -1    0    0    0  501  0.00000000000E+00  0.00000000000E+00  0.23017827769E+03  0.23017827770E+03  0.25500000920E-02 0. -1.
        2   -1    0    0  501    0  0.00000000000E+00  0.00000000000E+00 -0.87823726672E+03  0.87823726672E+03  0.25500000920E-02 0.  1.
    10030    2    1    2    0    0  0.00000000000E+00  0.00000000000E+00 -0.64805898903E+03  0.11084155444E+04  0.89922442463E+03 0.  0.
        4    1    3    3  502    0  0.29977965715E+03  0.20881128537E+03 -0.99553610220E+00  0.36533902027E+03  0.12699999809E+01 0. -1.
       -4    1    3    3    0  502 -0.29977965715E+03 -0.20881128537E+03 -0.64706345293E+03  0.74307652416E+03  0.12699999809E+01 0.  1.
</event>
<event>
 5   0  0.6534628E-03  0.9054704E+03  0.7818609E-02  0.9418769E-01
       -2   -1    0    0    0  501  0.00000000000E+00  0.00000000000E+00  0.20679786945E+03  0.20679786946E+03  0.25500000920E-02 0.  1.
        2   -1    0    0  501    0  0.00000000000E+00  0.00000000000E+00 -0.99115709725E+03  0.99115709725E+03  0.25500000920E-02 0. -1.
    10030    2    1    2    0    0  0.00000000000E+00  0.00000000000E+00 -0.78435922780E+03  0.11979549667E+04  0.90547043245E+03 0.  0.
        4    1    3    3  502    0 -0.25534566707E+03  0.98093554045E+02  0.85105593394E+02  0.28647570571E+03  0.12699999809E+01 0.  1.
       -4    1    3    3    0  502  0.25534566707E+03 -0.98093554045E+02 -0.86946482120E+03  0.91147926100E+03  0.12699999809E+01 0. -1.
</event>
<event>
 5   0  0.3927993E-03  0.8980163E+03  0.7818609E-02  0.9428064E-01
        1   -1    0    0  501    0  0.00000000000E+00  0.00000000000E+00  0.10410320374E+04  0.10410320374E+04  0.50400001928E-02 0.  1.
       -1   -1    0    0    0  501  0.00000000000E+00  0.00000000000E+00 -0.19366199402E+03  0.19366199409E+03  0.50400001928E-02 0. -1.
    10030    2    1    2    0    0  0.00000000000E+00  0.00000000000E+00  0.84737004341E+03  0.12346940315E+04  0.89801634786E+03 0.  0.
        2    1    3    3  502    0 -0.37620441619E+03 -0.68026512279E+02  0.74744986200E+03  0.83954670230E+03  0.25500000920E-02 0.  1.
       -2    1    3    3    0  502  0.37620441619E+03  0.68026512279E+02  0.99920181410E+02  0.39514732923E+03  0.25500000920E-02 0. -1.
</event>
<event>
 5   0  0.6524705E-03  0.9084421E+03  0.7818609E-02  0.9415090E-01
        2   -1    0    0  501    0  0.00000000000E+00  0.00000000000E+00  0.12524325805E+04  0.12524325805E+04  0.25500000920E-02 0. -1.
       -2   -1    0    0    0  501  0.00000000000E+00  0.00000000000E+00 -0.16473281840E+03  0.16473281842E+03  0.25500000920E-02 0.  1.
    10030    2    1    2    0    0  0.00000000000E+00  0.00000000000E+00  0.10876997621E+04  0.14171653989E+04  0.90844207049E+03 0.  0.
        3    1    3    3  502    0  0.20239967251E+03  0.46645133225E+02  0.11740094981E+04  0.11922414637E+04  0.10100000352E+00 0. -1.
       -3    1    3    3    0  502 -0.20239967251E+03 -0.46645133225E+02 -0.86309736053E+02  0.22492393520E+03  0.10100000352E+00 0.  1.
</event>
<event>
 5   0  0.3998066E-03  0.8982561E+03  0.7818609E-02  0.9427764E-01
        1   -1    0    0  501    0  0.00000000000E+00  0.00000000000E+00  0.11832119284E+04  0.11832119284E+04  0.50400001928E-02 0.  1.
       -1   -1    0    0    0  501  0.00000000000E+00  0.00000000000E+00 -0.17048171987E+03  0.17048171994E+03  0.50400001928E-02 0. -1.
    10030    2    1    2    0    0  0.00000000000E+00  0.00000000000E+00  0.10127302085E+04  0.13536936483E+04  0.89825609839E+03 0.  0.
        4    1    3    3  502    0 -0.36758291220E+03 -0.25099624200E+03  0.41596775937E+03  0.60921843420E+03  0.12699999809E+01 0. -1.
       -4    1    3    3    0  502  0.36758291220E+03  0.25099624200E+03  0.59676244916E+03  0.74447521414E+03  0.12699999809E+01 0.  1.
</event>
<event>
 5   0  0.6863405E-03  0.9047832E+03  0.7818609E-02  0.9419622E-01
        2   -1    0    0  501    0  0.00000000000E+00  0.00000000000E+00  0.45712600418E+03  0.45712600419E+03  0.25500000920E-02 0.  1.
       -2   -1    0    0    0  501  0.00000000000E+00  0.00000000000E+00 -0.44770618583E+03  0.44770618584E+03  0.25500000920E-02 0. -1.
    10030    2    1    2    0    0  0.00000000000E+00  0.00000000000E+00  0.94198183550E+01  0.90483219003E+03  0.90478315586E+03 0.  0.
        1    1    3    3  502    0  0.11506942170E+03 -0.33679090196E+03 -0.27457043326E+03  0.44950862761E+03  0.50400001928E-02 0. -1.
       -1    1    3    3    0  502 -0.11506942170E+03  0.33679090196E+03  0.28399025162E+03  0.45532356242E+03  0.50400001928E-02 0.  1.
</event>
<event>
 5   0  0.6609191E-03  0.9053747E+03  0.7818609E-02  0.9418888E-01
        2   -1    0    0  501    0  0.00000000000E+00  0.00000000000E+00  0.82787755898E+03  0.82787755898E+03  0.25500000920E-02 0.  1.
       -2   -1    0    0    0  501  0.00000000000E+00  0.00000000000E+00 -0.24753157071E+03  0.24753157072E+03  0.25500000920E-02 0. -1.
    10030    2    1    2    0    0  0.00000000000E+00  0.00000000000E+00  0.58034598827E+03  0.10754091297E+04  0.90537469047E+03 0.  0.
        2    1    3    3  502    0  0.15440351073E+02 -0.44153445206E+03  0.40736767446E+03  0.60094883226E+03  0.25500000920E-02 0.  1.
       -2    1    3    3    0  502 -0.15440351073E+02  0.44153445206E+03  0.17297831381E+03  0.47446029744E+03  0.25500000920E-02 0. -1.
</event>
<event>
 5   0  0.3998066E-03  0.9049197E+03  0.7818609E-02  0.9419452E-01
        1   -1    0    0  501    0  0.00000000000E+00  0.00000000000E+00  0.54581982129E+03  0.54581982131E+03  0.50400001928E-02 0. -1.
       -1   -1    0    0    0  501  0.00000000000E+00  0.00000000000E+00 -0.37506869112E+03  0.37506869115E+03  0.50400001928E-02 0.  1.
    10030    2    1    2    0    0  0.00000000000E+00  0.00000000000E+00  0.17075113017E+03  0.92088851246E+03  0.90491972237E+03 0.  0.
        4    1    3    3  502    0  0.14757850281E+02  0.14829065391E+03  0.52012678707E+03  0.54105581940E+03  0.12699999809E+01 0. -1.
       -4    1    3    3    0  502 -0.14757850281E+02 -0.14829065391E+03 -0.34937565690E+03  0.37983269306E+03  0.12699999809E+01 0.  1.
</event>
<event>
 5   0  0.3927993E-03  0.9000722E+03  0.7818609E-02  0.9425491E-01
       -1   -1    0    0    0  501  0.00000000000E+00  0.00000000000E+00  0.51386186383E+03  0.51386186385E+03  0.50400001928E-02 0.  1.
        1   -1    0    0  501    0  0.00000000000E+00  0.00000000000E+00 -0.39413802256E+03  0.39413802259E+03  0.50400001928E-02 0. -1.
    10030    2    1    2    0    0  0.00000000000E+00  0.00000000000E+00  0.11972384127E+03  0.90799988644E+03  0.90007221689E+03 0.  0.
        2    1    3    3  502    0 -0.21709032052E+03 -0.10165161170E+03  0.44409884892E+03  0.50466329869E+03  0.25500000920E-02 0.  1.
       -2    1    3    3    0  502  0.21709032052E+03  0.10165161170E+03 -0.32437500766E+03  0.40333658775E+03  0.25500000920E-02 0. -1.
</event>
<event>
 5   0  0.6534628E-03  0.8992490E+03  0.7818609E-02  0.9426521E-01
       -2   -1    0    0    0  501  0.00000000000E+00  0.00000000000E+00  0.20080196326E+03  0.20080196327E+03  0.25500000920E-02 0. -1.
        2   -1    0    0  501    0  0.00000000000E+00  0.00000000000E+00 -0.10067739325E+04  0.10067739325E+04  0.25500000920E-02 0.  1.
    10030    2    1    2    0    0  0.00000000000E+00  0.00000000000E+00 -0.80597196925E+03  0.12075758958E+04  0.89924898046E+03 0.  0.
        4    1    3    3  502    0 -0.10730457732E+02  0.39926316334E+03 -0.68026328676E+03  0.78885104331E+03  0.12699999809E+01 0.  1.
       -4    1    3    3    0  502  0.10730457732E+02 -0.39926316334E+03 -0.12570868249E+03  0.41872485247E+03  0.12699999809E+01 0. -1.
</event>
<event>
 5   0  0.6534628E-03  0.8723490E+03  0.7818609E-02  0.9460822E-01
       -2   -1    0    0    0  501  0.00000000000E+00  0.00000000000E+00  0.38625595578E+03  0.38625595579E+03  0.25500000920E-02 0.  1.
        2   -1    0    0  501    0  0.00000000000E+00  0.00000000000E+00 -0.49254431910E+03  0.49254431911E+03  0.25500000920E-02 0. -1.
    10030    2    1    2    0    0  0.00000000000E+00  0.00000000000E+00 -0.10628836332E+03  0.87880027490E+03  0.87234895941E+03 0.  0.
        4    1    3    3  502    0  0.38563276621E+03 -0.17205024165E+03 -0.16318868336E+03  0.45270970313E+03  0.12699999809E+01 0. -1.
       -4    1    3    3    0  502 -0.38563276621E+03  0.17205024165E+03  0.56900320040E+02  0.42609057177E+03  0.12699999809E+01 0.  1.
</event>
<event>
 5   0  0.3998066E-03  0.9002331E+03  0.7818609E-02  0.9425290E-01
        1   -1    0    0  501    0  0.00000000000E+00  0.00000000000E+00  0.10819633898E+04  0.10819633899E+04  0.50400001928E-02 0. -1.
       -1   -1    0    0    0  501  0.00000000000E+00  0.00000000000E+00 -0.18725672195E+03  0.18725672202E+03  0.50400001928E-02 0.  1.
    10030    2    1    2    0    0  0.00000000000E+00  0.00000000000E+00  0.89470666789E+03  0.12692201119E+04  0.90023312027E+03 0.  0.
        4    1    3    3  502    0  0.30854112434E+03  0.99963729940E+02  0.88739141908E+03  0.94480448574E+03  0.12699999809E+01 0. -1.
       -4    1    3    3    0  502 -0.30854112434E+03 -0.99963729940E+02  0.73152488075E+01  0.32441562613E+03  0.12699999809E+01 0.  1.
</event>
<event>
 5   0  0.3927993E-03  0.9051118E+03  0.7818609E-02  0.9419214E-01
        1   -1    0    0  501    0  0.00000000000E+00  0.00000000000E+00  0.34161544706E+03  0.34161544710E+03  0.50400001928E-02 0.  1.
       -1   -1    0    0    0  501  0.00000000000E+00  0.00000000000E+00 -0.59952458178E+03  0.59952458180E+03  0.50400001928E-02 0. -1.
    10030    2    1    2    0    0  0.00000000000E+00  0.00000000000E+00 -0.25790913472E+03  0.94114002890E+03  0.90511183410E+03 0.  0.
        2    1    3    3  502    0  0.42085678383E+03 -0.14324796104E+03 -0.40929988643E+02  0.44644784109E+03  0.25500000920E-02 0.  1.
       -2    1    3    3    0  502 -0.42085678383E+03  0.14324796104E+03 -0.21697914607E+03  0.49469218780E+03  0.25500000920E-02 0. -1.
</event>
<event>
 5   0  0.6724773E-03  0.8973412E+03  0.7818609E-02  0.9428911E-01
       -2   -1    0    0    0  501  0.00000000000E+00  0.00000000000E+00  0.19679101917E+03  0.19679101919E+03  0.25500000920E-02 0.  1.
        2   -1    0    0  501    0  0.00000000000E+00  0.00000000000E+00 -0.10229394068E+04  0.10229394068E+04  0.25500000920E-02 0. -1.
    10030    2    1    2    0    0  0.00000000000E+00  0.00000000000E+00 -0.82614838766E+03  0.12197304260E+04  0.89734115794E+03 0.  0.
        5    1    3    3  502    0 -0.12907189694E+03 -0.35926345449E+03 -0.92696960427E+02  0.39286715412E+03  0.46999998093E+01 0.  1.
       -5    1    3    3    0  502  0.12907189694E+03  0.35926345449E+03 -0.73345142723E+03  0.82686327190E+03  0.46999998093E+01 0. -1.
</event>
<event>
 5   0  0.2560250E-03  0.9015218E+03  0.7818609E-02  0.9423681E-01
       -4   -1    0    0    0  501  0.00000000000E+00  0.00000000000E+00  0.28781597802E+03  0.28781877997E+03  0.12699999809E+01 0.  1.
        4   -1    0    0  501    0  0.00000000000E+00  0.00000000000E+00 -0.70594912799E+03  0.70595027035E+03  0.12699999809E+01 0. -1.
    10030    2    1    2    0    0  0.00000000000E+00  0.00000000000E+00 -0.41813314996E+03  0.99376905032E+03  0.90152182130E+03 0.  0.
        2    1    3    3  502    0 -0.43773508304E+03  0.10268756871E+03 -0.24442109230E+03  0.51176010987E+03  0.25500000920E-02 0. -1.
       -2    1    3    3    0  502  0.43773508304E+03 -0.10268756871E+03 -0.17371205766E+03  0.48200894045E+03  0.25500000920E-02 0.  1.
</event>
<event>
 5   0  0.3794006E-03  0.9002537E+03  0.7818609E-02  0.9425264E-01
       -1   -1    0    0    0  501  0.00000000000E+00  0.00000000000E+00  0.42256153571E+03  0.42256153574E+03  0.50400001928E-02 0.  1.
        1   -1    0    0  501    0  0.00000000000E+00  0.00000000000E+00 -0.47949032802E+03  0.47949032805E+03  0.50400001928E-02 0. -1.
    10030    2    1    2    0    0  0.00000000000E+00  0.00000000000E+00 -0.56928792308E+02  0.90205186379E+03  0.90025367401E+03 0.  0.
        5    1    3    3  502    0 -0.97939945859E+02 -0.36643822199E+02 -0.46712540749E+03  0.47870997381E+03  0.46999998093E+01 0. -1.
       -5    1    3    3    0  502  0.97939945859E+02  0.36643822199E+02  0.41019661519E+03  0.42334188998E+03  0.46999998093E+01 0.  1.
</event>
<event>
 5   0  0.6609191E-03  0.8983135E+03  0.7818609E-02  0.9427692E-01
        2   -1    0    0  501    0  0.00000000000E+00  0.00000000000E+00  0.75208924515E+03  0.75208924516E+03  0.25500000920E-02 0. -1.
       -2   -1    0    0    0  501  0.00000000000E+00  0.00000000000E+00 -0.26824184047E+03  0.26824184049E+03  0.25500000920E-02 0.  1.
    10030    2    1    2    0    0  0.00000000000E+00  0.00000000000E+00  0.48384740468E+03  0.10203310856E+04  0.89831353842E+03 0.  0.
        2    1    3    3  502    0 -0.30867513840E+03  0.16525693615E+03 -0.77629403102E+02  0.35863145462E+03  0.25500000920E-02 0.  1.
       -2    1    3    3    0  502  0.30867513840E+03 -0.16525693615E+03  0.56147680778E+03  0.66169963102E+03  0.25500000920E-02 0. -1.
</event>
<event>
 5   0  0.3998066E-03  0.8997125E+03  0.7818609E-02  0.9425941E-01
       -1   -1    0    0    0  501  0.00000000000E+00  0.00000000000E+00  0.45724430124E+03  0.45724430127E+03  0.50400001928E-02 0.  1.
        1   -1    0    0  501    0  0.00000000000E+00  0.00000000000E+00 -0.44258758700E+03  0.44258758703E+03  0.50400001928E-02 0. -1.
    10030    2    1    2    0    0  0.00000000000E+00  0.00000000000E+00  0.14656714240E+02  0.89983188830E+03  0.89971251405E+03 0.  0.
        4    1    3    3  502    0  0.91572302489E+02  0.42038364622E+03 -0.12407074192E+03  0.44777567876E+03  0.12699999809E+01 0. -1.
       -4    1    3    3    0  502 -0.91572302489E+02 -0.42038364622E+03  0.13872745616E+03  0.45205620954E+03  0.12699999809E+01 0.  1.
</event>
<event>
 5   0  0.6524705E-03  0.8996419E+03  0.7818609E-02  0.9426029E-01
        2   -1    0    0  501    0  0.00000000000E+00  0.00000000000E+00  0.50483474848E+03  0.50483474848E+03  0.25500000920E-02 0.  1.
       -2   -1    0    0    0  501  0.00000000000E+00  0.00000000000E+00 -0.40080217570E+03  0.40080217571E+03  0.25500000920E-02 0. -1.
    10030    2    1    2    0    0  0.00000000000E+00  0.00000000000E+00  0.10403257277E+03  0.90563692419E+03  0.89964185222E+03 0.  0.
        3    1    3    3  502    0 -0.25796541905E+03  0.60986853650E+02  0.41785695942E+03  0.49484341208E+03  0.10100000352E+00 0.  1.
       -3    1    3    3    0  502  0.25796541905E+03 -0.60986853650E+02 -0.31382438664E+03  0.41079351212E+03  0.10100000352E+00 0. -1.
</event>
<event>
 5   0  0.2560250E-03  0.8949567E+03  0.7818609E-02  0.9431908E-01
        4   -1    0    0  501    0  0.00000000000E+00  0.00000000000E+00  0.29600131884E+03  0.29600404331E+03  0.12699999809E+01 0.  1.
       -4   -1    0    0    0  501  0.00000000000E+00  0.00000000000E+00 -0.67646655056E+03  0.67646774271E+03  0.12699999809E+01 0. -1.
    10030    2    1    2    0    0  0.00000000000E+00  0.00000000000E+00 -0.38046523172E+03  0.97247178602E+03  0.89495674871E+03 0.  0.
        1    1    3    3  502    0 -0.37665885072E+03 -0.18135656855E+03 -0.36366506633E+03  0.55408877924E+03  0.50400001928E-02 0. -1.
       -1    1    3    3    0  502  0.37665885072E+03  0.18135656855E+03 -0.16800165383E+02  0.41838300678E+03  0.50400001928E-02 0.  1.
</event>
<event>
 5   0  0.6609191E-03  0.8657022E+03  0.7818609E-02  0.9469501E-01
        2   -1    0    0  501    0  0.00000000000E+00  0.00000000000E+00  0.14502189363E+04  0.14502189363E+04  0.25500000920E-02 0.  1.
       -2   -1    0    0    0  501  0.00000000000E+00  0.00000000000E+00 -0.12919432963E+03  0.12919432965E+03  0.25500000920E-02 0. -1.
    10030    2    1    2    0    0  0.00000000000E+00  0.00000000000E+00  0.13210246067E+04  0.15794132659E+04  0.86570217351E+03 0.  0.
        2    1    3    3  502    0  0.19506858509E+03  0.63406285774E+02 -0.34899530041E+02  0.20806270009E+03  0.25500000920E-02 0. -1.
       -2    1    3    3    0  502 -0.19506858509E+03 -0.63406285774E+02  0.13559241367E+04  0.13713505658E+04  0.25500000920E-02 0.  1.
</event>
<event>
 5   0  0.3943549E-03  0.8945815E+03  0.7818609E-02  0.9432380E-01
       -1   -1    0    0    0  501  0.00000000000E+00  0.00000000000E+00  0.50424472247E+03  0.50424472249E+03  0.50400001928E-02 0.  1.
        1   -1    0    0  501    0  0.00000000000E+00  0.00000000000E+00 -0.39676969716E+03  0.39676969719E+03  0.50400001928E-02 0. -1.
    10030    2    1    2    0    0  0.00000000000E+00  0.00000000000E+00  0.10747502531E+03  0.90101441968E+03  0.89458152418E+03 0.  0.
        3    1    3    3  502    0  0.14136933457E+03  0.42434496293E+03  0.57648647694E+02  0.45097373882E+03  0.10100000352E+00 0.  1.
       -3    1    3    3    0  502 -0.14136933457E+03 -0.42434496293E+03  0.49826377617E+02  0.45004068086E+03  0.10100000352E+00 0. -1.
</event>
<event>
 5   0  0.6609191E-03  0.9002215E+03  0.7818609E-02  0.9425305E-01
       -2   -1    0    0    0  501  0.00000000000E+00  0.00000000000E+00  0.14512200995E+03  0.14512200997E+03  0.25500000920E-02 0. -1.
        2   -1    0    0  501    0  0.00000000000E+00  0.00000000000E+00 -0.13960645285E+04  0.13960645285E+04  0.25500000920E-02 0.  1.
    10030    2    1    2    0    0  0.00000000000E+00  0.00000000000E+00 -0.12509425186E+04  0.15411865385E+04  0.90022150700E+03 0.  0.
        2    1    3    3  502    0 -0.35596057991E+03 -0.13888123826E+03 -0.10327844304E+04  0.11011991702E+04  0.25500000920E-02 0.  1.
       -2    1    3    3    0  502  0.35596057991E+03  0.13888123826E+03 -0.21815808812E+03  0.43998736824E+03  0.25500000920E-02 0. -1.
</event>
<event>
 5   0  0.3794006E-03  0.9037002E+03  0.7818609E-02  0.9420968E-01
       -1   -1    0    0    0  501  0.00000000000E+00  0.00000000000E+00  0.20907055678E+03  0.20907055684E+03  0.50400001928E-02 0. -1.
        1   -1    0    0  501    0  0.00000000000E+00  0.00000000000E+00 -0.97655312229E+03  0.97655312230E+03  0.50400001928E-02 0.  1.
    10030    2    1    2    0    0  0.00000000000E+00  0.00000000000E+00 -0.76748256551E+03  0.11856236791E+04  0.90370018268E+03 0.  0.
        5    1    3    3  502    0  0.30212917019E+03  0.32936204204E+03 -0.47061902436E+03  0.64904987967E+03  0.46999998093E+01 0.  1.
       -5    1    3    3    0  502 -0.30212917019E+03 -0.32936204204E+03 -0.29686354115E+03  0.53657379947E+03  0.46999998093E+01 0. -1.
</event>
<event>
 5   0  0.3998066E-03  0.9015298E+03  0.7818609E-02  0.9423671E-01
       -1   -1    0    0    0  501  0.00000000000E+00  0.00000000000E+00  0.15001390342E+03  0.15001390351E+03  0.50400001928E-02 0. -1.
        1   -1    0    0  501    0  0.00000000000E+00  0.00000000000E+00 -0.13544676228E+04  0.13544676228E+04  0.50400001928E-02 0.  1.
    10030    2    1    2    0    0  0.00000000000E+00  0.00000000000E+00 -0.12044537194E+04  0.15044815263E+04  0.90152975596E+03 0.  0.
        4    1    3    3  502    0  0.31659682024E+03 -0.13581732967E+02 -0.67245557713E+02  0.32394689069E+03  0.12699999809E+01 0. -1.
       -4    1    3    3    0  502 -0.31659682024E+03  0.13581732967E+02 -0.11372081617E+04  0.11805346356E+04  0.12699999809E+01 0.  1.
</event>
<event>
 5   0  0.6524705E-03  0.8824496E+03  0.7818609E-02  0.9447790E-01
        2   -1    0    0  501    0  0.00000000000E+00  0.00000000000E+00  0.15523398748E+03  0.15523398750E+03  0.25500000920E-02 0. -1.
       -2   -1    0    0    0  501  0.00000000000E+00  0.00000000000E+00 -0.12541024364E+04  0.12541024364E+04  0.25500000920E-02 0.  1.
    10030    2    1    2    0    0  0.00000000000E+00  0.00000000000E+00 -0.10988684489E+04  0.14093364239E+04  0.88244959498E+03 0.  0.
        3    1    3    3  502    0  0.14639172672E+03 -0.21987343730E+03 -0.11138689388E+04  0.11447614988E+04  0.10100000352E+00 0.  1.
       -3    1    3    3    0  502 -0.14639172672E+03  0.21987343730E+03  0.15000489912E+02  0.26457492508E+03  0.10100000352E+00 0. -1.
</event>
<event>
 5   0  0.3943549E-03  0.8650387E+03  0.7818609E-02  0.9470372E-01
       -1   -1    0    0    0  501  0.00000000000E+00  0.00000000000E+00  0.50280544108E+03  0.50280544111E+03  0.50400001928E-02 0. -1.
        1   -1    0    0  501    0  0.00000000000E+00  0.00000000000E+00 -0.37205843496E+03  0.37205843499E+03  0.50400001928E-02 0.  1.
    10030    2    1    2    0    0  0.00000000000E+00  0.00000000000E+00  0.13074700613E+03  0.87486387610E+03  0.86503874023E+03 0.  0.
        3    1    3    3  502    0  0.35986313901E+03  0.98886183625E+02  0.28647274382E+03  0.47047486573E+03  0.10100000352E+00 0. -1.
       -3    1    3    3    0  502 -0.35986313901E+03 -0.98886183625E+02 -0.15572573769E+03  0.40438901037E+03  0.10100000352E+00 0.  1.
</event>
<event>
 5   0  0.3927993E-03  0.8862786E+03  0.7818609E-02  0.9442898E-01
        1   -1    0    0  501    0  0.00000000000E+00  0.00000000000E+00  0.13481355260E+03  0.13481355269E+03  0.50400001928E-02 0.  1.
       -1   -1    0    0    0  501  0.00000000000E+00  0.00000000000E+00 -0.14566222871E+04  0.14566222871E+04  0.50400001928E-02 0. -1.
    10030    2    1    2    0    0  0.00000000000E+00  0.00000000000E+00 -0.13218087345E+04  0.15914358398E+04  0.88627856884E+03 0.  0.
        2    1    3    3  502    0 -0.42192391797E+03  0.49540034600E+02 -0.88731448973E+03  0.98376877938E+03  0.25500000920E-02 0. -1.
       -2    1    3    3    0  502  0.42192391797E+03 -0.49540034600E+02 -0.43449424479E+03  0.60766706044E+03  0.25500000920E-02 0.  1.
</event>
<event>
 5   0  0.3927993E-03  0.8987673E+03  0.7818609E-02  0.9427124E-01
        1   -1    0    0  501    0  0.00000000000E+00  0.00000000000E+00  0.33553149687E+03  0.33553149690E+03  0.50400001928E-02 0. -1.
       -1   -1    0    0    0  501  0.00000000000E+00  0.00000000000E+00 -0.60186794791E+03  0.60186794793E+03  0.50400001928E-02 0.  1.
    10030    2    1    2    0    0  0.00000000000E+00  0.00000000000E+00 -0.26633645104E+03  0.93739944483E+03  0.89876727467E+03 0.  0.
        2    1    3    3  502    0 -0.48930128096E+02  0.80714745520E+02  0.32507631567E+03  0.33850205110E+03  0.25500000920E-02 0. -1.
       -2    1    3    3    0  502  0.48930128096E+02 -0.80714745520E+02 -0.59141276672E+03  0.59889739373E+03  0.25500000920E-02 0.  1.
</event>
<event>
 5   0  0.6534628E-03  0.8961565E+03  0.7818609E-02  0.9430399E-01
       -2   -1    0    0    0  501  0.00000000000E+00  0.00000000000E+00  0.20989667713E+03  0.20989667715E+03  0.25500000920E-02 0. -1.
        2   -1    0    0  501    0  0.00000000000E+00  0.00000000000E+00 -0.95653776803E+03  0.95653776804E+03  0.25500000920E-02 0.  1.
    10030    2    1    2    0    0  0.00000000000E+00  0.00000000000E+00 -0.74664109090E+03  0.11664344452E+04  0.89615645748E+03 0.  0.
        4    1    3    3  502    0 -0.31556042439E+03 -0.30431962141E+03 -0.49391103922E+03  0.66040785957E+03  0.12699999809E+01 0.  1.
       -4    1    3    3    0  502  0.31556042439E+03  0.30431962141E+03 -0.25273005168E+03  0.50602658561E+03  0.12699999809E+01 0. -1.
</event>
<event>
 5   0  0.3969536E-03  0.8995945E+03  0.7818609E-02  0.9426088E-01
        1   -1    0    0  501    0  0.00000000000E+00  0.00000000000E+00  0.19177007779E+03  0.19177007786E+03  0.50400001928E-02 0.  1.
       -1   -1    0    0    0  501  0.00000000000E+00  0.00000000000E+00 -0.10550007089E+04  0.10550007089E+04  0.50400001928E-02 0. -1.
    10030    2    1    2    0    0  0.00000000000E+00  0.00000000000E+00 -0.86323063108E+03  0.12467707867E+04  0.89959450433E+03 0.  0.
        1    1    3    3  502    0 -0.19158659447E+03 -0.26095645611E+03 -0.86440113930E+03  0.92303468235E+03  0.50400001928E-02 0. -1.
       -1    1    3    3    0  502  0.19158659447E+03  0.26095645611E+03  0.11705082275E+01  0.32373610438E+03  0.50400001928E-02 0.  1.
</event>
<event>
 5   0  0.3969536E-03  0.9067949E+03  0.7818609E-02  0.9417127E-01
       -1   -1    0    0    0  501  0.00000000000E+00  0.00000000000E+00  0.14485563872E+03  0.14485563881E+03  0.50400001928E-02 0.  1.
        1   -1    0    0  501    0  0.00000000000E+00  0.00000000000E+00 -0.14191319446E+04  0.14191319446E+04  0.50400001928E-02 0. -1.
    10030    2    1    2    0    0  0.00000000000E+00  0.00000000000E+00 -0.12742763059E+04  0.15639875834E+04  0.90679493679E+03 0.  0.
        1    1    3    3  502    0 -0.16964005914E+03 -0.39558864466E+03 -0.39139330855E+03  0.58177044224E+03  0.50400001928E-02 0.  1.
       -1    1    3    3    0  502  0.16964005914E+03  0.39558864466E+03 -0.88288299734E+03  0.98221714120E+03  0.50400001928E-02 0. -1.
</event>
<event>
 5   0  0.6724773E-03  0.8996117E+03  0.7818609E-02  0.9426067E-01
       -2   -1    0    0    0  501  0.00000000000E+00  0.00000000000E+00  0.47164929367E+03  0.47164929367E+03  0.25500000920E-02 0.  1.
        2   -1    0    0  501    0  0.00000000000E+00  0.00000000000E+00 -0.42897401543E+03  0.42897401544E+03  0.25500000920E-02 0. -1.
    10030    2    1    2    0    0  0.00000000000E+00  0.00000000000E+00  0.42675278234E+02  0.90062330911E+03  0.89961167486E+03 0.  0.
        5    1    3    3  502    0  0.21584766555E+03 -0.23342305108E+03 -0.29718152416E+03  0.43521889182E+03  0.46999998093E+01 0. -1.
       -5    1    3    3    0  502 -0.21584766555E+03  0.23342305108E+03  0.33985680240E+03  0.46540441729E+03  0.46999998093E+01 0.  1.
</event>
<event>
 5   0  0.6863405E-03  0.9226922E+03  0.7818609E-02  0.9397651E-01
       -2   -1    0    0    0  501  0.00000000000E+00  0.00000000000E+00  0.16720377319E+03  0.16720377320E+03  0.25500000920E-02 0. -1.
        2   -1    0    0  501    0  0.00000000000E+00  0.00000000000E+00 -0.12729390800E+04  0.12729390800E+04  0.25500000920E-02 0.  1.
    10030    2    1    2    0    0  0.00000000000E+00  0.00000000000E+00 -0.11057353069E+04  0.14401428533E+04  0.92269218537E+03 0.  0.
        1    1    3    3  502    0  0.31381602058E+03 -0.19500747372E+03 -0.98409024442E+03  0.10511622229E+04  0.50400001928E-02 0.  1.
       -1    1    3    3    0  502 -0.31381602058E+03  0.19500747372E+03 -0.12164506244E+03  0.38898063040E+03  0.50400001928E-02 0. -1.
</event>
<event>
 5   0  0.6863405E-03  0.9001775E+03  0.7818609E-02  0.9425360E-01
        2   -1    0    0  501    0  0.00000000000E+00  0.00000000000E+00  0.20327447429E+04  0.20327447429E+04  0.25500000920E-02 0.  1.
       -2   -1    0    0    0  501  0.00000000000E+00  0.00000000000E+00 -0.99658292655E+02  0.99658292688E+02  0.25500000920E-02 0. -1.
    10030    2    1    2    0    0  0.00000000000E+00  0.00000000000E+00  0.19330864502E+04  0.21324030356E+04  0.90017747253E+03 0.  0.
        1    1    3    3  502    0  0.10230791009E+02  0.43629937305E+03  0.70577319701E+03  0.82980577104E+03  0.50400001928E-02 0. -1.
       -1    1    3    3    0  502 -0.10230791009E+02 -0.43629937305E+03  0.12273132532E+04  0.13025972645E+04  0.50400001928E-02 0.  1.
</event>
<event>
 5   0  0.3943549E-03  0.8673203E+03  0.7818609E-02  0.9467381E-01
       -1   -1    0    0    0  501  0.00000000000E+00  0.00000000000E+00  0.48880959418E+03  0.48880959421E+03  0.50400001928E-02 0.  1.
        1   -1    0    0  501    0  0.00000000000E+00  0.00000000000E+00 -0.38473287565E+03  0.38473287568E+03  0.50400001928E-02 0. -1.
    10030    2    1    2    0    0  0.00000000000E+00  0.00000000000E+00  0.10407671853E+03  0.87354246989E+03  0.86732028880E+03 0.  0.
        3    1    3    3  502    0 -0.11545217895E+03 -0.13618613417E+03  0.45007634136E+03  0.48419478727E+03  0.10100000352E+00 0.  1.
       -3    1    3    3    0  502  0.11545217895E+03  0.13618613417E+03 -0.34599962283E+03  0.38934768262E+03  0.10100000352E+00 0. -1.
</event>
<event>
 5   0  0.6724773E-03  0.8961696E+03  0.7818609E-02  0.9430382E-01
       -2   -1    0    0    0  501  0.00000000000E+00  0.00000000000E+00  0.30910014293E+03  0.30910014294E+03  0.25500000920E-02 0. -1.
        2   -1    0    0  501    0  0.00000000000E+00  0.00000000000E+00 -0.64956286179E+03  0.64956286179E+03  0.25500000920E-02 0.  1.
    10030    2    1    2    0    0  0.00000000000E+00  0.00000000000E+00 -0.34046271885E+03  0.95866300473E+03  0.89616956750E+03 0.  0.
        5    1    3    3  502    0  0.44605632142E+03  0.37754836678E+02 -0.19070255286E+03  0.48660170904E+03  0.46999998093E+01 0.  1.
       -5    1    3    3    0  502 -0.44605632142E+03 -0.37754836678E+02 -0.14976016599E+03  0.47206129569E+03  0.46999998093E+01 0. -1.
</event>
<event>
 5   0  0.6609191E-03  0.8909060E+03  0.7818609E-02  0.9437021E-01
        2   -1    0    0  501    0  0.00000000000E+00  0.00000000000E+00  0.39811387029E+03  0.39811387030E+03  0.25500000920E-02 0.  1.
       -2   -1    0    0    0  501  0.00000000000E+00  0.00000000000E+00 -0.49842115528E+03  0.49842115528E+03  0.25500000920E-02 0. -1.
    10030    2    1    2    0    0  0.00000000000E+00  0.00000000000E+00 -0.10030728498E+03  0.89653502558E+03  0.89090599991E+03 0.  0.
        2    1    3    3  502    0 -0.31049488374E+02 -0.56063341684E+02 -0.49375766554E+03  0.49789938872E+03  0.25500000920E-02 0. -1.
       -2    1    3    3    0  502  0.31049488374E+02  0.56063341684E+02  0.39345038056E+03  0.39863563686E+03  0.25500000920E-02 0.  1.
</event>
<event>
 5   0  0.3794006E-03  0.9084866E+03  0.7818609E-02  0.9415034E-01
        1   -1    0    0  501    0  0.00000000000E+00  0.00000000000E+00  0.82840966665E+03  0.82840966666E+03  0.50400001928E-02 0.  1.
       -1   -1    0    0    0  501  0.00000000000E+00  0.00000000000E+00 -0.24907602957E+03  0.24907602962E+03  0.50400001928E-02 0. -1.
    10030    2    1    2    0    0  0.00000000000E+00  0.00000000000E+00  0.57933363708E+03  0.10774856963E+04  0.90848663316E+03 0.  0.
        5    1    3    3  502    0 -0.24322472776E+03  0.11495091653E+03  0.72372990263E+03  0.77212631309E+03  0.46999998093E+01 0.  1.
       -5    1    3    3    0  502  0.24322472776E+03 -0.11495091653E+03 -0.14439626555E+03  0.30535938319E+03  0.46999998093E+01 0. -1.
</event>
<event>
 5   0  0.6863405E-03  0.9046761E+03  0.7818609E-02  0.9419755E-01
       -2   -1    0    0    0  501  0.00000000000E+00  0.00000000000E+00  0.35058834403E+03  0.35058834404E+03  0.25500000920E-02 0. -1.
        2   -1    0    0  501    0  0.00000000000E+00  0.00000000000E+00 -0.58361810991E+03  0.58361810992E+03  0.25500000920E-02 0.  1.
    10030    2    1    2    0    0  0.00000000000E+00  0.00000000000E+00 -0.23302976588E+03  0.93420645395E+03  0.90467608945E+03 0.  0.
        1    1    3    3  502    0 -0.21283548168E+03  0.22754783310E+03 -0.45514074489E+03  0.55157053610E+03  0.50400001928E-02 0.  1.
       -1    1    3    3    0  502  0.21283548168E+03 -0.22754783310E+03  0.22211097901E+03  0.38263591785E+03  0.50400001928E-02 0. -1.
</event>
<event>
 5   0  0.6534628E-03  0.8993771E+03  0.7818609E-02  0.9426360E-01
       -2   -1    0    0    0  501  0.00000000000E+00  0.00000000000E+00  0.11022370043E+03  0.11022370046E+03  0.25500000920E-02 0.  1.
        2   -1    0    0  501    0  0.00000000000E+00  0.00000000000E+00 -0.18346308139E+04  0.18346308139E+04  0.25500000920E-02 0. -1.
    10030    2    1    2    0    0  0.00000000000E+00  0.00000000000E+00 -0.17244071134E+04  0.19448545143E+04  0.89937711169E+03 0.  0.
        4    1    3    3  502    0 -0.20254582995E+03  0.24785836277E+03 -0.17920050417E+03  0.36684194801E+03  0.12699999809E+01 0.  1.
       -4    1    3    3    0  502  0.20254582995E+03 -0.24785836277E+03 -0.15452066093E+04  0.15780125663E+04  0.12699999809E+01 0. -1.
</event>
<event>
 5   0  0.6863405E-03  0.8976380E+03  0.7818609E-02  0.9428539E-01
       -2   -1    0    0    0  501  0.00000000000E+00  0.00000000000E+00  0.36029092383E+03  0.36029092384E+03  0.25500000920E-02 0.  1.
        2   -1    0    0  501    0  0.00000000000E+00  0.00000000000E+00 -0.55909956712E+03  0.55909956712E+03  0.25500000920E-02 0. -1.
    10030    2    1    2    0    0  0.00000000000E+00  0.00000000000E+00 -0.19880864329E+03  0.91939049096E+03  0.89763801068E+03 0.  0.
        1    1    3    3  502    0 -0.17501465593E+03  0.41326038259E+03 -0.94363064007E+02  0.45860512588E+03  0.50400001928E-02 0.  1.
       -1    1    3    3    0  502  0.17501465593E+03 -0.41326038259E+03 -0.10444557929E+03  0.46078536508E+03  0.50400001928E-02 0. -1.
</event>
<event>
 5   0  0.6609191E-03  0.8941750E+03  0.7818609E-02  0.9432892E-01
       -2   -1    0    0    0  501  0.00000000000E+00  0.00000000000E+00  0.27984779605E+03  0.27984779606E+03  0.25500000920E-02 0. -1.
        2   -1    0    0  501    0  0.00000000000E+00  0.00000000000E+00 -0.71427121390E+03  0.71427121391E+03  0.25500000920E-02 0.  1.
    10030    2    1    2    0    0  0.00000000000E+00  0.00000000000E+00 -0.43442341785E+03  0.99411900997E+03  0.89417498288E+03 0.  0.
        2    1    3    3  502    0  0.20503735577E+03 -0.25428487717E+03  0.12217236030E+03  0.34875091634E+03  0.25500000920E-02 0. -1.
       -2    1    3    3    0  502 -0.20503735577E+03  0.25428487717E+03 -0.55659577816E+03  0.64536809364E+03  0.25500000920E-02 0.  1.
</event>
<event>
 5   0  0.3927993E-03  0.9018019E+03  0.7818609E-02  0.9423332E-01
        1   -1    0    0  501    0  0.00000000000E+00  0.00000000000E+00  0.15191958784E+04  0.15191958784E+04  0.50400001928E-02 0. -1.
       -1   -1    0    0    0  501  0.00000000000E+00  0.00000000000E+00 -0.13382846189E+03  0.13382846198E+03  0.50400001928E-02 0.  1.
    10030    2    1    2    0    0  0.00000000000E+00  0.00000000000E+00  0.13853674165E+04  0.16530243404E+04  0.90180185805E+03 0.  0.
        2    1    3    3  502    0  0.14989480662E+03 -0.17353517893E+03 -0.18965797246E+02  0.23009261798E+03  0.25500000920E-02 0.  1.
       -2    1    3    3    0  502 -0.14989480662E+03  0.17353517893E+03  0.14043332137E+04  0.14229317224E+04  0.25500000920E-02 0. -1.
</event>
<event>
 5   0  0.3927993E-03  0.8973506E+03  0.7818609E-02  0.9428899E-01
        1   -1    0    0  501    0  0.00000000000E+00  0.00000000000E+00  0.29022197749E+03  0.29022197753E+03  0.50400001928E-02 0.  1.
       -1   -1    0    0    0  501  0.00000000000E+00  0.00000000000E+00 -0.69363975926E+03  0.69363975927E+03  0.50400001928E-02 0. -1.
    10030    2    1    2    0    0  0.00000000000E+00  0.00000000000E+00 -0.40341778177E+03  0.98386173681E+03  0.89735055052E+03 0.  0.
        2    1    3    3  502    0  0.40054709440E+03  0.19874243668E+03 -0.24233476530E+03  0.50858890025E+03  0.25500000920E-02 0. -1.
       -2    1    3    3    0  502 -0.40054709440E+03 -0.19874243668E+03 -0.16108301646E+03  0.47527283656E+03  0.25500000920E-02 0.  1.
</event>
<event>
 5   0  0.6863405E-03  0.8982034E+03  0.7818609E-02  0.9427830E-01
        2   -1    0    0  501    0  0.00000000000E+00  0.00000000000E+00  0.89228736555E+03  0.89228736555E+03  0.25500000920E-02 0. -1.
       -2   -1    0    0    0  501  0.00000000000E+00  0.00000000000E+00 -0.22603968272E+03  0.22603968274E+03  0.25500000920E-02 0.  1.
    10030    2    1    2    0    0  0.00000000000E+00  0.00000000000E+00  0.66624768283E+03  0.11183270483E+04  0.89820343579E+03 0.  0.
        1    1    3    3  502    0 -0.32291994184E+03  0.14519459595E+03  0.67711871526E+03  0.76409980639E+03  0.50400001928E-02 0. -1.
       -1    1    3    3    0  502  0.32291994184E+03 -0.14519459595E+03 -0.10871032438E+02  0.35422724190E+03  0.50400001928E-02 0.  1.
</event>
<event>
 5   0  0.3969536E-03  0.9019959E+03  0.7818609E-02  0.9423090E-01
        1   -1    0    0  501    0  0.00000000000E+00  0.00000000000E+00  0.80472175559E+03  0.80472175561E+03  0.50400001928E-02 0.  1.
       -1   -1    0    0    0  501  0.00000000000E+00  0.00000000000E+00 -0.25275709951E+03  0.25275709956E+03  0.50400001928E-02 0. -1.
    10030    2    1    2    0    0  0.00000000000E+00  0.00000000000E+00  0.55196465609E+03  0.10574788552E+04  0.90199586892E+03 0.  0.
        1    1    3    3  502    0 -0.15967914817E+03 -0.26499401272E+03 -0.10872851283E+03  0.32793466829E+03  0.50400001928E-02 0. -1.
       -1    1    3    3    0  502  0.15967914817E+03  0.26499401272E+03  0.66069316891E+03  0.72954418688E+03  0.50400001928E-02 0.  1.
</event>
<event>
 5   0  0.3794006E-03  0.8969595E+03  0.7818609E-02  0.9429390E-01
        1   -1    0    0  501    0  0.00000000000E+00  0.00000000000E+00  0.69930557379E+03  0.69930557381E+03  0.50400001928E-02 0.  1.
       -1   -1    0    0    0  501  0.00000000000E+00  0.00000000000E+00 -0.28761973951E+03  0.28761973955E+03  0.50400001928E-02 0. -1.
    10030    2    1    2    0    0  0.00000000000E+00  0.00000000000E+00  0.41168583428E+03  0.98692531336E+03  0.89695950187E+03 0.  0.
        5    1    3    3  502    0 -0.18803440663E+03  0.29806308127E+03  0.51099238961E+03  0.62075264859E+03  0.46999998093E+01 0.  1.
       -5    1    3    3    0  502  0.18803440663E+03 -0.29806308127E+03 -0.99306555330E+02  0.36617266477E+03  0.46999998093E+01 0. -1.
</event>
<event>
 5   0  0.6524705E-03  0.8985934E+03  0.7818609E-02  0.9427341E-01
        2   -1    0    0  501    0  0.00000000000E+00  0.00000000000E+00  0.34269345051E+03  0.34269345052E+03  0.25500000920E-02 0.  1.
       -2   -1    0    0    0  501  0.00000000000E+00  0.00000000000E+00 -0.58906149346E+03  0.58906149346E+03  0.25500000920E-02 0. -1.
    10030    2    1    2    0    0  0.00000000000E+00  0.00000000000E+00 -0.24636804295E+03  0.93175494398E+03  0.89859338026E+03 0.  0.
        3    1    3    3  502    0  0.37693358700E+03 -0.51331495473E+02  0.12470682592E+03  0.40033192986E+03  0.10100000352E+00 0. -1.
       -3    1    3    3    0  502 -0.37693358700E+03  0.51331495473E+02 -0.37107486887E+03  0.53142301412E+03  0.10100000352E+00 0.  1.
</event>
<event>
 5   0  0.3998066E-03  0.8985318E+03  0.7818609E-02  0.9427419E-01
       -1   -1    0    0    0  501  0.00000000000E+00  0.00000000000E+00  0.21621793541E+03  0.21621793547E+03  0.50400001928E-02 0. -1.
        1   -1    0    0  501    0  0.00000000000E+00  0.00000000000E+00 -0.93350195874E+03  0.93350195875E+03  0.50400001928E-02 0.  1.
    10030    2    1    2    0    0  0.00000000000E+00  0.00000000000E+00 -0.71728402333E+03  0.11497198942E+04  0.89853183863E+03 0.  0.
        4    1    3    3  502    0  0.39449486649E+03 -0.18067979607E+03 -0.50768046224E+03  0.66784163769E+03  0.12699999809E+01 0. -1.
       -4    1    3    3    0  502 -0.39449486649E+03  0.18067979607E+03 -0.20960356109E+03  0.48187825653E+03  0.12699999809E+01 0.  1.
</event>
<event>
 5   0  0.6609191E-03  0.8960981E+03  0.7818609E-02  0.9430472E-01
       -2   -1    0    0    0  501  0.00000000000E+00  0.00000000000E+00  0.16928723512E+03  0.16928723514E+03  0.25500000920E-02 0. -1.
        2   -1    0    0  501    0  0.00000000000E+00  0.00000000000E+00 -0.11858421656E+04  0.11858421656E+04  0.25500000920E-02 0.  1.
    10030    2    1    2    0    0  0.00000000000E+00  0.00000000000E+00 -0.10165549305E+04  0.13551294007E+04  0.89609807837E+03 0.  0.
        2    1    3    3  502    0  0.42060574557E+03 -0.29701320373E+01 -0.27483139138E+03  0.50244433381E+03  0.25500000920E-02 0. -1.
       -2    1    3    3    0  502 -0.42060574557E+03  0.29701320373E+01 -0.74172353909E+03  0.85268506691E+03  0.25500000920E-02 0.  1.
</event>
<event>
 5   0  0.3998066E-03  0.9136880E+03  0.7818609E-02  0.9408631E-01
       -1   -1    0    0    0  501  0.00000000000E+00  0.00000000000E+00  0.24140649189E+03  0.24140649194E+03  0.50400001928E-02 0. -1.
        1   -1    0    0  501    0  0.00000000000E+00  0.00000000000E+00 -0.86454359908E+03  0.86454359909E+03  0.50400001928E-02 0.  1.
    10030    2    1    2    0    0  0.00000000000E+00  0.00000000000E+00 -0.62313710719E+03  0.11059500910E+04  0.91368799352E+03 0.  0.
        4    1    3    3  502    0 -0.75526946848E+02 -0.14772656062E+03  0.20364773391E+03  0.26268130660E+03  0.12699999809E+01 0. -1.
       -4    1    3    3    0  502  0.75526946848E+02  0.14772656062E+03 -0.82678484110E+03  0.84326878443E+03  0.12699999809E+01 0.  1.
</event>
<event>
 5   0  0.3969536E-03  0.9349103E+03  0.7818609E-02  0.9382964E-01
       -1   -1    0    0    0  501  0.00000000000E+00  0.00000000000E+00  0.28697053704E+03  0.28697053708E+03  0.50400001928E-02 0.  1.
        1   -1    0    0  501    0  0.00000000000E+00  0.00000000000E+00 -0.76145203063E+03  0.76145203064E+03  0.50400001928E-02 0. -1.
    10030    2    1    2    0    0  0.00000000000E+00  0.00000000000E+00 -0.47448149359E+03  0.10484225677E+04  0.93491025920E+03 0.  0.
        1    1    3    3  502    0  0.44999723956E+03  0.12384762754E+03 -0.20802906060E+03  0.51099103763E+03  0.50400001928E-02 0.  1.
       -1    1    3    3    0  502 -0.44999723956E+03 -0.12384762754E+03 -0.26645243299E+03  0.53743153009E+03  0.50400001928E-02 0. -1.
</event>
<event>
 5   0  0.6724773E-03  0.8986996E+03  0.7818609E-02  0.9427208E-01
       -2   -1    0    0    0  501  0.00000000000E+00  0.00000000000E+00  0.12707083900E+03  0.12707083903E+03  0.25500000920E-02 0.  1.
        2   -1    0    0  501    0  0.00000000000E+00  0.00000000000E+00 -0.15889975283E+04  0.15889975283E+04  0.25500000920E-02 0. -1.
    10030    2    1    2    0    0  0.00000000000E+00  0.00000000000E+00 -0.14619266893E+04  0.17160683673E+04  0.89869961414E+03 0.  0.
        5    1    3    3  502    0 -0.35569896762E+03  0.20460197086E+03 -0.10805087491E+04  0.11558135529E+04  0.46999998093E+01 0. -1.
       -5    1    3    3    0  502  0.35569896762E+03 -0.20460197086E+03 -0.38141794018E+03  0.56025481447E+03  0.46999998093E+01 0.  1.
</event>
<event>
 5   0  0.3943549E-03  0.8713715E+03  0.7818609E-02  0.9462093E-01
        1   -1    0    0  501    0  0.00000000000E+00  0.00000000000E+00  0.28118594461E+03  0.28118594466E+03  0.50400001928E-02 0.  1.
       -1   -1    0    0    0  501  0.00000000000E+00  0.00000000000E+00 -0.67507660490E+03  0.67507660492E+03  0.50400001928E-02 0. -1.
    10030    2    1    2    0    0  0.00000000000E+00  0.00000000000E+00 -0.39389066029E+03  0.95626254958E+03  0.87137145435E+03 0.  0.
        3    1    3    3  502    0  0.25597259380E+03  0.19915766490E+03 -0.51621094679E+03  0.60963882426E+03  0.10100000352E+00 0. -1.
       -3    1    3    3    0  502 -0.25597259380E+03 -0.19915766490E+03  0.12232028650E+03  0.34662372532E+03  0.10100000352E+00 0.  1.
</event>
<event>
 5   0  0.3943549E-03  0.8955468E+03  0.7818609E-02  0.9431165E-01
        1   -1    0    0  501    0  0.00000000000E+00  0.00000000000E+00  0.95168120192E+03  0.95168120193E+03  0.50400001928E-02 0. -1.
       -1   -1    0    0    0  501  0.00000000000E+00  0.00000000000E+00 -0.21068087871E+03  0.21068087877E+03  0.50400001928E-02 0.  1.
    10030    2    1    2    0    0  0.00000000000E+00  0.00000000000E+00  0.74100032321E+03  0.11623620807E+04  0.89554683164E+03 0.  0.
        3    1    3    3  502    0  0.15922855704E+03  0.31964507264E+03  0.19878980745E+02  0.35766169758E+03  0.10100000352E+00 0.  1.
       -3    1    3    3    0  502 -0.15922855704E+03 -0.31964507264E+03  0.72112134246E+03  0.80470038312E+03  0.10100000352E+00 0. -1.
</event>
<event>
 5   0  0.6609191E-03  0.8988658E+03  0.7818609E-02  0.9427000E-01
        2   -1    0    0  501    0  0.00000000000E+00  0.00000000000E+00  0.21464176579E+03  0.21464176581E+03  0.25500000920E-02 0. -1.
       -2   -1    0    0    0  501  0.00000000000E+00  0.00000000000E+00 -0.94105613474E+03  0.94105613474E+03  0.25500000920E-02 0.  1.
    10030    2    1    2    0    0  0.00000000000E+00  0.00000000000E+00 -0.72641436894E+03  0.11556979006E+04  0.89886584201E+03 0.  0.
        2    1    3    3  502    0  0.29054256519E+03 -0.19682193113E+03 -0.22031949873E+01  0.35093975101E+03  0.25500000920E-02 0. -1.
       -2    1    3    3    0  502 -0.29054256519E+03  0.19682193113E+03 -0.72421117396E+03  0.80475814954E+03  0.25500000920E-02 0.  1.
</event>
<event>
 5   0  0.6534628E-03  0.9009270E+03  0.7818609E-02  0.9424423E-01
       -2   -1    0    0    0  501  0.00000000000E+00  0.00000000000E+00  0.87384224726E+02  0.87384224763E+02  0.25500000920E-02 0. -1.
        2   -1    0    0  501    0  0.00000000000E+00  0.00000000000E+00 -0.23221283246E+04  0.23221283246E+04  0.25500000920E-02 0.  1.
    10030    2    1    2    0    0  0.00000000000E+00  0.00000000000E+00 -0.22347440999E+04  0.24095125494E+04  0.90092704124E+03 0.  0.
        4    1    3    3  502    0 -0.26578209374E+03 -0.25965238677E+03 -0.17984794703E+04  0.18364611352E+04  0.12699999809E+01 0.  1.
       -4    1    3    3    0  502  0.26578209374E+03  0.25965238677E+03 -0.43626462962E+03  0.57305141415E+03  0.12699999809E+01 0. -1.
</event>
<event>
 5   0  0.3943549E-03  0.8989055E+03  0.7818609E-02  0.9426951E-01
        1   -1    0    0  501    0  0.00000000000E+00  0.00000000000E+00  0.44189175285E+03  0.44189175288E+03  0.50400001928E-02 0.  1.
       -1   -1    0    0    0  501  0.00000000000E+00  0.00000000000E+00 -0.45714308980E+03  0.45714308982E+03  0.50400001928E-02 0. -1.
    10030    2    1    2    0    0  0.00000000000E+00  0.00000000000E+00 -0.15251336946E+02  0.89903484270E+03  0.89890547062E+03 0.  0.
        3    1    3    3  502    0 -0.44426938831E+03 -0.17421371452E+02  0.58178614457E+02  0.44840110945E+03  0.10100000352E+00 0.  1.
       -3    1    3    3    0  502  0.44426938831E+03  0.17421371452E+02 -0.73429951403E+02  0.45063373325E+03  0.10100000352E+00 0. -1.
</event>
<event>
 5   0  0.6609191E-03  0.8981335E+03  0.7818609E-02  0.9427918E-01
       -2   -1    0    0    0  501  0.00000000000E+00  0.00000000000E+00  0.28921530455E+03  0.28921530456E+03  0.25500000920E-02 0.  1.
        2   -1    0    0  501    0  0.00000000000E+00  0.00000000000E+00 -0.69726924137E+03  0.69726924137E+03  0.25500000920E-02 0. -1.
    10030    2    1    2    0    0  0.00000000000E+00  0.00000000000E+00 -0.40805393681E+03  0.98648454594E+03  0.89813347784E+03 0.  0.
        2    1    3    3  502    0 -0.10544534022E+03  0.28526938591E+03 -0.56692809234E+03  0.64335433798E+03  0.25500000920E-02 0. -1.
       -2    1    3    3    0  502  0.10544534022E+03 -0.28526938591E+03  0.15887415552E+03  0.34313020795E+03  0.25500000920E-02 0.  1.
</event>
<event>
 5   0  0.6534628E-03  0.8956080E+03  0.7818609E-02  0.9431088E-01
        2   -1    0    0  501    0  0.00000000000E+00  0.00000000000E+00  0.80403049925E+03  0.80403049925E+03  0.25500000920E-02 0.  1.
       -2   -1    0    0    0  501  0.00000000000E+00  0.00000000000E+00 -0.24940398289E+03  0.24940398290E+03  0.25500000920E-02 0. -1.
    10030    2    1    2    0    0  0.00000000000E+00  0.00000000000E+00  0.55462651636E+03  0.10534344822E+04  0.89560796978E+03 0.  0.
        4    1    3    3  502    0 -0.19979835896E+03  0.40071564442E+03  0.27041613228E+03  0.52308594841E+03  0.12699999809E+01 0.  1.
       -4    1    3    3    0  502  0.19979835896E+03 -0.40071564442E+03  0.28421038408E+03  0.53034853374E+03  0.12699999809E+01 0. -1.
</event>
<event>
 5   0  0.6524705E-03  0.9036457E+03  0.7818609E-02  0.9421036E-01
       -2   -1    0    0    0  501  0.00000000000E+00  0.00000000000E+00  0.98275147689E+02  0.98275147722E+02  0.25500000920E-02 0.  1.
        2   -1    0    0  501    0  0.00000000000E+00  0.00000000000E+00 -0.20772689116E+04  0.20772689116E+04  0.25500000920E-02 0. -1.
    10030    2    1    2    0    0  0.00000000000E+00  0.00000000000E+00 -0.19789937639E+04  0.21755440593E+04  0.90364574721E+03 0.  0.
        3    1    3    3  502    0  0.32130290149E+02  0.18402359638E+02  0.94616303472E+02  0.10160343237E+03  0.10100000352E+00 0.  1.
       -3    1    3    3    0  502 -0.32130290149E+02 -0.18402359638E+02 -0.20736100674E+04  0.20739406269E+04  0.10100000352E+00 0. -1.
</event>
<event>
 5   0  0.3794006E-03  0.9078293E+03  0.7818609E-02  0.9415847E-01
        1   -1    0    0  501    0  0.00000000000E+00  0.00000000000E+00  0.63974360632E+03  0.63974360634E+03  0.50400001928E-02 0. -1.
       -1   -1    0    0    0  501  0.00000000000E+00  0.00000000000E+00 -0.32206420176E+03  0.32206420180E+03  0.50400001928E-02 0.  1.
    10030    2    1    2    0    0  0.00000000000E+00  0.00000000000E+00  0.31767940456E+03  0.96180780814E+03  0.90782930979E+03 0.  0.
        5    1    3    3  502    0 -0.19223785644E+03 -0.24524491085E+03  0.50848675242E+03  0.59639024734E+03  0.46999998093E+01 0. -1.
       -5    1    3    3    0  502  0.19223785644E+03  0.24524491085E+03 -0.19080734785E+03  0.36541756080E+03  0.46999998093E+01 0.  1.
</event>
<event>
 5   0  0.6609191E-03  0.9010219E+03  0.7818609E-02  0.9424305E-01
        2   -1    0    0  501    0  0.00000000000E+00  0.00000000000E+00  0.11280510525E+04  0.11280510525E+04  0.25500000920E-02 0. -1.
       -2   -1    0    0    0  501  0.00000000000E+00  0.00000000000E+00 -0.17992104538E+03  0.17992104540E+03  0.25500000920E-02 0.  1.
    10030    2    1    2    0    0  0.00000000000E+00  0.00000000000E+00  0.94813000712E+03  0.13079720979E+04  0.90102191897E+03 0.  0.
        2    1    3    3  502    0 -0.17714745799E+03  0.12134973207E+02  0.10751122612E+04  0.10896764903E+04  0.25500000920E-02 0. -1.
       -2    1    3    3    0  502  0.17714745799E+03 -0.12134973207E+02 -0.12698225403E+03  0.21829560759E+03  0.25500000920E-02 0.  1.
</event>
<event>
 5   0  0.2560250E-03  0.8783632E+03  0.7818609E-02  0.9453040E-01
       -3   -1    0    0    0  501  0.00000000000E+00  0.00000000000E+00  0.56153075452E+03  0.56153076360E+03  0.10100000352E+00 0. -1.
        3   -1    0    0  501    0  0.00000000000E+00  0.00000000000E+00 -0.34349044322E+03  0.34349045807E+03  0.10100000352E+00 0.  1.
    10030    2    1    2    0    0  0.00000000000E+00  0.00000000000E+00  0.21804031130E+03  0.90502122167E+03  0.87836315629E+03 0.  0.
        2    1    3    3  502    0 -0.16725623683E+03 -0.20856038992E+03 -0.24999185084E+03  0.36601640741E+03  0.25500000920E-02 0.  1.
       -2    1    3    3    0  502  0.16725623683E+03  0.20856038992E+03  0.46803216213E+03  0.53900481426E+03  0.25500000920E-02 0. -1.
</event>
<event>
 5   0  0.3998066E-03  0.8966445E+03  0.7818609E-02  0.9429786E-01
       -1   -1    0    0    0  501  0.00000000000E+00  0.00000000000E+00  0.69068887476E+03  0.69068887478E+03  0.50400001928E-02 0.  1.
        1   -1    0    0  501    0  0.00000000000E+00  0.00000000000E+00 -0.29100342650E+03  0.29100342655E+03  0.50400001928E-02 0. -1.
    10030    2    1    2    0    0  0.00000000000E+00  0.00000000000E+00  0.39968544826E+03  0.98169230133E+03  0.89664447633E+03 0.  0.
        4    1    3    3  502    0  0.30499404829E+03 -0.27367569423E+03  0.73789215577E+00  0.40978276256E+03  0.12699999809E+01 0. -1.
       -4    1    3    3    0  502 -0.30499404829E+03  0.27367569423E+03  0.39894755610E+03  0.57190953876E+03  0.12699999809E+01 0.  1.
</event>
<event>
 5   0  0.6609191E-03  0.9018103E+03  0.7818609E-02  0.9423321E-01
       -2   -1    0    0    0  501  0.00000000000E+00  0.00000000000E+00  0.88879939454E+03  0.88879939454E+03  0.25500000920E-02 0.  1.
        2   -1    0    0  501    0  0.00000000000E+00  0.00000000000E+00 -0.22875290841E+03  0.22875290842E+03  0.25500000920E-02 0. -1.
    10030    2    1    2    0    0  0.00000000000E+00  0.00000000000E+00  0.66004648613E+03  0.11175523030E+04  0.90181028271E+03 0.  0.
        2    1    3    3  502    0 -0.40373502683E+03 -0.96778030213E+02  0.11201878599E+03  0.43001879894E+03  0.25500000920E-02 0. -1.
       -2    1    3    3    0  502  0.40373502683E+03  0.96778030213E+02  0.54802770014E+03  0.68753350402E+03  0.25500000920E-02 0.  1.
</event>
<event>
 5   0  0.3794006E-03  0.8901520E+03  0.7818609E-02  0.9437976E-01
        1   -1    0    0  501    0  0.00000000000E+00  0.00000000000E+00  0.27978521856E+03  0.27978521860E+03  0.50400001928E-02 0.  1.
       -1   -1    0    0    0  501  0.00000000000E+00  0.00000000000E+00 -0.70801688765E+03  0.70801688767E+03  0.50400001928E-02 0. -1.
    10030    2    1    2    0    0  0.00000000000E+00  0.00000000000E+00 -0.42823166910E+03  0.98780210628E+03  0.89015203125E+03 0.  0.
        5    1    3    3  502    0  0.28263978717E+03  0.15881510619E+02 -0.59520237857E+03  0.65910957596E+03  0.46999998093E+01 0. -1.
       -5    1    3    3    0  502 -0.28263978717E+03 -0.15881510619E+02  0.16697070947E+03  0.32869253032E+03  0.46999998093E+01 0.  1.
</event>
<event>
 5   0  0.3794006E-03  0.8936555E+03  0.7818609E-02  0.9433547E-01
       -1   -1    0    0    0  501  0.00000000000E+00  0.00000000000E+00  0.30616717414E+03  0.30616717418E+03  0.50400001928E-02 0. -1.
        1   -1    0    0  501    0  0.00000000000E+00  0.00000000000E+00 -0.65211114782E+03  0.65211114784E+03  0.50400001928E-02 0.  1.
    10030    2    1    2    0    0  0.00000000000E+00  0.00000000000E+00 -0.34594397368E+03  0.95827832202E+03  0.89365547586E+03 0.  0.
        5    1    3    3  502    0  0.24047669184E+03 -0.31638645005E+03 -0.39195370521E+03  0.55819281805E+03  0.46999998093E+01 0.  1.
       -5    1    3    3    0  502 -0.24047669184E+03  0.31638645005E+03  0.46009731534E+02  0.40008550397E+03  0.46999998093E+01 0. -1.
</event>
<event>
 5   0  0.3943549E-03  0.9045174E+03  0.7818609E-02  0.9419952E-01
        1   -1    0    0  501    0  0.00000000000E+00  0.00000000000E+00  0.55658701686E+03  0.55658701689E+03  0.50400001928E-02 0. -1.
       -1   -1    0    0    0  501  0.00000000000E+00  0.00000000000E+00 -0.36748596378E+03  0.36748596382E+03  0.50400001928E-02 0.  1.
    10030    2    1    2    0    0  0.00000000000E+00  0.00000000000E+00  0.18910105308E+03  0.92407298070E+03  0.90451736600E+03 0.  0.
        3    1    3    3  502    0 -0.27922344467E+03  0.18509815863E+03 -0.21584519588E+03  0.39851752680E+03  0.10100000352E+00 0.  1.
       -3    1    3    3    0  502  0.27922344467E+03 -0.18509815863E+03  0.40494624896E+03  0.52555545391E+03  0.10100000352E+00 0. -1.
</event>
<event>
 5   0  0.3927993E-03  0.9042948E+03  0.7818609E-02  0.9420229E-01
       -1   -1    0    0    0  501  0.00000000000E+00  0.00000000000E+00  0.11819579105E+03  0.11819579116E+03  0.50400001928E-02 0. -1.
        1   -1    0    0  501    0  0.00000000000E+00  0.00000000000E+00 -0.17296493637E+04  0.17296493637E+04  0.50400001928E-02 0.  1.
    10030    2    1    2    0    0  0.00000000000E+00  0.00000000000E+00 -0.16114535727E+04  0.18478451549E+04  0.90429480790E+03 0.  0.
        2    1    3    3  502    0  0.57527399333E+02  0.44031400211E+03 -0.63171925350E+03  0.77217552239E+03  0.25500000920E-02 0. -1.
       -2    1    3    3    0  502 -0.57527399333E+02 -0.44031400211E+03 -0.97973431918E+03  0.10756696325E+04  0.25500000920E-02 0.  1.
</event>
<event>
 5   0  0.6724773E-03  0.8994624E+03  0.7818609E-02  0.9426254E-01
        2   -1    0    0  501    0  0.00000000000E+00  0.00000000000E+00  0.17204133262E+04  0.17204133262E+04  0.25500000920E-02 0. -1.
       -2   -1    0    0    0  501  0.00000000000E+00  0.00000000000E+00 -0.11756369341E+03  0.11756369344E+03  0.25500000920E-02 0.  1.
    10030    2    1    2    0    0  0.00000000000E+00  0.00000000000E+00  0.16028496328E+04  0.18379770197E+04  0.89946238353E+03 0.  0.
        5    1    3    3  502    0 -0.35232535485E+03  0.72844603695E+02  0.25009369401E+03  0.43818767410E+03  0.46999998093E+01 0.  1.
       -5    1    3    3    0  502  0.35232535485E+03 -0.72844603695E+02  0.13527559388E+04  0.13997893456E+04  0.46999998093E+01 0. -1.
</event>
<event>
 5   0  0.3998066E-03  0.8966096E+03  0.7818609E-02  0.9429829E-01
        1   -1    0    0  501    0  0.00000000000E+00  0.00000000000E+00  0.57191203563E+03  0.57191203565E+03  0.50400001928E-02 0.  1.
       -1   -1    0    0    0  501  0.00000000000E+00  0.00000000000E+00 -0.35141279722E+03  0.35141279725E+03  0.50400001928E-02 0. -1.
    10030    2    1    2    0    0  0.00000000000E+00  0.00000000000E+00  0.22049923841E+03  0.92332483290E+03  0.89660963240E+03 0.  0.
        4    1    3    3  502    0  0.35061787516E+03  0.25258533645E+03  0.23315111542E+03  0.49101252743E+03  0.12699999809E+01 0.  1.
       -4    1    3    3    0  502 -0.35061787516E+03 -0.25258533645E+03 -0.12651877010E+02  0.43231230547E+03  0.12699999809E+01 0. -1.
</event>
<event>
 5   0  0.3794006E-03  0.8986166E+03  0.7818609E-02  0.9427312E-01
        1   -1    0    0  501    0  0.00000000000E+00  0.00000000000E+00  0.82050968921E+03  0.82050968922E+03  0.50400001928E-02 0. -1.
       -1   -1    0    0    0  501  0.00000000000E+00  0.00000000000E+00 -0.24603969188E+03  0.24603969193E+03  0.50400001928E-02 0.  1.
    10030    2    1    2    0    0  0.00000000000E+00  0.00000000000E+00  0.57446999732E+03  0.10665493812E+04  0.89861660602E+03 0.  0.
        5    1    3    3  502    0  0.88916188902E+02 -0.28272708727E+03 -0.11352820652E+03  0.31741367047E+03  0.46999998093E+01 0.  1.
       -5    1    3    3    0  502 -0.88916188902E+02  0.28272708727E+03  0.68799820385E+03  0.74913571068E+03  0.46999998093E+01 0. -1.
</event>
<event>
 5   0  0.6609191E-03  0.9007670E+03  0.7818609E-02  0.9424623E-01
        2   -1    0    0  501    0  0.00000000000E+00  0.00000000000E+00  0.13021142583E+04  0.13021142583E+04  0.25500000920E-02 0.  1.
       -2   -1    0    0    0  501  0.00000000000E+00  0.00000000000E+00 -0.15578148967E+03  0.15578148969E+03  0.25500000920E-02 0. -1.
    10030    2    1    2    0    0  0.00000000000E+00  0.00000000000E+00  0.11463327686E+04  0.14578957480E+04  0.90076700405E+03 0.  0.
        2    1    3    3  502    0  0.35140632142E+03 -0.19852303990E+03  0.89665484715E+03  0.98330448745E+03  0.25500000920E-02 0.  1.
       -2    1    3    3    0  502 -0.35140632142E+03  0.19852303990E+03  0.24967792146E+03  0.47459126054E+03  0.25500000920E-02 0. -1.
</event>
<event>
 5   0  0.3927993E-03  0.8933488E+03  0.7818609E-02  0.9433934E-01
        1   -1    0    0  501    0  0.00000000000E+00  0.00000000000E+00  0.31173010423E+03  0.31173010427E+03  0.50400001928E-02 0. -1.
       -1   -1    0    0    0  501  0.00000000000E+00  0.00000000000E+00 -0.64003449572E+03  0.64003449574E+03  0.50400001928E-02 0.  1.
    10030    2    1    2    0    0  0.00000000000E+00  0.00000000000E+00 -0.32830439150E+03  0.95176460001E+03  0.89334880106E+03 0.  0.
        2    1    3    3  502    0 -0.36856758393E+03  0.25098339316E+03 -0.13630305378E+03  0.46627593767E+03  0.25500000920E-02 0.  1.
       -2    1    3    3    0  502  0.36856758393E+03 -0.25098339316E+03 -0.19200133771E+03  0.48548866234E+03  0.25500000920E-02 0. -1.
</event>
<event>
 5   0  0.6724773E-03  0.8794492E+03  0.7818609E-02  0.9451642E-01
        2   -1    0    0  501    0  0.00000000000E+00  0.00000000000E+00  0.29494450121E+04  0.29494450121E+04  0.25500000920E-02 0. -1.
       -2   -1    0    0    0  501  0.00000000000E+00  0.00000000000E+00 -0.65557327683E+02  0.65557327732E+02  0.25500000920E-02 0.  1.
    10030    2    1    2    0    0  0.00000000000E+00  0.00000000000E+00  0.28838876844E+04  0.30150023398E+04  0.87944922131E+03 0.  0.
        5    1    3    3  502    0  0.37682501860E+03  0.10456618617E+03  0.75282909319E+03  0.84835423938E+03  0.46999998093E+01 0. -1.
       -5    1    3    3    0  502 -0.37682501860E+03 -0.10456618617E+03  0.21310585912E+04  0.21666481005E+04  0.46999998093E+01 0.  1.
</event>
<event>
 5   0  0.3969536E-03  0.9152193E+03  0.7818609E-02  0.9406754E-01
       -1   -1    0    0    0  501  0.00000000000E+00  0.00000000000E+00  0.32980398302E+03  0.32980398306E+03  0.50400001928E-02 0.  1.
        1   -1    0    0  501    0  0.00000000000E+00  0.00000000000E+00 -0.63494259310E+03  0.63494259312E+03  0.50400001928E-02 0. -1.
    10030    2    1    2    0    0  0.00000000000E+00  0.00000000000E+00 -0.30513861008E+03  0.96474657618E+03  0.91521930973E+03 0.  0.
        1    1    3    3  502    0 -0.32124848640E+03  0.28265064306E+03  0.18426959895E+02  0.42828907168E+03  0.50400001928E-02 0.  1.
       -1    1    3    3    0  502  0.32124848640E+03 -0.28265064306E+03 -0.32356556998E+03  0.53645750451E+03  0.50400001928E-02 0. -1.
</event>
<event>
 5   0  0.6524705E-03  0.9010652E+03  0.7818609E-02  0.9424251E-01
       -2   -1    0    0    0  501  0.00000000000E+00  0.00000000000E+00  0.37338033090E+03  0.37338033091E+03  0.25500000920E-02 0.  1.
        2   -1    0    0  501    0  0.00000000000E+00  0.00000000000E+00 -0.54362696411E+03  0.54362696412E+03  0.25500000920E-02 0. -1.
    10030    2    1    2    0    0  0.00000000000E+00  0.00000000000E+00 -0.17024663321E+03  0.91700729503E+03  0.90106518244E+03 0.  0.
        3    1    3    3  502    0  0.30377450959E+03  0.32666318724E+03 -0.20824677133E+02  0.44656630857E+03  0.10100000352E+00 0.  1.
       -3    1    3    3    0  502 -0.30377450959E+03 -0.32666318724E+03 -0.14942195608E+03  0.47044098645E+03  0.10100000352E+00 0. -1.
</event>
<event>
 5   0  0.6724773E-03  0.8964492E+03  0.7818609E-02  0.9430031E-01
       -2   -1    0    0    0  501  0.00000000000E+00  0.00000000000E+00  0.12613428183E+03  0.12613428186E+03  0.25500000920E-02 0.  1.
        2   -1    0    0  501    0  0.00000000000E+00  0.00000000000E+00 -0.15927889735E+04  0.15927889735E+04  0.25500000920E-02 0. -1.
    10030    2    1    2    0    0  0.00000000000E+00  0.00000000000E+00 -0.14666546916E+04  0.17189232553E+04  0.89644920281E+03 0.  0.
        5    1    3    3  502    0 -0.21452822551E+03 -0.27472892544E+03 -0.19307128586E+03  0.39849335432E+03  0.46999998093E+01 0.  1.
       -5    1    3    3    0  502  0.21452822551E+03  0.27472892544E+03 -0.12735834058E+04  0.13204299010E+04  0.46999998093E+01 0. -1.
</event>
<event>
 5   0  0.3969536E-03  0.8918615E+03  0.7818609E-02  0.9435813E-01
       -1   -1    0    0    0  501  0.00000000000E+00  0.00000000000E+00  0.34489683426E+03  0.34489683429E+03  0.50400001928E-02 0.  1.
        1   -1    0    0  501    0  0.00000000000E+00  0.00000000000E+00 -0.57656147284E+03  0.57656147286E+03  0.50400001928E-02 0. -1.
    10030    2    1    2    0    0  0.00000000000E+00  0.00000000000E+00 -0.23166463859E+03  0.92145830716E+03  0.89186148423E+03 0.  0.
        1    1    3    3  502    0 -0.34251048405E+03 -0.15224498498E+01  0.17919319688E+03  0.38655653063E+03  0.50400001928E-02 0.  1.
       -1    1    3    3    0  502  0.34251048405E+03  0.15224498498E+01 -0.41085783546E+03  0.53490177652E+03  0.50400001928E-02 0. -1.
</event>
<event>
 5   0  0.6609191E-03  0.9002276E+03  0.7818609E-02  0.9425297E-01
        2   -1    0    0  501    0  0.00000000000E+00  0.00000000000E+00  0.10433238440E+04  0.10433238440E+04  0.25500000920E-02 0. -1.
       -2   -1    0    0    0  501  0.00000000000E+00  0.00000000000E+00 -0.19418939592E+03  0.19418939594E+03  0.25500000920E-02 0.  1.
    10030    2    1    2    0    0  0.00000000000E+00  0.00000000000E+00  0.84913444805E+03  0.12375132399E+04  0.90022758683E+03 0.  0.
        2    1    3    3  502    0 -0.42865424466E+03 -0.12576886650E+03  0.34877134434E+03  0.56674837440E+03  0.25500000920E-02 0. -1.
       -2    1    3    3    0  502  0.42865424466E+03  0.12576886650E+03  0.50036310371E+03  0.67076486551E+03  0.25500000920E-02 0.  1.
</event>
<event>
 5   0  0.6724773E-03  0.8948542E+03  0.7818609E-02  0.9432037E-01
       -2   -1    0    0    0  501  0.00000000000E+00  0.00000000000E+00  0.19162030233E+03  0.19162030235E+03  0.25500000920E-02 0. -1.
        2   -1    0    0  501    0  0.00000000000E+00  0.00000000000E+00 -0.10447276495E+04  0.10447276495E+04  0.25500000920E-02 0.  1.
    10030    2    1    2    0    0  0.00000000000E+00  0.00000000000E+00 -0.85310734718E+03  0.12363479519E+04  0.89485424079E+03 0.  0.
        5    1    3    3  502    0 -0.17262098861E+03 -0.40880006310E+03 -0.34774756817E+03  0.56379602559E+03  0.46999998093E+01 0.  1.
       -5    1    3    3    0  502  0.17262098861E+03  0.40880006310E+03 -0.50535977901E+03  0.67255192628E+03  0.46999998093E+01 0. -1.
</event>
<event>
 5   0  0.3927993E-03  0.8895087E+03  0.7818609E-02  0.9438792E-01
        1   -1    0    0  501    0  0.00000000000E+00  0.00000000000E+00  0.42662582157E+03  0.42662582160E+03  0.50400001928E-02 0. -1.
       -1   -1    0    0    0  501  0.00000000000E+00  0.00000000000E+00 -0.46365320736E+03  0.46365320739E+03  0.50400001928E-02 0.  1.
    10030    2    1    2    0    0  0.00000000000E+00  0.00000000000E+00 -0.37027385791E+02  0.89027902899E+03  0.88950869707E+03 0.  0.
        2    1    3    3  502    0  0.39438058412E+03 -0.20462837882E+03 -0.38471171793E+02  0.44596956131E+03  0.25500000920E-02 0.  1.
       -2    1    3    3    0  502 -0.39438058412E+03  0.20462837882E+03  0.14437860021E+01  0.44430946768E+03  0.25500000920E-02 0. -1.
</event>
<event>
 5   0  0.6724773E-03  0.9052623E+03  0.7818609E-02  0.9419027E-01
        2   -1    0    0  501    0  0.00000000000E+00  0.00000000000E+00  0.79046595028E+03  0.79046595029E+03  0.25500000920E-02 0. -1.
       -2   -1    0    0    0  501  0.00000000000E+00  0.00000000000E+00 -0.25918253793E+03  0.25918253794E+03  0.25500000920E-02 0.  1.
    10030    2    1    2    0    0  0.00000000000E+00  0.00000000000E+00  0.53128341235E+03  0.10496484882E+04  0.90526232916E+03 0.  0.
        5    1    3    3  502    0  0.32293059523E+02 -0.54752152596E+02 -0.25395277293E+03  0.26182960258E+03  0.46999998093E+01 0.  1.
       -5    1    3    3    0  502 -0.32293059523E+02  0.54752152596E+02  0.78523618529E+03  0.78781888565E+03  0.46999998093E+01 0. -1.
</event>
<event>
 5   0  0.3998066E-03  0.8980415E+03  0.7818609E-02  0.9428033E-01
        1   -1    0    0  501    0  0.00000000000E+00  0.00000000000E+00  0.40159666442E+03  0.40159666445E+03  0.50400001928E-02 0.  1.
       -1   -1    0    0    0  501  0.00000000000E+00  0.00000000000E+00 -0.50204514585E+03  0.50204514588E+03  0.50400001928E-02 0. -1.
    10030    2    1    2    0    0  0.00000000000E+00  0.00000000000E+00 -0.10044848144E+03  0.90364181033E+03  0.89804154912E+03 0.  0.
        4    1    3    3  502    0 -0.17927199085E+03 -0.51696404173E+01  0.36398935778E+03  0.40577707841E+03  0.12699999809E+01 0.  1.
       -4    1    3    3    0  502  0.17927199085E+03  0.51696404173E+01 -0.46443783922E+03  0.49786473191E+03  0.12699999809E+01 0. -1.
</event>
<event>
 5   0  0.3794006E-03  0.9019907E+03  0.7818609E-02  0.9423096E-01
        1   -1    0    0  501    0  0.00000000000E+00  0.00000000000E+00  0.11391812781E+04  0.11391812781E+04  0.50400001928E-02 0.  1.
       -1   -1    0    0    0  501  0.00000000000E+00  0.00000000000E+00 -0.17854646843E+03  0.17854646850E+03  0.50400001928E-02 0. -1.
    10030    2    1    2    0    0  0.00000000000E+00  0.00000000000E+00  0.96063480971E+03  0.13177277466E+04  0.90199067437E+03 0.  0.
        5    1    3    3  502    0  0.71246945471E+00  0.17384772823E+03 -0.12758848466E+03  0.21569527496E+03  0.46999998093E+01 0. -1.
       -5    1    3    3    0  502 -0.71246945471E+00 -0.17384772823E+03  0.10882232944E+04  0.11020324717E+04  0.46999998093E+01 0.  1.
</event>
<event>
 5   0  0.3794006E-03  0.8567940E+03  0.7818609E-02  0.9481263E-01
        1   -1    0    0  501    0  0.00000000000E+00  0.00000000000E+00  0.16523759890E+04  0.16523759890E+04  0.50400001928E-02 0.  1.
       -1   -1    0    0    0  501  0.00000000000E+00  0.00000000000E+00 -0.11106673150E+03  0.11106673162E+03  0.50400001928E-02 0. -1.
    10030    2    1    2    0    0  0.00000000000E+00  0.00000000000E+00  0.15413092575E+04  0.17634427206E+04  0.85679402524E+03 0.  0.
        5    1    3    3  502    0  0.12507901229E+03  0.32113321345E+03  0.12943030268E+04  0.13394079720E+04  0.46999998093E+01 0.  1.
       -5    1    3    3    0  502 -0.12507901229E+03 -0.32113321345E+03  0.24700623069E+03  0.42403474868E+03  0.46999998093E+01 0. -1.
</event>
<event>
 5   0  0.2560250E-03  0.9008433E+03  0.7818609E-02  0.9424528E-01
       -3   -1    0    0    0  501  0.00000000000E+00  0.00000000000E+00  0.45773871498E+03  0.45773872613E+03  0.10100000352E+00 0.  1.
        3   -1    0    0  501    0  0.00000000000E+00  0.00000000000E+00 -0.44322155051E+03  0.44322156201E+03  0.10100000352E+00 0. -1.
    10030    2    1    2    0    0  0.00000000000E+00  0.00000000000E+00  0.14517164479E+02  0.90096028814E+03  0.90084332308E+03 0.  0.
        4    1    3    3  502    0 -0.26099585329E+03  0.54323459732E+02  0.37035969297E+03  0.45633078878E+03  0.12699999809E+01 0.  1.
       -4    1    3    3    0  502  0.26099585329E+03 -0.54323459732E+02 -0.35584252849E+03  0.44462949936E+03  0.12699999809E+01 0. -1.
</event>
<event>
 5   0  0.6524705E-03  0.8990100E+03  0.7818609E-02  0.9426820E-01
       -2   -1    0    0    0  501  0.00000000000E+00  0.00000000000E+00  0.46163349945E+03  0.46163349946E+03  0.25500000920E-02 0. -1.
        2   -1    0    0  501    0  0.00000000000E+00  0.00000000000E+00 -0.43769516553E+03  0.43769516554E+03  0.25500000920E-02 0.  1.
    10030    2    1    2    0    0  0.00000000000E+00  0.00000000000E+00  0.23938333918E+02  0.89932866499E+03  0.89901001321E+03 0.  0.
        3    1    3    3  502    0  0.34590651602E+03  0.19009338677E+03 -0.20320688224E+03  0.44393677558E+03  0.10100000352E+00 0.  1.
       -3    1    3    3    0  502 -0.34590651602E+03 -0.19009338677E+03  0.22714521616E+03  0.45539188942E+03  0.10100000352E+00 0. -1.
</event>
<event>
 5   0  0.3794006E-03  0.8980556E+03  0.7818609E-02  0.9428015E-01
       -1   -1    0    0    0  501  0.00000000000E+00  0.00000000000E+00  0.10221932542E+04  0.10221932542E+04  0.50400001928E-02 0.  1.
        1   -1    0    0  501    0  0.00000000000E+00  0.00000000000E+00 -0.19724840322E+03  0.19724840328E+03  0.50400001928E-02 0. -1.
    10030    2    1    2    0    0  0.00000000000E+00  0.00000000000E+00  0.82494485095E+03  0.12194416575E+04  0.89805564908E+03 0.  0.
        5    1    3    3  502    0  0.25448826711E+03  0.13901586204E+02  0.91441821953E+03  0.94928409995E+03  0.46999998093E+01 0.  1.
       -5    1    3    3    0  502 -0.25448826711E+03 -0.13901586204E+02 -0.89473368587E+02  0.27015755751E+03  0.46999998093E+01 0. -1.
</event>
<event>
 5   0  0.3794006E-03  0.9119920E+03  0.7818609E-02  0.9410714E-01
        1   -1    0    0  501    0  0.00000000000E+00  0.00000000000E+00  0.50389208621E+03  0.50389208624E+03  0.50400001928E-02 0.  1.
       -1   -1    0    0    0  501  0.00000000000E+00  0.00000000000E+00 -0.41265251122E+03  0.41265251125E+03  0.50400001928E-02 0. -1.
    10030    2    1    2    0    0  0.00000000000E+00  0.00000000000E+00  0.91239574991E+02  0.91654459749E+03  0.91199196221E+03 0.  0.
        5    1    3    3  502    0  0.43594437513E+03 -0.58827820026E+02  0.16622734143E+03  0.47027845970E+03  0.46999998093E+01 0. -1.
       -5    1    3    3    0  502 -0.43594437513E+03  0.58827820026E+02 -0.74987766439E+02  0.44626613779E+03  0.46999998093E+01 0.  1.
</event>
<event>
 5   0  0.6524705E-03  0.8794991E+03  0.7818609E-02  0.9451578E-01
        2   -1    0    0  501    0  0.00000000000E+00  0.00000000000E+00  0.42506578460E+03  0.42506578460E+03  0.25500000920E-02 0.  1.
       -2   -1    0    0    0  501  0.00000000000E+00  0.00000000000E+00 -0.45494053599E+03  0.45494053599E+03  0.25500000920E-02 0. -1.
    10030    2    1    2    0    0  0.00000000000E+00  0.00000000000E+00 -0.29874751390E+02  0.88000632060E+03  0.87949907534E+03 0.  0.
        3    1    3    3  502    0 -0.38016715510E+03  0.18319820464E+03 -0.13866546759E+03  0.44420352329E+03  0.10100000352E+00 0. -1.
       -3    1    3    3    0  502  0.38016715510E+03 -0.18319820464E+03  0.10879071620E+03  0.43580279730E+03  0.10100000352E+00 0.  1.
</event>
<event>
 5   0  0.6863405E-03  0.9076647E+03  0.7818609E-02  0.9416051E-01
        2   -1    0    0  501    0  0.00000000000E+00  0.00000000000E+00  0.26867581171E+04  0.26867581171E+04  0.25500000920E-02 0. -1.
       -2   -1    0    0    0  501  0.00000000000E+00  0.00000000000E+00 -0.76658861874E+02  0.76658861916E+02  0.25500000920E-02 0.  1.
    10030    2    1    2    0    0  0.00000000000E+00  0.00000000000E+00  0.26100992553E+04  0.27634169790E+04  0.90766473866E+03 0.  0.
        1    1    3    3  502    0  0.79932906953E+02 -0.35563080280E+03  0.48189115253E+03  0.60421984445E+03  0.50400001928E-02 0.  1.
       -1    1    3    3    0  502 -0.79932906953E+02  0.35563080280E+03  0.21282081027E+04  0.21591971346E+04  0.50400001928E-02 0. -1.
</event>
<event>
 5   0  0.6534628E-03  0.9017479E+03  0.7818609E-02  0.9423399E-01
        2   -1    0    0  501    0  0.00000000000E+00  0.00000000000E+00  0.20062765922E+04  0.20062765922E+04  0.25500000920E-02 0. -1.
       -2   -1    0    0    0  501  0.00000000000E+00  0.00000000000E+00 -0.10132566045E+03  0.10132566048E+03  0.25500000920E-02 0.  1.
    10030    2    1    2    0    0  0.00000000000E+00  0.00000000000E+00  0.19049509317E+04  0.21076022526E+04  0.90174786005E+03 0.  0.
        4    1    3    3  502    0  0.26715951095E+03  0.30369590713E+03  0.48689913281E+03  0.63299114270E+03  0.12699999809E+01 0.  1.
       -4    1    3    3    0  502 -0.26715951095E+03 -0.30369590713E+03  0.14180517989E+04  0.14746111099E+04  0.12699999809E+01 0. -1.
</event>
<event>
 5   0  0.3927993E-03  0.9002124E+03  0.7818609E-02  0.9425316E-01
       -1   -1    0    0    0  501  0.00000000000E+00  0.00000000000E+00  0.20436520762E+03  0.20436520768E+03  0.50400001928E-02 0.  1.
        1   -1    0    0  501    0  0.00000000000E+00  0.00000000000E+00 -0.99134100838E+03  0.99134100839E+03  0.50400001928E-02 0. -1.
    10030    2    1    2    0    0  0.00000000000E+00  0.00000000000E+00 -0.78697580076E+03  0.11957062161E+04  0.90021244391E+03 0.  0.
        2    1    3    3  502    0 -0.33719232354E+03 -0.25477520827E+03 -0.18777416541E+03  0.46245887061E+03  0.25500000920E-02 0.  1.
       -2    1    3    3    0  502  0.33719232354E+03  0.25477520827E+03 -0.59920163535E+03  0.73324734546E+03  0.25500000920E-02 0. -1.
</event>
<event>
 5   0  0.2560250E-03  0.8938407E+03  0.7818609E-02  0.9433314E-01
        4   -1    0    0  501    0  0.00000000000E+00  0.00000000000E+00  0.46886153823E+03  0.46886325825E+03  0.12699999809E+01 0.  1.
       -4   -1    0    0    0  501  0.00000000000E+00  0.00000000000E+00 -0.42600249506E+03  0.42600438812E+03  0.12699999809E+01 0. -1.
    10030    2    1    2    0    0  0.00000000000E+00  0.00000000000E+00  0.42859043175E+02  0.89486764637E+03  0.89384070557E+03 0.  0.
        2    1    3    3  502    0 -0.31576860795E+03  0.10323218142E+03 -0.27786394813E+03  0.43309937742E+03  0.25500000920E-02 0. -1.
       -2    1    3    3    0  502  0.31576860795E+03 -0.10323218142E+03  0.32072299130E+03  0.46176826895E+03  0.25500000920E-02 0.  1.
</event>
<event>
 5   0  0.3998066E-03  0.8976707E+03  0.7818609E-02  0.9428498E-01
        1   -1    0    0  501    0  0.00000000000E+00  0.00000000000E+00  0.72551510448E+03  0.72551510450E+03  0.50400001928E-02 0.  1.
       -1   -1    0    0    0  501  0.00000000000E+00  0.00000000000E+00 -0.27766914380E+03  0.27766914385E+03  0.50400001928E-02 0. -1.
    10030    2    1    2    0    0  0.00000000000E+00  0.00000000000E+00  0.44784596068E+03  0.10031842483E+04  0.89767066992E+03 0.  0.
        4    1    3    3  502    0 -0.42689460280E+03  0.53984520376E+02  0.81252643757E+02  0.43790059986E+03  0.12699999809E+01 0. -1.
       -4    1    3    3    0  502  0.42689460280E+03 -0.53984520376E+02  0.36659331692E+03  0.56528364849E+03  0.12699999809E+01 0.  1.
</event>
<event>
 5   0  0.6863405E-03  0.8984448E+03  0.7818609E-02  0.9427528E-01
        2   -1    0    0  501    0  0.00000000000E+00  0.00000000000E+00  0.17507066964E+03  0.17507066965E+03  0.25500000920E-02 0.  1.
       -2   -1    0    0    0  501  0.00000000000E+00  0.00000000000E+00 -0.11526817342E+04  0.11526817342E+04  0.25500000920E-02 0. -1.
    10030    2    1    2    0    0  0.00000000000E+00  0.00000000000E+00 -0.97761106452E+03  0.13277524038E+04  0.89844479650E+03 0.  0.
        1    1    3    3  502    0  0.24527999042E+03 -0.69451951792E+02  0.57823158047E+02  0.26139886178E+03  0.50400001928E-02 0.  1.
       -1    1    3    3    0  502 -0.24527999042E+03  0.69451951792E+02 -0.10354342226E+04  0.10663535420E+04  0.50400001928E-02 0. -1.
</event>
<event>
 5   0  0.2560250E-03  0.9189680E+03  0.7818609E-02  0.9402176E-01
        4   -1    0    0  501    0  0.00000000000E+00  0.00000000000E+00  0.79457429028E+03  0.79457530523E+03  0.12699999809E+01 0.  1.
       -4   -1    0    0    0  501  0.00000000000E+00  0.00000000000E+00 -0.26570629439E+03  0.26570932949E+03  0.12699999809E+01 0. -1.
    10030    2    1    2    0    0  0.00000000000E+00  0.00000000000E+00  0.52886799590E+03  0.10602846347E+04  0.91896798069E+03 0.  0.
        2    1    3    3  502    0  0.42272769125E+03 -0.17027639415E+03  0.19683419116E+03  0.49642365996E+03  0.25500000920E-02 0. -1.
       -2    1    3    3    0  502 -0.42272769125E+03  0.17027639415E+03  0.33203380474E+03  0.56386097476E+03  0.25500000920E-02 0.  1.
</event>
<event>
 5   0  0.6609191E-03  0.9265272E+03  0.7818609E-02  0.9393015E-01
       -2   -1    0    0    0  501  0.00000000000E+00  0.00000000000E+00  0.21912305640E+03  0.21912305642E+03  0.25500000920E-02 0. -1.
        2   -1    0    0  501    0  0.00000000000E+00  0.00000000000E+00 -0.97941838094E+03  0.97941838094E+03  0.25500000920E-02 0.  1.
    10030    2    1    2    0    0  0.00000000000E+00  0.00000000000E+00 -0.76029532454E+03  0.11985414374E+04  0.92652716990E+03 0.  0.
        2    1    3    3  502    0  0.99172289989E+02  0.34092276166E+03  0.47882091323E+01  0.35508646760E+03  0.25500000920E-02 0. -1.
       -2    1    3    3    0  502 -0.99172289989E+02 -0.34092276166E+03 -0.76508353367E+03  0.84345496976E+03  0.25500000920E-02 0.  1.
</event>
<event>
 5   0  0.3969536E-03  0.8953181E+03  0.7818609E-02  0.9431453E-01
        1   -1    0    0  501    0  0.00000000000E+00  0.00000000000E+00  0.46224700587E+03  0.46224700590E+03  0.50400001928E-02 0.  1.
       -1   -1    0    0    0  501  0.00000000000E+00  0.00000000000E+00 -0.43353150968E+03  0.43353150971E+03  0.50400001928E-02 0. -1.
    10030    2    1    2    0    0  0.00000000000E+00  0.00000000000E+00  0.28715496195E+02  0.89577851560E+03  0.89531813859E+03 0.  0.
        1    1    3    3  502    0 -0.13598009855E+03  0.19278005758E+03  0.39500561533E+03  0.46009148435E+03  0.50400001928E-02 0.  1.
       -1    1    3    3    0  502  0.13598009855E+03 -0.19278005758E+03 -0.36629011914E+03  0.43568703126E+03  0.50400001928E-02 0. -1.
</event>
<event>
 5   0  0.3998066E-03  0.8898269E+03  0.7818609E-02  0.9438388E-01
       -1   -1    0    0    0  501  0.00000000000E+00  0.00000000000E+00  0.11084270100E+03  0.11084270112E+03  0.50400001928E-02 0.  1.
        1   -1    0    0  501    0  0.00000000000E+00  0.00000000000E+00 -0.17858457102E+04  0.17858457102E+04  0.50400001928E-02 0. -1.
    10030    2    1    2    0    0  0.00000000000E+00  0.00000000000E+00 -0.16750030092E+04  0.18966884113E+04  0.88982686454E+03 0.  0.
        4    1    3    3  502    0 -0.24527626161E+03  0.23404673635E+03 -0.22338533714E+03  0.40600608499E+03  0.12699999809E+01 0.  1.
       -4    1    3    3    0  502  0.24527626161E+03 -0.23404673635E+03 -0.14516176721E+04  0.14906823263E+04  0.12699999809E+01 0. -1.
</event>
<event>
 5   0  0.6609191E-03  0.9007749E+03  0.7818609E-02  0.9424613E-01
        2   -1    0    0  501    0  0.00000000000E+00  0.00000000000E+00  0.12626204914E+04  0.12626204914E+04  0.25500000920E-02 0.  1.
       -2   -1    0    0    0  501  0.00000000000E+00  0.00000000000E+00 -0.16065701976E+03  0.16065701978E+03  0.25500000920E-02 0. -1.
    10030    2    1    2    0    0  0.00000000000E+00  0.00000000000E+00  0.11019634717E+04  0.14232775112E+04  0.90077487811E+03 0.  0.
        2    1    3    3  502    0  0.26315587953E+03  0.14523144886E+03  0.21000495634E+02  0.30130418433E+03  0.25500000920E-02 0. -1.
       -2    1    3    3    0  502 -0.26315587953E+03 -0.14523144886E+03  0.10809629760E+04  0.11219733269E+04  0.25500000920E-02 0.  1.
</event>
<event>
 5   0  0.6724773E-03  0.8796716E+03  0.7818609E-02  0.9451356E-01
       -2   -1    0    0    0  501  0.00000000000E+00  0.00000000000E+00  0.17287167862E+03  0.17287167864E+03  0.25500000920E-02 0.  1.
        2   -1    0    0  501    0  0.00000000000E+00  0.00000000000E+00 -0.11190701745E+04  0.11190701745E+04  0.25500000920E-02 0. -1.
    10030    2    1    2    0    0  0.00000000000E+00  0.00000000000E+00 -0.94619849590E+03  0.12919418532E+04  0.87967161959E+03 0.  0.
        5    1    3    3  502    0  0.12036077803E+03 -0.41339307635E+03 -0.60489410463E+03  0.74249546819E+03  0.46999998093E+01 0. -1.
       -5    1    3    3    0  502 -0.12036077803E+03  0.41339307635E+03 -0.34130439127E+03  0.54944638497E+03  0.46999998093E+01 0.  1.
</event>
<event>
 5   0  0.3998066E-03  0.8635787E+03  0.7818609E-02  0.9472291E-01
        1   -1    0    0  501    0  0.00000000000E+00  0.00000000000E+00  0.12853185569E+04  0.12853185569E+04  0.50400001928E-02 0. -1.
       -1   -1    0    0    0  501  0.00000000000E+00  0.00000000000E+00 -0.14505513949E+03  0.14505513958E+03  0.50400001928E-02 0.  1.
    10030    2    1    2    0    0  0.00000000000E+00  0.00000000000E+00  0.11402634174E+04  0.14303736965E+04  0.86357874600E+03 0.  0.
        4    1    3    3  502    0 -0.35866887567E+03  0.11605978929E+03  0.91885646683E+03  0.99318279113E+03  0.12699999809E+01 0. -1.
       -4    1    3    3    0  502  0.35866887567E+03 -0.11605978929E+03  0.22140695057E+03  0.43719090536E+03  0.12699999809E+01 0.  1.
</event>
<event>
 5   0  0.3927993E-03  0.9030324E+03  0.7818609E-02  0.9421799E-01
       -1   -1    0    0    0  501  0.00000000000E+00  0.00000000000E+00  0.92942868165E+03  0.92942868167E+03  0.50400001928E-02 0. -1.
        1   -1    0    0  501    0  0.00000000000E+00  0.00000000000E+00 -0.21934644831E+03  0.21934644837E+03  0.50400001928E-02 0.  1.
    10030    2    1    2    0    0  0.00000000000E+00  0.00000000000E+00  0.71008223334E+03  0.11487751300E+04  0.90303240323E+03 0.  0.
        2    1    3    3  502    0 -0.31808266942E+03  0.48748913328E+02  0.75795489271E+03  0.82343710174E+03  0.25500000920E-02 0. -1.
       -2    1    3    3    0  502  0.31808266942E+03 -0.48748913328E+02 -0.47872659369E+02  0.32533802830E+03  0.25500000920E-02 0.  1.
</event>
<event>
 5   0  0.6534628E-03  0.9084402E+03  0.7818609E-02  0.9415092E-01
        2   -1    0    0  501    0  0.00000000000E+00  0.00000000000E+00  0.43412820107E+03  0.43412820108E+03  0.25500000920E-02 0. -1.
       -2   -1    0    0    0  501  0.00000000000E+00  0.00000000000E+00 -0.47524188378E+03  0.47524188379E+03  0.25500000920E-02 0.  1.
    10030    2    1    2    0    0  0.00000000000E+00  0.00000000000E+00 -0.41113682713E+02  0.90937008486E+03  0.90844021066E+03 0.  0.
        4    1    3    3  502    0 -0.23019937313E+03 -0.20464382234E+03  0.31361632975E+03  0.43957668341E+03  0.12699999809E+01 0.  1.
       -4    1    3    3    0  502  0.23019937313E+03  0.20464382234E+03 -0.35473001246E+03  0.46979340146E+03  0.12699999809E+01 0. -1.
</event>
<event>
 5   0  0.2560250E-03  0.9091200E+03  0.7818609E-02  0.9414252E-01
        3   -1    0    0  501    0  0.00000000000E+00  0.00000000000E+00  0.96775496804E+03  0.96775497331E+03  0.10100000352E+00 0. -1.
       -3   -1    0    0    0  501  0.00000000000E+00  0.00000000000E+00 -0.21350940086E+03  0.21350942475E+03  0.10100000352E+00 0.  1.
    10030    2    1    2    0    0  0.00000000000E+00  0.00000000000E+00  0.75424556717E+03  0.11812643981E+04  0.90912001547E+03 0.  0.
        2    1    3    3  502    0 -0.43829889103E+03 -0.53078069895E+02  0.51767850966E+03  0.68037801166E+03  0.25500000920E-02 0.  1.
       -2    1    3    3    0  502  0.43829889103E+03  0.53078069895E+02  0.23656705751E+03  0.50088638640E+03  0.25500000920E-02 0. -1.
</event>
<event>
 5   0  0.6534628E-03  0.8976022E+03  0.7818609E-02  0.9428584E-01
        2   -1    0    0  501    0  0.00000000000E+00  0.00000000000E+00  0.44347980515E+03  0.44347980516E+03  0.25500000920E-02 0.  1.
       -2   -1    0    0    0  501  0.00000000000E+00  0.00000000000E+00 -0.45418623677E+03  0.45418623678E+03  0.25500000920E-02 0. -1.
    10030    2    1    2    0    0  0.00000000000E+00  0.00000000000E+00 -0.10706431623E+02  0.89766604193E+03  0.89760219204E+03 0.  0.
        4    1    3    3  502    0  0.21920184697E+03  0.35423100495E+02 -0.39540219628E+03  0.45348512157E+03  0.12699999809E+01 0. -1.
       -4    1    3    3    0  502 -0.21920184697E+03 -0.35423100495E+02  0.38469576466E+03  0.44418092036E+03  0.12699999809E+01 0.  1.
</event>
<event>
 5   0  0.6534628E-03  0.9072543E+03  0.7818609E-02  0.9416558E-01
       -2   -1    0    0    0  501  0.00000000000E+00  0.00000000000E+00  0.32505948849E+03  0.32505948850E+03  0.25500000920E-02 0. -1.
        2   -1    0    0  501    0  0.00000000000E+00  0.00000000000E+00 -0.63304598367E+03  0.63304598368E+03  0.25500000920E-02 0.  1.
    10030    2    1    2    0    0  0.00000000000E+00  0.00000000000E+00 -0.30798649518E+03  0.95810547218E+03  0.90725432741E+03 0.  0.
        4    1    3    3  502    0 -0.27523674324E+03  0.30220142059E+03  0.53742793598E+02  0.41227522870E+03  0.12699999809E+01 0. -1.
       -4    1    3    3    0  502  0.27523674324E+03 -0.30220142059E+03 -0.36172928877E+03  0.54583024348E+03  0.12699999809E+01 0.  1.
</event>
<event>
 5   0  0.6724773E-03  0.9152273E+03  0.7818609E-02  0.9406744E-01
       -2   -1    0    0    0  501  0.00000000000E+00  0.00000000000E+00  0.76091508479E+03  0.76091508479E+03  0.25500000920E-02 0.  1.
        2   -1    0    0  501    0  0.00000000000E+00  0.00000000000E+00 -0.27520842473E+03  0.27520842475E+03  0.25500000920E-02 0. -1.
    10030    2    1    2    0    0  0.00000000000E+00  0.00000000000E+00  0.48570666005E+03  0.10361235095E+04  0.91522727636E+03 0.  0.
        5    1    3    3  502    0 -0.74907861714E+02  0.89596875390E+02 -0.25802558835E+03  0.28326327342E+03  0.46999998093E+01 0. -1.
       -5    1    3    3    0  502  0.74907861714E+02 -0.89596875390E+02  0.74373224840E+03  0.75286023612E+03  0.46999998093E+01 0.  1.
</event>
<event>
 5   0  0.3927993E-03  0.8987301E+03  0.7818609E-02  0.9427170E-01
       -1   -1    0    0    0  501  0.00000000000E+00  0.00000000000E+00  0.18949020043E+03  0.18949020050E+03  0.50400001928E-02 0.  1.
        1   -1    0    0  501    0  0.00000000000E+00  0.00000000000E+00 -0.10656432726E+04  0.10656432726E+04  0.50400001928E-02 0. -1.
    10030    2    1    2    0    0  0.00000000000E+00  0.00000000000E+00 -0.87615307212E+03  0.12551334731E+04  0.89873012046E+03 0.  0.
        2    1    3    3  502    0 -0.34668345491E+03 -0.91784827246E+02 -0.59932473400E+02  0.36360111908E+03  0.25500000920E-02 0.  1.
       -2    1    3    3    0  502  0.34668345491E+03  0.91784827246E+02 -0.81622059872E+03  0.89153235399E+03  0.25500000920E-02 0. -1.
</event>
<event>
 5   0  0.3969536E-03  0.9053212E+03  0.7818609E-02  0.9418954E-01
        1   -1    0    0  501    0  0.00000000000E+00  0.00000000000E+00  0.29779443659E+03  0.29779443663E+03  0.50400001928E-02 0. -1.
       -1   -1    0    0    0  501  0.00000000000E+00  0.00000000000E+00 -0.68806401515E+03  0.68806401516E+03  0.50400001928E-02 0.  1.
    10030    2    1    2    0    0  0.00000000000E+00  0.00000000000E+00 -0.39026957856E+03  0.98585845180E+03  0.90532123748E+03 0.  0.
        1    1    3    3  502    0 -0.45180178649E+03 -0.52098191570E+00 -0.22547966706E+03  0.50494178474E+03  0.50400001928E-02 0.  1.
       -1    1    3    3    0  502  0.45180178649E+03  0.52098191570E+00 -0.16478991150E+03  0.48091666705E+03  0.50400001928E-02 0. -1.
</event>
<event>
 5   0  0.3794006E-03  0.8951950E+03  0.7818609E-02  0.9431608E-01
        1   -1    0    0  501    0  0.00000000000E+00  0.00000000000E+00  0.18132236819E+04  0.18132236819E+04  0.50400001928E-02 0.  1.
       -1   -1    0    0    0  501  0.00000000000E+00  0.00000000000E+00 -0.11049024432E+03  0.11049024443E+03  0.50400001928E-02 0. -1.
    10030    2    1    2    0    0  0.00000000000E+00  0.00000000000E+00  0.17027334376E+04  0.19237139264E+04  0.89519501280E+03 0.  0.
        5    1    3    3  502    0 -0.35571605029E+02  0.43372556238E+02 -0.10285362548E+03  0.11724963109E+03  0.46999998093E+01 0. -1.
       -5    1    3    3    0  502  0.35571605029E+02 -0.43372556238E+02  0.18055870631E+04  0.18064642953E+04  0.46999998093E+01 0.  1.
</event>
<event>
 5   0  0.6863405E-03  0.9313881E+03  0.7818609E-02  0.9387174E-01
       -2   -1    0    0    0  501  0.00000000000E+00  0.00000000000E+00  0.49510720255E+03  0.49510720255E+03  0.25500000920E-02 0. -1.
        2   -1    0    0  501    0  0.00000000000E+00  0.00000000000E+00 -0.43802826907E+03  0.43802826908E+03  0.25500000920E-02 0.  1.
    10030    2    1    2    0    0  0.00000000000E+00  0.00000000000E+00  0.57078933475E+02  0.93313547163E+03  0.93138810588E+03 0.  0.
        1    1    3    3  502    0 -0.11247576240E+03  0.73224461611E+02 -0.41823249217E+03  0.43923915632E+03  0.50400001928E-02 0.  1.
       -1    1    3    3    0  502  0.11247576240E+03 -0.73224461611E+02  0.47531142565E+03  0.49389631532E+03  0.50400001928E-02 0. -1.
</event>
<event>
 5   0  0.2560250E-03  0.9009606E+03  0.7818609E-02  0.9424381E-01
       -4   -1    0    0    0  501  0.00000000000E+00  0.00000000000E+00  0.24915599849E+03  0.24915923520E+03  0.12699999809E+01 0. -1.
        4   -1    0    0  501    0  0.00000000000E+00  0.00000000000E+00 -0.81447060368E+03  0.81447159383E+03  0.12699999809E+01 0.  1.
    10030    2    1    2    0    0  0.00000000000E+00  0.00000000000E+00 -0.56531460519E+03  0.10636308290E+04  0.90096056385E+03 0.  0.
        2    1    3    3  502    0  0.11035209578E+03 -0.41200530574E+03 -0.45376213192E+03  0.62275679793E+03  0.25500000920E-02 0. -1.
       -2    1    3    3    0  502 -0.11035209578E+03  0.41200530574E+03 -0.11155247327E+03  0.44087403110E+03  0.25500000920E-02 0.  1.
</event>
<event>
 5   0  0.6534628E-03  0.8968866E+03  0.7818609E-02  0.9429482E-01
       -2   -1    0    0    0  501  0.00000000000E+00  0.00000000000E+00  0.17496501241E+03  0.17496501243E+03  0.25500000920E-02 0. -1.
        2   -1    0    0  501    0  0.00000000000E+00  0.00000000000E+00 -0.11493805062E+04  0.11493805062E+04  0.25500000920E-02 0.  1.
    10030    2    1    2    0    0  0.00000000000E+00  0.00000000000E+00 -0.97441549379E+03  0.13243455186E+04  0.89688655814E+03 0.  0.
        4    1    3    3  502    0  0.15803562205E+02  0.44237316270E+03 -0.59323560598E+03  0.74018502063E+03  0.12699999809E+01 0.  1.
       -4    1    3    3    0  502 -0.15803562205E+02 -0.44237316270E+03 -0.38117988781E+03  0.58416049800E+03  0.12699999809E+01 0. -1.
</event>
<event>
 5   0  0.3794006E-03  0.8931850E+03  0.7818609E-02  0.9434141E-01
       -1   -1    0    0    0  501  0.00000000000E+00  0.00000000000E+00  0.29894317914E+03  0.29894317919E+03  0.50400001928E-02 0.  1.
        1   -1    0    0  501    0  0.00000000000E+00  0.00000000000E+00 -0.66716651938E+03  0.66716651940E+03  0.50400001928E-02 0. -1.
    10030    2    1    2    0    0  0.00000000000E+00  0.00000000000E+00 -0.36822334023E+03  0.96610969858E+03  0.89318504320E+03 0.  0.
        5    1    3    3  502    0  0.31799536675E+03 -0.23096082182E+03  0.45235047317E+02  0.39564157263E+03  0.46999998093E+01 0. -1.
       -5    1    3    3    0  502 -0.31799536675E+03  0.23096082182E+03 -0.41345838755E+03  0.57046812595E+03  0.46999998093E+01 0.  1.
</event>
<event>
 5   0  0.3969536E-03  0.8929373E+03  0.7818609E-02  0.9434453E-01
        1   -1    0    0  501    0  0.00000000000E+00  0.00000000000E+00  0.69520428916E+03  0.69520428917E+03  0.50400001928E-02 0. -1.
       -1   -1    0    0    0  501  0.00000000000E+00  0.00000000000E+00 -0.28672761149E+03  0.28672761153E+03  0.50400001928E-02 0.  1.
    10030    2    1    2    0    0  0.00000000000E+00  0.00000000000E+00  0.40847667767E+03  0.98193190071E+03  0.89293732223E+03 0.  0.
        1    1    3    3  502    0 -0.36131372603E+03  0.24570200522E+03  0.30512731991E+03  0.53293504798E+03  0.50400001928E-02 0. -1.
       -1    1    3    3    0  502  0.36131372603E+03 -0.24570200522E+03  0.10334935776E+03  0.44899685273E+03  0.50400001928E-02 0.  1.
</event>
<event>
 5   0  0.3927993E-03  0.8993770E+03  0.7818609E-02  0.9426361E-01
        1   -1    0    0  501    0  0.00000000000E+00  0.00000000000E+00  0.15301577954E+04  0.15301577954E+04  0.50400001928E-02 0.  1.
       -1   -1    0    0    0  501  0.00000000000E+00  0.00000000000E+00 -0.13215612768E+03  0.13215612778E+03  0.50400001928E-02 0. -1.
    10030    2    1    2    0    0  0.00000000000E+00  0.00000000000E+00  0.13980016677E+04  0.16623139232E+04  0.89937696005E+03 0.  0.
        2    1    3    3  502    0 -0.11912481958E+03 -0.43289564168E+03  0.65259538294E+03  0.79213009857E+03  0.25500000920E-02 0.  1.
       -2    1    3    3    0  502  0.11912481958E+03  0.43289564168E+03  0.74540628478E+03  0.87018382462E+03  0.25500000920E-02 0. -1.
</event>
<event>
 5   0  0.3927993E-03  0.9327801E+03  0.7818609E-02  0.9385508E-01
       -1   -1    0    0    0  501  0.00000000000E+00  0.00000000000E+00  0.43183006118E+03  0.43183006121E+03  0.50400001928E-02 0. -1.
        1   -1    0    0  501    0  0.00000000000E+00  0.00000000000E+00 -0.50371590810E+03  0.50371590812E+03  0.50400001928E-02 0.  1.
    10030    2    1    2    0    0  0.00000000000E+00  0.00000000000E+00 -0.71885846919E+02  0.93554596933E+03  0.93278008434E+03 0.  0.
        2    1    3    3  502    0 -0.39479549771E+03 -0.24683689685E+03 -0.88864098756E+01  0.46569400570E+03  0.25500000920E-02 0.  1.
       -2    1    3    3    0  502  0.39479549771E+03  0.24683689685E+03 -0.62999437043E+02  0.46985196363E+03  0.25500000920E-02 0. -1.
</event>
<event>
 5   0  0.3794006E-03  0.9074785E+03  0.7818609E-02  0.9416281E-01
        1   -1    0    0  501    0  0.00000000000E+00  0.00000000000E+00  0.11721793351E+04  0.11721793352E+04  0.50400001928E-02 0. -1.
       -1   -1    0    0    0  501  0.00000000000E+00  0.00000000000E+00 -0.17563805210E+03  0.17563805218E+03  0.50400001928E-02 0.  1.
    10030    2    1    2    0    0  0.00000000000E+00  0.00000000000E+00  0.99654128304E+03  0.13478173873E+04  0.90747847401E+03 0.  0.
        5    1    3    3  502    0  0.42598576552E+03 -0.11577187581E+03  0.34256740864E+03  0.55878575422E+03  0.46999998093E+01 0.  1.
       -5    1    3    3    0  502 -0.42598576552E+03  0.11577187581E+03  0.65397387441E+03  0.78903163312E+03  0.46999998093E+01 0. -1.
</event>
<event>
 5   0  0.6863405E-03  0.9235676E+03  0.7818609E-02  0.9396591E-01
       -2   -1    0    0    0  501  0.00000000000E+00  0.00000000000E+00  0.18459956006E+03  0.18459956008E+03  0.25500000920E-02 0.  1.
        2   -1    0    0  501    0  0.00000000000E+00  0.00000000000E+00 -0.11551722864E+04  0.11551722864E+04  0.25500000920E-02 0. -1.
    10030    2    1    2    0    0  0.00000000000E+00  0.00000000000E+00 -0.97057272638E+03  0.13397718465E+04  0.92356763886E+03 0.  0.
        1    1    3    3  502    0 -0.24785547806E+03 -0.37908499906E+03 -0.35467546812E+03  0.57526729633E+03  0.50400001928E-02 0. -1.
       -1    1    3    3    0  502  0.24785547806E+03  0.37908499906E+03 -0.61589725827E+03  0.76450455020E+03  0.50400001928E-02 0.  1.
</event>
<event>
 5   0  0.3927993E-03  0.8938380E+03  0.7818609E-02  0.9433317E-01
       -1   -1    0    0    0  501  0.00000000000E+00  0.00000000000E+00  0.13365435664E+03  0.13365435674E+03  0.50400001928E-02 0. -1.
        1   -1    0    0  501    0  0.00000000000E+00  0.00000000000E+00 -0.14944263375E+04  0.14944263375E+04  0.50400001928E-02 0.  1.
    10030    2    1    2    0    0  0.00000000000E+00  0.00000000000E+00 -0.13607719809E+04  0.16280806943E+04  0.89383799601E+03 0.  0.
        2    1    3    3  502    0 -0.35130666212E+03 -0.14567625929E+03 -0.11079366524E+04  0.11713930037E+04  0.25500000920E-02 0. -1.
       -2    1    3    3    0  502  0.35130666212E+03  0.14567625929E+03 -0.25283532845E+03  0.45668769054E+03  0.25500000920E-02 0.  1.
</event>
<event>
 5   0  0.3969536E-03  0.9016760E+03  0.7818609E-02  0.9423489E-01
       -1   -1    0    0    0  501  0.00000000000E+00  0.00000000000E+00  0.11319144323E+03  0.11319144334E+03  0.50400001928E-02 0.  1.
        1   -1    0    0  501    0  0.00000000000E+00  0.00000000000E+00 -0.17956738373E+04  0.17956738373E+04  0.50400001928E-02 0. -1.
    10030    2    1    2    0    0  0.00000000000E+00  0.00000000000E+00 -0.16824823940E+04  0.19088652806E+04  0.90167602458E+03 0.  0.
        1    1    3    3  502    0  0.40839276940E+03 -0.14232067428E+03 -0.57166324478E+03  0.71682542776E+03  0.50400001928E-02 0.  1.
       -1    1    3    3    0  502 -0.40839276940E+03  0.14232067428E+03 -0.11108191493E+04  0.11920398529E+04  0.50400001928E-02 0. -1.
</event>
<event>
 5   0  0.6534628E-03  0.9009189E+03  0.7818609E-02  0.9424433E-01
       -2   -1    0    0    0  501  0.00000000000E+00  0.00000000000E+00  0.29366578398E+03  0.29366578399E+03  0.25500000920E-02 0. -1.
        2   -1    0    0  501    0  0.00000000000E+00  0.00000000000E+00 -0.69096825715E+03  0.69096825715E+03  0.25500000920E-02 0.  1.
    10030    2    1    2    0    0  0.00000000000E+00  0.00000000000E+00 -0.39730247317E+03  0.98463404114E+03  0.90091894186E+03 0.  0.
        4    1    3    3  502    0  0.84282593570E+02  0.23963563628E+03  0.20791472327E+03  0.32826656669E+03  0.12699999809E+01 0. -1.
       -4    1    3    3    0  502 -0.84282593570E+02 -0.23963563628E+03 -0.60521719644E+03  0.65636747445E+03  0.12699999809E+01 0.  1.
</event>
<event>
 5   0  0.3794006E-03  0.8948531E+03  0.7818609E-02  0.9432038E-01
        1   -1    0    0  501    0  0.00000000000E+00  0.00000000000E+00  0.30647127032E+03  0.30647127037E+03  0.50400001928E-02 0.  1.
       -1   -1    0    0    0  501  0.00000000000E+00  0.00000000000E+00 -0.65321141622E+03  0.65321141624E+03  0.50400001928E-02 0. -1.
    10030    2    1    2    0    0  0.00000000000E+00  0.00000000000E+00 -0.34674014590E+03  0.95968268661E+03  0.89485313331E+03 0.  0.
        5    1    3    3  502    0 -0.39698086863E+03  0.16728832375E+03 -0.43833510295E+02  0.43303886655E+03  0.46999998093E+01 0. -1.
       -5    1    3    3    0  502  0.39698086863E+03 -0.16728832375E+03 -0.30290663560E+03  0.52664382006E+03  0.46999998093E+01 0.  1.
</event>
<event>
 5   0  0.3794006E-03  0.8992958E+03  0.7818609E-02  0.9426462E-01
       -1   -1    0    0    0  501  0.00000000000E+00  0.00000000000E+00  0.30120624454E+03  0.30120624458E+03  0.50400001928E-02 0.  1.
        1   -1    0    0  501    0  0.00000000000E+00  0.00000000000E+00 -0.67124512145E+03  0.67124512147E+03  0.50400001928E-02 0. -1.
    10030    2    1    2    0    0  0.00000000000E+00  0.00000000000E+00 -0.37003887691E+03  0.97245136605E+03  0.89929577388E+03 0.  0.
        5    1    3    3  502    0  0.99587613047E+02 -0.11805969863E+02 -0.65897061798E+03  0.66657440616E+03  0.46999998093E+01 0. -1.
       -5    1    3    3    0  502 -0.99587613047E+02  0.11805969863E+02  0.28893174107E+03  0.30587695989E+03  0.46999998093E+01 0.  1.
</event>
<event>
 5   0  0.3927993E-03  0.8980961E+03  0.7818609E-02  0.9427964E-01
       -1   -1    0    0    0  501  0.00000000000E+00  0.00000000000E+00  0.41541024731E+03  0.41541024734E+03  0.50400001928E-02 0. -1.
        1   -1    0    0  501    0  0.00000000000E+00  0.00000000000E+00 -0.48540970861E+03  0.48540970864E+03  0.50400001928E-02 0.  1.
    10030    2    1    2    0    0  0.00000000000E+00  0.00000000000E+00 -0.69999461302E+02  0.90081995597E+03  0.89809613544E+03 0.  0.
        2    1    3    3  502    0  0.12790665842E+03 -0.34264469943E+03 -0.29632524465E+03  0.47071663869E+03  0.25500000920E-02 0.  1.
       -2    1    3    3    0  502 -0.12790665842E+03  0.34264469943E+03  0.22632578335E+03  0.43010331728E+03  0.25500000920E-02 0. -1.
</event>
<event>
 5   0  0.6863405E-03  0.8973903E+03  0.7818609E-02  0.9428850E-01
       -2   -1    0    0    0  501  0.00000000000E+00  0.00000000000E+00  0.17173314848E+03  0.17173314850E+03  0.25500000920E-02 0.  1.
        2   -1    0    0  501    0  0.00000000000E+00  0.00000000000E+00 -0.11723266461E+04  0.11723266461E+04  0.25500000920E-02 0. -1.
    10030    2    1    2    0    0  0.00000000000E+00  0.00000000000E+00 -0.10005934976E+04  0.13440597946E+04  0.89739031862E+03 0.  0.
        1    1    3    3  502    0 -0.18457496997E+03 -0.29639862009E+03 -0.92235012844E+03  0.98623010550E+03  0.50400001928E-02 0. -1.
       -1    1    3    3    0  502  0.18457496997E+03  0.29639862009E+03 -0.78243369139E+02  0.35782968906E+03  0.50400001928E-02 0.  1.
</event>
<event>
 5   0  0.3927993E-03  0.8945811E+03  0.7818609E-02  0.9432381E-01
        1   -1    0    0  501    0  0.00000000000E+00  0.00000000000E+00  0.31121168413E+03  0.31121168417E+03  0.50400001928E-02 0. -1.
       -1   -1    0    0    0  501  0.00000000000E+00  0.00000000000E+00 -0.64287057290E+03  0.64287057292E+03  0.50400001928E-02 0.  1.
    10030    2    1    2    0    0  0.00000000000E+00  0.00000000000E+00 -0.33165888878E+03  0.95408225709E+03  0.89458109459E+03 0.  0.
        2    1    3    3  502    0 -0.42633045272E+03  0.13219744682E+03 -0.19664804660E+03  0.48775431736E+03  0.25500000920E-02 0. -1.
       -2    1    3    3    0  502  0.42633045272E+03 -0.13219744682E+03 -0.13501084217E+03  0.46632793973E+03  0.25500000920E-02 0.  1.
</event>
<event>
 5   0  0.6863405E-03  0.8877496E+03  0.7818609E-02  0.9441026E-01
        2   -1    0    0  501    0  0.00000000000E+00  0.00000000000E+00  0.19410593222E+03  0.19410593224E+03  0.25500000920E-02 0. -1.
       -2   -1    0    0    0  501  0.00000000000E+00  0.00000000000E+00 -0.10150377916E+04  0.10150377916E+04  0.25500000920E-02 0.  1.
    10030    2    1    2    0    0  0.00000000000E+00  0.00000000000E+00 -0.82093185942E+03  0.12091437239E+04  0.88774964219E+03 0.  0.
        1    1    3    3  502    0 -0.23984097632E+01  0.40042197740E+03 -0.67132746287E+03  0.78168028937E+03  0.50400001928E-02 0.  1.
       -1    1    3    3    0  502  0.23984097632E+01 -0.40042197740E+03 -0.14960439654E+03  0.42746343451E+03  0.50400001928E-02 0. -1.
</event>
<event>
 5   0  0.6524705E-03  0.8868428E+03  0.7818609E-02  0.9442180E-01
       -2   -1    0    0    0  501  0.00000000000E+00  0.00000000000E+00  0.75061597173E+02  0.75061597216E+02  0.25500000920E-02 0.  1.
        2   -1    0    0  501    0  0.00000000000E+00  0.00000000000E+00 -0.26194824461E+04  0.26194824461E+04  0.25500000920E-02 0. -1.
    10030    2    1    2    0    0  0.00000000000E+00  0.00000000000E+00 -0.25444208489E+04  0.26945440433E+04  0.88684279606E+03 0.  0.
        3    1    3    3  502    0 -0.16929957055E+02  0.92706596850E+02 -0.25887037391E+04  0.25904185368E+04  0.10100000352E+00 0. -1.
       -3    1    3    3    0  502  0.16929957055E+02 -0.92706596850E+02  0.44282890200E+02  0.10412550653E+03  0.10100000352E+00 0.  1.
</event>
<event>
 5   0  0.6524705E-03  0.8873740E+03  0.7818609E-02  0.9441504E-01
        2   -1    0    0  501    0  0.00000000000E+00  0.00000000000E+00  0.71914865897E+03  0.71914865898E+03  0.25500000920E-02 0. -1.
       -2   -1    0    0    0  501  0.00000000000E+00  0.00000000000E+00 -0.27373777058E+03  0.27373777059E+03  0.25500000920E-02 0.  1.
    10030    2    1    2    0    0  0.00000000000E+00  0.00000000000E+00  0.44541088839E+03  0.99288642957E+03  0.88737399248E+03 0.  0.
        3    1    3    3  502    0 -0.11895726440E+03 -0.41197609209E+03  0.95214140609E+02  0.43925035455E+03  0.10100000352E+00 0.  1.
       -3    1    3    3    0  502  0.11895726440E+03  0.41197609209E+03  0.35019674778E+03  0.55363607502E+03  0.10100000352E+00 0. -1.
</event>
<event>
 5   0  0.3969536E-03  0.8824427E+03  0.7818609E-02  0.9447799E-01
       -1   -1    0    0    0  501  0.00000000000E+00  0.00000000000E+00  0.35277009473E+03  0.35277009477E+03  0.50400001928E-02 0. -1.
        1   -1    0    0  501    0  0.00000000000E+00  0.00000000000E+00 -0.55185029480E+03  0.55185029482E+03  0.50400001928E-02 0.  1.
    10030    2    1    2    0    0  0.00000000000E+00  0.00000000000E+00 -0.19908020006E+03  0.90462038959E+03  0.88244270251E+03 0.  0.
        1    1    3    3  502    0  0.31349824837E+03 -0.53572668264E+02  0.21396451822E+03  0.38331709798E+03  0.50400001928E-02 0. -1.
       -1    1    3    3    0  502 -0.31349824837E+03  0.53572668264E+02 -0.41304471829E+03  0.52130329161E+03  0.50400001928E-02 0.  1.
</event>
<event>
 5   0  0.3794006E-03  0.8981640E+03  0.7818609E-02  0.9427879E-01
        1   -1    0    0  501    0  0.00000000000E+00  0.00000000000E+00  0.14554085616E+04  0.14554085616E+04  0.50400001928E-02 0. -1.
       -1   -1    0    0    0  501  0.00000000000E+00  0.00000000000E+00 -0.13856907996E+03  0.13856908005E+03  0.50400001928E-02 0.  1.
    10030    2    1    2    0    0  0.00000000000E+00  0.00000000000E+00  0.13168394816E+04  0.15939776416E+04  0.89816396148E+03 0.  0.
        5    1    3    3  502    0  0.28928580496E+03 -0.27183563507E+03  0.10309883285E+04  0.11047804818E+04  0.46999998093E+01 0. -1.
       -5    1    3    3    0  502 -0.28928580496E+03  0.27183563507E+03  0.28585115306E+03  0.48919715979E+03  0.46999998093E+01 0.  1.
</event>
<event>
 5   0  0.6524705E-03  0.9086511E+03  0.7818609E-02  0.9414831E-01
       -2   -1    0    0    0  501  0.00000000000E+00  0.00000000000E+00  0.29877434904E+03  0.29877434905E+03  0.25500000920E-02 0.  1.
        2   -1    0    0  501    0  0.00000000000E+00  0.00000000000E+00 -0.69086146414E+03  0.69086146414E+03  0.25500000920E-02 0. -1.
    10030    2    1    2    0    0  0.00000000000E+00  0.00000000000E+00 -0.39208711510E+03  0.98963581319E+03  0.90865105344E+03 0.  0.
        3    1    3    3  502    0 -0.25814178631E+03 -0.32955756252E+03 -0.38831772004E+03  0.57099564862E+03  0.10100000352E+00 0. -1.
       -3    1    3    3    0  502  0.25814178631E+03  0.32955756252E+03 -0.37693950555E+01  0.41864016457E+03  0.10100000352E+00 0.  1.
</event>
<event>
 5   0  0.3794006E-03  0.8967881E+03  0.7818609E-02  0.9429605E-01
        1   -1    0    0  501    0  0.00000000000E+00  0.00000000000E+00  0.17812381095E+03  0.17812381102E+03  0.50400001928E-02 0. -1.
       -1   -1    0    0    0  501  0.00000000000E+00  0.00000000000E+00 -0.11287498092E+04  0.11287498092E+04  0.50400001928E-02 0.  1.
    10030    2    1    2    0    0  0.00000000000E+00  0.00000000000E+00 -0.95062599828E+03  0.13068736203E+04  0.89678808575E+03 0.  0.
        5    1    3    3  502    0  0.34637399372E+03  0.19237083718E+03 -0.78118145212E+03  0.87592695681E+03  0.46999998093E+01 0.  1.
       -5    1    3    3    0  502 -0.34637399372E+03 -0.19237083718E+03 -0.16944454616E+03  0.43094666345E+03  0.46999998093E+01 0. -1.
</event>
<event>
 5   0  0.6609191E-03  0.9011663E+03  0.7818609E-02  0.9424125E-01
        2   -1    0    0  501    0  0.00000000000E+00  0.00000000000E+00  0.54796480989E+03  0.54796480990E+03  0.25500000920E-02 0.  1.
       -2   -1    0    0    0  501  0.00000000000E+00  0.00000000000E+00 -0.37050771475E+03  0.37050771476E+03  0.25500000920E-02 0. -1.
    10030    2    1    2    0    0  0.00000000000E+00  0.00000000000E+00  0.17745709514E+03  0.91847252466E+03  0.90116633200E+03 0.  0.
        2    1    3    3  502    0  0.29156344844E+03 -0.27456512794E+03  0.29916382619E+03  0.49989423767E+03  0.25500000920E-02 0.  1.
       -2    1    3    3    0  502 -0.29156344844E+03  0.27456512794E+03 -0.12170673105E+03  0.41857828699E+03  0.25500000920E-02 0. -1.
</event>
<event>
 5   0  0.3943549E-03  0.8946144E+03  0.7818609E-02  0.9432339E-01
        1   -1    0    0  501    0  0.00000000000E+00  0.00000000000E+00  0.64513552366E+03  0.64513552368E+03  0.50400001928E-02 0. -1.
       -1   -1    0    0    0  501  0.00000000000E+00  0.00000000000E+00 -0.31014217137E+03  0.31014217141E+03  0.50400001928E-02 0.  1.
    10030    2    1    2    0    0  0.00000000000E+00  0.00000000000E+00  0.33499335229E+03  0.95527769509E+03  0.89461440222E+03 0.  0.
        3    1    3    3  502    0 -0.42957095014E+03  0.12341328131E+03  0.14834496246E+03  0.47092279335E+03  0.10100000352E+00 0. -1.
       -3    1    3    3    0  502  0.42957095014E+03 -0.12341328131E+03  0.18664838983E+03  0.48435490174E+03  0.10100000352E+00 0.  1.
</event>
<event>
 5   0  0.3969536E-03  0.9098098E+03  0.7818609E-02  0.9413401E-01
       -1   -1    0    0    0  501  0.00000000000E+00  0.00000000000E+00  0.25120982967E+03  0.25120982972E+03  0.50400001928E-02 0. -1.
        1   -1    0    0  501    0  0.00000000000E+00  0.00000000000E+00 -0.82376739737E+03  0.82376739738E+03  0.50400001928E-02 0.  1.
    10030    2    1    2    0    0  0.00000000000E+00  0.00000000000E+00 -0.57255756769E+03  0.10749772271E+04  0.90980979906E+03 0.  0.
        1    1    3    3  502    0 -0.12815410341E+03  0.38521457638E+03 -0.52878182296E+03  0.66665130345E+03  0.50400001928E-02 0.  1.
       -1    1    3    3    0  502  0.12815410341E+03 -0.38521457638E+03 -0.43775744736E+02  0.40832592365E+03  0.50400001928E-02 0. -1.
</event>
<event>
 5   0  0.3998066E-03  0.9030415E+03  0.7818609E-02  0.9421787E-01
       -1   -1    0    0    0  501  0.00000000000E+00  0.00000000000E+00  0.78565576925E+03  0.78565576927E+03  0.50400001928E-02 0.  1.
        1   -1    0    0  501    0  0.00000000000E+00  0.00000000000E+00 -0.25949147335E+03  0.25949147340E+03  0.50400001928E-02 0. -1.
    10030    2    1    2    0    0  0.00000000000E+00  0.00000000000E+00  0.52616429590E+03  0.10451472427E+04  0.90304146781E+03 0.  0.
        4    1    3    3  502    0  0.22967468942E+02 -0.22487623842E+03 -0.18928642426E+03  0.29483519218E+03  0.12699999809E+01 0. -1.
       -4    1    3    3    0  502 -0.22967468942E+02  0.22487623842E+03  0.71545072016E+03  0.75031205049E+03  0.12699999809E+01 0.  1.
</event>
<event>
 5   0  0.6534628E-03  0.8838792E+03  0.7818609E-02  0.9445961E-01
        2   -1    0    0  501    0  0.00000000000E+00  0.00000000000E+00  0.12778814602E+04  0.12778814602E+04  0.25500000920E-02 0. -1.
       -2   -1    0    0    0  501  0.00000000000E+00  0.00000000000E+00 -0.15283936454E+03  0.15283936456E+03  0.25500000920E-02 0.  1.
    10030    2    1    2    0    0  0.00000000000E+00  0.00000000000E+00  0.11250420957E+04  0.14307208248E+04  0.88387915544E+03 0.  0.
        4    1    3    3  502    0  0.39408791000E+03 -0.15036789440E+03  0.34904376604E+03  0.54749333146E+03  0.12699999809E+01 0.  1.
       -4    1    3    3    0  502 -0.39408791000E+03  0.15036789440E+03  0.77599832964E+03  0.88322749333E+03  0.12699999809E+01 0. -1.
</event>
<event>
 5   0  0.3943549E-03  0.9451601E+03  0.7818609E-02  0.9370826E-01
       -1   -1    0    0    0  501  0.00000000000E+00  0.00000000000E+00  0.18215316137E+03  0.18215316144E+03  0.50400001928E-02 0.  1.
        1   -1    0    0  501    0  0.00000000000E+00  0.00000000000E+00 -0.12260666961E+04  0.12260666961E+04  0.50400001928E-02 0. -1.
    10030    2    1    2    0    0  0.00000000000E+00  0.00000000000E+00 -0.10439135347E+04  0.14082198575E+04  0.94516014473E+03 0.  0.
        3    1    3    3  502    0  0.41064579198E+03 -0.15666596265E+03 -0.78069722804E+03  0.89591426062E+03  0.10100000352E+00 0. -1.
       -3    1    3    3    0  502 -0.41064579198E+03  0.15666596265E+03 -0.26321630668E+03  0.51230559691E+03  0.10100000352E+00 0.  1.
</event>
<event>
 5   0  0.3794006E-03  0.8907450E+03  0.7818609E-02  0.9437225E-01
       -1   -1    0    0    0  501  0.00000000000E+00  0.00000000000E+00  0.21658905503E+03  0.21658905509E+03  0.50400001928E-02 0.  1.
        1   -1    0    0  501    0  0.00000000000E+00  0.00000000000E+00 -0.91582029037E+03  0.91582029038E+03  0.50400001928E-02 0. -1.
    10030    2    1    2    0    0  0.00000000000E+00  0.00000000000E+00 -0.69923123534E+03  0.11324093455E+04  0.89074497205E+03 0.  0.
        5    1    3    3  502    0 -0.38663410113E+03 -0.21454348056E+03 -0.41712337510E+03  0.60788883298E+03  0.46999998093E+01 0. -1.
       -5    1    3    3    0  502  0.38663410113E+03  0.21454348056E+03 -0.28210786023E+03  0.52452051248E+03  0.46999998093E+01 0.  1.
</event>
<event>
 5   0  0.3998066E-03  0.8986127E+03  0.7818609E-02  0.9427317E-01
       -1   -1    0    0    0  501  0.00000000000E+00  0.00000000000E+00  0.94959206669E+02  0.94959206802E+02  0.50400001928E-02 0.  1.
        1   -1    0    0  501    0  0.00000000000E+00  0.00000000000E+00 -0.21259254430E+04  0.21259254430E+04  0.50400001928E-02 0. -1.
    10030    2    1    2    0    0  0.00000000000E+00  0.00000000000E+00 -0.20309662363E+04  0.22208846498E+04  0.89861269445E+03 0.  0.
        4    1    3    3  502    0 -0.43540928767E+03  0.77733349572E+02 -0.12108825587E+04  0.12891322296E+04  0.12699999809E+01 0.  1.
       -4    1    3    3    0  502  0.43540928767E+03 -0.77733349572E+02 -0.82008367763E+03  0.93175242025E+03  0.12699999809E+01 0. -1.
</event>
<event>
 5   0  0.6609191E-03  0.9005840E+03  0.7818609E-02  0.9424852E-01
        2   -1    0    0  501    0  0.00000000000E+00  0.00000000000E+00  0.67152946773E+03  0.67152946774E+03  0.25500000920E-02 0. -1.
       -2   -1    0    0    0  501  0.00000000000E+00  0.00000000000E+00 -0.30194193228E+03  0.30194193230E+03  0.25500000920E-02 0.  1.
    10030    2    1    2    0    0  0.00000000000E+00  0.00000000000E+00  0.36958753545E+03  0.97347140003E+03  0.90058404401E+03 0.  0.
        2    1    3    3  502    0 -0.64228353208E+01 -0.34166662627E+03  0.50175907694E+03  0.60707454865E+03  0.25500000920E-02 0. -1.
       -2    1    3    3    0  502  0.64228353208E+01  0.34166662627E+03 -0.13217154149E+03  0.36639685139E+03  0.25500000920E-02 0.  1.
</event>
<event>
 5   0  0.2560250E-03  0.9071059E+03  0.7818609E-02  0.9416742E-01
       -3   -1    0    0    0  501  0.00000000000E+00  0.00000000000E+00  0.14055214310E+04  0.14055214347E+04  0.10100000352E+00 0. -1.
        3   -1    0    0  501    0  0.00000000000E+00  0.00000000000E+00 -0.14635866956E+03  0.14635870441E+03  0.10100000352E+00 0.  1.
    10030    2    1    2    0    0  0.00000000000E+00  0.00000000000E+00  0.12591627615E+04  0.15518801391E+04  0.90710589577E+03 0.  0.
        5    1    3    3  502    0  0.12287841960E+03 -0.40019674234E-01 -0.11729580057E+03  0.16993970235E+03  0.46999998093E+01 0.  1.
       -5    1    3    3    0  502 -0.12287841960E+03  0.40019674234E-01  0.13764585620E+04  0.13819404367E+04  0.46999998093E+01 0. -1.
</event>
<event>
 5   0  0.6534628E-03  0.8982803E+03  0.7818609E-02  0.9427734E-01
       -2   -1    0    0    0  501  0.00000000000E+00  0.00000000000E+00  0.24852571435E+03  0.24852571436E+03  0.25500000920E-02 0.  1.
        2   -1    0    0  501    0  0.00000000000E+00  0.00000000000E+00 -0.81169418960E+03  0.81169418960E+03  0.25500000920E-02 0. -1.
    10030    2    1    2    0    0  0.00000000000E+00  0.00000000000E+00 -0.56316847525E+03  0.10602199040E+04  0.89828030884E+03 0.  0.
        4    1    3    3  502    0  0.16315332346E+03  0.20279395961E+03 -0.71360584430E+03  0.75959154216E+03  0.12699999809E+01 0. -1.
       -4    1    3    3    0  502 -0.16315332346E+03 -0.20279395961E+03  0.15043736905E+03  0.30062836180E+03  0.12699999809E+01 0.  1.
</event>
<event>
 5   0  0.6534628E-03  0.8839423E+03  0.7818609E-02  0.9445880E-01
       -2   -1    0    0    0  501  0.00000000000E+00  0.00000000000E+00  0.19939954653E+03  0.19939954655E+03  0.25500000920E-02 0. -1.
        2   -1    0    0  501    0  0.00000000000E+00  0.00000000000E+00 -0.97963361809E+03  0.97963361810E+03  0.25500000920E-02 0.  1.
    10030    2    1    2    0    0  0.00000000000E+00  0.00000000000E+00 -0.78023407156E+03  0.11790331646E+04  0.88394230406E+03 0.  0.
        4    1    3    3  502    0 -0.31116022205E+03  0.27245445241E+03 -0.59797617985E+03  0.72706893551E+03  0.12699999809E+01 0. -1.
       -4    1    3    3    0  502  0.31116022205E+03 -0.27245445241E+03 -0.18225789171E+03  0.45196422913E+03  0.12699999809E+01 0.  1.
</event>
<event>
 5   0  0.3998066E-03  0.9010937E+03  0.7818609E-02  0.9424215E-01
       -1   -1    0    0    0  501  0.00000000000E+00  0.00000000000E+00  0.12893243298E+04  0.12893243298E+04  0.50400001928E-02 0. -1.
        1   -1    0    0  501    0  0.00000000000E+00  0.00000000000E+00 -0.15744095798E+03  0.15744095806E+03  0.50400001928E-02 0.  1.
    10030    2    1    2    0    0  0.00000000000E+00  0.00000000000E+00  0.11318833718E+04  0.14467652878E+04  0.90109368589E+03 0.  0.
        4    1    3    3  502    0 -0.17979599734E+03 -0.28330961065E+03  0.83202971553E+02  0.34570982561E+03  0.12699999809E+01 0.  1.
       -4    1    3    3    0  502  0.17979599734E+03  0.28330961065E+03  0.10486804003E+04  0.11010554622E+04  0.12699999809E+01 0. -1.
</event>
<event>
 5   0  0.6609191E-03  0.9031229E+03  0.7818609E-02  0.9421686E-01
        2   -1    0    0  501    0  0.00000000000E+00  0.00000000000E+00  0.18725686017E+04  0.18725686017E+04  0.25500000920E-02 0.  1.
       -2   -1    0    0    0  501  0.00000000000E+00  0.00000000000E+00 -0.10889200048E+03  0.10889200051E+03  0.25500000920E-02 0. -1.
    10030    2    1    2    0    0  0.00000000000E+00  0.00000000000E+00  0.17636766012E+04  0.19814606022E+04  0.90312289551E+03 0.  0.
        2    1    3    3  502    0  0.12577632897E+02 -0.16312535909E+03 -0.41575783753E+02  0.16880943525E+03  0.25500000920E-02 0. -1.
       -2    1    3    3    0  502 -0.12577632897E+02  0.16312535909E+03  0.18052523849E+04  0.18126511669E+04  0.25500000920E-02 0.  1.
</event>
<event>
 5   0  0.6534628E-03  0.8951056E+03  0.7818609E-02  0.9431720E-01
       -2   -1    0    0    0  501  0.00000000000E+00  0.00000000000E+00  0.18246299396E+03  0.18246299398E+03  0.25500000920E-02 0. -1.
        2   -1    0    0  501    0  0.00000000000E+00  0.00000000000E+00 -0.10977761786E+04  0.10977761786E+04  0.25500000920E-02 0.  1.
    10030    2    1    2    0    0  0.00000000000E+00  0.00000000000E+00 -0.91531318464E+03  0.12802391726E+04  0.89510564351E+03 0.  0.
        4    1    3    3  502    0 -0.80796914402E+02  0.40620046697E+03 -0.70027521890E+03  0.81358094609E+03  0.12699999809E+01 0.  1.
       -4    1    3    3    0  502  0.80796914402E+02 -0.40620046697E+03 -0.21503796574E+03  0.46665822649E+03  0.12699999809E+01 0. -1.
</event>
<event>
 5   0  0.6724773E-03  0.8949686E+03  0.7818609E-02  0.9431893E-01
        2   -1    0    0  501    0  0.00000000000E+00  0.00000000000E+00  0.45334477443E+03  0.45334477444E+03  0.25500000920E-02 0.  1.
       -2   -1    0    0    0  501  0.00000000000E+00  0.00000000000E+00 -0.44169954096E+03  0.44169954097E+03  0.25500000920E-02 0. -1.
    10030    2    1    2    0    0  0.00000000000E+00  0.00000000000E+00  0.11645233465E+02  0.89504431541E+03  0.89496855536E+03 0.  0.
        5    1    3    3  502    0 -0.34533600046E+02  0.18296704484E+03 -0.40109089864E+03  0.44222789148E+03  0.46999998093E+01 0. -1.
       -5    1    3    3    0  502  0.34533600046E+02 -0.18296704484E+03  0.41273613211E+03  0.45281642393E+03  0.46999998093E+01 0.  1.
</event>
<event>
 5   0  0.2560250E-03  0.8987778E+03  0.7818609E-02  0.9427111E-01
       -4   -1    0    0    0  501  0.00000000000E+00  0.00000000000E+00  0.30525545861E+03  0.30525810048E+03  0.12699999809E+01 0.  1.
        4   -1    0    0  501    0  0.00000000000E+00  0.00000000000E+00 -0.66157218931E+03  0.66157340829E+03  0.12699999809E+01 0. -1.
    10030    2    1    2    0    0  0.00000000000E+00  0.00000000000E+00 -0.35631673070E+03  0.96683150878E+03  0.89877781114E+03 0.  0.
        3    1    3    3  502    0 -0.35728611929E+03 -0.23468605138E+03 -0.32728976535E+03  0.53837674026E+03  0.10100000352E+00 0.  1.
       -3    1    3    3    0  502  0.35728611929E+03  0.23468605138E+03 -0.29026965343E+02  0.42845476852E+03  0.10100000352E+00 0. -1.
</event>
<event>
 5   0  0.6724773E-03  0.9063111E+03  0.7818609E-02  0.9417726E-01
        2   -1    0    0  501    0  0.00000000000E+00  0.00000000000E+00  0.12396347947E+04  0.12396347947E+04  0.25500000920E-02 0.  1.
       -2   -1    0    0    0  501  0.00000000000E+00  0.00000000000E+00 -0.16565360045E+03  0.16565360047E+03  0.25500000920E-02 0. -1.
    10030    2    1    2    0    0  0.00000000000E+00  0.00000000000E+00  0.10739811943E+04  0.14052883952E+04  0.90631113201E+03 0.  0.
        5    1    3    3  502    0  0.36646630685E+01 -0.30851326911E+02 -0.16396240600E+03  0.16694608323E+03  0.46999998093E+01 0. -1.
       -5    1    3    3    0  502 -0.36646630685E+01  0.30851326911E+02  0.12379436003E+04  0.12383423120E+04  0.46999998093E+01 0.  1.
</event>
<event>
 5   0  0.3794006E-03  0.9047006E+03  0.7818609E-02  0.9419724E-01
        1   -1    0    0  501    0  0.00000000000E+00  0.00000000000E+00  0.12512782243E+04  0.12512782243E+04  0.50400001928E-02 0. -1.
       -1   -1    0    0    0  501  0.00000000000E+00  0.00000000000E+00 -0.16352940919E+03  0.16352940927E+03  0.50400001928E-02 0.  1.
    10030    2    1    2    0    0  0.00000000000E+00  0.00000000000E+00  0.10877488151E+04  0.14148076336E+04  0.90470058873E+03 0.  0.
        5    1    3    3  502    0 -0.36577586119E+02  0.40725562209E+03  0.24142729696E+03  0.47487292115E+03  0.46999998093E+01 0.  1.
       -5    1    3    3    0  502  0.36577586119E+02 -0.40725562209E+03  0.84632151816E+03  0.93993471243E+03  0.46999998093E+01 0. -1.
</event>
<event>
 5   0  0.3927993E-03  0.9201102E+03  0.7818609E-02  0.9400786E-01
       -1   -1    0    0    0  501  0.00000000000E+00  0.00000000000E+00  0.11952129886E+03  0.11952129896E+03  0.50400001928E-02 0. -1.
        1   -1    0    0  501    0  0.00000000000E+00  0.00000000000E+00 -0.17708199389E+04  0.17708199389E+04  0.50400001928E-02 0.  1.
    10030    2    1    2    0    0  0.00000000000E+00  0.00000000000E+00 -0.16512986401E+04  0.18903412379E+04  0.92011020916E+03 0.  0.
        2    1    3    3  502    0  0.41040293610E+03 -0.11683164509E+03 -0.47236068756E+03  0.63655700641E+03  0.25500000920E-02 0. -1.
       -2    1    3    3    0  502 -0.41040293610E+03  0.11683164509E+03 -0.11789379525E+04  0.12537842315E+04  0.25500000920E-02 0.  1.
</event>
<event>
 5   0  0.6863405E-03  0.8987041E+03  0.7818609E-02  0.9427203E-01
       -2   -1    0    0    0  501  0.00000000000E+00  0.00000000000E+00  0.13758812999E+03  0.13758813001E+03  0.25500000920E-02 0.  1.
        2   -1    0    0  501    0  0.00000000000E+00  0.00000000000E+00 -0.14675486030E+04  0.14675486030E+04  0.25500000920E-02 0. -1.
    10030    2    1    2    0    0  0.00000000000E+00  0.00000000000E+00 -0.13299604730E+04  0.16051367330E+04  0.89870410698E+03 0.  0.
        1    1    3    3  502    0 -0.36040452306E+03 -0.93272435554E+02 -0.11144357166E+04  0.11749715460E+04  0.50400001928E-02 0. -1.
       -1    1    3    3    0  502  0.36040452306E+03  0.93272435554E+02 -0.21552475647E+03  0.43016518706E+03  0.50400001928E-02 0.  1.
</event>
<event>
 5   0  0.3998066E-03  0.8973200E+03  0.7818609E-02  0.9428938E-01
        1   -1    0    0  501    0  0.00000000000E+00  0.00000000000E+00  0.98941292075E+03  0.98941292076E+03  0.50400001928E-02 0. -1.
       -1   -1    0    0    0  501  0.00000000000E+00  0.00000000000E+00 -0.20344972374E+03  0.20344972380E+03  0.50400001928E-02 0.  1.
    10030    2    1    2    0    0  0.00000000000E+00  0.00000000000E+00  0.78596319701E+03  0.11928626446E+04  0.89731997735E+03 0.  0.
        4    1    3    3  502    0  0.19288268025E+03  0.14568800347E+03 -0.10948443425E+03  0.26536235026E+03  0.12699999809E+01 0.  1.
       -4    1    3    3    0  502 -0.19288268025E+03 -0.14568800347E+03  0.89544763126E+03  0.92750029430E+03  0.12699999809E+01 0. -1.
</event>
<event>
 5   0  0.6524705E-03  0.8934837E+03  0.7818609E-02  0.9433764E-01
       -2   -1    0    0    0  501  0.00000000000E+00  0.00000000000E+00  0.14830398715E+03  0.14830398718E+03  0.25500000920E-02 0. -1.
        2   -1    0    0  501    0  0.00000000000E+00  0.00000000000E+00 -0.13457378873E+04  0.13457378873E+04  0.25500000920E-02 0.  1.
    10030    2    1    2    0    0  0.00000000000E+00  0.00000000000E+00 -0.11974339001E+04  0.14940418744E+04  0.89348373094E+03 0.  0.
        3    1    3    3  502    0 -0.23110448154E+03 -0.21200359806E+03 -0.11307232153E+04  0.11734094795E+04  0.10100000352E+00 0.  1.
       -3    1    3    3    0  502  0.23110448154E+03  0.21200359806E+03 -0.66710684853E+02  0.32063239489E+03  0.10100000352E+00 0. -1.
</event>
<event>
 5   0  0.3794006E-03  0.8914487E+03  0.7818609E-02  0.9436335E-01
        1   -1    0    0  501    0  0.00000000000E+00  0.00000000000E+00  0.30400570247E+03  0.30400570251E+03  0.50400001928E-02 0. -1.
       -1   -1    0    0    0  501  0.00000000000E+00  0.00000000000E+00 -0.65350813524E+03  0.65350813526E+03  0.50400001928E-02 0.  1.
    10030    2    1    2    0    0  0.00000000000E+00  0.00000000000E+00 -0.34950243277E+03  0.95751383777E+03  0.89144870801E+03 0.  0.
        5    1    3    3  502    0  0.19965284760E+03  0.27562123204E+03  0.13436070371E+03  0.36592787788E+03  0.46999998093E+01 0. -1.
       -5    1    3    3    0  502 -0.19965284760E+03 -0.27562123204E+03 -0.48386313647E+03  0.59158595990E+03  0.46999998093E+01 0.  1.
</event>
<event>
 5   0  0.3943549E-03  0.8972142E+03  0.7818609E-02  0.9429070E-01
        1   -1    0    0  501    0  0.00000000000E+00  0.00000000000E+00  0.78421267007E+03  0.78421267008E+03  0.50400001928E-02 0.  1.
       -1   -1    0    0    0  501  0.00000000000E+00  0.00000000000E+00 -0.25662470234E+03  0.25662470239E+03  0.50400001928E-02 0. -1.
    10030    2    1    2    0    0  0.00000000000E+00  0.00000000000E+00  0.52758796772E+03  0.10408373725E+04  0.89721422874E+03 0.  0.
        3    1    3    3  502    0 -0.17015007292E+03 -0.60635849270E+02  0.74016136280E+03  0.76188359131E+03  0.10100000352E+00 0.  1.
       -3    1    3    3    0  502  0.17015007292E+03  0.60635849270E+02 -0.21257339507E+03  0.27895378116E+03  0.10100000352E+00 0. -1.
</event>
<event>
 5   0  0.2560250E-03  0.8956891E+03  0.7818609E-02  0.9430986E-01
       -3   -1    0    0    0  501  0.00000000000E+00  0.00000000000E+00  0.17681685620E+03  0.17681688504E+03  0.10100000352E+00 0. -1.
        3   -1    0    0  501    0  0.00000000000E+00  0.00000000000E+00 -0.11343077804E+04  0.11343077849E+04  0.10100000352E+00 0.  1.
    10030    2    1    2    0    0  0.00000000000E+00  0.00000000000E+00 -0.95749092424E+03  0.13111246700E+04  0.89568913704E+03 0.  0.
        4    1    3    3  502    0 -0.63720010572E+02 -0.12518260951E+03  0.14373337074E+03  0.20097716346E+03  0.12699999809E+01 0. -1.
       -4    1    3    3    0  502  0.63720010572E+02  0.12518260951E+03 -0.11012242950E+04  0.11101475065E+04  0.12699999809E+01 0.  1.
</event>
<event>
 5   0  0.6609191E-03  0.9056570E+03  0.7818609E-02  0.9418537E-01
        2   -1    0    0  501    0  0.00000000000E+00  0.00000000000E+00  0.52496524085E+03  0.52496524086E+03  0.25500000920E-02 0.  1.
       -2   -1    0    0    0  501  0.00000000000E+00  0.00000000000E+00 -0.39060420347E+03  0.39060420348E+03  0.25500000920E-02 0. -1.
    10030    2    1    2    0    0  0.00000000000E+00  0.00000000000E+00  0.13436103738E+03  0.91556944434E+03  0.90565695439E+03 0.  0.
        2    1    3    3  502    0 -0.23515207189E+03 -0.72689317139E+02 -0.31707623090E+03  0.40139453154E+03  0.25500000920E-02 0. -1.
       -2    1    3    3    0  502  0.23515207189E+03  0.72689317139E+02  0.45143726829E+03  0.51417491279E+03  0.25500000920E-02 0.  1.
</event>
<event>
 5   0  0.6724773E-03  0.8926094E+03  0.7818609E-02  0.9434867E-01
       -2   -1    0    0    0  501  0.00000000000E+00  0.00000000000E+00  0.52029888962E+03  0.52029888963E+03  0.25500000920E-02 0. -1.
        2   -1    0    0  501    0  0.00000000000E+00  0.00000000000E+00 -0.38283359973E+03  0.38283359974E+03  0.25500000920E-02 0.  1.
    10030    2    1    2    0    0  0.00000000000E+00  0.00000000000E+00  0.13746528989E+03  0.90313248937E+03  0.89260942603E+03 0.  0.
        5    1    3    3  502    0 -0.13699283315E+03 -0.42473349866E+03  0.68252031728E+02  0.45149309082E+03  0.46999998093E+01 0. -1.
       -5    1    3    3    0  502  0.13699283315E+03  0.42473349866E+03  0.69213258161E+02  0.45163939855E+03  0.46999998093E+01 0.  1.
</event>
<event>
 5   0  0.3998066E-03  0.9079512E+03  0.7818609E-02  0.9415696E-01
       -1   -1    0    0    0  501  0.00000000000E+00  0.00000000000E+00  0.54067252327E+03  0.54067252329E+03  0.50400001928E-02 0. -1.
        1   -1    0    0  501    0  0.00000000000E+00  0.00000000000E+00 -0.38118057829E+03  0.38118057833E+03  0.50400001928E-02 0.  1.
    10030    2    1    2    0    0  0.00000000000E+00  0.00000000000E+00  0.15949194497E+03  0.92185310162E+03  0.90795124344E+03 0.  0.
        4    1    3    3  502    0  0.33153931936E+03 -0.11885343537E+03  0.37057158054E+03  0.51124296434E+03  0.12699999809E+01 0. -1.
       -4    1    3    3    0  502 -0.33153931936E+03  0.11885343537E+03 -0.21107963557E+03  0.41061013728E+03  0.12699999809E+01 0.  1.
</event>
<event>
 5   0  0.6534628E-03  0.8983150E+03  0.7818609E-02  0.9427690E-01
        2   -1    0    0  501    0  0.00000000000E+00  0.00000000000E+00  0.16527145714E+03  0.16527145716E+03  0.25500000920E-02 0. -1.
       -2   -1    0    0    0  501  0.00000000000E+00  0.00000000000E+00 -0.12206733656E+04  0.12206733656E+04  0.25500000920E-02 0.  1.
    10030    2    1    2    0    0  0.00000000000E+00  0.00000000000E+00 -0.10554019084E+04  0.13859448227E+04  0.89831501342E+03 0.  0.
        4    1    3    3  502    0 -0.63133593177E+02  0.41067210132E+03 -0.26449885298E+03  0.49254307580E+03  0.12699999809E+01 0. -1.
       -4    1    3    3    0  502  0.63133593177E+02 -0.41067210132E+03 -0.79090305545E+03  0.89340174693E+03  0.12699999809E+01 0.  1.
</event>
<event>
 5   0  0.3794006E-03  0.8964825E+03  0.7818609E-02  0.9429989E-01
        1   -1    0    0  501    0  0.00000000000E+00  0.00000000000E+00  0.80035510458E+03  0.80035510459E+03  0.50400001928E-02 0.  1.
       -1   -1    0    0    0  501  0.00000000000E+00  0.00000000000E+00 -0.25103884578E+03  0.25103884583E+03  0.50400001928E-02 0. -1.
    10030    2    1    2    0    0  0.00000000000E+00  0.00000000000E+00  0.54931625880E+03  0.10513939504E+04  0.89648250781E+03 0.  0.
        5    1    3    3  502    0 -0.22326167708E+03 -0.93897566420E+02 -0.16765294361E+03  0.29460503888E+03  0.46999998093E+01 0. -1.
       -5    1    3    3    0  502  0.22326167708E+03  0.93897566420E+02  0.71696920241E+03  0.75678891154E+03  0.46999998093E+01 0.  1.
</event>
<event>
 5   0  0.6609191E-03  0.8994361E+03  0.7818609E-02  0.9426287E-01
       -2   -1    0    0    0  501  0.00000000000E+00  0.00000000000E+00  0.36035466959E+03  0.36035466960E+03  0.25500000920E-02 0. -1.
        2   -1    0    0  501    0  0.00000000000E+00  0.00000000000E+00 -0.56124241397E+03  0.56124241398E+03  0.25500000920E-02 0.  1.
    10030    2    1    2    0    0  0.00000000000E+00  0.00000000000E+00 -0.20088774438E+03  0.92159708358E+03  0.89943610035E+03 0.  0.
        2    1    3    3  502    0  0.18486876099E+03 -0.22660162218E+03 -0.45050697557E+03  0.53710454197E+03  0.25500000920E-02 0.  1.
       -2    1    3    3    0  502 -0.18486876099E+03  0.22660162218E+03  0.24961923119E+03  0.38449254161E+03  0.25500000920E-02 0. -1.
</event>
<event>
 5   0  0.6524705E-03  0.9051157E+03  0.7818609E-02  0.9419209E-01
       -2   -1    0    0    0  501  0.00000000000E+00  0.00000000000E+00  0.53743973230E+03  0.53743973230E+03  0.25500000920E-02 0.  1.
        2   -1    0    0  501    0  0.00000000000E+00  0.00000000000E+00 -0.38108202351E+03  0.38108202352E+03  0.25500000920E-02 0. -1.
    10030    2    1    2    0    0  0.00000000000E+00  0.00000000000E+00  0.15635770879E+03  0.91852175582E+03  0.90511572897E+03 0.  0.
        3    1    3    3  502    0  0.11256537847E+03 -0.19223547468E+03  0.47794650008E+03  0.52731234510E+03  0.10100000352E+00 0.  1.
       -3    1    3    3    0  502 -0.11256537847E+03  0.19223547468E+03 -0.32158879129E+03  0.39120941072E+03  0.10100000352E+00 0. -1.
</event>
<event>
 5   0  0.3927993E-03  0.9065594E+03  0.7818609E-02  0.9417419E-01
        1   -1    0    0  501    0  0.00000000000E+00  0.00000000000E+00  0.10296282522E+04  0.10296282522E+04  0.50400001928E-02 0. -1.
       -1   -1    0    0    0  501  0.00000000000E+00  0.00000000000E+00 -0.19955015999E+03  0.19955016005E+03  0.50400001928E-02 0.  1.
    10030    2    1    2    0    0  0.00000000000E+00  0.00000000000E+00  0.83007809225E+03  0.12291784123E+04  0.90655939134E+03 0.  0.
        2    1    3    3  502    0  0.26284075440E+03 -0.17637334091E+03  0.85495557846E+03  0.91166981890E+03  0.25500000920E-02 0. -1.
       -2    1    3    3    0  502 -0.26284075440E+03  0.17637334091E+03 -0.24877486209E+02  0.31750859339E+03  0.25500000920E-02 0.  1.
</event>
<event>
 5   0  0.3794006E-03  0.9009545E+03  0.7818609E-02  0.9424389E-01
        1   -1    0    0  501    0  0.00000000000E+00  0.00000000000E+00  0.72585398974E+03  0.72585398975E+03  0.50400001928E-02 0. -1.
       -1   -1    0    0    0  501  0.00000000000E+00  0.00000000000E+00 -0.27957382219E+03  0.27957382224E+03  0.50400001928E-02 0.  1.
    10030    2    1    2    0    0  0.00000000000E+00  0.00000000000E+00  0.44628016754E+03  0.10054278120E+04  0.90095454779E+03 0.  0.
        5    1    3    3  502    0  0.14438246461E+03 -0.36811969076E+03 -0.17631097497E+02  0.39584258034E+03  0.46999998093E+01 0. -1.
       -5    1    3    3    0  502 -0.14438246461E+03  0.36811969076E+03  0.46391126504E+03  0.60958523165E+03  0.46999998093E+01 0.  1.
</event>
<event>
 5   0  0.6524705E-03  0.9018422E+03  0.7818609E-02  0.9423282E-01
       -2   -1    0    0    0  501  0.00000000000E+00  0.00000000000E+00  0.26417203926E+03  0.26417203928E+03  0.25500000920E-02 0. -1.
        2   -1    0    0  501    0  0.00000000000E+00  0.00000000000E+00 -0.76968719731E+03  0.76968719732E+03  0.25500000920E-02 0.  1.
    10030    2    1    2    0    0  0.00000000000E+00  0.00000000000E+00 -0.50551515805E+03  0.10338592366E+04  0.90184219577E+03 0.  0.
        3    1    3    3  502    0  0.10341026751E+03 -0.42518156029E+03 -0.37758623915E+03  0.57796576096E+03  0.10100000352E+00 0.  1.
       -3    1    3    3    0  502 -0.10341026751E+03  0.42518156029E+03 -0.12792891889E+03  0.45589347564E+03  0.10100000352E+00 0. -1.
</event>
<event>
 5   0  0.6524705E-03  0.9005819E+03  0.7818609E-02  0.9424854E-01
        2   -1    0    0  501    0  0.00000000000E+00  0.00000000000E+00  0.62555076770E+03  0.62555076771E+03  0.25500000920E-02 0. -1.
       -2   -1    0    0    0  501  0.00000000000E+00  0.00000000000E+00 -0.32413344286E+03  0.32413344287E+03  0.25500000920E-02 0.  1.
    10030    2    1    2    0    0  0.00000000000E+00  0.00000000000E+00  0.30141732485E+03  0.94968421058E+03  0.90058186530E+03 0.  0.
        3    1    3    3  502    0  0.33337896611E+02 -0.21420930207E+03  0.56689784041E+03  0.60693509711E+03  0.10100000352E+00 0. -1.
       -3    1    3    3    0  502 -0.33337896611E+02  0.21420930207E+03 -0.26548051556E+03  0.34274911347E+03  0.10100000352E+00 0.  1.
</event>
<event>
 5   0  0.6609191E-03  0.9024145E+03  0.7818609E-02  0.9422568E-01
        2   -1    0    0  501    0  0.00000000000E+00  0.00000000000E+00  0.18274635278E+04  0.18274635278E+04  0.25500000920E-02 0.  1.
       -2   -1    0    0    0  501  0.00000000000E+00  0.00000000000E+00 -0.11140466467E+03  0.11140466470E+03  0.25500000920E-02 0. -1.
    10030    2    1    2    0    0  0.00000000000E+00  0.00000000000E+00  0.17160588632E+04  0.19388681925E+04  0.90241445368E+03 0.  0.
        2    1    3    3  502    0 -0.93861372642E+02  0.33833401022E+03  0.24916315016E+03  0.43053703110E+03  0.25500000920E-02 0. -1.
       -2    1    3    3    0  502  0.93861372642E+02 -0.33833401022E+03  0.14668957130E+04  0.15083311614E+04  0.25500000920E-02 0.  1.
</event>
<event>
 5   0  0.3969536E-03  0.9045521E+03  0.7818609E-02  0.9419909E-01
       -1   -1    0    0    0  501  0.00000000000E+00  0.00000000000E+00  0.13474835429E+03  0.13474835438E+03  0.50400001928E-02 0.  1.
        1   -1    0    0  501    0  0.00000000000E+00  0.00000000000E+00 -0.15180417238E+04  0.15180417238E+04  0.50400001928E-02 0. -1.
    10030    2    1    2    0    0  0.00000000000E+00  0.00000000000E+00 -0.13832933695E+04  0.16527900782E+04  0.90455209715E+03 0.  0.
        1    1    3    3  502    0 -0.18991750910E+03 -0.20298469829E+03 -0.13435270618E+04  0.13719826580E+04  0.50400001928E-02 0. -1.
       -1    1    3    3    0  502  0.18991750910E+03  0.20298469829E+03 -0.39766307740E+02  0.28080742024E+03  0.50400001928E-02 0.  1.
</event>
<event>
 5   0  0.6534628E-03  0.8954732E+03  0.7818609E-02  0.9431258E-01
       -2   -1    0    0    0  501  0.00000000000E+00  0.00000000000E+00  0.44488162883E+03  0.44488162883E+03  0.25500000920E-02 0. -1.
        2   -1    0    0  501    0  0.00000000000E+00  0.00000000000E+00 -0.45060993116E+03  0.45060993117E+03  0.25500000920E-02 0.  1.
    10030    2    1    2    0    0  0.00000000000E+00  0.00000000000E+00 -0.57283023370E+01  0.89549156000E+03  0.89547323834E+03 0.  0.
        4    1    3    3  502    0  0.38450512719E+03  0.20091505882E+03 -0.11357058755E+03  0.44845394964E+03  0.12699999809E+01 0.  1.
       -4    1    3    3    0  502 -0.38450512719E+03 -0.20091505882E+03  0.10784228522E+03  0.44703761036E+03  0.12699999809E+01 0. -1.
</event>
<event>
 5   0  0.6524705E-03  0.8969462E+03  0.7818609E-02  0.9429407E-01
       -2   -1    0    0    0  501  0.00000000000E+00  0.00000000000E+00  0.41747185147E+03  0.41747185148E+03  0.25500000920E-02 0.  1.
        2   -1    0    0  501    0  0.00000000000E+00  0.00000000000E+00 -0.48177646698E+03  0.48177646698E+03  0.25500000920E-02 0. -1.
    10030    2    1    2    0    0  0.00000000000E+00  0.00000000000E+00 -0.64304615505E+02  0.89924831846E+03  0.89694618271E+03 0.  0.
        3    1    3    3  502    0  0.27801013019E+03 -0.26648104062E+03 -0.26258200643E+03  0.46610202510E+03  0.10100000352E+00 0. -1.
       -3    1    3    3    0  502 -0.27801013019E+03  0.26648104062E+03  0.19827739093E+03  0.43314629336E+03  0.10100000352E+00 0.  1.
</event>
<event>
 5   0  0.3927993E-03  0.8753091E+03  0.7818609E-02  0.9456984E-01
       -1   -1    0    0    0  501  0.00000000000E+00  0.00000000000E+00  0.19295155886E+03  0.19295155892E+03  0.50400001928E-02 0. -1.
        1   -1    0    0  501    0  0.00000000000E+00  0.00000000000E+00 -0.99269228909E+03  0.99269228910E+03  0.50400001928E-02 0.  1.
    10030    2    1    2    0    0  0.00000000000E+00  0.00000000000E+00 -0.79974073023E+03  0.11856438480E+04  0.87530914468E+03 0.  0.
        2    1    3    3  502    0 -0.18217165809E+03  0.32996180884E+03 -0.98563808994E+02  0.38958456431E+03  0.25500000920E-02 0. -1.
       -2    1    3    3    0  502  0.18217165809E+03 -0.32996180884E+03 -0.70117692123E+03  0.79605928371E+03  0.25500000920E-02 0.  1.
</event>
<event>
 5   0  0.3969536E-03  0.9087279E+03  0.7818609E-02  0.9414736E-01
       -1   -1    0    0    0  501  0.00000000000E+00  0.00000000000E+00  0.34542252444E+03  0.34542252448E+03  0.50400001928E-02 0. -1.
        1   -1    0    0  501    0  0.00000000000E+00  0.00000000000E+00 -0.59766395133E+03  0.59766395135E+03  0.50400001928E-02 0.  1.
    10030    2    1    2    0    0  0.00000000000E+00  0.00000000000E+00 -0.25224142688E+03  0.94308647583E+03  0.90872788196E+03 0.  0.
        1    1    3    3  502    0  0.10544983890E+03  0.14790977640E+02  0.33229064316E+03  0.34893482644E+03  0.50400001928E-02 0. -1.
       -1    1    3    3    0  502 -0.10544983890E+03 -0.14790977640E+02 -0.58453207004E+03  0.59415164939E+03  0.50400001928E-02 0.  1.
</event>
<event>
 5   0  0.6863405E-03  0.9021299E+03  0.7818609E-02  0.9422923E-01
        2   -1    0    0  501    0  0.00000000000E+00  0.00000000000E+00  0.15443547885E+04  0.15443547885E+04  0.25500000920E-02 0.  1.
       -2   -1    0    0    0  501  0.00000000000E+00  0.00000000000E+00 -0.13174406601E+03  0.13174406604E+03  0.25500000920E-02 0. -1.
    10030    2    1    2    0    0  0.00000000000E+00  0.00000000000E+00  0.14126107225E+04  0.16760988546E+04  0.90212987808E+03 0.  0.
        1    1    3    3  502    0 -0.41974544280E+03  0.59620410110E+02  0.42016675752E+03  0.59689273258E+03  0.50400001928E-02 0. -1.
       -1    1    3    3    0  502  0.41974544280E+03 -0.59620410110E+02  0.99244396500E+03  0.10792061220E+04  0.50400001928E-02 0.  1.
</event>
<event>
 5   0  0.3794006E-03  0.8551694E+03  0.7818609E-02  0.9483425E-01
        1   -1    0    0  501    0  0.00000000000E+00  0.00000000000E+00  0.66990324137E+03  0.66990324139E+03  0.50400001928E-02 0. -1.
       -1   -1    0    0    0  501  0.00000000000E+00  0.00000000000E+00 -0.27291800956E+03  0.27291800960E+03  0.50400001928E-02 0.  1.
    10030    2    1    2    0    0  0.00000000000E+00  0.00000000000E+00  0.39698523181E+03  0.94282125099E+03  0.85516936162E+03 0.  0.
        5    1    3    3  502    0  0.42716256622E+03  0.69424855143E+01  0.21728405960E+03  0.47932296903E+03  0.46999998093E+01 0. -1.
       -5    1    3    3    0  502 -0.42716256622E+03 -0.69424855143E+01  0.17970117221E+03  0.46349828196E+03  0.46999998093E+01 0.  1.
</event>
<event>
 5   0  0.3969536E-03  0.9187948E+03  0.7818609E-02  0.9402387E-01
       -1   -1    0    0    0  501  0.00000000000E+00  0.00000000000E+00  0.16225767997E+03  0.16225768005E+03  0.50400001928E-02 0. -1.
        1   -1    0    0  501    0  0.00000000000E+00  0.00000000000E+00 -0.13006841300E+04  0.13006841300E+04  0.50400001928E-02 0.  1.
    10030    2    1    2    0    0  0.00000000000E+00  0.00000000000E+00 -0.11384264500E+04  0.14629418101E+04  0.91879483972E+03 0.  0.
        1    1    3    3  502    0  0.36885900380E+03 -0.27001279746E+03 -0.64186742797E+03  0.78800867419E+03  0.50400001928E-02 0.  1.
       -1    1    3    3    0  502 -0.36885900380E+03  0.27001279746E+03 -0.49655902207E+03  0.67493313588E+03  0.50400001928E-02 0. -1.
</event>
<event>
 5   0  0.6524705E-03  0.9098380E+03  0.7818609E-02  0.9413366E-01
       -2   -1    0    0    0  501  0.00000000000E+00  0.00000000000E+00  0.64173982605E+03  0.64173982605E+03  0.25500000920E-02 0. -1.
        2   -1    0    0  501    0  0.00000000000E+00  0.00000000000E+00 -0.32248471477E+03  0.32248471478E+03  0.25500000920E-02 0.  1.
    10030    2    1    2    0    0  0.00000000000E+00  0.00000000000E+00  0.31925511128E+03  0.96422454083E+03  0.90983797407E+03 0.  0.
        3    1    3    3  502    0 -0.97566712091E+02  0.22955259780E+03 -0.24355787408E+03  0.34861742167E+03  0.10100000352E+00 0.  1.
       -3    1    3    3    0  502  0.97566712091E+02 -0.22955259780E+03  0.56281298536E+03  0.61560711916E+03  0.10100000352E+00 0. -1.
</event>
<event>
 5   0  0.3969536E-03  0.9036511E+03  0.7818609E-02  0.9421029E-01
        1   -1    0    0  501    0  0.00000000000E+00  0.00000000000E+00  0.29138717668E+03  0.29138717673E+03  0.50400001928E-02 0. -1.
       -1   -1    0    0    0  501  0.00000000000E+00  0.00000000000E+00 -0.70060154549E+03  0.70060154551E+03  0.50400001928E-02 0.  1.
    10030    2    1    2    0    0  0.00000000000E+00  0.00000000000E+00 -0.40921436881E+03  0.99198872224E+03  0.90365105290E+03 0.  0.
        1    1    3    3  502    0  0.65957548810E+00 -0.34740402681E+03  0.11252153516E+03  0.36517268351E+03  0.50400001928E-02 0. -1.
       -1    1    3    3    0  502 -0.65957548810E+00  0.34740402681E+03 -0.52173590397E+03  0.62681603872E+03  0.50400001928E-02 0.  1.
</event>
<event>
 5   0  0.3969536E-03  0.8936882E+03  0.7818609E-02  0.9433506E-01
        1   -1    0    0  501    0  0.00000000000E+00  0.00000000000E+00  0.12636546545E+04  0.12636546545E+04  0.50400001928E-02 0.  1.
       -1   -1    0    0    0  501  0.00000000000E+00  0.00000000000E+00 -0.15800967189E+03  0.15800967197E+03  0.50400001928E-02 0. -1.
    10030    2    1    2    0    0  0.00000000000E+00  0.00000000000E+00  0.11056449826E+04  0.14216643265E+04  0.89368821723E+03 0.  0.
        1    1    3    3  502    0  0.29374960473E+03 -0.19260539017E+03  0.99218979636E+03  0.10525332577E+04  0.50400001928E-02 0.  1.
       -1    1    3    3    0  502 -0.29374960473E+03  0.19260539017E+03  0.11345518624E+03  0.36913106874E+03  0.50400001928E-02 0. -1.
</event>
<event>
 5   0  0.3927993E-03  0.8992799E+03  0.7818609E-02  0.9426482E-01
        1   -1    0    0  501    0  0.00000000000E+00  0.00000000000E+00  0.85797707942E+03  0.85797707943E+03  0.50400001928E-02 0. -1.
       -1   -1    0    0    0  501  0.00000000000E+00  0.00000000000E+00 -0.23564275615E+03  0.23564275620E+03  0.50400001928E-02 0.  1.
    10030    2    1    2    0    0  0.00000000000E+00  0.00000000000E+00  0.62233432327E+03  0.10936198356E+04  0.89927989802E+03 0.  0.
        2    1    3    3  502    0 -0.12467141999E+03  0.14069202275E+03  0.80789685301E+03  0.82947847069E+03  0.25500000920E-02 0. -1.
       -2    1    3    3    0  502  0.12467141999E+03 -0.14069202275E+03 -0.18556252974E+03  0.26414136495E+03  0.25500000920E-02 0.  1.
</event>
<event>
 5   0  0.6863405E-03  0.8853759E+03  0.7818609E-02  0.9444049E-01
        2   -1    0    0  501    0  0.00000000000E+00  0.00000000000E+00  0.15514030647E+03  0.15514030649E+03  0.25500000920E-02 0.  1.
       -2   -1    0    0    0  501  0.00000000000E+00  0.00000000000E+00 -0.12631961261E+04  0.12631961261E+04  0.25500000920E-02 0. -1.
    10030    2    1    2    0    0  0.00000000000E+00  0.00000000000E+00 -0.11080558196E+04  0.14183364325E+04  0.88537592953E+03 0.  0.
        1    1    3    3  502    0 -0.29508796353E+03 -0.14945320569E+03 -0.10253402764E+04  0.10773745168E+04  0.50400001928E-02 0. -1.
       -1    1    3    3    0  502  0.29508796353E+03  0.14945320569E+03 -0.82715543172E+02  0.34096191579E+03  0.50400001928E-02 0.  1.
</event>
<event>
 5   0  0.2560250E-03  0.8999811E+03  0.7818609E-02  0.9425605E-01
        3   -1    0    0  501    0  0.00000000000E+00  0.00000000000E+00  0.12018785241E+03  0.12018789485E+03  0.10100000352E+00 0. -1.
       -3   -1    0    0    0  501  0.00000000000E+00  0.00000000000E+00 -0.16847914384E+04  0.16847914414E+04  0.10100000352E+00 0.  1.
    10030    2    1    2    0    0  0.00000000000E+00  0.00000000000E+00 -0.15646035860E+04  0.18049793362E+04  0.89998112374E+03 0.  0.
        4    1    3    3  502    0  0.19888841793E+03 -0.25589564497E+03 -0.14083839622E+04  0.14451941675E+04  0.12699999809E+01 0.  1.
       -4    1    3    3    0  502 -0.19888841793E+03  0.25589564497E+03 -0.15621962374E+03  0.35978516873E+03  0.12699999809E+01 0. -1.
</event>
<event>
 5   0  0.6524705E-03  0.9013543E+03  0.7818609E-02  0.9423890E-01
        2   -1    0    0  501    0  0.00000000000E+00  0.00000000000E+00  0.11502203137E+04  0.11502203137E+04  0.25500000920E-02 0.  1.
       -2   -1    0    0    0  501  0.00000000000E+00  0.00000000000E+00 -0.17658348037E+03  0.17658348039E+03  0.25500000920E-02 0. -1.
    10030    2    1    2    0    0  0.00000000000E+00  0.00000000000E+00  0.97363683329E+03  0.13268037941E+04  0.90135432810E+03 0.  0.
        3    1    3    3  502    0 -0.33485781044E+02 -0.36992804250E+03  0.86251839769E+03  0.93909853089E+03  0.10100000352E+00 0.  1.
       -3    1    3    3    0  502  0.33485781044E+02  0.36992804250E+03  0.11111843559E+03  0.38770526317E+03  0.10100000352E+00 0. -1.
</event>
<event>
 5   0  0.6609191E-03  0.9008735E+03  0.7818609E-02  0.9424490E-01
       -2   -1    0    0    0  501  0.00000000000E+00  0.00000000000E+00  0.57317049985E+03  0.57317049985E+03  0.25500000920E-02 0. -1.
        2   -1    0    0  501    0  0.00000000000E+00  0.00000000000E+00 -0.35398417574E+03  0.35398417575E+03  0.25500000920E-02 0.  1.
    10030    2    1    2    0    0  0.00000000000E+00  0.00000000000E+00  0.21918632411E+03  0.92715467561E+03  0.90087354708E+03 0.  0.
        2    1    3    3  502    0 -0.23786696314E+03 -0.78666737905E+02 -0.27565878020E+03  0.37250088713E+03  0.25500000920E-02 0.  1.
       -2    1    3    3    0  502  0.23786696314E+03  0.78666737905E+02  0.49484510431E+03  0.55465378847E+03  0.25500000920E-02 0. -1.
</event>
<event>
 5   0  0.6534628E-03  0.9166382E+03  0.7818609E-02  0.9405019E-01
        2   -1    0    0  501    0  0.00000000000E+00  0.00000000000E+00  0.62758918652E+03  0.62758918653E+03  0.25500000920E-02 0.  1.
       -2   -1    0    0    0  501  0.00000000000E+00  0.00000000000E+00 -0.33470369096E+03  0.33470369097E+03  0.25500000920E-02 0. -1.
    10030    2    1    2    0    0  0.00000000000E+00  0.00000000000E+00  0.29288549556E+03  0.96229287750E+03  0.91663824302E+03 0.  0.
        4    1    3    3  502    0  0.45580966312E+03 -0.17827240007E+02  0.99793699127E+02  0.46694823563E+03  0.12699999809E+01 0.  1.
       -4    1    3    3    0  502 -0.45580966312E+03  0.17827240007E+02  0.19309179643E+03  0.49534464186E+03  0.12699999809E+01 0. -1.
</event>
<event>
 5   0  0.6524705E-03  0.8956769E+03  0.7818609E-02  0.9431002E-01
       -2   -1    0    0    0  501  0.00000000000E+00  0.00000000000E+00  0.21761166877E+03  0.21761166878E+03  0.25500000920E-02 0. -1.
        2   -1    0    0  501    0  0.00000000000E+00  0.00000000000E+00 -0.92163847761E+03  0.92163847761E+03  0.25500000920E-02 0.  1.
    10030    2    1    2    0    0  0.00000000000E+00  0.00000000000E+00 -0.70402680884E+03  0.11392501464E+04  0.89567692194E+03 0.  0.
        3    1    3    3  502    0 -0.10626083194E+03  0.38117038659E+03 -0.61874886140E+03  0.73446061276E+03  0.10100000352E+00 0.  1.
       -3    1    3    3    0  502  0.10626083194E+03 -0.38117038659E+03 -0.85277947443E+02  0.40478953363E+03  0.10100000352E+00 0. -1.
</event>
<event>
 5   0  0.3969536E-03  0.9245518E+03  0.7818609E-02  0.9395400E-01
        1   -1    0    0  501    0  0.00000000000E+00  0.00000000000E+00  0.78510867084E+03  0.78510867086E+03  0.50400001928E-02 0. -1.
       -1   -1    0    0    0  501  0.00000000000E+00  0.00000000000E+00 -0.27219034287E+03  0.27219034291E+03  0.50400001928E-02 0.  1.
    10030    2    1    2    0    0  0.00000000000E+00  0.00000000000E+00  0.51291832798E+03  0.10572990138E+04  0.92455177970E+03 0.  0.
        1    1    3    3  502    0 -0.33114658388E+03 -0.21238760254E+03  0.53407473185E+03  0.66332674675E+03  0.50400001928E-02 0. -1.
       -1    1    3    3    0  502  0.33114658388E+03  0.21238760254E+03 -0.21156403878E+02  0.39397226702E+03  0.50400001928E-02 0.  1.
</event>
<event>
 5   0  0.2560250E-03  0.8993753E+03  0.7818609E-02  0.9426363E-01
       -3   -1    0    0    0  501  0.00000000000E+00  0.00000000000E+00  0.28924102730E+03  0.28924104493E+03  0.10100000352E+00 0.  1.
        3   -1    0    0  501    0  0.00000000000E+00  0.00000000000E+00 -0.69913651030E+03  0.69913651760E+03  0.10100000352E+00 0. -1.
    10030    2    1    2    0    0  0.00000000000E+00  0.00000000000E+00 -0.40989548301E+03  0.98837756253E+03  0.89937528269E+03 0.  0.
        2    1    3    3  502    0  0.39203541396E+03 -0.78210007444E+02  0.21369756532E+02  0.40033140966E+03  0.25500000920E-02 0.  1.
       -2    1    3    3    0  502 -0.39203541396E+03  0.78210007444E+02 -0.43126523954E+03  0.58804615287E+03  0.25500000920E-02 0. -1.
</event>
<event>
 5   0  0.2560250E-03  0.9023896E+03  0.7818609E-02  0.9422599E-01
        3   -1    0    0  501    0  0.00000000000E+00  0.00000000000E+00  0.50546196443E+03  0.50546197452E+03  0.10100000352E+00 0. -1.
       -3   -1    0    0    0  501  0.00000000000E+00  0.00000000000E+00 -0.40275386078E+03  0.40275387345E+03  0.10100000352E+00 0.  1.
    10030    2    1    2    0    0  0.00000000000E+00  0.00000000000E+00  0.10270810365E+03  0.90821584797E+03  0.90238964531E+03 0.  0.
        1    1    3    3  502    0  0.17934892519E+03  0.10572877323E+03  0.45422858275E+03  0.49966810571E+03  0.50400001928E-02 0. -1.
       -1    1    3    3    0  502 -0.17934892519E+03 -0.10572877323E+03 -0.35152047910E+03  0.40854774226E+03  0.50400001928E-02 0.  1.
</event>
<event>
 5   0  0.6534628E-03  0.9265776E+03  0.7818609E-02  0.9392955E-01
        2   -1    0    0  501    0  0.00000000000E+00  0.00000000000E+00  0.76445731680E+03  0.76445731680E+03  0.25500000920E-02 0.  1.
       -2   -1    0    0    0  501  0.00000000000E+00  0.00000000000E+00 -0.28076978688E+03  0.28076978689E+03  0.25500000920E-02 0. -1.
    10030    2    1    2    0    0  0.00000000000E+00  0.00000000000E+00  0.48368752992E+03  0.10452271037E+04  0.92657761234E+03 0.  0.
        4    1    3    3  502    0 -0.38487095599E+03 -0.25748592215E+03  0.22548693703E+03  0.51504429376E+03  0.12699999809E+01 0. -1.
       -4    1    3    3    0  502  0.38487095599E+03  0.25748592215E+03  0.25820059290E+03  0.53018280993E+03  0.12699999809E+01 0.  1.
</event>
<event>
 5   0  0.6609191E-03  0.8983490E+03  0.7818609E-02  0.9427648E-01
       -2   -1    0    0    0  501  0.00000000000E+00  0.00000000000E+00  0.58447022134E+03  0.58447022134E+03  0.25500000920E-02 0.  1.
        2   -1    0    0  501    0  0.00000000000E+00  0.00000000000E+00 -0.34519765675E+03  0.34519765676E+03  0.25500000920E-02 0. -1.
    10030    2    1    2    0    0  0.00000000000E+00  0.00000000000E+00  0.23927256459E+03  0.92966787810E+03  0.89834904319E+03 0.  0.
        2    1    3    3  502    0  0.80582430389E+02 -0.41507622705E+03 -0.37226328994E+02  0.42446154351E+03  0.25500000920E-02 0. -1.
       -2    1    3    3    0  502 -0.80582430389E+02  0.41507622705E+03  0.27649889358E+03  0.50520633458E+03  0.25500000920E-02 0.  1.
</event>
<event>
 5   0  0.3927993E-03  0.8978194E+03  0.7818609E-02  0.9428311E-01
        1   -1    0    0  501    0  0.00000000000E+00  0.00000000000E+00  0.47295468041E+03  0.47295468044E+03  0.50400001928E-02 0. -1.
       -1   -1    0    0    0  501  0.00000000000E+00  0.00000000000E+00 -0.42608714928E+03  0.42608714931E+03  0.50400001928E-02 0.  1.
    10030    2    1    2    0    0  0.00000000000E+00  0.00000000000E+00  0.46867531131E+02  0.89904182975E+03  0.89781938394E+03 0.  0.
        2    1    3    3  502    0 -0.64910642196E+02 -0.33896143465E+03 -0.26403142800E+03  0.43453520068E+03  0.25500000920E-02 0.  1.
       -2    1    3    3    0  502  0.64910642196E+02  0.33896143465E+03  0.31089895914E+03  0.46450662907E+03  0.25500000920E-02 0. -1.
</event>
<event>
 5   0  0.2560250E-03  0.8903503E+03  0.7818609E-02  0.9437725E-01
        4   -1    0    0  501    0  0.00000000000E+00  0.00000000000E+00  0.20080424847E+03  0.20080826453E+03  0.12699999809E+01 0. -1.
       -4   -1    0    0    0  501  0.00000000000E+00  0.00000000000E+00 -0.98692157921E+03  0.98692239635E+03  0.12699999809E+01 0.  1.
    10030    2    1    2    0    0  0.00000000000E+00  0.00000000000E+00 -0.78611733074E+03  0.11877306609E+04  0.89035030471E+03 0.  0.
        3    1    3    3  502    0  0.90866399469E+02  0.38436332977E+03 -0.66706263086E+03  0.77521895973E+03  0.10100000352E+00 0.  1.
       -3    1    3    3    0  502 -0.90866399469E+02 -0.38436332977E+03 -0.11905469988E+03  0.41251170115E+03  0.10100000352E+00 0. -1.
</event>
<event>
 5   0  0.6863405E-03  0.9117008E+03  0.7818609E-02  0.9411072E-01
       -2   -1    0    0    0  501  0.00000000000E+00  0.00000000000E+00  0.22538970659E+03  0.22538970661E+03  0.25500000920E-02 0. -1.
        2   -1    0    0  501    0  0.00000000000E+00  0.00000000000E+00 -0.92195693868E+03  0.92195693869E+03  0.25500000920E-02 0.  1.
    10030    2    1    2    0    0  0.00000000000E+00  0.00000000000E+00 -0.69656723209E+03  0.11473466453E+04  0.91170083670E+03 0.  0.
        1    1    3    3  502    0  0.27640384415E+03  0.51646513865E+02  0.10324731476E+03  0.29954374553E+03  0.50400001928E-02 0. -1.
       -1    1    3    3    0  502 -0.27640384415E+03 -0.51646513865E+02 -0.79981454685E+03  0.84780289976E+03  0.50400001928E-02 0.  1.
</event>
<event>
 5   0  0.3969536E-03  0.9020735E+03  0.7818609E-02  0.9422993E-01
       -1   -1    0    0    0  501  0.00000000000E+00  0.00000000000E+00  0.62183676387E+03  0.62183676389E+03  0.50400001928E-02 0.  1.
        1   -1    0    0  501    0  0.00000000000E+00  0.00000000000E+00 -0.32715038620E+03  0.32715038624E+03  0.50400001928E-02 0. -1.
    10030    2    1    2    0    0  0.00000000000E+00  0.00000000000E+00  0.29468637766E+03  0.94898715013E+03  0.90207347258E+03 0.  0.
        1    1    3    3  502    0 -0.21913807236E+03 -0.39414969887E+03  0.13928605673E+03  0.47199161593E+03  0.50400001928E-02 0.  1.
       -1    1    3    3    0  502  0.21913807236E+03  0.39414969887E+03  0.15540032093E+03  0.47699553420E+03  0.50400001928E-02 0. -1.
</event>
<event>
 5   0  0.3794006E-03  0.9135806E+03  0.7818609E-02  0.9408762E-01
       -1   -1    0    0    0  501  0.00000000000E+00  0.00000000000E+00  0.58343334170E+03  0.58343334172E+03  0.50400001928E-02 0. -1.
        1   -1    0    0  501    0  0.00000000000E+00  0.00000000000E+00 -0.35763703059E+03  0.35763703062E+03  0.50400001928E-02 0.  1.
    10030    2    1    2    0    0  0.00000000000E+00  0.00000000000E+00  0.22579631111E+03  0.94107037234E+03  0.91358057750E+03 0.  0.
        5    1    3    3  502    0  0.24949921046E+03  0.32402225222E+03 -0.96681535802E+02  0.42024955124E+03  0.46999998093E+01 0. -1.
       -5    1    3    3    0  502 -0.24949921046E+03 -0.32402225222E+03  0.32247784691E+03  0.52082082111E+03  0.46999998093E+01 0.  1.
</event>
<event>
 5   0  0.3969536E-03  0.9017168E+03  0.7818609E-02  0.9423438E-01
       -1   -1    0    0    0  501  0.00000000000E+00  0.00000000000E+00  0.61678423123E+03  0.61678423125E+03  0.50400001928E-02 0. -1.
        1   -1    0    0  501    0  0.00000000000E+00  0.00000000000E+00 -0.32956956276E+03  0.32956956280E+03  0.50400001928E-02 0.  1.
    10030    2    1    2    0    0  0.00000000000E+00  0.00000000000E+00  0.28721466847E+03  0.94635379405E+03  0.90171682790E+03 0.  0.
        1    1    3    3  502    0 -0.30909127817E+03 -0.15310361852E+03 -0.16110126211E+03  0.38069903195E+03  0.50400001928E-02 0.  1.
       -1    1    3    3    0  502  0.30909127817E+03  0.15310361852E+03  0.44831593058E+03  0.56565476210E+03  0.50400001928E-02 0. -1.
</event>
<event>
 5   0  0.3943549E-03  0.8943934E+03  0.7818609E-02  0.9432617E-01
       -1   -1    0    0    0  501  0.00000000000E+00  0.00000000000E+00  0.21238929349E+03  0.21238929355E+03  0.50400001928E-02 0. -1.
        1   -1    0    0  501    0  0.00000000000E+00  0.00000000000E+00 -0.94159583750E+03  0.94159583751E+03  0.50400001928E-02 0.  1.
    10030    2    1    2    0    0  0.00000000000E+00  0.00000000000E+00 -0.72920654400E+03  0.11539851311E+04  0.89439336922E+03 0.  0.
        3    1    3    3  502    0 -0.81995517615E+02  0.43849390945E+03 -0.32411571014E+03  0.55140835802E+03  0.10100000352E+00 0.  1.
       -3    1    3    3    0  502  0.81995517615E+02 -0.43849390945E+03 -0.40509083386E+03  0.60257677305E+03  0.10100000352E+00 0. -1.
</event>
<event>
 5   0  0.6524705E-03  0.9064512E+03  0.7818609E-02  0.9417553E-01
       -2   -1    0    0    0  501  0.00000000000E+00  0.00000000000E+00  0.33253604763E+03  0.33253604764E+03  0.25500000920E-02 0. -1.
        2   -1    0    0  501    0  0.00000000000E+00  0.00000000000E+00 -0.61771788704E+03  0.61771788704E+03  0.25500000920E-02 0.  1.
    10030    2    1    2    0    0  0.00000000000E+00  0.00000000000E+00 -0.28518183941E+03  0.95025393469E+03  0.90645124461E+03 0.  0.
        3    1    3    3  502    0 -0.10377030026E+03  0.29899992767E+03  0.19749946945E+03  0.37306203585E+03  0.10100000352E+00 0. -1.
       -3    1    3    3    0  502  0.10377030026E+03 -0.29899992767E+03 -0.48268130885E+03  0.57719189883E+03  0.10100000352E+00 0.  1.
</event>
<event>
 5   0  0.6863405E-03  0.8707332E+03  0.7818609E-02  0.9462924E-01
       -2   -1    0    0    0  501  0.00000000000E+00  0.00000000000E+00  0.78486215378E+02  0.78486215419E+02  0.25500000920E-02 0. -1.
        2   -1    0    0  501    0  0.00000000000E+00  0.00000000000E+00 -0.24149983197E+04  0.24149983197E+04  0.25500000920E-02 0.  1.
    10030    2    1    2    0    0  0.00000000000E+00  0.00000000000E+00 -0.23365121044E+04  0.24934845352E+04  0.87073320441E+03 0.  0.
        1    1    3    3  502    0 -0.16627204654E+03 -0.17683452005E+03 -0.13326059419E+03  0.27690291969E+03  0.50400001928E-02 0. -1.
       -1    1    3    3    0  502  0.16627204654E+03  0.17683452005E+03 -0.22032515102E+04  0.22165816155E+04  0.50400001928E-02 0.  1.
</event>
<event>
 5   0  0.2560250E-03  0.8987851E+03  0.7818609E-02  0.9427101E-01
        3   -1    0    0  501    0  0.00000000000E+00  0.00000000000E+00  0.93152258712E+03  0.93152259259E+03  0.10100000352E+00 0. -1.
       -3   -1    0    0    0  501  0.00000000000E+00  0.00000000000E+00 -0.21679952869E+03  0.21679955222E+03  0.10100000352E+00 0.  1.
    10030    2    1    2    0    0  0.00000000000E+00  0.00000000000E+00  0.71472305842E+03  0.11483221448E+04  0.89878512339E+03 0.  0.
        4    1    3    3  502    0  0.41334256082E+03  0.95070084852E+02  0.54713130170E+03  0.69227499436E+03  0.12699999809E+01 0.  1.
       -4    1    3    3    0  502 -0.41334256082E+03 -0.95070084852E+02  0.16759175672E+03  0.45604715046E+03  0.12699999809E+01 0. -1.
</event>
<event>
 5   0  0.6534628E-03  0.8843621E+03  0.7818609E-02  0.9445343E-01
        2   -1    0    0  501    0  0.00000000000E+00  0.00000000000E+00  0.13579488592E+03  0.13579488595E+03  0.25500000920E-02 0.  1.
       -2   -1    0    0    0  501  0.00000000000E+00  0.00000000000E+00 -0.14398486418E+04  0.14398486418E+04  0.25500000920E-02 0. -1.
    10030    2    1    2    0    0  0.00000000000E+00  0.00000000000E+00 -0.13040537559E+04  0.15756435278E+04  0.88436210250E+03 0.  0.
        4    1    3    3  502    0 -0.14265091576E+03  0.38387544137E+03 -0.94915957447E+03  0.10337384335E+04  0.12699999809E+01 0. -1.
       -4    1    3    3    0  502  0.14265091576E+03 -0.38387544137E+03 -0.35489418143E+03  0.54190509424E+03  0.12699999809E+01 0.  1.
</event>
<event>
 5   0  0.3927993E-03  0.8975447E+03  0.7818609E-02  0.9428656E-01
        1   -1    0    0  501    0  0.00000000000E+00  0.00000000000E+00  0.47509871740E+03  0.47509871743E+03  0.50400001928E-02 0. -1.
       -1   -1    0    0    0  501  0.00000000000E+00  0.00000000000E+00 -0.42390477893E+03  0.42390477896E+03  0.50400001928E-02 0.  1.
    10030    2    1    2    0    0  0.00000000000E+00  0.00000000000E+00  0.51193938470E+02  0.89900349639E+03  0.89754468813E+03 0.  0.
        2    1    3    3  502    0 -0.25745312507E+03  0.12272612493E+03  0.37264649301E+03  0.46926455450E+03  0.25500000920E-02 0. -1.
       -2    1    3    3    0  502  0.25745312507E+03 -0.12272612493E+03 -0.32145255454E+03  0.42973894189E+03  0.25500000920E-02 0.  1.
</event>
<event>
 5   0  0.6724773E-03  0.8788562E+03  0.7818609E-02  0.9452405E-01
        2   -1    0    0  501    0  0.00000000000E+00  0.00000000000E+00  0.17117791416E+04  0.17117791416E+04  0.25500000920E-02 0. -1.
       -2   -1    0    0    0  501  0.00000000000E+00  0.00000000000E+00 -0.11280489579E+03  0.11280489582E+03  0.25500000920E-02 0.  1.
    10030    2    1    2    0    0  0.00000000000E+00  0.00000000000E+00  0.15989742458E+04  0.18245840374E+04  0.87885622878E+03 0.  0.
        5    1    3    3  502    0  0.51997359603E+02 -0.25278680048E+03  0.15377991491E+04  0.15593117729E+04  0.46999998093E+01 0. -1.
       -5    1    3    3    0  502 -0.51997359603E+02  0.25278680048E+03  0.61175096686E+02  0.26527226458E+03  0.46999998093E+01 0.  1.
</event>
<event>
 5   0  0.6724773E-03  0.8843584E+03  0.7818609E-02  0.9445348E-01
       -2   -1    0    0    0  501  0.00000000000E+00  0.00000000000E+00  0.39133486787E+03  0.39133486788E+03  0.25500000920E-02 0.  1.
        2   -1    0    0  501    0  0.00000000000E+00  0.00000000000E+00 -0.49962951032E+03  0.49962951032E+03  0.25500000920E-02 0. -1.
    10030    2    1    2    0    0  0.00000000000E+00  0.00000000000E+00 -0.10829464244E+03  0.89096437820E+03  0.88435840791E+03 0.  0.
        5    1    3    3  502    0 -0.11729345697E+03  0.71760515876E+01 -0.48358373550E+03  0.49767918381E+03  0.46999998093E+01 0. -1.
       -5    1    3    3    0  502  0.11729345697E+03 -0.71760515876E+01  0.37528909305E+03  0.39328519439E+03  0.46999998093E+01 0.  1.
</event>
<event>
 5   0  0.6524705E-03  0.8905115E+03  0.7818609E-02  0.9437521E-01
        2   -1    0    0  501    0  0.00000000000E+00  0.00000000000E+00  0.41846029489E+03  0.41846029490E+03  0.25500000920E-02 0.  1.
       -2   -1    0    0    0  501  0.00000000000E+00  0.00000000000E+00 -0.47376705148E+03  0.47376705149E+03  0.25500000920E-02 0. -1.
    10030    2    1    2    0    0  0.00000000000E+00  0.00000000000E+00 -0.55306756590E+02  0.89222734638E+03  0.89051153856E+03 0.  0.
        3    1    3    3  502    0  0.21733823792E+03 -0.31815366249E+03 -0.25123132646E+03  0.45997266463E+03  0.10100000352E+00 0. -1.
       -3    1    3    3    0  502 -0.21733823792E+03  0.31815366249E+03  0.19592456987E+03  0.43225468175E+03  0.10100000352E+00 0.  1.
</event>
<event>
 5   0  0.6724773E-03  0.9051491E+03  0.7818609E-02  0.9419168E-01
       -2   -1    0    0    0  501  0.00000000000E+00  0.00000000000E+00  0.32451661652E+03  0.32451661653E+03  0.25500000920E-02 0.  1.
        2   -1    0    0  501    0  0.00000000000E+00  0.00000000000E+00 -0.63116563919E+03  0.63116563920E+03  0.25500000920E-02 0. -1.
    10030    2    1    2    0    0  0.00000000000E+00  0.00000000000E+00 -0.30664902267E+03  0.95568225573E+03  0.90514913181E+03 0.  0.
        5    1    3    3  502    0  0.11771840704E+03 -0.11045196732E+03  0.29306048616E+03  0.33460992064E+03  0.46999998093E+01 0.  1.
       -5    1    3    3    0  502 -0.11771840704E+03  0.11045196732E+03 -0.59970950883E+03  0.62107233509E+03  0.46999998093E+01 0. -1.
</event>
<event>
 5   0  0.6609191E-03  0.8994002E+03  0.7818609E-02  0.9426332E-01
       -2   -1    0    0    0  501  0.00000000000E+00  0.00000000000E+00  0.54352405759E+03  0.54352405760E+03  0.25500000920E-02 0.  1.
        2   -1    0    0  501    0  0.00000000000E+00  0.00000000000E+00 -0.37207215253E+03  0.37207215254E+03  0.25500000920E-02 0. -1.
    10030    2    1    2    0    0  0.00000000000E+00  0.00000000000E+00  0.17145190506E+03  0.91559621014E+03  0.89940016915E+03 0.  0.
        2    1    3    3  502    0 -0.28980244866E+03 -0.21257225407E+03  0.36088522272E+03  0.50932363624E+03  0.25500000920E-02 0.  1.
       -2    1    3    3    0  502  0.28980244866E+03  0.21257225407E+03 -0.18943331766E+03  0.40627257389E+03  0.25500000920E-02 0. -1.
</event>
<event>
 5   0  0.6724773E-03  0.9082125E+03  0.7818609E-02  0.9415373E-01
        2   -1    0    0  501    0  0.00000000000E+00  0.00000000000E+00  0.47079500284E+03  0.47079500285E+03  0.25500000920E-02 0. -1.
       -2   -1    0    0    0  501  0.00000000000E+00  0.00000000000E+00 -0.43800912732E+03  0.43800912733E+03  0.25500000920E-02 0.  1.
    10030    2    1    2    0    0  0.00000000000E+00  0.00000000000E+00  0.32785875517E+02  0.90880413018E+03  0.90821254858E+03 0.  0.
        5    1    3    3  502    0  0.43055882095E+03 -0.14248012008E+03 -0.61813542615E+01  0.45358767847E+03  0.46999998093E+01 0.  1.
       -5    1    3    3    0  502 -0.43055882095E+03  0.14248012008E+03  0.38967229778E+02  0.45521645171E+03  0.46999998093E+01 0. -1.
</event>
<event>
 5   0  0.6609191E-03  0.9006485E+03  0.7818609E-02  0.9424771E-01
        2   -1    0    0  501    0  0.00000000000E+00  0.00000000000E+00  0.22416910533E+04  0.22416910533E+04  0.25500000920E-02 0. -1.
       -2   -1    0    0    0  501  0.00000000000E+00  0.00000000000E+00 -0.90463821886E+02  0.90463821922E+02  0.25500000920E-02 0.  1.
    10030    2    1    2    0    0  0.00000000000E+00  0.00000000000E+00  0.21512272314E+04  0.23321548752E+04  0.90064852237E+03 0.  0.
        2    1    3    3  502    0  0.25742350214E+03  0.29335156679E+03  0.16573395651E+04  0.17026733202E+04  0.25500000920E-02 0. -1.
       -2    1    3    3    0  502 -0.25742350214E+03 -0.29335156679E+03  0.49388766629E+03  0.62948155502E+03  0.25500000920E-02 0.  1.
</event>
<event>
 5   0  0.6534628E-03  0.9764200E+03  0.7818609E-02  0.9334792E-01
        2   -1    0    0  501    0  0.00000000000E+00  0.00000000000E+00  0.35841963590E+03  0.35841963591E+03  0.25500000920E-02 0. -1.
       -2   -1    0    0    0  501  0.00000000000E+00  0.00000000000E+00 -0.66499980481E+03  0.66499980481E+03  0.25500000920E-02 0.  1.
    10030    2    1    2    0    0  0.00000000000E+00  0.00000000000E+00 -0.30658016891E+03  0.10234194407E+04  0.97641996686E+03 0.  0.
        4    1    3    3  502    0  0.29767196842E+03 -0.21514576264E+03 -0.49041008181E+03  0.61269891562E+03  0.12699999809E+01 0.  1.
       -4    1    3    3    0  502 -0.29767196842E+03  0.21514576264E+03  0.18382991290E+03  0.41072052510E+03  0.12699999809E+01 0. -1.
</event>
<event>
 5   0  0.6863405E-03  0.9005151E+03  0.7818609E-02  0.9424938E-01
       -2   -1    0    0    0  501  0.00000000000E+00  0.00000000000E+00  0.43580992345E+03  0.43580992345E+03  0.25500000920E-02 0. -1.
        2   -1    0    0  501    0  0.00000000000E+00  0.00000000000E+00 -0.46518418283E+03  0.46518418284E+03  0.25500000920E-02 0.  1.
    10030    2    1    2    0    0  0.00000000000E+00  0.00000000000E+00 -0.29374259388E+02  0.90099410629E+03  0.90051514838E+03 0.  0.
        1    1    3    3  502    0  0.75187868603E+02  0.40771211351E+03 -0.19042080500E+03  0.45622633209E+03  0.50400001928E-02 0.  1.
       -1    1    3    3    0  502 -0.75187868603E+02 -0.40771211351E+03  0.16104654562E+03  0.44476777420E+03  0.50400001928E-02 0. -1.
</event>
<event>
 5   0  0.3969536E-03  0.9242348E+03  0.7818609E-02  0.9395784E-01
        1   -1    0    0  501    0  0.00000000000E+00  0.00000000000E+00  0.35493849631E+03  0.35493849634E+03  0.50400001928E-02 0. -1.
       -1   -1    0    0    0  501  0.00000000000E+00  0.00000000000E+00 -0.60166052838E+03  0.60166052840E+03  0.50400001928E-02 0.  1.
    10030    2    1    2    0    0  0.00000000000E+00  0.00000000000E+00 -0.24672203207E+03  0.95659902474E+03  0.92423478242E+03 0.  0.
        1    1    3    3  502    0 -0.53604369954E+02 -0.36370827508E+03  0.16643523578E+03  0.40355647136E+03  0.50400001928E-02 0. -1.
       -1    1    3    3    0  502  0.53604369954E+02  0.36370827508E+03 -0.41315726786E+03  0.55304255338E+03  0.50400001928E-02 0.  1.
</event>
<event>
 5   0  0.3794006E-03  0.8972208E+03  0.7818609E-02  0.9429062E-01
        1   -1    0    0  501    0  0.00000000000E+00  0.00000000000E+00  0.13014921399E+04  0.13014921399E+04  0.50400001928E-02 0. -1.
       -1   -1    0    0    0  501  0.00000000000E+00  0.00000000000E+00 -0.15463119410E+03  0.15463119419E+03  0.50400001928E-02 0.  1.
    10030    2    1    2    0    0  0.00000000000E+00  0.00000000000E+00  0.11468609458E+04  0.14561233341E+04  0.89722078393E+03 0.  0.
        5    1    3    3  502    0 -0.15304747289E+03 -0.12158284126E+03  0.12287055439E+04  0.12441645068E+04  0.46999998093E+01 0. -1.
       -5    1    3    3    0  502  0.15304747289E+03  0.12158284126E+03 -0.81844598114E+02  0.21195882734E+03  0.46999998093E+01 0.  1.
</event>
<event>
 5   0  0.3927993E-03  0.8978407E+03  0.7818609E-02  0.9428285E-01
       -1   -1    0    0    0  501  0.00000000000E+00  0.00000000000E+00  0.17984592031E+03  0.17984592038E+03  0.50400001928E-02 0. -1.
        1   -1    0    0  501    0  0.00000000000E+00  0.00000000000E+00 -0.11205675390E+04  0.11205675390E+04  0.50400001928E-02 0.  1.
    10030    2    1    2    0    0  0.00000000000E+00  0.00000000000E+00 -0.94072161869E+03  0.13004134594E+04  0.89784074396E+03 0.  0.
        2    1    3    3  502    0  0.26140991233E+03  0.26921054473E+03 -0.11345947380E+03  0.39202361136E+03  0.25500000920E-02 0. -1.
       -2    1    3    3    0  502 -0.26140991233E+03 -0.26921054473E+03 -0.82726214489E+03  0.90838984804E+03  0.25500000920E-02 0.  1.
</event>
<event>
 5   0  0.3794006E-03  0.8989701E+03  0.7818609E-02  0.9426870E-01
       -1   -1    0    0    0  501  0.00000000000E+00  0.00000000000E+00  0.62764580032E+03  0.62764580034E+03  0.50400001928E-02 0. -1.
        1   -1    0    0  501    0  0.00000000000E+00  0.00000000000E+00 -0.32189625107E+03  0.32189625111E+03  0.50400001928E-02 0.  1.
    10030    2    1    2    0    0  0.00000000000E+00  0.00000000000E+00  0.30574954925E+03  0.94954205146E+03  0.89897014445E+03 0.  0.
        5    1    3    3  502    0 -0.12251116170E+03 -0.42516661698E+03  0.69443280828E+02  0.44790634756E+03  0.46999998093E+01 0.  1.
       -5    1    3    3    0  502  0.12251116170E+03  0.42516661698E+03  0.23630626842E+03  0.50163570390E+03  0.46999998093E+01 0. -1.
</event>
<event>
 5   0  0.6524705E-03  0.9041274E+03  0.7818609E-02  0.9420437E-01
        2   -1    0    0  501    0  0.00000000000E+00  0.00000000000E+00  0.62350692198E+03  0.62350692199E+03  0.25500000920E-02 0.  1.
       -2   -1    0    0    0  501  0.00000000000E+00  0.00000000000E+00 -0.32776152701E+03  0.32776152702E+03  0.25500000920E-02 0. -1.
    10030    2    1    2    0    0  0.00000000000E+00  0.00000000000E+00  0.29574539497E+03  0.95126844901E+03  0.90412738231E+03 0.  0.
        3    1    3    3  502    0 -0.17812874084E+01  0.25838198528E+03 -0.24240900007E+03  0.35429727182E+03  0.10100000352E+00 0. -1.
       -3    1    3    3    0  502  0.17812874084E+01 -0.25838198528E+03  0.53815439504E+03  0.59697117720E+03  0.10100000352E+00 0.  1.
</event>
<event>
 5   0  0.6534628E-03  0.9060447E+03  0.7818609E-02  0.9418057E-01
        2   -1    0    0  501    0  0.00000000000E+00  0.00000000000E+00  0.11293748091E+04  0.11293748091E+04  0.25500000920E-02 0.  1.
       -2   -1    0    0    0  501  0.00000000000E+00  0.00000000000E+00 -0.18171933382E+03  0.18171933384E+03  0.25500000920E-02 0. -1.
    10030    2    1    2    0    0  0.00000000000E+00  0.00000000000E+00  0.94765547530E+03  0.13110941430E+04  0.90604467430E+03 0.  0.
        4    1    3    3  502    0  0.11479474604E+01 -0.45003606694E+03  0.39872243062E+03  0.60126114868E+03  0.12699999809E+01 0.  1.
       -4    1    3    3    0  502 -0.11479474604E+01  0.45003606694E+03  0.54893304467E+03  0.70983299427E+03  0.12699999809E+01 0. -1.
</event>
<event>
 5   0  0.3998066E-03  0.8946122E+03  0.7818609E-02  0.9432342E-01
       -1   -1    0    0    0  501  0.00000000000E+00  0.00000000000E+00  0.14003206478E+03  0.14003206487E+03  0.50400001928E-02 0.  1.
        1   -1    0    0  501    0  0.00000000000E+00  0.00000000000E+00 -0.14288352404E+04  0.14288352405E+04  0.50400001928E-02 0. -1.
    10030    2    1    2    0    0  0.00000000000E+00  0.00000000000E+00 -0.12888031757E+04  0.15688673053E+04  0.89461220431E+03 0.  0.
        4    1    3    3  502    0 -0.33227893274E+03 -0.21004351040E+03 -0.27010781099E+03  0.47695640038E+03  0.12699999809E+01 0.  1.
       -4    1    3    3    0  502  0.33227893274E+03  0.21004351040E+03 -0.10186953647E+04  0.10919109049E+04  0.12699999809E+01 0. -1.
</event>
<event>
 5   0  0.3927993E-03  0.8943179E+03  0.7818609E-02  0.9432712E-01
       -1   -1    0    0    0  501  0.00000000000E+00  0.00000000000E+00  0.24320206179E+03  0.24320206185E+03  0.50400001928E-02 0. -1.
        1   -1    0    0  501    0  0.00000000000E+00  0.00000000000E+00 -0.82216048769E+03  0.82216048771E+03  0.50400001928E-02 0.  1.
    10030    2    1    2    0    0  0.00000000000E+00  0.00000000000E+00 -0.57895842590E+03  0.10653625496E+04  0.89431789822E+03 0.  0.
        2    1    3    3  502    0 -0.33941154599E+03  0.28971686741E+02  0.55598114555E+02  0.34515316387E+03  0.25500000920E-02 0.  1.
       -2    1    3    3    0  502  0.33941154599E+03 -0.28971686741E+02 -0.63455654045E+03  0.72020938568E+03  0.25500000920E-02 0. -1.
</event>
<event>
 5   0  0.3927993E-03  0.8961912E+03  0.7818609E-02  0.9430355E-01
        1   -1    0    0  501    0  0.00000000000E+00  0.00000000000E+00  0.12750302119E+04  0.12750302120E+04  0.50400001928E-02 0.  1.
       -1   -1    0    0    0  501  0.00000000000E+00  0.00000000000E+00 -0.15747836936E+03  0.15747836944E+03  0.50400001928E-02 0. -1.
    10030    2    1    2    0    0  0.00000000000E+00  0.00000000000E+00  0.11175518426E+04  0.14325085814E+04  0.89619122676E+03 0.  0.
        2    1    3    3  502    0 -0.17606073909E+03  0.40283556678E+03  0.69735069589E+03  0.82436149278E+03  0.25500000920E-02 0.  1.
       -2    1    3    3    0  502  0.17606073909E+03 -0.40283556678E+03  0.42020114670E+03  0.60814708862E+03  0.25500000920E-02 0. -1.
</event>
<event>
 5   0  0.6609191E-03  0.8988789E+03  0.7818609E-02  0.9426984E-01
       -2   -1    0    0    0  501  0.00000000000E+00  0.00000000000E+00  0.27978069471E+03  0.27978069472E+03  0.25500000920E-02 0. -1.
        2   -1    0    0  501    0  0.00000000000E+00  0.00000000000E+00 -0.72197908037E+03  0.72197908037E+03  0.25500000920E-02 0.  1.
    10030    2    1    2    0    0  0.00000000000E+00  0.00000000000E+00 -0.44219838566E+03  0.10017597751E+04  0.89887887655E+03 0.  0.
        2    1    3    3  502    0 -0.34271260213E+03 -0.54086986770E+02  0.97288786366E+02  0.36033656178E+03  0.25500000920E-02 0. -1.
       -2    1    3    3    0  502  0.34271260213E+03  0.54086986770E+02 -0.53948717203E+03  0.64142321332E+03  0.25500000920E-02 0.  1.
</event>
<event>
 5   0  0.3969536E-03  0.8838894E+03  0.7818609E-02  0.9445948E-01
       -1   -1    0    0    0  501  0.00000000000E+00  0.00000000000E+00  0.35845253811E+03  0.35845253814E+03  0.50400001928E-02 0. -1.
        1   -1    0    0  501    0  0.00000000000E+00  0.00000000000E+00 -0.54488415738E+03  0.54488415740E+03  0.50400001928E-02 0.  1.
    10030    2    1    2    0    0  0.00000000000E+00  0.00000000000E+00 -0.18643161927E+03  0.90333669554E+03  0.88388938044E+03 0.  0.
        1    1    3    3  502    0 -0.26988214927E+03 -0.16479008224E+03  0.22232134456E+03  0.38654744337E+03  0.50400001928E-02 0. -1.
       -1    1    3    3    0  502  0.26988214927E+03  0.16479008224E+03 -0.40875296383E+03  0.51678925218E+03  0.50400001928E-02 0.  1.
</event>
<event>
 5   0  0.3927993E-03  0.9009474E+03  0.7818609E-02  0.9424398E-01
        1   -1    0    0  501    0  0.00000000000E+00  0.00000000000E+00  0.14887665387E+04  0.14887665387E+04  0.50400001928E-02 0. -1.
       -1   -1    0    0    0  501  0.00000000000E+00  0.00000000000E+00 -0.13630516718E+03  0.13630516727E+03  0.50400001928E-02 0.  1.
    10030    2    1    2    0    0  0.00000000000E+00  0.00000000000E+00  0.13524613715E+04  0.16250717059E+04  0.90094743914E+03 0.  0.
        2    1    3    3  502    0  0.57815491556E+01 -0.43163164759E+03  0.44392465471E+03  0.61919980990E+03  0.25500000920E-02 0.  1.
       -2    1    3    3    0  502 -0.57815491556E+01  0.43163164759E+03  0.90853671676E+03  0.10058718960E+04  0.25500000920E-02 0. -1.
</event>
<event>
 5   0  0.3943549E-03  0.9078706E+03  0.7818609E-02  0.9415796E-01
       -1   -1    0    0    0  501  0.00000000000E+00  0.00000000000E+00  0.40025231032E+03  0.40025231035E+03  0.50400001928E-02 0.  1.
        1   -1    0    0  501    0  0.00000000000E+00  0.00000000000E+00 -0.51481835787E+03  0.51481835789E+03  0.50400001928E-02 0. -1.
    10030    2    1    2    0    0  0.00000000000E+00  0.00000000000E+00 -0.11456604755E+03  0.91507066825E+03  0.90787055720E+03 0.  0.
        3    1    3    3  502    0  0.12404627349E+03 -0.23124546410E+03 -0.43061938891E+03  0.50427672060E+03  0.10100000352E+00 0. -1.
       -3    1    3    3    0  502 -0.12404627349E+03  0.23124546410E+03  0.31605334136E+03  0.41079394764E+03  0.10100000352E+00 0.  1.
</event>
<event>
 5   0  0.3998066E-03  0.8948369E+03  0.7818609E-02  0.9432059E-01
        1   -1    0    0  501    0  0.00000000000E+00  0.00000000000E+00  0.15133020016E+03  0.15133020024E+03  0.50400001928E-02 0.  1.
       -1   -1    0    0    0  501  0.00000000000E+00  0.00000000000E+00 -0.13228243450E+04  0.13228243450E+04  0.50400001928E-02 0. -1.
    10030    2    1    2    0    0  0.00000000000E+00  0.00000000000E+00 -0.11714941448E+04  0.14741545453E+04  0.89483690798E+03 0.  0.
        4    1    3    3  502    0 -0.37180674921E+03 -0.19077619099E+03 -0.32244197035E+03  0.52783165019E+03  0.12699999809E+01 0. -1.
       -4    1    3    3    0  502  0.37180674921E+03  0.19077619099E+03 -0.84905217450E+03  0.94632289507E+03  0.12699999809E+01 0.  1.
</event>
<event>
 5   0  0.6534628E-03  0.9010950E+03  0.7818609E-02  0.9424214E-01
       -2   -1    0    0    0  501  0.00000000000E+00  0.00000000000E+00  0.52251229060E+03  0.52251229061E+03  0.25500000920E-02 0.  1.
        2   -1    0    0  501    0  0.00000000000E+00  0.00000000000E+00 -0.38849431943E+03  0.38849431944E+03  0.25500000920E-02 0. -1.
    10030    2    1    2    0    0  0.00000000000E+00  0.00000000000E+00  0.13401797118E+03  0.91100661005E+03  0.90109501549E+03 0.  0.
        4    1    3    3  502    0  0.11970201687E+02  0.86608130399E+02 -0.37983356780E+03  0.38976840060E+03  0.12699999809E+01 0. -1.
       -4    1    3    3    0  502 -0.11970201687E+02 -0.86608130399E+02  0.51385153898E+03  0.52123820945E+03  0.12699999809E+01 0.  1.
</event>
<event>
 5   0  0.6609191E-03  0.8941325E+03  0.7818609E-02  0.9432946E-01
       -2   -1    0    0    0  501  0.00000000000E+00  0.00000000000E+00  0.10639798463E+03  0.10639798466E+03  0.25500000920E-02 0. -1.
        2   -1    0    0  501    0  0.00000000000E+00  0.00000000000E+00 -0.18784963137E+04  0.18784963137E+04  0.25500000920E-02 0.  1.
    10030    2    1    2    0    0  0.00000000000E+00  0.00000000000E+00 -0.17720983290E+04  0.19848942983E+04  0.89413247776E+03 0.  0.
        2    1    3    3  502    0 -0.28649703457E+03 -0.13363781346E+03 -0.15877959444E+04  0.16189612648E+04  0.25500000920E-02 0.  1.
       -2    1    3    3    0  502  0.28649703457E+03  0.13363781346E+03 -0.18430238461E+03  0.36593303347E+03  0.25500000920E-02 0. -1.
</event>
<event>
 5   0  0.6724773E-03  0.9071202E+03  0.7818609E-02  0.9416724E-01
       -2   -1    0    0    0  501  0.00000000000E+00  0.00000000000E+00  0.40337158070E+03  0.40337158071E+03  0.25500000920E-02 0.  1.
        2   -1    0    0  501    0  0.00000000000E+00  0.00000000000E+00 -0.50999321566E+03  0.50999321567E+03  0.25500000920E-02 0. -1.
    10030    2    1    2    0    0  0.00000000000E+00  0.00000000000E+00 -0.10662163496E+03  0.91336479638E+03  0.90712021156E+03 0.  0.
        5    1    3    3  502    0  0.42357037722E+03  0.14611727969E+03  0.17404813870E+02  0.44842740932E+03  0.46999998093E+01 0.  1.
       -5    1    3    3    0  502 -0.42357037722E+03 -0.14611727969E+03 -0.12402644883E+03  0.46493738706E+03  0.46999998093E+01 0. -1.
</event>
<event>
 5   0  0.6524705E-03  0.8975760E+03  0.7818609E-02  0.9428617E-01
        2   -1    0    0  501    0  0.00000000000E+00  0.00000000000E+00  0.63828269521E+03  0.63828269521E+03  0.25500000920E-02 0. -1.
       -2   -1    0    0    0  501  0.00000000000E+00  0.00000000000E+00 -0.31555086685E+03  0.31555086686E+03  0.25500000920E-02 0.  1.
    10030    2    1    2    0    0  0.00000000000E+00  0.00000000000E+00  0.32273182836E+03  0.95383356207E+03  0.89757597511E+03 0.  0.
        3    1    3    3  502    0  0.30491526114E+03 -0.32833379193E+03  0.18812876436E+03  0.48597205432E+03  0.10100000352E+00 0. -1.
       -3    1    3    3    0  502 -0.30491526114E+03  0.32833379193E+03  0.13460306400E+03  0.46786150775E+03  0.10100000352E+00 0.  1.
</event>
<event>
 5   0  0.6863405E-03  0.8987672E+03  0.7818609E-02  0.9427124E-01
        2   -1    0    0  501    0  0.00000000000E+00  0.00000000000E+00  0.91564918589E+03  0.91564918590E+03  0.25500000920E-02 0.  1.
       -2   -1    0    0    0  501  0.00000000000E+00  0.00000000000E+00 -0.22054913933E+03  0.22054913934E+03  0.25500000920E-02 0. -1.
    10030    2    1    2    0    0  0.00000000000E+00  0.00000000000E+00  0.69510004657E+03  0.11361983252E+04  0.89876724436E+03 0.  0.
        1    1    3    3  502    0  0.40875062176E+03  0.13733577405E+03  0.50749405649E+03  0.66594924958E+03  0.50400001928E-02 0.  1.
       -1    1    3    3    0  502 -0.40875062176E+03 -0.13733577405E+03  0.18760599008E+03  0.47024907566E+03  0.50400001928E-02 0. -1.
</event>
<event>
 5   0  0.3943549E-03  0.8685953E+03  0.7818609E-02  0.9465713E-01
        1   -1    0    0  501    0  0.00000000000E+00  0.00000000000E+00  0.94563993632E+03  0.94563993634E+03  0.50400001928E-02 0.  1.
       -1   -1    0    0    0  501  0.00000000000E+00  0.00000000000E+00 -0.19945695074E+03  0.19945695081E+03  0.50400001928E-02 0. -1.
    10030    2    1    2    0    0  0.00000000000E+00  0.00000000000E+00  0.74618298558E+03  0.11450968871E+04  0.86859532176E+03 0.  0.
        3    1    3    3  502    0 -0.80637692869E+01  0.37672850260E+03  0.88426248923E+02  0.38705116038E+03  0.10100000352E+00 0.  1.
       -3    1    3    3    0  502  0.80637692869E+01 -0.37672850260E+03  0.65775673666E+03  0.75804572677E+03  0.10100000352E+00 0. -1.
</event>
<event>
 5   0  0.3943549E-03  0.9178452E+03  0.7818609E-02  0.9403545E-01
       -1   -1    0    0    0  501  0.00000000000E+00  0.00000000000E+00  0.39394381187E+03  0.39394381190E+03  0.50400001928E-02 0.  1.
        1   -1    0    0  501    0  0.00000000000E+00  0.00000000000E+00 -0.53461924589E+03  0.53461924592E+03  0.50400001928E-02 0. -1.
    10030    2    1    2    0    0  0.00000000000E+00  0.00000000000E+00 -0.14067543402E+03  0.92856305782E+03  0.91784518008E+03 0.  0.
        3    1    3    3  502    0  0.33369584364E+02  0.24452868138E+03  0.32109394991E+03  0.40498041934E+03  0.10100000352E+00 0.  1.
       -3    1    3    3    0  502 -0.33369584364E+02 -0.24452868138E+03 -0.46176938393E+03  0.52358263848E+03  0.10100000352E+00 0. -1.
</event>
<event>
 5   0  0.6724773E-03  0.8988440E+03  0.7818609E-02  0.9427028E-01
        2   -1    0    0  501    0  0.00000000000E+00  0.00000000000E+00  0.31377384673E+03  0.31377384674E+03  0.25500000920E-02 0.  1.
       -2   -1    0    0    0  501  0.00000000000E+00  0.00000000000E+00 -0.64371244529E+03  0.64371244530E+03  0.25500000920E-02 0. -1.
    10030    2    1    2    0    0  0.00000000000E+00  0.00000000000E+00 -0.32993859856E+03  0.95748629204E+03  0.89884399126E+03 0.  0.
        5    1    3    3  502    0 -0.13148690543E+03  0.40812957653E+03 -0.30828089305E+03  0.52812664821E+03  0.46999998093E+01 0. -1.
       -5    1    3    3    0  502  0.13148690543E+03 -0.40812957653E+03 -0.21657705517E+02  0.42935964382E+03  0.46999998093E+01 0.  1.
</event>
<event>
 5   0  0.3998066E-03  0.8899091E+03  0.7818609E-02  0.9438284E-01
       -1   -1    0    0    0  501  0.00000000000E+00  0.00000000000E+00  0.14641352059E+03  0.14641352068E+03  0.50400001928E-02 0. -1.
        1   -1    0    0  501    0  0.00000000000E+00  0.00000000000E+00 -0.13522286262E+04  0.13522286262E+04  0.50400001928E-02 0.  1.
    10030    2    1    2    0    0  0.00000000000E+00  0.00000000000E+00 -0.12058151056E+04  0.14986421469E+04  0.88990910521E+03 0.  0.
        4    1    3    3  502    0 -0.31852874821E+03  0.18871519807E+03 -0.18729098277E+03  0.41491386401E+03  0.12699999809E+01 0. -1.
       -4    1    3    3    0  502  0.31852874821E+03 -0.18871519807E+03 -0.10185241229E+04  0.10837282829E+04  0.12699999809E+01 0.  1.
</event>
<event>
 5   0  0.6863405E-03  0.9017776E+03  0.7818609E-02  0.9423362E-01
        2   -1    0    0  501    0  0.00000000000E+00  0.00000000000E+00  0.97178558299E+03  0.97178558299E+03  0.25500000920E-02 0. -1.
       -2   -1    0    0    0  501  0.00000000000E+00  0.00000000000E+00 -0.20920325902E+03  0.20920325903E+03  0.25500000920E-02 0.  1.
    10030    2    1    2    0    0  0.00000000000E+00  0.00000000000E+00  0.76258232397E+03  0.11809888420E+04  0.90177760238E+03 0.  0.
        1    1    3    3  502    0  0.97422842693E+02 -0.20526559960E+03 -0.12874869676E+03  0.26115398446E+03  0.50400001928E-02 0.  1.
       -1    1    3    3    0  502 -0.97422842693E+02  0.20526559960E+03  0.89133102073E+03  0.91983485757E+03  0.50400001928E-02 0. -1.
</event>
<event>
 5   0  0.6524705E-03  0.8988375E+03  0.7818609E-02  0.9427036E-01
       -2   -1    0    0    0  501  0.00000000000E+00  0.00000000000E+00  0.16634047553E+03  0.16634047555E+03  0.25500000920E-02 0. -1.
        2   -1    0    0  501    0  0.00000000000E+00  0.00000000000E+00 -0.12142397996E+04  0.12142397996E+04  0.25500000920E-02 0.  1.
    10030    2    1    2    0    0  0.00000000000E+00  0.00000000000E+00 -0.10478993240E+04  0.13805802751E+04  0.89883752855E+03 0.  0.
        3    1    3    3  502    0  0.26712176925E+03  0.11027632217E+03 -0.10526024943E+04  0.10915525310E+04  0.10100000352E+00 0.  1.
       -3    1    3    3    0  502 -0.26712176925E+03 -0.11027632217E+03  0.47031702505E+01  0.28902774409E+03  0.10100000352E+00 0. -1.
</event>
<event>
 5   0  0.3943549E-03  0.8960964E+03  0.7818609E-02  0.9430474E-01
        1   -1    0    0  501    0  0.00000000000E+00  0.00000000000E+00  0.16379715596E+04  0.16379715596E+04  0.50400001928E-02 0.  1.
       -1   -1    0    0    0  501  0.00000000000E+00  0.00000000000E+00 -0.12255841902E+03  0.12255841912E+03  0.50400001928E-02 0. -1.
    10030    2    1    2    0    0  0.00000000000E+00  0.00000000000E+00  0.15154131406E+04  0.17605299787E+04  0.89609643418E+03 0.  0.
        3    1    3    3  502    0  0.42382474063E+03 -0.66236448682E+02  0.10118443958E+04  0.10990194581E+04  0.10100000352E+00 0.  1.
       -3    1    3    3    0  502 -0.42382474063E+03  0.66236448682E+02  0.50356874481E+03  0.66151052059E+03  0.10100000352E+00 0. -1.
</event>
<event>
 5   0  0.6524705E-03  0.9038750E+03  0.7818609E-02  0.9420750E-01
        2   -1    0    0  501    0  0.00000000000E+00  0.00000000000E+00  0.22604669896E+04  0.22604669896E+04  0.25500000920E-02 0. -1.
       -2   -1    0    0    0  501  0.00000000000E+00  0.00000000000E+00 -0.90356334408E+02  0.90356334444E+02  0.25500000920E-02 0.  1.
    10030    2    1    2    0    0  0.00000000000E+00  0.00000000000E+00  0.21701106552E+04  0.23508233240E+04  0.90387501630E+03 0.  0.
        3    1    3    3  502    0  0.31913472141E+03  0.18024094454E+03  0.39736509961E+03  0.54058560939E+03  0.10100000352E+00 0.  1.
       -3    1    3    3    0  502 -0.31913472141E+03 -0.18024094454E+03  0.17727455556E+04  0.18102377146E+04  0.10100000352E+00 0. -1.
</event>
<event>
 5   0  0.6863405E-03  0.8905984E+03  0.7818609E-02  0.9437411E-01
        2   -1    0    0  501    0  0.00000000000E+00  0.00000000000E+00  0.98797750144E+03  0.98797750145E+03  0.25500000920E-02 0. -1.
       -2   -1    0    0    0  501  0.00000000000E+00  0.00000000000E+00 -0.20070435499E+03  0.20070435501E+03  0.25500000920E-02 0.  1.
    10030    2    1    2    0    0  0.00000000000E+00  0.00000000000E+00  0.78727314645E+03  0.11886818565E+04  0.89059842170E+03 0.  0.
        1    1    3    3  502    0  0.14635590360E+03  0.36321109419E+03  0.67660886488E+03  0.78175565589E+03  0.50400001928E-02 0. -1.
       -1    1    3    3    0  502 -0.14635590360E+03 -0.36321109419E+03  0.11066428158E+03  0.40692620056E+03  0.50400001928E-02 0.  1.
</event>
<event>
 5   0  0.3927993E-03  0.8980717E+03  0.7818609E-02  0.9427995E-01
       -1   -1    0    0    0  501  0.00000000000E+00  0.00000000000E+00  0.20506118933E+03  0.20506118939E+03  0.50400001928E-02 0.  1.
        1   -1    0    0  501    0  0.00000000000E+00  0.00000000000E+00 -0.98328309765E+03  0.98328309766E+03  0.50400001928E-02 0. -1.
    10030    2    1    2    0    0  0.00000000000E+00  0.00000000000E+00 -0.77822190832E+03  0.11883442871E+04  0.89807171539E+03 0.  0.
        2    1    3    3  502    0 -0.18922007807E+02  0.22143501825E+03 -0.90540612726E+03  0.93228309273E+03  0.25500000920E-02 0. -1.
       -2    1    3    3    0  502  0.18922007807E+02 -0.22143501825E+03  0.12718421894E+03  0.25606119433E+03  0.25500000920E-02 0.  1.
</event>
<event>
 5   0  0.6534628E-03  0.8955712E+03  0.7818609E-02  0.9431135E-01
       -2   -1    0    0    0  501  0.00000000000E+00  0.00000000000E+00  0.44495547798E+03  0.44495547799E+03  0.25500000920E-02 0. -1.
        2   -1    0    0  501    0  0.00000000000E+00  0.00000000000E+00 -0.45063375142E+03  0.45063375143E+03  0.25500000920E-02 0.  1.
    10030    2    1    2    0    0  0.00000000000E+00  0.00000000000E+00 -0.56782734412E+01  0.89558922941E+03  0.89557122835E+03 0.  0.
        4    1    3    3  502    0 -0.86660075389E+02 -0.43925019033E+03 -0.10562309183E+02  0.44784358167E+03  0.12699999809E+01 0. -1.
       -4    1    3    3    0  502  0.86660075389E+02  0.43925019033E+03  0.48840357419E+01  0.44774564774E+03  0.12699999809E+01 0.  1.
</event>
<event>
 5   0  0.6609191E-03  0.9034778E+03  0.7818609E-02  0.9421244E-01
       -2   -1    0    0    0  501  0.00000000000E+00  0.00000000000E+00  0.13011314081E+03  0.13011314083E+03  0.25500000920E-02 0. -1.
        2   -1    0    0  501    0  0.00000000000E+00  0.00000000000E+00 -0.15683891558E+04  0.15683891558E+04  0.25500000920E-02 0.  1.
    10030    2    1    2    0    0  0.00000000000E+00  0.00000000000E+00 -0.14382760150E+04  0.16985022966E+04  0.90347781177E+03 0.  0.
        2    1    3    3  502    0  0.31982335748E+03  0.22170196986E+03 -0.28785492185E+03  0.48404462549E+03  0.25500000920E-02 0. -1.
       -2    1    3    3    0  502 -0.31982335748E+03 -0.22170196986E+03 -0.11504210931E+04  0.12144576711E+04  0.25500000920E-02 0.  1.
</event>
<event>
 5   0  0.3943549E-03  0.9028178E+03  0.7818609E-02  0.9422066E-01
       -1   -1    0    0    0  501  0.00000000000E+00  0.00000000000E+00  0.12768116098E+03  0.12768116108E+03  0.50400001928E-02 0.  1.
        1   -1    0    0  501    0  0.00000000000E+00  0.00000000000E+00 -0.15959283339E+04  0.15959283339E+04  0.50400001928E-02 0. -1.
    10030    2    1    2    0    0  0.00000000000E+00  0.00000000000E+00 -0.14682471729E+04  0.17236094950E+04  0.90281777255E+03 0.  0.
        3    1    3    3  502    0 -0.17321408051E+03  0.21135631005E+03 -0.48170992484E+02  0.27747984108E+03  0.10100000352E+00 0.  1.
       -3    1    3    3    0  502  0.17321408051E+03 -0.21135631005E+03 -0.14200761805E+04  0.14461296539E+04  0.10100000352E+00 0. -1.
</event>
<event>
 5   0  0.3998066E-03  0.9034325E+03  0.7818609E-02  0.9421301E-01
        1   -1    0    0  501    0  0.00000000000E+00  0.00000000000E+00  0.76189019223E+03  0.76189019225E+03  0.50400001928E-02 0. -1.
       -1   -1    0    0    0  501  0.00000000000E+00  0.00000000000E+00 -0.26781754243E+03  0.26781754248E+03  0.50400001928E-02 0.  1.
    10030    2    1    2    0    0  0.00000000000E+00  0.00000000000E+00  0.49407264980E+03  0.10297077347E+04  0.90343247433E+03 0.  0.
        4    1    3    3  502    0 -0.54562515653E+02 -0.36103545048E+03 -0.56070983843E+02  0.36941742345E+03  0.12699999809E+01 0.  1.
       -4    1    3    3    0  502  0.54562515653E+02  0.36103545048E+03  0.55014363364E+03  0.66029031127E+03  0.12699999809E+01 0. -1.
</event>
<event>
 5   0  0.3794006E-03  0.8946424E+03  0.7818609E-02  0.9432304E-01
       -1   -1    0    0    0  501  0.00000000000E+00  0.00000000000E+00  0.18420774304E+03  0.18420774311E+03  0.50400001928E-02 0. -1.
        1   -1    0    0  501    0  0.00000000000E+00  0.00000000000E+00 -0.10862533448E+04  0.10862533448E+04  0.50400001928E-02 0.  1.
    10030    2    1    2    0    0  0.00000000000E+00  0.00000000000E+00 -0.90204560178E+03  0.12704610880E+04  0.89464244718E+03 0.  0.
        5    1    3    3  502    0 -0.14055933721E+03  0.20852644065E+03  0.74278955552E+02  0.26225875956E+03  0.46999998093E+01 0. -1.
       -5    1    3    3    0  502  0.14055933721E+03 -0.20852644065E+03 -0.97632455733E+03  0.10082023284E+04  0.46999998093E+01 0.  1.
</event>
<event>
 5   0  0.3998066E-03  0.8971160E+03  0.7818609E-02  0.9429194E-01
        1   -1    0    0  501    0  0.00000000000E+00  0.00000000000E+00  0.14634361219E+04  0.14634361219E+04  0.50400001928E-02 0.  1.
       -1   -1    0    0    0  501  0.00000000000E+00  0.00000000000E+00 -0.13748756846E+03  0.13748756855E+03  0.50400001928E-02 0. -1.
    10030    2    1    2    0    0  0.00000000000E+00  0.00000000000E+00  0.13259485534E+04  0.16009236904E+04  0.89711598820E+03 0.  0.
        4    1    3    3  502    0  0.90731594075E+02  0.29556380730E+03  0.12429097102E+04  0.12807873933E+04  0.12699999809E+01 0.  1.
       -4    1    3    3    0  502 -0.90731594075E+02 -0.29556380730E+03  0.83038843252E+02  0.32013629712E+03  0.12699999809E+01 0. -1.
</event>
<event>
 5   0  0.3969536E-03  0.8983609E+03  0.7818609E-02  0.9427633E-01
       -1   -1    0    0    0  501  0.00000000000E+00  0.00000000000E+00  0.27286557950E+03  0.27286557954E+03  0.50400001928E-02 0.  1.
        1   -1    0    0  501    0  0.00000000000E+00  0.00000000000E+00 -0.73942304132E+03  0.73942304133E+03  0.50400001928E-02 0. -1.
    10030    2    1    2    0    0  0.00000000000E+00  0.00000000000E+00 -0.46655746182E+03  0.10122886209E+04  0.89836094460E+03 0.  0.
        1    1    3    3  502    0  0.27690718375E+03 -0.19549290054E+03 -0.56538990536E+03  0.65921226300E+03  0.50400001928E-02 0. -1.
       -1    1    3    3    0  502 -0.27690718375E+03  0.19549290054E+03  0.98832443542E+02  0.35307635788E+03  0.50400001928E-02 0.  1.
</event>
<event>
 5   0  0.6724773E-03  0.9008096E+03  0.7818609E-02  0.9424570E-01
        2   -1    0    0  501    0  0.00000000000E+00  0.00000000000E+00  0.43014387829E+03  0.43014387830E+03  0.25500000920E-02 0. -1.
       -2   -1    0    0    0  501  0.00000000000E+00  0.00000000000E+00 -0.47162008885E+03  0.47162008885E+03  0.25500000920E-02 0.  1.
    10030    2    1    2    0    0  0.00000000000E+00  0.00000000000E+00 -0.41476210552E+02  0.90176396716E+03  0.90080962274E+03 0.  0.
        5    1    3    3  502    0 -0.32800657745E+03  0.10597451860E+03 -0.31091325743E+03  0.46422845355E+03  0.46999998093E+01 0.  1.
       -5    1    3    3    0  502  0.32800657745E+03 -0.10597451860E+03  0.26943704687E+03  0.43753551361E+03  0.46999998093E+01 0. -1.
</event>
<event>
 5   0  0.3998066E-03  0.8951962E+03  0.7818609E-02  0.9431606E-01
        1   -1    0    0  501    0  0.00000000000E+00  0.00000000000E+00  0.39974789835E+03  0.39974789838E+03  0.50400001928E-02 0. -1.
       -1   -1    0    0    0  501  0.00000000000E+00  0.00000000000E+00 -0.50117597579E+03  0.50117597581E+03  0.50400001928E-02 0.  1.
    10030    2    1    2    0    0  0.00000000000E+00  0.00000000000E+00 -0.10142807744E+03  0.90092387419E+03  0.89519616409E+03 0.  0.
        4    1    3    3  502    0  0.30668740568E+03 -0.66041270624E+02  0.27058373814E+03  0.41428949598E+03  0.12699999809E+01 0. -1.
       -4    1    3    3    0  502 -0.30668740568E+03  0.66041270624E+02 -0.37201181558E+03  0.48663437822E+03  0.12699999809E+01 0.  1.
</event>
<event>
 5   0  0.2560250E-03  0.9028426E+03  0.7818609E-02  0.9422035E-01
        4   -1    0    0  501    0  0.00000000000E+00  0.00000000000E+00  0.46932436116E+03  0.46932607948E+03  0.12699999809E+01 0. -1.
       -4   -1    0    0    0  501  0.00000000000E+00  0.00000000000E+00 -0.43419774079E+03  0.43419959812E+03  0.12699999809E+01 0.  1.
    10030    2    1    2    0    0  0.00000000000E+00  0.00000000000E+00  0.35126620378E+02  0.90352567760E+03  0.90284260567E+03 0.  0.
        1    1    3    3  502    0 -0.22047051046E+01  0.45076636990E+03  0.41789303155E+02  0.45270467950E+03  0.50400001928E-02 0. -1.
       -1    1    3    3    0  502  0.22047051046E+01 -0.45076636990E+03 -0.66626827778E+01  0.45082099810E+03  0.50400001928E-02 0.  1.
</event>
<event>
 5   0  0.6524705E-03  0.9269294E+03  0.7818609E-02  0.9392531E-01
        2   -1    0    0  501    0  0.00000000000E+00  0.00000000000E+00  0.11521799598E+04  0.11521799598E+04  0.25500000920E-02 0. -1.
       -2   -1    0    0    0  501  0.00000000000E+00  0.00000000000E+00 -0.18642880611E+03  0.18642880612E+03  0.25500000920E-02 0.  1.
    10030    2    1    2    0    0  0.00000000000E+00  0.00000000000E+00  0.96575115365E+03  0.13386087659E+04  0.92692941334E+03 0.  0.
        3    1    3    3  502    0 -0.21917739532E+03  0.22378944002E+03  0.97616692604E+03  0.10251937972E+04  0.10100000352E+00 0. -1.
       -3    1    3    3    0  502  0.21917739532E+03 -0.22378944002E+03 -0.10415772395E+02  0.31341496869E+03  0.10100000352E+00 0.  1.
</event>
<event>
 5   0  0.6524705E-03  0.8993687E+03  0.7818609E-02  0.9426371E-01
        2   -1    0    0  501    0  0.00000000000E+00  0.00000000000E+00  0.22823478215E+03  0.22823478217E+03  0.25500000920E-02 0. -1.
       -2   -1    0    0    0  501  0.00000000000E+00  0.00000000000E+00 -0.88600005134E+03  0.88600005134E+03  0.25500000920E-02 0.  1.
    10030    2    1    2    0    0  0.00000000000E+00  0.00000000000E+00 -0.65776526919E+03  0.11142348335E+04  0.89936873131E+03 0.  0.
        3    1    3    3  502    0 -0.23189847810E+03  0.10474260053E+03 -0.78822860975E+03  0.82828272223E+03  0.10100000352E+00 0.  1.
       -3    1    3    3    0  502  0.23189847810E+03 -0.10474260053E+03  0.13046334056E+03  0.28595211128E+03  0.10100000352E+00 0. -1.
</event>
<event>
 5   0  0.3794006E-03  0.9008615E+03  0.7818609E-02  0.9424505E-01
       -1   -1    0    0    0  501  0.00000000000E+00  0.00000000000E+00  0.23229172896E+03  0.23229172901E+03  0.50400001928E-02 0.  1.
        1   -1    0    0  501    0  0.00000000000E+00  0.00000000000E+00 -0.87341844167E+03  0.87341844168E+03  0.50400001928E-02 0. -1.
    10030    2    1    2    0    0  0.00000000000E+00  0.00000000000E+00 -0.64112671271E+03  0.11057101707E+04  0.90086154310E+03 0.  0.
        5    1    3    3  502    0  0.12487590755E+03 -0.66484519371E+02  0.20428355608E+03  0.24853177842E+03  0.46999998093E+01 0.  1.
       -5    1    3    3    0  502 -0.12487590755E+03  0.66484519371E+02 -0.84541026879E+03  0.85717839227E+03  0.46999998093E+01 0. -1.
</event>
<event>
 5   0  0.6724773E-03  0.8978483E+03  0.7818609E-02  0.9428275E-01
        2   -1    0    0  501    0  0.00000000000E+00  0.00000000000E+00  0.21550359520E+03  0.21550359522E+03  0.25500000920E-02 0. -1.
       -2   -1    0    0    0  501  0.00000000000E+00  0.00000000000E+00 -0.93517184115E+03  0.93517184116E+03  0.25500000920E-02 0.  1.
    10030    2    1    2    0    0  0.00000000000E+00  0.00000000000E+00 -0.71966824595E+03  0.11506754364E+04  0.89784830324E+03 0.  0.
        5    1    3    3  502    0  0.33373694978E+03 -0.22832923845E+03 -0.60964999176E+03  0.73158034092E+03  0.46999998093E+01 0.  1.
       -5    1    3    3    0  502 -0.33373694978E+03  0.22832923845E+03 -0.11001825419E+03  0.41909509545E+03  0.46999998093E+01 0. -1.
</event>
<event>
 5   0  0.6524705E-03  0.8814942E+03  0.7818609E-02  0.9449015E-01
       -2   -1    0    0    0  501  0.00000000000E+00  0.00000000000E+00  0.92745280201E+02  0.92745280236E+02  0.25500000920E-02 0.  1.
        2   -1    0    0  501    0  0.00000000000E+00  0.00000000000E+00 -0.20945325351E+04  0.20945325351E+04  0.25500000920E-02 0. -1.
    10030    2    1    2    0    0  0.00000000000E+00  0.00000000000E+00 -0.20017872549E+04  0.21872778154E+04  0.88149420169E+03 0.  0.
        3    1    3    3  502    0  0.20450371608E+03 -0.37947824638E+03 -0.77303664746E+03  0.88510517899E+03  0.10100000352E+00 0.  1.
       -3    1    3    3    0  502 -0.20450371608E+03  0.37947824638E+03 -0.12287506075E+04  0.13021726364E+04  0.10100000352E+00 0. -1.
</event>
<event>
 5   0  0.3943549E-03  0.9035547E+03  0.7818609E-02  0.9421149E-01
        1   -1    0    0  501    0  0.00000000000E+00  0.00000000000E+00  0.68811639059E+03  0.68811639061E+03  0.50400001928E-02 0.  1.
       -1   -1    0    0    0  501  0.00000000000E+00  0.00000000000E+00 -0.29661081065E+03  0.29661081069E+03  0.50400001928E-02 0. -1.
    10030    2    1    2    0    0  0.00000000000E+00  0.00000000000E+00  0.39150557994E+03  0.98472720130E+03  0.90355467010E+03 0.  0.
        3    1    3    3  502    0 -0.14258079952E+03 -0.49860130164E+02  0.65978203222E+03  0.67685128145E+03  0.10100000352E+00 0.  1.
       -3    1    3    3    0  502  0.14258079952E+03  0.49860130164E+02 -0.26827645228E+03  0.30787591984E+03  0.10100000352E+00 0. -1.
</event>
<event>
 5   0  0.3943549E-03  0.8979601E+03  0.7818609E-02  0.9428135E-01
       -1   -1    0    0    0  501  0.00000000000E+00  0.00000000000E+00  0.45352589642E+03  0.45352589645E+03  0.50400001928E-02 0. -1.
        1   -1    0    0  501    0  0.00000000000E+00  0.00000000000E+00 -0.44447974759E+03  0.44447974762E+03  0.50400001928E-02 0.  1.
    10030    2    1    2    0    0  0.00000000000E+00  0.00000000000E+00  0.90461488289E+01  0.89800564406E+03  0.89796007927E+03 0.  0.
        3    1    3    3  502    0  0.10238878989E+03  0.34276472106E+03  0.27585205959E+03  0.45173608145E+03  0.10100000352E+00 0. -1.
       -3    1    3    3    0  502 -0.10238878989E+03 -0.34276472106E+03 -0.26680591076E+03  0.44626956262E+03  0.10100000352E+00 0.  1.
</event>
<event>
 5   0  0.3998066E-03  0.8936273E+03  0.7818609E-02  0.9433583E-01
        1   -1    0    0  501    0  0.00000000000E+00  0.00000000000E+00  0.11050894363E+04  0.11050894364E+04  0.50400001928E-02 0. -1.
       -1   -1    0    0    0  501  0.00000000000E+00  0.00000000000E+00 -0.18065725321E+03  0.18065725328E+03  0.50400001928E-02 0.  1.
    10030    2    1    2    0    0  0.00000000000E+00  0.00000000000E+00  0.92443218314E+03  0.12857466896E+04  0.89362726497E+03 0.  0.
        4    1    3    3  502    0 -0.15401920612E+03 -0.13822994193E+03  0.10319706226E+04  0.10525181289E+04  0.12699999809E+01 0. -1.
       -4    1    3    3    0  502  0.15401920612E+03  0.13822994193E+03 -0.10753843949E+03  0.23322856078E+03  0.12699999809E+01 0.  1.
</event>
<event>
 5   0  0.6863405E-03  0.8908177E+03  0.7818609E-02  0.9437133E-01
       -2   -1    0    0    0  501  0.00000000000E+00  0.00000000000E+00  0.16631461130E+03  0.16631461132E+03  0.25500000920E-02 0. -1.
        2   -1    0    0  501    0  0.00000000000E+00  0.00000000000E+00 -0.11928538350E+04  0.11928538350E+04  0.25500000920E-02 0.  1.
    10030    2    1    2    0    0  0.00000000000E+00  0.00000000000E+00 -0.10265392237E+04  0.13591684463E+04  0.89081765120E+03 0.  0.
        1    1    3    3  502    0 -0.14719105757E+03 -0.77130032169E+02 -0.11437859254E+04  0.11557943124E+04  0.50400001928E-02 0.  1.
       -1    1    3    3    0  502  0.14719105757E+03  0.77130032169E+02  0.11724670169E+03  0.20337413398E+03  0.50400001928E-02 0. -1.
</event>
<event>
 5   0  0.2560250E-03  0.9006881E+03  0.7818609E-02  0.9424722E-01
        4   -1    0    0  501    0  0.00000000000E+00  0.00000000000E+00  0.13191789140E+03  0.13192400453E+03  0.12699999809E+01 0.  1.
       -4   -1    0    0    0  501  0.00000000000E+00  0.00000000000E+00 -0.15373520209E+04  0.15373525455E+04  0.12699999809E+01 0. -1.
    10030    2    1    2    0    0  0.00000000000E+00  0.00000000000E+00 -0.14054341295E+04  0.16692765500E+04  0.90068813028E+03 0.  0.
        4    1    3    3  502    0  0.36985508458E+03 -0.24910209385E+03 -0.81939662482E+03  0.93287570363E+03  0.12699999809E+01 0. -1.
       -4    1    3    3    0  502 -0.36985508458E+03  0.24910209385E+03 -0.58603750468E+03  0.73640084637E+03  0.12699999809E+01 0.  1.
</event>
<event>
 5   0  0.6609191E-03  0.9017912E+03  0.7818609E-02  0.9423345E-01
        2   -1    0    0  501    0  0.00000000000E+00  0.00000000000E+00  0.56139998759E+03  0.56139998759E+03  0.25500000920E-02 0.  1.
       -2   -1    0    0    0  501  0.00000000000E+00  0.00000000000E+00 -0.36214260507E+03  0.36214260508E+03  0.25500000920E-02 0. -1.
    10030    2    1    2    0    0  0.00000000000E+00  0.00000000000E+00  0.19925738252E+03  0.92354259267E+03  0.90179122638E+03 0.  0.
        2    1    3    3  502    0  0.79036342187E+02  0.31468977561E+03  0.42027883171E+03  0.53095262938E+03  0.25500000920E-02 0.  1.
       -2    1    3    3    0  502 -0.79036342187E+02 -0.31468977561E+03 -0.22102144919E+03  0.39258996328E+03  0.25500000920E-02 0. -1.
</event>
<event>
 5   0  0.6524705E-03  0.9020100E+03  0.7818609E-02  0.9423072E-01
        2   -1    0    0  501    0  0.00000000000E+00  0.00000000000E+00  0.92717545856E+03  0.92717545857E+03  0.25500000920E-02 0. -1.
       -2   -1    0    0    0  501  0.00000000000E+00  0.00000000000E+00 -0.21938187721E+03  0.21938187722E+03  0.25500000920E-02 0.  1.
    10030    2    1    2    0    0  0.00000000000E+00  0.00000000000E+00  0.70779358135E+03  0.11465573358E+04  0.90200996139E+03 0.  0.
        3    1    3    3  502    0  0.49885259323E+02 -0.42899402930E+03  0.18874458461E+03  0.47132679183E+03  0.10100000352E+00 0. -1.
       -3    1    3    3    0  502 -0.49885259323E+02  0.42899402930E+03  0.51904899675E+03  0.67523054396E+03  0.10100000352E+00 0.  1.
</event>
<event>
 5   0  0.3927993E-03  0.9129148E+03  0.7818609E-02  0.9409580E-01
       -1   -1    0    0    0  501  0.00000000000E+00  0.00000000000E+00  0.17156484058E+03  0.17156484066E+03  0.50400001928E-02 0.  1.
        1   -1    0    0  501    0  0.00000000000E+00  0.00000000000E+00 -0.12144292600E+04  0.12144292600E+04  0.50400001928E-02 0. -1.
    10030    2    1    2    0    0  0.00000000000E+00  0.00000000000E+00 -0.10428644195E+04  0.13859941007E+04  0.91291480973E+03 0.  0.
        2    1    3    3  502    0 -0.28023914052E+03  0.28168787352E+03 -0.18035437493E+03  0.43635963899E+03  0.25500000920E-02 0. -1.
       -2    1    3    3    0  502  0.28023914052E+03 -0.28168787352E+03 -0.86251004452E+03  0.94963446172E+03  0.25500000920E-02 0.  1.
</event>
<event>
 5   0  0.3969536E-03  0.9084548E+03  0.7818609E-02  0.9415074E-01
       -1   -1    0    0    0  501  0.00000000000E+00  0.00000000000E+00  0.33701188304E+03  0.33701188308E+03  0.50400001928E-02 0.  1.
        1   -1    0    0  501    0  0.00000000000E+00  0.00000000000E+00 -0.61221142858E+03  0.61221142860E+03  0.50400001928E-02 0. -1.
    10030    2    1    2    0    0  0.00000000000E+00  0.00000000000E+00 -0.27519954554E+03  0.94922331168E+03  0.90845479005E+03 0.  0.
        1    1    3    3  502    0  0.32716195830E+03 -0.87500448156E+00 -0.46683846136E+03  0.57006478721E+03  0.50400001928E-02 0. -1.
       -1    1    3    3    0  502 -0.32716195830E+03  0.87500448156E+00  0.19163891582E+03  0.37915852446E+03  0.50400001928E-02 0.  1.
</event>
<event>
 5   0  0.6524705E-03  0.8968740E+03  0.7818609E-02  0.9429497E-01
       -2   -1    0    0    0  501  0.00000000000E+00  0.00000000000E+00  0.27884969394E+03  0.27884969395E+03  0.25500000920E-02 0.  1.
        2   -1    0    0  501    0  0.00000000000E+00  0.00000000000E+00 -0.72116186416E+03  0.72116186416E+03  0.25500000920E-02 0. -1.
    10030    2    1    2    0    0  0.00000000000E+00  0.00000000000E+00 -0.44231217022E+03  0.10000115581E+04  0.89687404937E+03 0.  0.
        3    1    3    3  502    0 -0.40599546878E+03  0.16751950061E+03 -0.32212733457E+03  0.54466607535E+03  0.10100000352E+00 0. -1.
       -3    1    3    3    0  502  0.40599546878E+03 -0.16751950061E+03 -0.12018483564E+03  0.45534548277E+03  0.10100000352E+00 0.  1.
</event>
<event>
 5   0  0.6724773E-03  0.8695757E+03  0.7818609E-02  0.9464433E-01
       -2   -1    0    0    0  501  0.00000000000E+00  0.00000000000E+00  0.18744458683E+03  0.18744458685E+03  0.25500000920E-02 0.  1.
        2   -1    0    0  501    0  0.00000000000E+00  0.00000000000E+00 -0.10085138488E+04  0.10085138488E+04  0.25500000920E-02 0. -1.
    10030    2    1    2    0    0  0.00000000000E+00  0.00000000000E+00 -0.82106926196E+03  0.11959584356E+04  0.86957567057E+03 0.  0.
        5    1    3    3  502    0  0.14111723522E+03  0.12209855263E+03 -0.95059909209E+03  0.96875324749E+03  0.46999998093E+01 0. -1.
       -5    1    3    3    0  502 -0.14111723522E+03 -0.12209855263E+03  0.12952983013E+03  0.22720518815E+03  0.46999998093E+01 0.  1.
</event>
<event>
 5   0  0.3943549E-03  0.8940532E+03  0.7818609E-02  0.9433046E-01
       -1   -1    0    0    0  501  0.00000000000E+00  0.00000000000E+00  0.43965730294E+03  0.43965730297E+03  0.50400001928E-02 0. -1.
        1   -1    0    0  501    0  0.00000000000E+00  0.00000000000E+00 -0.45451943566E+03  0.45451943568E+03  0.50400001928E-02 0.  1.
    10030    2    1    2    0    0  0.00000000000E+00  0.00000000000E+00 -0.14862132713E+02  0.89417673866E+03  0.89405321820E+03 0.  0.
        3    1    3    3  502    0 -0.86875587822E+02  0.23484224085E+03  0.36293689693E+03  0.44093247465E+03  0.10100000352E+00 0. -1.
       -3    1    3    3    0  502  0.86875587822E+02 -0.23484224085E+03 -0.37779902965E+03  0.45324426400E+03  0.10100000352E+00 0.  1.
</event>
<event>
 5   0  0.3927993E-03  0.9016099E+03  0.7818609E-02  0.9423571E-01
       -1   -1    0    0    0  501  0.00000000000E+00  0.00000000000E+00  0.96941719628E+03  0.96941719629E+03  0.50400001928E-02 0.  1.
        1   -1    0    0  501    0  0.00000000000E+00  0.00000000000E+00 -0.20963636441E+03  0.20963636447E+03  0.50400001928E-02 0. -1.
    10030    2    1    2    0    0  0.00000000000E+00  0.00000000000E+00  0.75978083186E+03  0.11790535608E+04  0.90160988608E+03 0.  0.
        2    1    3    3  502    0 -0.55868914366E+02  0.20449527560E+03  0.90016829074E+03  0.92479327690E+03  0.25500000920E-02 0.  1.
       -2    1    3    3    0  502  0.55868914366E+02 -0.20449527560E+03 -0.14038745888E+03  0.25426028387E+03  0.25500000920E-02 0. -1.
</event>
<event>
 5   0  0.3927993E-03  0.8928062E+03  0.7818609E-02  0.9434619E-01
        1   -1    0    0  501    0  0.00000000000E+00  0.00000000000E+00  0.12416673591E+04  0.12416673591E+04  0.50400001928E-02 0.  1.
       -1   -1    0    0    0  501  0.00000000000E+00  0.00000000000E+00 -0.16049042595E+03  0.16049042603E+03  0.50400001928E-02 0. -1.
    10030    2    1    2    0    0  0.00000000000E+00  0.00000000000E+00  0.10811769331E+04  0.14021577851E+04  0.89280619041E+03 0.  0.
        2    1    3    3  502    0 -0.33190270051E+03 -0.26632846203E+03  0.75237677072E+03  0.86438478551E+03  0.25500000920E-02 0.  1.
       -2    1    3    3    0  502  0.33190270051E+03  0.26632846203E+03  0.32880016239E+03  0.53777299959E+03  0.25500000920E-02 0. -1.
</event>
<event>
 5   0  0.6534628E-03  0.8985133E+03  0.7818609E-02  0.9427442E-01
       -2   -1    0    0    0  501  0.00000000000E+00  0.00000000000E+00  0.22319999236E+03  0.22319999237E+03  0.25500000920E-02 0.  1.
        2   -1    0    0  501    0  0.00000000000E+00  0.00000000000E+00 -0.90426320422E+03  0.90426320423E+03  0.25500000920E-02 0. -1.
    10030    2    1    2    0    0  0.00000000000E+00  0.00000000000E+00 -0.68106321187E+03  0.11274631966E+04  0.89851330604E+03 0.  0.
        4    1    3    3  502    0 -0.41238905057E+02 -0.35498460831E+03  0.10791426630E+01  0.35737584820E+03  0.12699999809E+01 0.  1.
       -4    1    3    3    0  502  0.41238905057E+02  0.35498460831E+03 -0.68214235453E+03  0.77008734840E+03  0.12699999809E+01 0. -1.
</event>
<event>
 5   0  0.3794006E-03  0.9050625E+03  0.7818609E-02  0.9419275E-01
        1   -1    0    0  501    0  0.00000000000E+00  0.00000000000E+00  0.25653797933E+03  0.25653797938E+03  0.50400001928E-02 0.  1.
       -1   -1    0    0    0  501  0.00000000000E+00  0.00000000000E+00 -0.79826198709E+03  0.79826198710E+03  0.50400001928E-02 0. -1.
    10030    2    1    2    0    0  0.00000000000E+00  0.00000000000E+00 -0.54172400776E+03  0.10547999665E+04  0.90506246675E+03 0.  0.
        5    1    3    3  502    0  0.36742107975E+03  0.18726491349E+03 -0.48794781655E+03  0.63889088219E+03  0.46999998093E+01 0. -1.
       -5    1    3    3    0  502 -0.36742107975E+03 -0.18726491349E+03 -0.53776191207E+02  0.41590908430E+03  0.46999998093E+01 0.  1.
</event>
<event>
 5   0  0.6724773E-03  0.8995642E+03  0.7818609E-02  0.9426126E-01
       -2   -1    0    0    0  501  0.00000000000E+00  0.00000000000E+00  0.13825704049E+03  0.13825704052E+03  0.25500000920E-02 0.  1.
        2   -1    0    0  501    0  0.00000000000E+00  0.00000000000E+00 -0.14632451047E+04  0.14632451047E+04  0.25500000920E-02 0. -1.
    10030    2    1    2    0    0  0.00000000000E+00  0.00000000000E+00 -0.13249880642E+04  0.16015021452E+04  0.89956420050E+03 0.  0.
        5    1    3    3  502    0 -0.44025535278E+02 -0.23267684780E+03  0.18238645845E+02  0.23755315502E+03  0.46999998093E+01 0.  1.
       -5    1    3    3    0  502  0.44025535278E+02  0.23267684780E+03 -0.13432267100E+04  0.13639489902E+04  0.46999998093E+01 0. -1.
</event>
<event>
 5   0  0.3927993E-03  0.9356596E+03  0.7818609E-02  0.9382071E-01
       -1   -1    0    0    0  501  0.00000000000E+00  0.00000000000E+00  0.17071769362E+03  0.17071769369E+03  0.50400001928E-02 0. -1.
        1   -1    0    0  501    0  0.00000000000E+00  0.00000000000E+00 -0.12820272041E+04  0.12820272041E+04  0.50400001928E-02 0.  1.
    10030    2    1    2    0    0  0.00000000000E+00  0.00000000000E+00 -0.11113095105E+04  0.14527448978E+04  0.93565961227E+03 0.  0.
        2    1    3    3  502    0  0.34252014823E+03  0.27964550262E+03 -0.31843522215E+03  0.54490609263E+03  0.25500000920E-02 0. -1.
       -2    1    3    3    0  502 -0.34252014823E+03 -0.27964550262E+03 -0.79287428837E+03  0.90783880521E+03  0.25500000920E-02 0.  1.
</event>
<event>
 5   0  0.6863405E-03  0.9222444E+03  0.7818609E-02  0.9398194E-01
       -2   -1    0    0    0  501  0.00000000000E+00  0.00000000000E+00  0.11037611519E+03  0.11037611522E+03  0.25500000920E-02 0.  1.
        2   -1    0    0  501    0  0.00000000000E+00  0.00000000000E+00 -0.19264465491E+04  0.19264465491E+04  0.25500000920E-02 0. -1.
    10030    2    1    2    0    0  0.00000000000E+00  0.00000000000E+00 -0.18160704339E+04  0.20368226643E+04  0.92224440632E+03 0.  0.
        1    1    3    3  502    0  0.40122363594E+03  0.39883358671E+02 -0.14021909978E+04  0.14590101723E+04  0.50400001928E-02 0. -1.
       -1    1    3    3    0  502 -0.40122363594E+03 -0.39883358671E+02 -0.41387943603E+03  0.57781249202E+03  0.50400001928E-02 0.  1.
</event>
<event>
 5   0  0.3794006E-03  0.8965342E+03  0.7818609E-02  0.9429924E-01
        1   -1    0    0  501    0  0.00000000000E+00  0.00000000000E+00  0.39130695887E+03  0.39130695890E+03  0.50400001928E-02 0.  1.
       -1   -1    0    0    0  501  0.00000000000E+00  0.00000000000E+00 -0.51351857631E+03  0.51351857633E+03  0.50400001928E-02 0. -1.
    10030    2    1    2    0    0  0.00000000000E+00  0.00000000000E+00 -0.12221161744E+03  0.90482553523E+03  0.89653419889E+03 0.  0.
        5    1    3    3  502    0 -0.20990450349E+03 -0.26937181095E+03  0.23192438065E+03  0.41283420577E+03  0.46999998093E+01 0.  1.
       -5    1    3    3    0  502  0.20990450349E+03  0.26937181095E+03 -0.35413599809E+03  0.49199132946E+03  0.46999998093E+01 0. -1.
</event>
<event>
 5   0  0.2560250E-03  0.9032129E+03  0.7818609E-02  0.9421574E-01
       -4   -1    0    0    0  501  0.00000000000E+00  0.00000000000E+00  0.94079419742E+03  0.94079505462E+03  0.12699999809E+01 0. -1.
        4   -1    0    0  501    0  0.00000000000E+00  0.00000000000E+00 -0.21678037171E+03  0.21678409180E+03  0.12699999809E+01 0.  1.
    10030    2    1    2    0    0  0.00000000000E+00  0.00000000000E+00  0.72401382572E+03  0.11575791464E+04  0.90321285443E+03 0.  0.
        5    1    3    3  502    0  0.27612134794E+03 -0.66697241996E+02 -0.87904682620E+02  0.29739005381E+03  0.46999998093E+01 0.  1.
       -5    1    3    3    0  502 -0.27612134794E+03  0.66697241996E+02  0.81191850834E+03  0.86018909262E+03  0.46999998093E+01 0. -1.
</event>
<event>
 5   0  0.6609191E-03  0.9205209E+03  0.7818609E-02  0.9400287E-01
       -2   -1    0    0    0  501  0.00000000000E+00  0.00000000000E+00  0.33872279203E+03  0.33872279203E+03  0.25500000920E-02 0. -1.
        2   -1    0    0  501    0  0.00000000000E+00  0.00000000000E+00 -0.62540721630E+03  0.62540721631E+03  0.25500000920E-02 0.  1.
    10030    2    1    2    0    0  0.00000000000E+00  0.00000000000E+00 -0.28668442428E+03  0.96413000834E+03  0.92052089268E+03 0.  0.
        2    1    3    3  502    0 -0.15224610519E+03  0.41272217051E+03 -0.28511048520E+03  0.52421985403E+03  0.25500000920E-02 0.  1.
       -2    1    3    3    0  502  0.15224610519E+03 -0.41272217051E+03 -0.15739390776E+01  0.43991015432E+03  0.25500000920E-02 0. -1.
</event>
<event>
 5   0  0.6609191E-03  0.9102216E+03  0.7818609E-02  0.9412893E-01
       -2   -1    0    0    0  501  0.00000000000E+00  0.00000000000E+00  0.15253312979E+03  0.15253312981E+03  0.25500000920E-02 0.  1.
        2   -1    0    0  501    0  0.00000000000E+00  0.00000000000E+00 -0.13579072954E+04  0.13579072954E+04  0.25500000920E-02 0. -1.
    10030    2    1    2    0    0  0.00000000000E+00  0.00000000000E+00 -0.12053741656E+04  0.15104404252E+04  0.91022162079E+03 0.  0.
        2    1    3    3  502    0  0.32538424438E+03  0.30365195431E+03 -0.44485504635E+03  0.62926578496E+03  0.25500000920E-02 0.  1.
       -2    1    3    3    0  502 -0.32538424438E+03 -0.30365195431E+03 -0.76051911924E+03  0.88117464023E+03  0.25500000920E-02 0. -1.
</event>
<event>
 5   0  0.6534628E-03  0.8977155E+03  0.7818609E-02  0.9428442E-01
       -2   -1    0    0    0  501  0.00000000000E+00  0.00000000000E+00  0.18003487430E+03  0.18003487432E+03  0.25500000920E-02 0. -1.
        2   -1    0    0  501    0  0.00000000000E+00  0.00000000000E+00 -0.11190791221E+04  0.11190791221E+04  0.25500000920E-02 0.  1.
    10030    2    1    2    0    0  0.00000000000E+00  0.00000000000E+00 -0.93904424777E+03  0.12991139964E+04  0.89771547629E+03 0.  0.
        4    1    3    3  502    0 -0.32142555151E+03  0.20380837099E+03 -0.12517912810E+03  0.40065404561E+03  0.12699999809E+01 0. -1.
       -4    1    3    3    0  502  0.32142555151E+03 -0.20380837099E+03 -0.81386511967E+03  0.89845995078E+03  0.12699999809E+01 0.  1.
</event>
<event>
 5   0  0.6609191E-03  0.9116213E+03  0.7818609E-02  0.9411170E-01
       -2   -1    0    0    0  501  0.00000000000E+00  0.00000000000E+00  0.85622030266E+03  0.85622030266E+03  0.25500000920E-02 0.  1.
        2   -1    0    0  501    0  0.00000000000E+00  0.00000000000E+00 -0.24265176829E+03  0.24265176831E+03  0.25500000920E-02 0. -1.
    10030    2    1    2    0    0  0.00000000000E+00  0.00000000000E+00  0.61356853437E+03  0.10988720710E+04  0.91162134793E+03 0.  0.
        2    1    3    3  502    0 -0.36210317630E+03 -0.27669369144E+03  0.29565392064E+03  0.54322127164E+03  0.25500000920E-02 0.  1.
       -2    1    3    3    0  502  0.36210317630E+03  0.27669369144E+03  0.31791461373E+03  0.55565079933E+03  0.25500000920E-02 0. -1.
</event>
<event>
 5   0  0.6609191E-03  0.9014397E+03  0.7818609E-02  0.9423784E-01
        2   -1    0    0  501    0  0.00000000000E+00  0.00000000000E+00  0.54919323738E+03  0.54919323738E+03  0.25500000920E-02 0.  1.
       -2   -1    0    0    0  501  0.00000000000E+00  0.00000000000E+00 -0.36990327473E+03  0.36990327473E+03  0.25500000920E-02 0. -1.
    10030    2    1    2    0    0  0.00000000000E+00  0.00000000000E+00  0.17928996265E+03  0.91909651212E+03  0.90143968621E+03 0.  0.
        2    1    3    3  502    0 -0.15620977671E+03  0.59081054113E+02 -0.33719125091E+03  0.37628447350E+03  0.25500000920E-02 0. -1.
       -2    1    3    3    0  502  0.15620977671E+03 -0.59081054113E+02  0.51648121356E+03  0.54281203862E+03  0.25500000920E-02 0.  1.
</event>
<event>
 5   0  0.6524705E-03  0.8981683E+03  0.7818609E-02  0.9427874E-01
       -2   -1    0    0    0  501  0.00000000000E+00  0.00000000000E+00  0.23599201411E+03  0.23599201412E+03  0.25500000920E-02 0.  1.
        2   -1    0    0  501    0  0.00000000000E+00  0.00000000000E+00 -0.85459057693E+03  0.85459057694E+03  0.25500000920E-02 0. -1.
    10030    2    1    2    0    0  0.00000000000E+00  0.00000000000E+00 -0.61859856283E+03  0.10905825911E+04  0.89816825037E+03 0.  0.
        3    1    3    3  502    0  0.33301096359E+03  0.23331986722E+03 -0.54077516244E+03  0.67658868511E+03  0.10100000352E+00 0. -1.
       -3    1    3    3    0  502 -0.33301096359E+03 -0.23331986722E+03 -0.77823400387E+02  0.41399390594E+03  0.10100000352E+00 0.  1.
</event>
<event>
 5   0  0.3998066E-03  0.8978837E+03  0.7818609E-02  0.9428231E-01
        1   -1    0    0  501    0  0.00000000000E+00  0.00000000000E+00  0.99654024347E+03  0.99654024348E+03  0.50400001928E-02 0. -1.
       -1   -1    0    0    0  501  0.00000000000E+00  0.00000000000E+00 -0.20224851051E+03  0.20224851057E+03  0.50400001928E-02 0.  1.
    10030    2    1    2    0    0  0.00000000000E+00  0.00000000000E+00  0.79429173296E+03  0.11987887540E+04  0.89788368945E+03 0.  0.
        4    1    3    3  502    0  0.22928152871E+03  0.27634941210E+03  0.75690784553E+03  0.83776495301E+03  0.12699999809E+01 0. -1.
       -4    1    3    3    0  502 -0.22928152871E+03 -0.27634941210E+03  0.37383887431E+02  0.36102380103E+03  0.12699999809E+01 0.  1.
</event>
<event>
 5   0  0.3969536E-03  0.9103234E+03  0.7818609E-02  0.9412768E-01
       -1   -1    0    0    0  501  0.00000000000E+00  0.00000000000E+00  0.22333680287E+03  0.22333680293E+03  0.50400001928E-02 0.  1.
        1   -1    0    0  501    0  0.00000000000E+00  0.00000000000E+00 -0.92762209979E+03  0.92762209980E+03  0.50400001928E-02 0. -1.
    10030    2    1    2    0    0  0.00000000000E+00  0.00000000000E+00 -0.70428529692E+03  0.11509589027E+04  0.91032335811E+03 0.  0.
        1    1    3    3  502    0  0.25578765622E+02 -0.87944648231E+02 -0.91585094571E+03  0.92041919210E+03  0.50400001928E-02 0. -1.
       -1    1    3    3    0  502 -0.25578765622E+02  0.87944648231E+02  0.21156564879E+03  0.23053971063E+03  0.50400001928E-02 0.  1.
</event>
<event>
 5   0  0.3943549E-03  0.8999263E+03  0.7818609E-02  0.9425674E-01
        1   -1    0    0  501    0  0.00000000000E+00  0.00000000000E+00  0.10086621516E+04  0.10086621517E+04  0.50400001928E-02 0.  1.
       -1   -1    0    0    0  501  0.00000000000E+00  0.00000000000E+00 -0.20072809028E+03  0.20072809034E+03  0.50400001928E-02 0. -1.
    10030    2    1    2    0    0  0.00000000000E+00  0.00000000000E+00  0.80793406137E+03  0.12093902420E+04  0.89992628028E+03 0.  0.
        3    1    3    3  502    0  0.24803819741E+03  0.51415778741E+02 -0.95803986948E+02  0.27082271654E+03  0.10100000352E+00 0. -1.
       -3    1    3    3    0  502 -0.24803819741E+03 -0.51415778741E+02  0.90373804831E+03  0.93856752546E+03  0.10100000352E+00 0.  1.
</event>
<event>
 5   0  0.3927993E-03  0.8995104E+03  0.7818609E-02  0.9426194E-01
        1   -1    0    0  501    0  0.00000000000E+00  0.00000000000E+00  0.80368467402E+03  0.80368467403E+03  0.50400001928E-02 0.  1.
       -1   -1    0    0    0  501  0.00000000000E+00  0.00000000000E+00 -0.25169044045E+03  0.25169044050E+03  0.50400001928E-02 0. -1.
    10030    2    1    2    0    0  0.00000000000E+00  0.00000000000E+00  0.55199423357E+03  0.10553751145E+04  0.89951042156E+03 0.  0.
        2    1    3    3  502    0 -0.40727278941E+03 -0.15346662273E+03  0.14296268484E+03  0.45810638344E+03  0.25500000920E-02 0.  1.
       -2    1    3    3    0  502  0.40727278941E+03  0.15346662273E+03  0.40903154872E+03  0.59726873109E+03  0.25500000920E-02 0. -1.
</event>
<event>
 5   0  0.3943549E-03  0.8980967E+03  0.7818609E-02  0.9427964E-01
       -1   -1    0    0    0  501  0.00000000000E+00  0.00000000000E+00  0.11240092898E+03  0.11240092909E+03  0.50400001928E-02 0. -1.
        1   -1    0    0  501    0  0.00000000000E+00  0.00000000000E+00 -0.17939748227E+04  0.17939748227E+04  0.50400001928E-02 0.  1.
    10030    2    1    2    0    0  0.00000000000E+00  0.00000000000E+00 -0.16815738937E+04  0.19063757518E+04  0.89809673587E+03 0.  0.
        3    1    3    3  502    0  0.10592295021E+03 -0.20316918299E+03 -0.16605582365E+04  0.16762908623E+04  0.10100000352E+00 0.  1.
       -3    1    3    3    0  502 -0.10592295021E+03  0.20316918299E+03 -0.21015657248E+02  0.23008488944E+03  0.10100000352E+00 0. -1.
</event>
<event>
 5   0  0.6534628E-03  0.8937834E+03  0.7818609E-02  0.9433386E-01
        2   -1    0    0  501    0  0.00000000000E+00  0.00000000000E+00  0.64498944856E+03  0.64498944857E+03  0.25500000920E-02 0. -1.
       -2   -1    0    0    0  501  0.00000000000E+00  0.00000000000E+00 -0.30963636588E+03  0.30963636589E+03  0.25500000920E-02 0.  1.
    10030    2    1    2    0    0  0.00000000000E+00  0.00000000000E+00  0.33535308268E+03  0.95462581446E+03  0.89378339409E+03 0.  0.
        4    1    3    3  502    0 -0.38114562899E+03  0.20318216877E+03  0.45170900329E+02  0.43427756947E+03  0.12699999809E+01 0.  1.
       -4    1    3    3    0  502  0.38114562899E+03 -0.20318216877E+03  0.29018218236E+03  0.52034824499E+03  0.12699999809E+01 0. -1.
</event>
<event>
 5   0  0.6534628E-03  0.8901327E+03  0.7818609E-02  0.9438001E-01
       -2   -1    0    0    0  501  0.00000000000E+00  0.00000000000E+00  0.19411655097E+03  0.19411655099E+03  0.25500000920E-02 0.  1.
        2   -1    0    0  501    0  0.00000000000E+00  0.00000000000E+00 -0.10204386977E+04  0.10204386977E+04  0.25500000920E-02 0. -1.
    10030    2    1    2    0    0  0.00000000000E+00  0.00000000000E+00 -0.82632214675E+03  0.12145552487E+04  0.89013266538E+03 0.  0.
        4    1    3    3  502    0  0.34909141387E+03 -0.21947874494E+03 -0.18465204388E+03  0.45181160335E+03  0.12699999809E+01 0.  1.
       -4    1    3    3    0  502 -0.34909141387E+03  0.21947874494E+03 -0.64167010287E+03  0.76274364536E+03  0.12699999809E+01 0. -1.
</event>
<event>
 5   0  0.6609191E-03  0.9024107E+03  0.7818609E-02  0.9422573E-01
        2   -1    0    0  501    0  0.00000000000E+00  0.00000000000E+00  0.32795403657E+03  0.32795403658E+03  0.25500000920E-02 0.  1.
       -2   -1    0    0    0  501  0.00000000000E+00  0.00000000000E+00 -0.62077684966E+03  0.62077684967E+03  0.25500000920E-02 0. -1.
    10030    2    1    2    0    0  0.00000000000E+00  0.00000000000E+00 -0.29282281309E+03  0.94873088625E+03  0.90241071284E+03 0.  0.
        2    1    3    3  502    0  0.25941355118E+03 -0.15353295924E+03  0.20655747888E+03  0.36542270345E+03  0.25500000920E-02 0.  1.
       -2    1    3    3    0  502 -0.25941355118E+03  0.15353295924E+03 -0.49938029197E+03  0.58330818280E+03  0.25500000920E-02 0. -1.
</event>
<event>
 5   0  0.2560250E-03  0.8990070E+03  0.7818609E-02  0.9426824E-01
        3   -1    0    0  501    0  0.00000000000E+00  0.00000000000E+00  0.28677568391E+03  0.28677570169E+03  0.10100000352E+00 0.  1.
       -3   -1    0    0    0  501  0.00000000000E+00  0.00000000000E+00 -0.70456939048E+03  0.70456939772E+03  0.10100000352E+00 0. -1.
    10030    2    1    2    0    0  0.00000000000E+00  0.00000000000E+00 -0.41779370657E+03  0.99134509941E+03  0.89900696597E+03 0.  0.
        2    1    3    3  502    0  0.28441851924E+03 -0.34612272656E+03 -0.16825262643E+03  0.47854339640E+03  0.25500000920E-02 0.  1.
       -2    1    3    3    0  502 -0.28441851924E+03  0.34612272656E+03 -0.24954108014E+03  0.51280170301E+03  0.25500000920E-02 0. -1.
</event>
<event>
 5   0  0.3998066E-03  0.8985503E+03  0.7818609E-02  0.9427395E-01
        1   -1    0    0  501    0  0.00000000000E+00  0.00000000000E+00  0.19867935422E+04  0.19867935422E+04  0.50400001928E-02 0.  1.
       -1   -1    0    0    0  501  0.00000000000E+00  0.00000000000E+00 -0.10159493828E+03  0.10159493840E+03  0.50400001928E-02 0. -1.
    10030    2    1    2    0    0  0.00000000000E+00  0.00000000000E+00  0.18851986039E+04  0.20883884806E+04  0.89855031562E+03 0.  0.
        4    1    3    3  502    0  0.99603227814E+01 -0.14600591516E+03  0.19298394403E+04  0.19353807929E+04  0.12699999809E+01 0.  1.
       -4    1    3    3    0  502 -0.99603227814E+01  0.14600591516E+03 -0.44640836461E+02  0.15300768763E+03  0.12699999809E+01 0. -1.
</event>
<event>
 5   0  0.3943549E-03  0.9018710E+03  0.7818609E-02  0.9423246E-01
       -1   -1    0    0    0  501  0.00000000000E+00  0.00000000000E+00  0.26137933600E+03  0.26137933605E+03  0.50400001928E-02 0. -1.
        1   -1    0    0  501    0  0.00000000000E+00  0.00000000000E+00 -0.77796053173E+03  0.77796053175E+03  0.50400001928E-02 0.  1.
    10030    2    1    2    0    0  0.00000000000E+00  0.00000000000E+00 -0.51658119573E+03  0.10393398678E+04  0.90187096028E+03 0.  0.
        3    1    3    3  502    0 -0.12173002993E+03 -0.11144939348E+03  0.22532170101E+03  0.27930099649E+03  0.10100000352E+00 0. -1.
       -3    1    3    3    0  502  0.12173002993E+03  0.11144939348E+03 -0.74190289674E+03  0.76003887130E+03  0.10100000352E+00 0.  1.
</event>
<event>
 5   0  0.2560250E-03  0.9166589E+03  0.7818609E-02  0.9404993E-01
        3   -1    0    0  501    0  0.00000000000E+00  0.00000000000E+00  0.79635648000E+03  0.79635648640E+03  0.10100000352E+00 0. -1.
       -3   -1    0    0    0  501  0.00000000000E+00  0.00000000000E+00 -0.26378372883E+03  0.26378374817E+03  0.10100000352E+00 0.  1.
    10030    2    1    2    0    0  0.00000000000E+00  0.00000000000E+00  0.53257275116E+03  0.10601402346E+04  0.91665892330E+03 0.  0.
        5    1    3    3  502    0  0.25524295313E+03 -0.11154574589E+02  0.70632972083E+03  0.75113058397E+03  0.46999998093E+01 0. -1.
       -5    1    3    3    0  502 -0.25524295313E+03  0.11154574589E+02 -0.17375696966E+03  0.30900965059E+03  0.46999998093E+01 0.  1.
</event>
<event>
 5   0  0.3998066E-03  0.8986085E+03  0.7818609E-02  0.9427323E-01
       -1   -1    0    0    0  501  0.00000000000E+00  0.00000000000E+00  0.36877024260E+03  0.36877024263E+03  0.50400001928E-02 0.  1.
        1   -1    0    0  501    0  0.00000000000E+00  0.00000000000E+00 -0.54742573716E+03  0.54742573718E+03  0.50400001928E-02 0. -1.
    10030    2    1    2    0    0  0.00000000000E+00  0.00000000000E+00 -0.17865549456E+03  0.91619597981E+03  0.89860852861E+03 0.  0.
        4    1    3    3  502    0  0.51314473170E+02 -0.11854590038E+03 -0.52808306604E+03  0.54365397377E+03  0.12699999809E+01 0. -1.
       -4    1    3    3    0  502 -0.51314473170E+02  0.11854590038E+03  0.34942757148E+03  0.37254200604E+03  0.12699999809E+01 0.  1.
</event>
<event>
 5   0  0.3998066E-03  0.8991297E+03  0.7818609E-02  0.9426670E-01
       -1   -1    0    0    0  501  0.00000000000E+00  0.00000000000E+00  0.12424855987E+03  0.12424855997E+03  0.50400001928E-02 0.  1.
        1   -1    0    0  501    0  0.00000000000E+00  0.00000000000E+00 -0.16266469329E+04  0.16266469329E+04  0.50400001928E-02 0. -1.
    10030    2    1    2    0    0  0.00000000000E+00  0.00000000000E+00 -0.15023983730E+04  0.17508954929E+04  0.89912966568E+03 0.  0.
        4    1    3    3  502    0  0.11408737352E+03  0.28765121410E+03 -0.11615769081E+03  0.33053497818E+03  0.12699999809E+01 0.  1.
       -4    1    3    3    0  502 -0.11408737352E+03 -0.28765121410E+03 -0.13862406822E+04  0.14203605147E+04  0.12699999809E+01 0. -1.
</event>
<event>
 5   0  0.6863405E-03  0.8996026E+03  0.7818609E-02  0.9426078E-01
        2   -1    0    0  501    0  0.00000000000E+00  0.00000000000E+00  0.11941673774E+04  0.11941673774E+04  0.25500000920E-02 0. -1.
       -2   -1    0    0    0  501  0.00000000000E+00  0.00000000000E+00 -0.16942451294E+03  0.16942451296E+03  0.25500000920E-02 0.  1.
    10030    2    1    2    0    0  0.00000000000E+00  0.00000000000E+00  0.10247428644E+04  0.13635918903E+04  0.89960263738E+03 0.  0.
        1    1    3    3  502    0  0.15328851708E+02 -0.72425710406E+02  0.11848697716E+04  0.11871802024E+04  0.50400001928E-02 0. -1.
       -1    1    3    3    0  502 -0.15328851708E+02  0.72425710406E+02 -0.16012690717E+03  0.17641168796E+03  0.50400001928E-02 0.  1.
</event>
<event>
 5   0  0.6609191E-03  0.8977476E+03  0.7818609E-02  0.9428401E-01
       -2   -1    0    0    0  501  0.00000000000E+00  0.00000000000E+00  0.12762707672E+03  0.12762707675E+03  0.25500000920E-02 0.  1.
        2   -1    0    0  501    0  0.00000000000E+00  0.00000000000E+00 -0.15787222686E+04  0.15787222686E+04  0.25500000920E-02 0. -1.
    10030    2    1    2    0    0  0.00000000000E+00  0.00000000000E+00 -0.14510951919E+04  0.17063493454E+04  0.89774764410E+03 0.  0.
        2    1    3    3  502    0 -0.29997519140E+03 -0.23389205656E+02 -0.13586707075E+04  0.13915883952E+04  0.25500000920E-02 0. -1.
       -2    1    3    3    0  502  0.29997519140E+03  0.23389205656E+02 -0.92424484409E+02  0.31476095012E+03  0.25500000920E-02 0.  1.
</event>
<event>
 5   0  0.6524705E-03  0.8987678E+03  0.7818609E-02  0.9427123E-01
       -2   -1    0    0    0  501  0.00000000000E+00  0.00000000000E+00  0.53267721282E+03  0.53267721283E+03  0.25500000920E-02 0.  1.
        2   -1    0    0  501    0  0.00000000000E+00  0.00000000000E+00 -0.37911493009E+03  0.37911493010E+03  0.25500000920E-02 0. -1.
    10030    2    1    2    0    0  0.00000000000E+00  0.00000000000E+00  0.15356228273E+03  0.91179214293E+03  0.89876778827E+03 0.  0.
        3    1    3    3  502    0  0.14711191508E+03 -0.11264393121E+03 -0.33856021819E+03  0.38594507684E+03  0.10100000352E+00 0. -1.
       -3    1    3    3    0  502 -0.14711191508E+03  0.11264393121E+03  0.49212250092E+03  0.52584706608E+03  0.10100000352E+00 0.  1.
</event>
<event>
 5   0  0.6724773E-03  0.8993683E+03  0.7818609E-02  0.9426371E-01
       -2   -1    0    0    0  501  0.00000000000E+00  0.00000000000E+00  0.11167577365E+03  0.11167577368E+03  0.25500000920E-02 0.  1.
        2   -1    0    0  501    0  0.00000000000E+00  0.00000000000E+00 -0.18107402034E+04  0.18107402034E+04  0.25500000920E-02 0. -1.
    10030    2    1    2    0    0  0.00000000000E+00  0.00000000000E+00 -0.16990644297E+04  0.19224159771E+04  0.89936825189E+03 0.  0.
        5    1    3    3  502    0  0.27668238993E+02 -0.23905350904E+02 -0.18075046307E+04  0.18078805484E+04  0.46999998093E+01 0. -1.
       -5    1    3    3    0  502 -0.27668238993E+02  0.23905350904E+02  0.10844020094E+03  0.11453542871E+03  0.46999998093E+01 0.  1.
</event>
<event>
 5   0  0.3794006E-03  0.8973668E+03  0.7818609E-02  0.9428879E-01
       -1   -1    0    0    0  501  0.00000000000E+00  0.00000000000E+00  0.13843381426E+03  0.13843381435E+03  0.50400001928E-02 0. -1.
        1   -1    0    0  501    0  0.00000000000E+00  0.00000000000E+00 -0.14542458495E+04  0.14542458495E+04  0.50400001928E-02 0.  1.
    10030    2    1    2    0    0  0.00000000000E+00  0.00000000000E+00 -0.13158120353E+04  0.15926796639E+04  0.89736681442E+03 0.  0.
        5    1    3    3  502    0  0.14944046060E+03  0.22589763484E+03 -0.12927235354E+04  0.13208021887E+04  0.46999998093E+01 0.  1.
       -5    1    3    3    0  502 -0.14944046060E+03 -0.22589763484E+03 -0.23088499856E+02  0.27187747518E+03  0.46999998093E+01 0. -1.
</event>
<event>
 5   0  0.3927993E-03  0.9009007E+03  0.7818609E-02  0.9424456E-01
        1   -1    0    0  501    0  0.00000000000E+00  0.00000000000E+00  0.96439486064E+03  0.96439486065E+03  0.50400001928E-02 0.  1.
       -1   -1    0    0    0  501  0.00000000000E+00  0.00000000000E+00 -0.21039671359E+03  0.21039671365E+03  0.50400001928E-02 0. -1.
    10030    2    1    2    0    0  0.00000000000E+00  0.00000000000E+00  0.75399814704E+03  0.11747915743E+04  0.90090068116E+03 0.  0.
        2    1    3    3  502    0  0.85617026941E+02 -0.30306508447E+03  0.79697981301E+03  0.85694547264E+03  0.25500000920E-02 0.  1.
       -2    1    3    3    0  502 -0.85617026941E+02  0.30306508447E+03 -0.42981665963E+02  0.31784610166E+03  0.25500000920E-02 0. -1.
</event>
<event>
 5   0  0.3794006E-03  0.9078948E+03  0.7818609E-02  0.9415766E-01
        1   -1    0    0  501    0  0.00000000000E+00  0.00000000000E+00  0.18920244347E+04  0.18920244347E+04  0.50400001928E-02 0.  1.
       -1   -1    0    0    0  501  0.00000000000E+00  0.00000000000E+00 -0.10891416333E+03  0.10891416344E+03  0.50400001928E-02 0. -1.
    10030    2    1    2    0    0  0.00000000000E+00  0.00000000000E+00  0.17831102714E+04  0.20009385982E+04  0.90789483625E+03 0.  0.
        5    1    3    3  502    0  0.29610861238E+03  0.11508716426E+03  0.17698880320E+03  0.36369285415E+03  0.46999998093E+01 0. -1.
       -5    1    3    3    0  502 -0.29610861238E+03 -0.11508716426E+03  0.16061214682E+04  0.16372457440E+04  0.46999998093E+01 0.  1.
</event>
<event>
 5   0  0.6609191E-03  0.9009656E+03  0.7818609E-02  0.9424375E-01
        2   -1    0    0  501    0  0.00000000000E+00  0.00000000000E+00  0.83396191732E+03  0.83396191732E+03  0.25500000920E-02 0. -1.
       -2   -1    0    0    0  501  0.00000000000E+00  0.00000000000E+00 -0.24333815948E+03  0.24333815950E+03  0.25500000920E-02 0.  1.
    10030    2    1    2    0    0  0.00000000000E+00  0.00000000000E+00  0.59062375784E+03  0.10773000768E+04  0.90096561099E+03 0.  0.
        2    1    3    3  502    0  0.15460371381E+03 -0.32890904604E+03  0.61358675263E+03  0.71314246256E+03  0.25500000920E-02 0. -1.
       -2    1    3    3    0  502 -0.15460371381E+03  0.32890904604E+03 -0.22962994795E+02  0.36415761426E+03  0.25500000920E-02 0.  1.
</event>
<event>
 5   0  0.6863405E-03  0.9027440E+03  0.7818609E-02  0.9422158E-01
        2   -1    0    0  501    0  0.00000000000E+00  0.00000000000E+00  0.11507329912E+04  0.11507329912E+04  0.25500000920E-02 0. -1.
       -2   -1    0    0    0  501  0.00000000000E+00  0.00000000000E+00 -0.17704949730E+03  0.17704949732E+03  0.25500000920E-02 0.  1.
    10030    2    1    2    0    0  0.00000000000E+00  0.00000000000E+00  0.97368349388E+03  0.13277824885E+04  0.90274403377E+03 0.  0.
        1    1    3    3  502    0 -0.29112489180E+03 -0.12527785869E+03  0.14138923418E+02  0.31725093173E+03  0.50400001928E-02 0.  1.
       -1    1    3    3    0  502  0.29112489180E+03  0.12527785869E+03  0.95954457046E+03  0.10105315568E+04  0.50400001928E-02 0. -1.
</event>
<event>
 5   0  0.6863405E-03  0.8996286E+03  0.7818609E-02  0.9426046E-01
       -2   -1    0    0    0  501  0.00000000000E+00  0.00000000000E+00  0.17147216865E+04  0.17147216865E+04  0.25500000920E-02 0.  1.
        2   -1    0    0  501    0  0.00000000000E+00  0.00000000000E+00 -0.11799752335E+03  0.11799752338E+03  0.25500000920E-02 0. -1.
    10030    2    1    2    0    0  0.00000000000E+00  0.00000000000E+00  0.15967241631E+04  0.18327192099E+04  0.89962861730E+03 0.  0.
        1    1    3    3  502    0 -0.14053699649E+03 -0.10861142620E+03  0.16402583381E+04  0.16498468126E+04  0.50400001928E-02 0.  1.
       -1    1    3    3    0  502  0.14053699649E+03  0.10861142620E+03 -0.43534174932E+02  0.18287239731E+03  0.50400001928E-02 0. -1.
</event>
<event>
 5   0  0.6524705E-03  0.8971544E+03  0.7818609E-02  0.9429146E-01
       -2   -1    0    0    0  501  0.00000000000E+00  0.00000000000E+00  0.27621716713E+03  0.27621716714E+03  0.25500000920E-02 0.  1.
        2   -1    0    0  501    0  0.00000000000E+00  0.00000000000E+00 -0.72849021259E+03  0.72849021259E+03  0.25500000920E-02 0. -1.
    10030    2    1    2    0    0  0.00000000000E+00  0.00000000000E+00 -0.45227304546E+03  0.10047073797E+04  0.89715439654E+03 0.  0.
        3    1    3    3  502    0 -0.25975167170E+03 -0.34398740063E+03 -0.87058000300E+02  0.43974693673E+03  0.10100000352E+00 0.  1.
       -3    1    3    3    0  502  0.25975167170E+03  0.34398740063E+03 -0.36521504516E+03  0.56496044300E+03  0.10100000352E+00 0. -1.
</event>
<event>
 5   0  0.3998066E-03  0.9058762E+03  0.7818609E-02  0.9418266E-01
       -1   -1    0    0    0  501  0.00000000000E+00  0.00000000000E+00  0.13026387362E+03  0.13026387371E+03  0.50400001928E-02 0.  1.
        1   -1    0    0  501    0  0.00000000000E+00  0.00000000000E+00 -0.15749025603E+04  0.15749025603E+04  0.50400001928E-02 0. -1.
    10030    2    1    2    0    0  0.00000000000E+00  0.00000000000E+00 -0.14446386867E+04  0.17051664341E+04  0.90587616851E+03 0.  0.
        4    1    3    3  502    0 -0.36043886307E+03 -0.91830712517E+02 -0.23580745394E+03  0.44040415758E+03  0.12699999809E+01 0.  1.
       -4    1    3    3    0  502  0.36043886307E+03  0.91830712517E+02 -0.12088312328E+04  0.12647622765E+04  0.12699999809E+01 0. -1.
</event>
<event>
 5   0  0.6524705E-03  0.8999687E+03  0.7818609E-02  0.9425621E-01
        2   -1    0    0  501    0  0.00000000000E+00  0.00000000000E+00  0.26909928786E+03  0.26909928788E+03  0.25500000920E-02 0. -1.
       -2   -1    0    0    0  501  0.00000000000E+00  0.00000000000E+00 -0.75245805251E+03  0.75245805251E+03  0.25500000920E-02 0.  1.
    10030    2    1    2    0    0  0.00000000000E+00  0.00000000000E+00 -0.48335876464E+03  0.10215573404E+04  0.89996872409E+03 0.  0.
        3    1    3    3  502    0  0.52795717124E+02 -0.92264228577E+02  0.25464223783E+03  0.27593976718E+03  0.10100000352E+00 0. -1.
       -3    1    3    3    0  502 -0.52795717124E+02  0.92264228577E+02 -0.73800100248E+03  0.74561757321E+03  0.10100000352E+00 0.  1.
</event>
<event>
 5   0  0.3927993E-03  0.9190721E+03  0.7818609E-02  0.9402049E-01
        1   -1    0    0  501    0  0.00000000000E+00  0.00000000000E+00  0.56875557457E+03  0.56875557459E+03  0.50400001928E-02 0.  1.
       -1   -1    0    0    0  501  0.00000000000E+00  0.00000000000E+00 -0.37129022113E+03  0.37129022117E+03  0.50400001928E-02 0. -1.
    10030    2    1    2    0    0  0.00000000000E+00  0.00000000000E+00  0.19746535343E+03  0.94004579576E+03  0.91907210398E+03 0.  0.
        2    1    3    3  502    0  0.62154585318E+01  0.43590531085E+03  0.24738094834E+03  0.50124784843E+03  0.25500000920E-02 0. -1.
       -2    1    3    3    0  502 -0.62154585318E+01 -0.43590531085E+03 -0.49915594906E+02  0.43879794732E+03  0.25500000920E-02 0.  1.
</event>
<event>
 5   0  0.2560250E-03  0.8695765E+03  0.7818609E-02  0.9464432E-01
       -4   -1    0    0    0  501  0.00000000000E+00  0.00000000000E+00  0.10554077096E+04  0.10554084737E+04  0.12699999809E+01 0.  1.
        4   -1    0    0  501    0  0.00000000000E+00  0.00000000000E+00 -0.17911329993E+03  0.17911780233E+03  0.12699999809E+01 0. -1.
    10030    2    1    2    0    0  0.00000000000E+00  0.00000000000E+00  0.87629440968E+03  0.12345262761E+04  0.86957646807E+03 0.  0.
        4    1    3    3  502    0 -0.86047619036E+02 -0.20337634189E+03  0.96986317522E+03  0.99468704663E+03  0.12699999809E+01 0.  1.
       -4    1    3    3    0  502  0.86047619036E+02  0.20337634189E+03 -0.93568765544E+02  0.23983922942E+03  0.12699999809E+01 0. -1.
</event>
<event>
 5   0  0.6524705E-03  0.9108670E+03  0.7818609E-02  0.9412098E-01
        2   -1    0    0  501    0  0.00000000000E+00  0.00000000000E+00  0.37127653436E+03  0.37127653437E+03  0.25500000920E-02 0. -1.
       -2   -1    0    0    0  501  0.00000000000E+00  0.00000000000E+00 -0.55866620305E+03  0.55866620306E+03  0.25500000920E-02 0.  1.
    10030    2    1    2    0    0  0.00000000000E+00  0.00000000000E+00 -0.18738966869E+03  0.92994273743E+03  0.91086695350E+03 0.  0.
        3    1    3    3  502    0 -0.19130594252E+03 -0.10203036058E+02 -0.51552766649E+03  0.54997350000E+03  0.10100000352E+00 0.  1.
       -3    1    3    3    0  502  0.19130594252E+03  0.10203036058E+02  0.32813799780E+03  0.37996923743E+03  0.10100000352E+00 0. -1.
</event>
<event>
 5   0  0.3927993E-03  0.8880044E+03  0.7818609E-02  0.9440702E-01
       -1   -1    0    0    0  501  0.00000000000E+00  0.00000000000E+00  0.25445839055E+03  0.25445839060E+03  0.50400001928E-02 0. -1.
        1   -1    0    0  501    0  0.00000000000E+00  0.00000000000E+00 -0.77473558252E+03  0.77473558253E+03  0.50400001928E-02 0.  1.
    10030    2    1    2    0    0  0.00000000000E+00  0.00000000000E+00 -0.52027719197E+03  0.10291939731E+04  0.88800443572E+03 0.  0.
        2    1    3    3  502    0  0.31927570611E+02 -0.29578062489E+03 -0.64213724737E+03  0.70770459394E+03  0.25500000920E-02 0.  1.
       -2    1    3    3    0  502 -0.31927570611E+02  0.29578062489E+03  0.12186005540E+03  0.32148937919E+03  0.25500000920E-02 0. -1.
</event>
<event>
 5   0  0.3927993E-03  0.8909061E+03  0.7818609E-02  0.9437021E-01
        1   -1    0    0  501    0  0.00000000000E+00  0.00000000000E+00  0.18788125616E+04  0.18788125616E+04  0.50400001928E-02 0. -1.
       -1   -1    0    0    0  501  0.00000000000E+00  0.00000000000E+00 -0.10561373061E+03  0.10561373073E+03  0.50400001928E-02 0.  1.
    10030    2    1    2    0    0  0.00000000000E+00  0.00000000000E+00  0.17731988310E+04  0.19844262923E+04  0.89090606433E+03 0.  0.
        2    1    3    3  502    0  0.44036540489E+03  0.66910080966E+02  0.87444920674E+03  0.98135623702E+03  0.25500000920E-02 0. -1.
       -2    1    3    3    0  502 -0.44036540489E+03 -0.66910080966E+02  0.89874962425E+03  0.10030700553E+04  0.25500000920E-02 0.  1.
</event>
<event>
 5   0  0.3794006E-03  0.8995512E+03  0.7818609E-02  0.9426143E-01
        1   -1    0    0  501    0  0.00000000000E+00  0.00000000000E+00  0.31453061981E+03  0.31453061985E+03  0.50400001928E-02 0.  1.
       -1   -1    0    0    0  501  0.00000000000E+00  0.00000000000E+00 -0.64317460779E+03  0.64317460781E+03  0.50400001928E-02 0. -1.
    10030    2    1    2    0    0  0.00000000000E+00  0.00000000000E+00 -0.32864398798E+03  0.95770522766E+03  0.89955123938E+03 0.  0.
        5    1    3    3  502    0 -0.16980785137E+03  0.40382799893E+03 -0.27270846586E+03  0.51604627356E+03  0.46999998093E+01 0. -1.
       -5    1    3    3    0  502  0.16980785137E+03 -0.40382799893E+03 -0.55935522112E+02  0.44165895410E+03  0.46999998093E+01 0.  1.
</event>
<event>
 5   0  0.6609191E-03  0.8515266E+03  0.7818609E-02  0.9488290E-01
       -2   -1    0    0    0  501  0.00000000000E+00  0.00000000000E+00  0.35331900875E+03  0.35331900876E+03  0.25500000920E-02 0.  1.
        2   -1    0    0  501    0  0.00000000000E+00  0.00000000000E+00 -0.51306148030E+03  0.51306148030E+03  0.25500000920E-02 0. -1.
    10030    2    1    2    0    0  0.00000000000E+00  0.00000000000E+00 -0.15974247155E+03  0.86638048906E+03  0.85152656717E+03 0.  0.
        2    1    3    3  502    0  0.62995616689E+02  0.39781558631E+03 -0.22029576080E+03  0.45908159478E+03  0.25500000920E-02 0. -1.
       -2    1    3    3    0  502 -0.62995616689E+02 -0.39781558631E+03  0.60553289247E+02  0.40729889428E+03  0.25500000920E-02 0.  1.
</event>
<event>
 5   0  0.6609191E-03  0.9056585E+03  0.7818609E-02  0.9418536E-01
       -2   -1    0    0    0  501  0.00000000000E+00  0.00000000000E+00  0.14475731384E+03  0.14475731386E+03  0.25500000920E-02 0. -1.
        2   -1    0    0  501    0  0.00000000000E+00  0.00000000000E+00 -0.14165385348E+04  0.14165385348E+04  0.25500000920E-02 0.  1.
    10030    2    1    2    0    0  0.00000000000E+00  0.00000000000E+00 -0.12717812210E+04  0.15612958487E+04  0.90565846381E+03 0.  0.
        2    1    3    3  502    0 -0.22397524369E+03 -0.13940099624E+03 -0.14059809702E+01  0.26381721765E+03  0.25500000920E-02 0. -1.
       -2    1    3    3    0  502  0.22397524369E+03  0.13940099624E+03 -0.12703752400E+04  0.12974786310E+04  0.25500000920E-02 0.  1.
</event>
<event>
 5   0  0.3943549E-03  0.9010675E+03  0.7818609E-02  0.9424248E-01
        1   -1    0    0  501    0  0.00000000000E+00  0.00000000000E+00  0.92187773351E+03  0.92187773352E+03  0.50400001928E-02 0. -1.
       -1   -1    0    0    0  501  0.00000000000E+00  0.00000000000E+00 -0.22018175113E+03  0.22018175119E+03  0.50400001928E-02 0.  1.
    10030    2    1    2    0    0  0.00000000000E+00  0.00000000000E+00  0.70169598238E+03  0.11420594847E+04  0.90106748634E+03 0.  0.
        3    1    3    3  502    0 -0.31833561667E+03  0.23719326029E+02 -0.52114884363E+02  0.32344418783E+03  0.10100000352E+00 0.  1.
       -3    1    3    3    0  502  0.31833561667E+03 -0.23719326029E+02  0.75381086674E+03  0.81861529688E+03  0.10100000352E+00 0. -1.
</event>
<event>
 5   0  0.6534628E-03  0.8994798E+03  0.7818609E-02  0.9426232E-01
        2   -1    0    0  501    0  0.00000000000E+00  0.00000000000E+00  0.10662735562E+04  0.10662735562E+04  0.25500000920E-02 0.  1.
       -2   -1    0    0    0  501  0.00000000000E+00  0.00000000000E+00 -0.18969424330E+03  0.18969424332E+03  0.25500000920E-02 0. -1.
    10030    2    1    2    0    0  0.00000000000E+00  0.00000000000E+00  0.87657931293E+03  0.12559677996E+04  0.89947975055E+03 0.  0.
        4    1    3    3  502    0 -0.41368944311E+03  0.17386322234E+03  0.39647049030E+03  0.59879699231E+03  0.12699999809E+01 0.  1.
       -4    1    3    3    0  502  0.41368944311E+03 -0.17386322234E+03  0.48010882263E+03  0.65717080724E+03  0.12699999809E+01 0. -1.
</event>
<event>
 5   0  0.3969536E-03  0.8907711E+03  0.7818609E-02  0.9437192E-01
       -1   -1    0    0    0  501  0.00000000000E+00  0.00000000000E+00  0.41496189017E+03  0.41496189020E+03  0.50400001928E-02 0.  1.
        1   -1    0    0  501    0  0.00000000000E+00  0.00000000000E+00 -0.47803979899E+03  0.47803979901E+03  0.50400001928E-02 0. -1.
    10030    2    1    2    0    0  0.00000000000E+00  0.00000000000E+00 -0.63077908816E+02  0.89300168921E+03  0.89077112344E+03 0.  0.
        1    1    3    3  502    0 -0.16627375296E+03  0.36431800167E+03 -0.22694685735E+03  0.46030364255E+03  0.50400001928E-02 0. -1.
       -1    1    3    3    0  502  0.16627375296E+03 -0.36431800167E+03  0.16386894854E+03  0.43269804666E+03  0.50400001928E-02 0.  1.
</event>
<event>
 5   0  0.6609191E-03  0.8815490E+03  0.7818609E-02  0.9448945E-01
       -2   -1    0    0    0  501  0.00000000000E+00  0.00000000000E+00  0.16670006604E+03  0.16670006606E+03  0.25500000920E-02 0. -1.
        2   -1    0    0  501    0  0.00000000000E+00  0.00000000000E+00 -0.11654593507E+04  0.11654593507E+04  0.25500000920E-02 0.  1.
    10030    2    1    2    0    0  0.00000000000E+00  0.00000000000E+00 -0.99875928469E+03  0.13321594168E+04  0.88154897935E+03 0.  0.
        2    1    3    3  502    0 -0.26529509080E+03  0.57299694348E+02 -0.10242049300E+04  0.10595567370E+04  0.25500000920E-02 0.  1.
       -2    1    3    3    0  502  0.26529509080E+03 -0.57299694348E+02  0.25445645332E+02  0.27260267982E+03  0.25500000920E-02 0. -1.
</event>
<event>
 5   0  0.3794006E-03  0.9009165E+03  0.7818609E-02  0.9424436E-01
        1   -1    0    0  501    0  0.00000000000E+00  0.00000000000E+00  0.74287671761E+03  0.74287671763E+03  0.50400001928E-02 0.  1.
       -1   -1    0    0    0  501  0.00000000000E+00  0.00000000000E+00 -0.27314445215E+03  0.27314445220E+03  0.50400001928E-02 0. -1.
    10030    2    1    2    0    0  0.00000000000E+00  0.00000000000E+00  0.46973226546E+03  0.10160211698E+04  0.90091654237E+03 0.  0.
        5    1    3    3  502    0 -0.33071363325E+03  0.15818059960E+03  0.53002579031E+03  0.64447035440E+03  0.46999998093E+01 0.  1.
       -5    1    3    3    0  502  0.33071363325E+03 -0.15818059960E+03 -0.60293524853E+02  0.37155081542E+03  0.46999998093E+01 0. -1.
</event>
<event>
 5   0  0.6863405E-03  0.8958414E+03  0.7818609E-02  0.9430795E-01
        2   -1    0    0  501    0  0.00000000000E+00  0.00000000000E+00  0.52334152983E+03  0.52334152983E+03  0.25500000920E-02 0.  1.
       -2   -1    0    0    0  501  0.00000000000E+00  0.00000000000E+00 -0.38336908043E+03  0.38336908044E+03  0.25500000920E-02 0. -1.
    10030    2    1    2    0    0  0.00000000000E+00  0.00000000000E+00  0.13997244940E+03  0.90671061027E+03  0.89584141687E+03 0.  0.
        1    1    3    3  502    0 -0.59297118690E+02  0.71352626900E+02  0.51351024329E+03  0.52182383583E+03  0.50400001928E-02 0.  1.
       -1    1    3    3    0  502  0.59297118690E+02 -0.71352626900E+02 -0.37353779389E+03  0.38488677444E+03  0.50400001928E-02 0. -1.
</event>
<event>
 5   0  0.2560250E-03  0.9014520E+03  0.7818609E-02  0.9423768E-01
       -4   -1    0    0    0  501  0.00000000000E+00  0.00000000000E+00  0.14243022469E+03  0.14243588665E+03  0.12699999809E+01 0. -1.
        4   -1    0    0  501    0  0.00000000000E+00  0.00000000000E+00 -0.14263055571E+04  0.14263061225E+04  0.12699999809E+01 0.  1.
    10030    2    1    2    0    0  0.00000000000E+00  0.00000000000E+00 -0.12838753324E+04  0.15687420091E+04  0.90145195221E+03 0.  0.
        4    1    3    3  502    0 -0.33828751477E+03  0.14659192227E+03 -0.10931419817E+04  0.11536414692E+04  0.12699999809E+01 0.  1.
       -4    1    3    3    0  502  0.33828751477E+03 -0.14659192227E+03 -0.19073335068E+03  0.41510053997E+03  0.12699999809E+01 0. -1.
</event>
<event>
 5   0  0.3969536E-03  0.8902577E+03  0.7818609E-02  0.9437842E-01
        1   -1    0    0  501    0  0.00000000000E+00  0.00000000000E+00  0.22075282530E+03  0.22075282536E+03  0.50400001928E-02 0.  1.
       -1   -1    0    0    0  501  0.00000000000E+00  0.00000000000E+00 -0.89756362789E+03  0.89756362791E+03  0.50400001928E-02 0. -1.
    10030    2    1    2    0    0  0.00000000000E+00  0.00000000000E+00 -0.67681080259E+03  0.11183164533E+04  0.89025773073E+03 0.  0.
        1    1    3    3  502    0 -0.73204363728E+02  0.43433437947E+03 -0.25763371865E+03  0.51027479368E+03  0.50400001928E-02 0.  1.
       -1    1    3    3    0  502  0.73204363728E+02 -0.43433437947E+03 -0.41917708395E+03  0.60804165958E+03  0.50400001928E-02 0. -1.
</event>
<event>
 5   0  0.3998066E-03  0.8983525E+03  0.7818609E-02  0.9427643E-01
       -1   -1    0    0    0  501  0.00000000000E+00  0.00000000000E+00  0.17082948524E+03  0.17082948531E+03  0.50400001928E-02 0.  1.
        1   -1    0    0  501    0  0.00000000000E+00  0.00000000000E+00 -0.11810566400E+04  0.11810566401E+04  0.50400001928E-02 0. -1.
    10030    2    1    2    0    0  0.00000000000E+00  0.00000000000E+00 -0.10102271548E+04  0.13518861254E+04  0.89835248741E+03 0.  0.
        4    1    3    3  502    0 -0.38417243641E+03  0.55990813659E+02 -0.84507075650E+03  0.92998367110E+03  0.12699999809E+01 0. -1.
       -4    1    3    3    0  502  0.38417243641E+03 -0.55990813659E+02 -0.16515639830E+03  0.42190245427E+03  0.12699999809E+01 0.  1.
</event>
<event>
 5   0  0.3998066E-03  0.9012852E+03  0.7818609E-02  0.9423976E-01
        1   -1    0    0  501    0  0.00000000000E+00  0.00000000000E+00  0.35864344179E+03  0.35864344183E+03  0.50400001928E-02 0.  1.
       -1   -1    0    0    0  501  0.00000000000E+00  0.00000000000E+00 -0.56624131463E+03  0.56624131465E+03  0.50400001928E-02 0. -1.
    10030    2    1    2    0    0  0.00000000000E+00  0.00000000000E+00 -0.20759787284E+03  0.92488475648E+03  0.90128515797E+03 0.  0.
        4    1    3    3  502    0  0.33446896582E+03  0.79417390694E+02  0.19520751030E+03  0.39532796007E+03  0.12699999809E+01 0.  1.
       -4    1    3    3    0  502 -0.33446896582E+03 -0.79417390694E+02 -0.40280538314E+03  0.52955679641E+03  0.12699999809E+01 0. -1.
</event>
<event>
 5   0  0.6609191E-03  0.8954423E+03  0.7818609E-02  0.9431297E-01
       -2   -1    0    0    0  501  0.00000000000E+00  0.00000000000E+00  0.15599577156E+03  0.15599577158E+03  0.25500000920E-02 0. -1.
        2   -1    0    0  501    0  0.00000000000E+00  0.00000000000E+00 -0.12849978364E+04  0.12849978364E+04  0.25500000920E-02 0.  1.
    10030    2    1    2    0    0  0.00000000000E+00  0.00000000000E+00 -0.11290020648E+04  0.14409936080E+04  0.89544230179E+03 0.  0.
        2    1    3    3  502    0 -0.21179776187E+03  0.33028254216E+03 -0.91155316650E+03  0.99240819473E+03  0.25500000920E-02 0.  1.
       -2    1    3    3    0  502  0.21179776187E+03 -0.33028254216E+03 -0.21744889834E+03  0.44858541326E+03  0.25500000920E-02 0. -1.
</event>
<event>
 5   0  0.6609191E-03  0.8985510E+03  0.7818609E-02  0.9427395E-01
        2   -1    0    0  501    0  0.00000000000E+00  0.00000000000E+00  0.10879497006E+04  0.10879497006E+04  0.25500000920E-02 0. -1.
       -2   -1    0    0    0  501  0.00000000000E+00  0.00000000000E+00 -0.18553107085E+03  0.18553107087E+03  0.25500000920E-02 0.  1.
    10030    2    1    2    0    0  0.00000000000E+00  0.00000000000E+00  0.90241862976E+03  0.12734807715E+04  0.89855099577E+03 0.  0.
        2    1    3    3  502    0 -0.35555008369E+03 -0.36897097548E+01  0.61993894479E+02  0.36093312251E+03  0.25500000920E-02 0.  1.
       -2    1    3    3    0  502  0.35555008369E+03  0.36897097548E+01  0.84042473528E+03  0.91254764897E+03  0.25500000920E-02 0. -1.
</event>
<event>
 5   0  0.6534628E-03  0.8988565E+03  0.7818609E-02  0.9427012E-01
        2   -1    0    0  501    0  0.00000000000E+00  0.00000000000E+00  0.98106183964E+03  0.98106183964E+03  0.25500000920E-02 0. -1.
       -2   -1    0    0    0  501  0.00000000000E+00  0.00000000000E+00 -0.20588483158E+03  0.20588483159E+03  0.25500000920E-02 0.  1.
    10030    2    1    2    0    0  0.00000000000E+00  0.00000000000E+00  0.77517700806E+03  0.11869466712E+04  0.89885649941E+03 0.  0.
        4    1    3    3  502    0  0.62917804600E+02 -0.44170478067E+03  0.31620319560E+03  0.54685266499E+03  0.12699999809E+01 0. -1.
       -4    1    3    3    0  502 -0.62917804600E+02  0.44170478067E+03  0.45897381247E+03  0.64009400624E+03  0.12699999809E+01 0.  1.
</event>
<event>
 5   0  0.6724773E-03  0.9056869E+03  0.7818609E-02  0.9418500E-01
       -2   -1    0    0    0  501  0.00000000000E+00  0.00000000000E+00  0.38500946022E+03  0.38500946023E+03  0.25500000920E-02 0. -1.
        2   -1    0    0  501    0  0.00000000000E+00  0.00000000000E+00 -0.53262894989E+03  0.53262894990E+03  0.25500000920E-02 0.  1.
    10030    2    1    2    0    0  0.00000000000E+00  0.00000000000E+00 -0.14761948967E+03  0.91763841013E+03  0.90568688740E+03 0.  0.
        5    1    3    3  502    0 -0.30638643537E+03  0.17467860815E+03  0.21394477669E+03  0.41252844919E+03  0.46999998093E+01 0. -1.
       -5    1    3    3    0  502  0.30638643537E+03 -0.17467860815E+03 -0.36156426637E+03  0.50510996093E+03  0.46999998093E+01 0.  1.
</event>
<event>
 5   0  0.6609191E-03  0.9089957E+03  0.7818609E-02  0.9414406E-01
       -2   -1    0    0    0  501  0.00000000000E+00  0.00000000000E+00  0.11667237363E+03  0.11667237366E+03  0.25500000920E-02 0.  1.
        2   -1    0    0  501    0  0.00000000000E+00  0.00000000000E+00 -0.17704986769E+04  0.17704986769E+04  0.25500000920E-02 0. -1.
    10030    2    1    2    0    0  0.00000000000E+00  0.00000000000E+00 -0.16538263033E+04  0.18871710506E+04  0.90899567255E+03 0.  0.
        2    1    3    3  502    0  0.18597261132E+03 -0.28955088651E+03 -0.21054135167E+03  0.40342680725E+03  0.25500000920E-02 0. -1.
       -2    1    3    3    0  502 -0.18597261132E+03  0.28955088651E+03 -0.14432849516E+04  0.14837442433E+04  0.25500000920E-02 0.  1.
</event>
<event>
 5   0  0.6863405E-03  0.9036609E+03  0.7818609E-02  0.9421017E-01
       -2   -1    0    0    0  501  0.00000000000E+00  0.00000000000E+00  0.12731650367E+03  0.12731650370E+03  0.25500000920E-02 0.  1.
        2   -1    0    0  501    0  0.00000000000E+00  0.00000000000E+00 -0.16034901009E+04  0.16034901009E+04  0.25500000920E-02 0. -1.
    10030    2    1    2    0    0  0.00000000000E+00  0.00000000000E+00 -0.14761735972E+04  0.17308066046E+04  0.90366089513E+03 0.  0.
        1    1    3    3  502    0 -0.25537237732E+03 -0.23038275983E+03 -0.12993120424E+04  0.13440621454E+04  0.50400001928E-02 0. -1.
       -1    1    3    3    0  502  0.25537237732E+03  0.23038275983E+03 -0.17686155482E+03  0.38674445920E+03  0.50400001928E-02 0.  1.
</event>
<event>
 5   0  0.6534628E-03  0.8015685E+03  0.7818609E-02  0.9557750E-01
       -2   -1    0    0    0  501  0.00000000000E+00  0.00000000000E+00  0.12071526616E+03  0.12071526619E+03  0.25500000920E-02 0. -1.
        2   -1    0    0  501    0  0.00000000000E+00  0.00000000000E+00 -0.13306355337E+04  0.13306355337E+04  0.25500000920E-02 0.  1.
    10030    2    1    2    0    0  0.00000000000E+00  0.00000000000E+00 -0.12099202675E+04  0.14513507998E+04  0.80156851892E+03 0.  0.
        4    1    3    3  502    0  0.23882858423E+03 -0.14239525309E+03 -0.82344158721E+02  0.28999598984E+03  0.12699999809E+01 0. -1.
       -4    1    3    3    0  502 -0.23882858423E+03  0.14239525309E+03 -0.11275761088E+04  0.11613548100E+04  0.12699999809E+01 0.  1.
</event>
<event>
 5   0  0.6534628E-03  0.8197447E+03  0.7818609E-02  0.9531869E-01
        2   -1    0    0  501    0  0.00000000000E+00  0.00000000000E+00  0.39973368860E+03  0.39973368861E+03  0.25500000920E-02 0. -1.
       -2   -1    0    0    0  501  0.00000000000E+00  0.00000000000E+00 -0.42026819711E+03  0.42026819711E+03  0.25500000920E-02 0.  1.
    10030    2    1    2    0    0  0.00000000000E+00  0.00000000000E+00 -0.20534508503E+02  0.82000188572E+03  0.81974473255E+03 0.  0.
        4    1    3    3  502    0  0.24360898716E+03  0.12158842947E+03  0.29620225268E+03  0.40232632552E+03  0.12699999809E+01 0. -1.
       -4    1    3    3    0  502 -0.24360898716E+03 -0.12158842947E+03 -0.31673676119E+03  0.41767556021E+03  0.12699999809E+01 0.  1.
</event>
<event>
 5   0  0.6724773E-03  0.8960608E+03  0.7818609E-02  0.9430519E-01
        2   -1    0    0  501    0  0.00000000000E+00  0.00000000000E+00  0.75496147909E+03  0.75496147909E+03  0.25500000920E-02 0.  1.
       -2   -1    0    0    0  501  0.00000000000E+00  0.00000000000E+00 -0.26588274445E+03  0.26588274446E+03  0.25500000920E-02 0. -1.
    10030    2    1    2    0    0  0.00000000000E+00  0.00000000000E+00  0.48907873464E+03  0.10208442236E+04  0.89606077924E+03 0.  0.
        5    1    3    3  502    0  0.30605016755E+03 -0.17581969241E+02  0.61673561862E+03  0.68873851640E+03  0.46999998093E+01 0.  1.
       -5    1    3    3    0  502 -0.30605016755E+03  0.17581969241E+02 -0.12765688398E+03  0.33210570716E+03  0.46999998093E+01 0. -1.
</event>
<event>
 5   0  0.3998066E-03  0.8505120E+03  0.7818609E-02  0.9489650E-01
        1   -1    0    0  501    0  0.00000000000E+00  0.00000000000E+00  0.22957067684E+03  0.22957067689E+03  0.50400001928E-02 0.  1.
       -1   -1    0    0    0  501  0.00000000000E+00  0.00000000000E+00 -0.78774295652E+03  0.78774295653E+03  0.50400001928E-02 0. -1.
    10030    2    1    2    0    0  0.00000000000E+00  0.00000000000E+00 -0.55817227968E+03  0.10173136334E+04  0.85051204280E+03 0.  0.
        4    1    3    3  502    0 -0.32660031555E+03  0.26953438609E+03 -0.32578872058E+03  0.53428125062E+03  0.12699999809E+01 0. -1.
       -4    1    3    3    0  502  0.32660031555E+03 -0.26953438609E+03 -0.23238355910E+03  0.48303238281E+03  0.12699999809E+01 0.  1.
</event>
<event>
 5   0  0.6724773E-03  0.8987438E+03  0.7818609E-02  0.9427153E-01
       -2   -1    0    0    0  501  0.00000000000E+00  0.00000000000E+00  0.35864290615E+03  0.35864290616E+03  0.25500000920E-02 0.  1.
        2   -1    0    0  501    0  0.00000000000E+00  0.00000000000E+00 -0.56305335229E+03  0.56305335230E+03  0.25500000920E-02 0. -1.
    10030    2    1    2    0    0  0.00000000000E+00  0.00000000000E+00 -0.20441044614E+03  0.92169625846E+03  0.89874376903E+03 0.  0.
        5    1    3    3  502    0  0.19141487750E+03  0.18289239667E+03  0.27014250462E+03  0.37827020354E+03  0.46999998093E+01 0.  1.
       -5    1    3    3    0  502 -0.19141487750E+03 -0.18289239667E+03 -0.47455295077E+03  0.54342605492E+03  0.46999998093E+01 0. -1.
</event>
<event>
 5   0  0.6524705E-03  0.8962434E+03  0.7818609E-02  0.9430290E-01
       -2   -1    0    0    0  501  0.00000000000E+00  0.00000000000E+00  0.23044381786E+03  0.23044381787E+03  0.25500000920E-02 0. -1.
        2   -1    0    0  501    0  0.00000000000E+00  0.00000000000E+00 -0.87141872075E+03  0.87141872075E+03  0.25500000920E-02 0.  1.
    10030    2    1    2    0    0  0.00000000000E+00  0.00000000000E+00 -0.64097490289E+03  0.11018625386E+04  0.89624339768E+03 0.  0.
        3    1    3    3  502    0  0.29586097190E+03  0.31218103534E+03 -0.16584215608E+03  0.46097108852E+03  0.10100000352E+00 0. -1.
       -3    1    3    3    0  502 -0.29586097190E+03 -0.31218103534E+03 -0.47513274681E+03  0.64089145010E+03  0.10100000352E+00 0.  1.
</event>
<event>
 5   0  0.2560250E-03  0.8975743E+03  0.7818609E-02  0.9428619E-01
        4   -1    0    0  501    0  0.00000000000E+00  0.00000000000E+00  0.33565769188E+03  0.33566009447E+03  0.12699999809E+01 0.  1.
       -4   -1    0    0    0  501  0.00000000000E+00  0.00000000000E+00 -0.60004027036E+03  0.60004161435E+03  0.12699999809E+01 0. -1.
    10030    2    1    2    0    0  0.00000000000E+00  0.00000000000E+00 -0.26438257848E+03  0.93570170882E+03  0.89757425324E+03 0.  0.
        1    1    3    3  502    0  0.26313436951E+03 -0.30801141187E+03 -0.33352502617E+03  0.52473771483E+03  0.50400001928E-02 0. -1.
       -1    1    3    3    0  502 -0.26313436951E+03  0.30801141187E+03  0.69142447686E+02  0.41096399399E+03  0.50400001928E-02 0.  1.
</event>
<event>
 5   0  0.3969536E-03  0.9000531E+03  0.7818609E-02  0.9425515E-01
        1   -1    0    0  501    0  0.00000000000E+00  0.00000000000E+00  0.15001287685E+04  0.15001287685E+04  0.50400001928E-02 0.  1.
       -1   -1    0    0    0  501  0.00000000000E+00  0.00000000000E+00 -0.13500435325E+03  0.13500435334E+03  0.50400001928E-02 0. -1.
    10030    2    1    2    0    0  0.00000000000E+00  0.00000000000E+00  0.13651244152E+04  0.16351331218E+04  0.90005314123E+03 0.  0.
        1    1    3    3  502    0  0.31969990050E+03 -0.26399004391E+03  0.10004867374E+04  0.10829923737E+04  0.50400001928E-02 0. -1.
       -1    1    3    3    0  502 -0.31969990050E+03  0.26399004391E+03  0.36463767781E+03  0.55214074815E+03  0.50400001928E-02 0.  1.
</event>
<event>
 5   0  0.3794006E-03  0.9002080E+03  0.7818609E-02  0.9425321E-01
       -1   -1    0    0    0  501  0.00000000000E+00  0.00000000000E+00  0.46608120932E+03  0.46608120935E+03  0.50400001928E-02 0.  1.
        1   -1    0    0  501    0  0.00000000000E+00  0.00000000000E+00 -0.43467449427E+03  0.43467449430E+03  0.50400001928E-02 0. -1.
    10030    2    1    2    0    0  0.00000000000E+00  0.00000000000E+00  0.31406715049E+02  0.90075570365E+03  0.90020800703E+03 0.  0.
        5    1    3    3  502    0 -0.54942080670E+02 -0.35313504463E+03 -0.25804769194E+03  0.44083295395E+03  0.46999998093E+01 0. -1.
       -5    1    3    3    0  502  0.54942080670E+02  0.35313504463E+03  0.28945440699E+03  0.45992274971E+03  0.46999998093E+01 0.  1.
</event>
<event>
 5   0  0.3794006E-03  0.9023070E+03  0.7818609E-02  0.9422702E-01
       -1   -1    0    0    0  501  0.00000000000E+00  0.00000000000E+00  0.18705718999E+04  0.18705718999E+04  0.50400001928E-02 0. -1.
        1   -1    0    0  501    0  0.00000000000E+00  0.00000000000E+00 -0.10881136976E+03  0.10881136987E+03  0.50400001928E-02 0.  1.
    10030    2    1    2    0    0  0.00000000000E+00  0.00000000000E+00  0.17617605302E+04  0.19793832698E+04  0.90230702265E+03 0.  0.
        5    1    3    3  502    0 -0.83959393307E+02  0.15635464589E+03  0.17907240953E+04  0.17995029398E+04  0.46999998093E+01 0. -1.
       -5    1    3    3    0  502  0.83959393307E+02 -0.15635464589E+03 -0.28963565102E+02  0.17988032999E+03  0.46999998093E+01 0.  1.
</event>
<event>
 5   0  0.6863405E-03  0.8950482E+03  0.7818609E-02  0.9431793E-01
       -2   -1    0    0    0  501  0.00000000000E+00  0.00000000000E+00  0.42990135915E+03  0.42990135916E+03  0.25500000920E-02 0. -1.
        2   -1    0    0  501    0  0.00000000000E+00  0.00000000000E+00 -0.46586923636E+03  0.46586923637E+03  0.25500000920E-02 0.  1.
    10030    2    1    2    0    0  0.00000000000E+00  0.00000000000E+00 -0.35967877208E+02  0.89577059553E+03  0.89504819514E+03 0.  0.
        1    1    3    3  502    0 -0.20888433842E+03 -0.39418288723E+03  0.17611640814E+02  0.44645602844E+03  0.50400001928E-02 0. -1.
       -1    1    3    3    0  502  0.20888433842E+03  0.39418288723E+03 -0.53579518022E+02  0.44931456708E+03  0.50400001928E-02 0.  1.
</event>
<event>
 5   0  0.6863405E-03  0.8990718E+03  0.7818609E-02  0.9426743E-01
       -2   -1    0    0    0  501  0.00000000000E+00  0.00000000000E+00  0.17317609751E+03  0.17317609753E+03  0.25500000920E-02 0.  1.
        2   -1    0    0  501    0  0.00000000000E+00  0.00000000000E+00 -0.11669191776E+04  0.11669191776E+04  0.25500000920E-02 0. -1.
    10030    2    1    2    0    0  0.00000000000E+00  0.00000000000E+00 -0.99374308009E+03  0.13400952751E+04  0.89907176421E+03 0.  0.
        1    1    3    3  502    0  0.17445873856E+03 -0.27890858056E+03 -0.40231627305E+02  0.33142786791E+03  0.50400001928E-02 0.  1.
       -1    1    3    3    0  502 -0.17445873856E+03  0.27890858056E+03 -0.95351145278E+03  0.10086674072E+04  0.50400001928E-02 0. -1.
</event>
<event>
 5   0  0.3998066E-03  0.8839116E+03  0.7818609E-02  0.9445919E-01
        1   -1    0    0  501    0  0.00000000000E+00  0.00000000000E+00  0.12125206412E+04  0.12125206412E+04  0.50400001928E-02 0.  1.
       -1   -1    0    0    0  501  0.00000000000E+00  0.00000000000E+00 -0.16109000077E+03  0.16109000085E+03  0.50400001928E-02 0. -1.
    10030    2    1    2    0    0  0.00000000000E+00  0.00000000000E+00  0.10514306404E+04  0.13736106420E+04  0.88391164963E+03 0.  0.
        4    1    3    3  502    0  0.98277939044E+02  0.97709547124E+02  0.11778783933E+04  0.11860037231E+04  0.12699999809E+01 0.  1.
       -4    1    3    3    0  502 -0.98277939044E+02 -0.97709547124E+02 -0.12644775293E+03  0.18760691891E+03  0.12699999809E+01 0. -1.
</event>
<event>
 5   0  0.6609191E-03  0.8901621E+03  0.7818609E-02  0.9437964E-01
        2   -1    0    0  501    0  0.00000000000E+00  0.00000000000E+00  0.91714613854E+03  0.91714613854E+03  0.25500000920E-02 0. -1.
       -2   -1    0    0    0  501  0.00000000000E+00  0.00000000000E+00 -0.21599298629E+03  0.21599298630E+03  0.25500000920E-02 0.  1.
    10030    2    1    2    0    0  0.00000000000E+00  0.00000000000E+00  0.70115315225E+03  0.11331391248E+04  0.89016208262E+03 0.  0.
        2    1    3    3  502    0 -0.32069316731E+03 -0.18271436564E+03  0.33948888378E+02  0.37064966478E+03  0.25500000920E-02 0.  1.
       -2    1    3    3    0  502  0.32069316731E+03  0.18271436564E+03  0.66720426388E+03  0.76248946007E+03  0.25500000920E-02 0. -1.
</event>
<event>
 5   0  0.2560250E-03  0.8986786E+03  0.7818609E-02  0.9427235E-01
       -3   -1    0    0    0  501  0.00000000000E+00  0.00000000000E+00  0.63168250290E+03  0.63168251097E+03  0.10100000352E+00 0.  1.
        3   -1    0    0  501    0  0.00000000000E+00  0.00000000000E+00 -0.31963176485E+03  0.31963178081E+03  0.10100000352E+00 0. -1.
    10030    2    1    2    0    0  0.00000000000E+00  0.00000000000E+00  0.31205073805E+03  0.95131429178E+03  0.89867859584E+03 0.  0.
        1    1    3    3  502    0  0.21471009087E+03 -0.95529774627E+02 -0.24939377304E+03  0.34267129296E+03  0.50400001928E-02 0. -1.
       -1    1    3    3    0  502 -0.21471009087E+03  0.95529774627E+02  0.56144451109E+03  0.60864299882E+03  0.50400001928E-02 0.  1.
</event>
<event>
 5   0  0.6724773E-03  0.8931019E+03  0.7818609E-02  0.9434246E-01
        2   -1    0    0  501    0  0.00000000000E+00  0.00000000000E+00  0.12450389779E+04  0.12450389779E+04  0.25500000920E-02 0.  1.
       -2   -1    0    0    0  501  0.00000000000E+00  0.00000000000E+00 -0.16016186689E+03  0.16016186691E+03  0.25500000920E-02 0. -1.
    10030    2    1    2    0    0  0.00000000000E+00  0.00000000000E+00  0.10848771110E+04  0.14052008448E+04  0.89310193610E+03 0.  0.
        5    1    3    3  502    0 -0.29983900358E+03  0.24771937198E+03  0.88757297676E+03  0.96905943801E+03  0.46999998093E+01 0.  1.
       -5    1    3    3    0  502  0.29983900358E+03 -0.24771937198E+03  0.19730413420E+03  0.43614140676E+03  0.46999998093E+01 0. -1.
</event>
<event>
 5   0  0.6724773E-03  0.8723779E+03  0.7818609E-02  0.9460785E-01
       -2   -1    0    0    0  501  0.00000000000E+00  0.00000000000E+00  0.38499977197E+03  0.38499977198E+03  0.25500000920E-02 0.  1.
        2   -1    0    0  501    0  0.00000000000E+00  0.00000000000E+00 -0.49418413809E+03  0.49418413809E+03  0.25500000920E-02 0. -1.
    10030    2    1    2    0    0  0.00000000000E+00  0.00000000000E+00 -0.10918436611E+03  0.87918391007E+03  0.87237785502E+03 0.  0.
        5    1    3    3  502    0  0.15937364005E+03  0.14860950218E+03  0.32618346384E+03  0.39230407003E+03  0.46999998093E+01 0.  1.
       -5    1    3    3    0  502 -0.15937364005E+03 -0.14860950218E+03 -0.43536782995E+03  0.48687984004E+03  0.46999998093E+01 0. -1.
</event>
<event>
 5   0  0.3969536E-03  0.9110753E+03  0.7818609E-02  0.9411842E-01
       -1   -1    0    0    0  501  0.00000000000E+00  0.00000000000E+00  0.37527307219E+03  0.37527307222E+03  0.50400001928E-02 0. -1.
        1   -1    0    0  501    0  0.00000000000E+00  0.00000000000E+00 -0.55296940702E+03  0.55296940704E+03  0.50400001928E-02 0.  1.
    10030    2    1    2    0    0  0.00000000000E+00  0.00000000000E+00 -0.17769633483E+03  0.92824247926E+03  0.91107525095E+03 0.  0.
        1    1    3    3  502    0  0.22237439338E+03 -0.31180260196E+03 -0.34016035572E+03  0.51223071076E+03  0.50400001928E-02 0.  1.
       -1    1    3    3    0  502 -0.22237439338E+03  0.31180260196E+03  0.16246402089E+03  0.41601176850E+03  0.50400001928E-02 0. -1.
</event>
<event>
 5   0  0.3998066E-03  0.9005876E+03  0.7818609E-02  0.9424847E-01
       -1   -1    0    0    0  501  0.00000000000E+00  0.00000000000E+00  0.33431471805E+03  0.33431471809E+03  0.50400001928E-02 0. -1.
        1   -1    0    0  501    0  0.00000000000E+00  0.00000000000E+00 -0.60650781833E+03  0.60650781836E+03  0.50400001928E-02 0.  1.
    10030    2    1    2    0    0  0.00000000000E+00  0.00000000000E+00 -0.27219310028E+03  0.94082253644E+03  0.90058756445E+03 0.  0.
        4    1    3    3  502    0  0.23858713124E+03 -0.37017381723E+03 -0.38039311434E+02  0.44204193950E+03  0.12699999809E+01 0. -1.
       -4    1    3    3    0  502 -0.23858713124E+03  0.37017381723E+03 -0.23415378885E+03  0.49878059695E+03  0.12699999809E+01 0.  1.
</event>
<event>
 5   0  0.6524705E-03  0.9018842E+03  0.7818609E-02  0.9423229E-01
       -2   -1    0    0    0  501  0.00000000000E+00  0.00000000000E+00  0.27485343678E+03  0.27485343679E+03  0.25500000920E-02 0.  1.
        2   -1    0    0  501    0  0.00000000000E+00  0.00000000000E+00 -0.73984435332E+03  0.73984435332E+03  0.25500000920E-02 0. -1.
    10030    2    1    2    0    0  0.00000000000E+00  0.00000000000E+00 -0.46499091654E+03  0.10146977901E+04  0.90188416818E+03 0.  0.
        3    1    3    3  502    0  0.22921877162E+03 -0.78425688078E+02  0.19541761704E+03  0.31125534383E+03  0.10100000352E+00 0.  1.
       -3    1    3    3    0  502 -0.22921877162E+03  0.78425688078E+02 -0.66040853357E+03  0.70344244628E+03  0.10100000352E+00 0. -1.
</event>
<event>
 5   0  0.6863405E-03  0.7899580E+03  0.7818609E-02  0.9574667E-01
        2   -1    0    0  501    0  0.00000000000E+00  0.00000000000E+00  0.17518574502E+04  0.17518574502E+04  0.25500000920E-02 0. -1.
       -2   -1    0    0    0  501  0.00000000000E+00  0.00000000000E+00 -0.89053153269E+02  0.89053153305E+02  0.25500000920E-02 0.  1.
    10030    2    1    2    0    0  0.00000000000E+00  0.00000000000E+00  0.16628042970E+04  0.18409106035E+04  0.78995804966E+03 0.  0.
        1    1    3    3  502    0  0.12922926712E+03  0.18398037561E+03  0.15881852345E+04  0.16040203619E+04  0.50400001928E-02 0. -1.
       -1    1    3    3    0  502 -0.12922926712E+03 -0.18398037561E+03  0.74619062419E+02  0.23689024165E+03  0.50400001928E-02 0.  1.
</event>
<event>
 5   0  0.6724773E-03  0.8978441E+03  0.7818609E-02  0.9428280E-01
        2   -1    0    0  501    0  0.00000000000E+00  0.00000000000E+00  0.17036430429E+04  0.17036430429E+04  0.25500000920E-02 0. -1.
       -2   -1    0    0    0  501  0.00000000000E+00  0.00000000000E+00 -0.11829414716E+03  0.11829414719E+03  0.25500000920E-02 0.  1.
    10030    2    1    2    0    0  0.00000000000E+00  0.00000000000E+00  0.15853488957E+04  0.18219371901E+04  0.89784408636E+03 0.  0.
        5    1    3    3  502    0  0.18947430632E+03 -0.19448353734E+03  0.15180645935E+04  0.15421629483E+04  0.46999998093E+01 0. -1.
       -5    1    3    3    0  502 -0.18947430632E+03  0.19448353734E+03  0.67284302235E+02  0.27977424180E+03  0.46999998093E+01 0.  1.
</event>
<event>
 5   0  0.2560250E-03  0.8984466E+03  0.7818609E-02  0.9427525E-01
       -4   -1    0    0    0  501  0.00000000000E+00  0.00000000000E+00  0.35092129241E+03  0.35092359050E+03  0.12699999809E+01 0.  1.
        4   -1    0    0  501    0  0.00000000000E+00  0.00000000000E+00 -0.57505728363E+03  0.57505868601E+03  0.12699999809E+01 0. -1.
    10030    2    1    2    0    0  0.00000000000E+00  0.00000000000E+00 -0.22413599122E+03  0.92598227651E+03  0.89844656706E+03 0.  0.
        1    1    3    3  502    0  0.11949569118E+03  0.20066768278E+03 -0.50756680393E+03  0.55872247100E+03  0.50400001928E-02 0. -1.
       -1    1    3    3    0  502 -0.11949569118E+03 -0.20066768278E+03  0.28343081272E+03  0.36725980551E+03  0.50400001928E-02 0.  1.
</event>
<event>
 5   0  0.6524705E-03  0.9007111E+03  0.7818609E-02  0.9424693E-01
       -2   -1    0    0    0  501  0.00000000000E+00  0.00000000000E+00  0.39784809533E+03  0.39784809534E+03  0.25500000920E-02 0.  1.
        2   -1    0    0  501    0  0.00000000000E+00  0.00000000000E+00 -0.50979288460E+03  0.50979288461E+03  0.25500000920E-02 0. -1.
    10030    2    1    2    0    0  0.00000000000E+00  0.00000000000E+00 -0.11194478927E+03  0.90764097995E+03  0.90071111497E+03 0.  0.
        3    1    3    3  502    0 -0.27998987515E+03  0.34966170022E+03 -0.91121078236E+01  0.44804093060E+03  0.10100000352E+00 0.  1.
       -3    1    3    3    0  502  0.27998987515E+03 -0.34966170022E+03 -0.10283268145E+03  0.45960004935E+03  0.10100000352E+00 0. -1.
</event>
<event>
 5   0  0.6534628E-03  0.8984807E+03  0.7818609E-02  0.9427483E-01
        2   -1    0    0  501    0  0.00000000000E+00  0.00000000000E+00  0.47171496845E+03  0.47171496845E+03  0.25500000920E-02 0. -1.
       -2   -1    0    0    0  501  0.00000000000E+00  0.00000000000E+00 -0.42783655242E+03  0.42783655242E+03  0.25500000920E-02 0.  1.
    10030    2    1    2    0    0  0.00000000000E+00  0.00000000000E+00  0.43878416032E+02  0.89955152088E+03  0.89848073063E+03 0.  0.
        4    1    3    3  502    0  0.35309170150E+03  0.20922787346E+03  0.20481844573E+03  0.45869626259E+03  0.12699999809E+01 0. -1.
       -4    1    3    3    0  502 -0.35309170150E+03 -0.20922787346E+03 -0.16094002970E+03  0.44085525829E+03  0.12699999809E+01 0.  1.
</event>
<event>
 5   0  0.2560250E-03  0.8967422E+03  0.7818609E-02  0.9429663E-01
       -3   -1    0    0    0  501  0.00000000000E+00  0.00000000000E+00  0.19453575309E+03  0.19453577931E+03  0.10100000352E+00 0.  1.
        3   -1    0    0  501    0  0.00000000000E+00  0.00000000000E+00 -0.10334172845E+04  0.10334172894E+04  0.10100000352E+00 0. -1.
    10030    2    1    2    0    0  0.00000000000E+00  0.00000000000E+00 -0.83888153141E+03  0.12279530687E+04  0.89674216767E+03 0.  0.
        2    1    3    3  502    0 -0.33950433348E+03 -0.25238826417E+03 -0.21599401153E+03  0.47499099082E+03  0.25500000920E-02 0.  1.
       -2    1    3    3    0  502  0.33950433348E+03  0.25238826417E+03 -0.62288751988E+03  0.75296207791E+03  0.25500000920E-02 0. -1.
</event>
<event>
 5   0  0.6524705E-03  0.8925152E+03  0.7818609E-02  0.9434986E-01
        2   -1    0    0  501    0  0.00000000000E+00  0.00000000000E+00  0.14616000785E+04  0.14616000785E+04  0.25500000920E-02 0.  1.
       -2   -1    0    0    0  501  0.00000000000E+00  0.00000000000E+00 -0.13625192691E+03  0.13625192693E+03  0.25500000920E-02 0. -1.
    10030    2    1    2    0    0  0.00000000000E+00  0.00000000000E+00  0.13253481516E+04  0.15978520055E+04  0.89251515862E+03 0.  0.
        3    1    3    3  502    0  0.39654770002E+02 -0.23849412770E+03 -0.88452789865E+01  0.24193015292E+03  0.10100000352E+00 0. -1.
       -3    1    3    3    0  502 -0.39654770002E+02  0.23849412770E+03  0.13341934306E+04  0.13559218526E+04  0.10100000352E+00 0.  1.
</event>
<event>
 5   0  0.6534628E-03  0.8962307E+03  0.7818609E-02  0.9430305E-01
        2   -1    0    0  501    0  0.00000000000E+00  0.00000000000E+00  0.14098710579E+04  0.14098710579E+04  0.25500000920E-02 0. -1.
       -2   -1    0    0    0  501  0.00000000000E+00  0.00000000000E+00 -0.14242961203E+03  0.14242961205E+03  0.25500000920E-02 0.  1.
    10030    2    1    2    0    0  0.00000000000E+00  0.00000000000E+00  0.12674414459E+04  0.15523006700E+04  0.89623074665E+03 0.  0.
        4    1    3    3  502    0  0.44727319607E+03 -0.13848246592E+02  0.59270814733E+03  0.74266388540E+03  0.12699999809E+01 0.  1.
       -4    1    3    3    0  502 -0.44727319607E+03  0.13848246592E+02  0.67473329857E+03  0.80963678458E+03  0.12699999809E+01 0. -1.
</event>
<event>
 5   0  0.6863405E-03  0.9031037E+03  0.7818609E-02  0.9421710E-01
        2   -1    0    0  501    0  0.00000000000E+00  0.00000000000E+00  0.58991142101E+03  0.58991142101E+03  0.25500000920E-02 0.  1.
       -2   -1    0    0    0  501  0.00000000000E+00  0.00000000000E+00 -0.34564351768E+03  0.34564351769E+03  0.25500000920E-02 0. -1.
    10030    2    1    2    0    0  0.00000000000E+00  0.00000000000E+00  0.24426790333E+03  0.93555493870E+03  0.90310366777E+03 0.  0.
        1    1    3    3  502    0 -0.58277167057E+02 -0.97532876877E+02 -0.33059388173E+03  0.34957288930E+03  0.50400001928E-02 0. -1.
       -1    1    3    3    0  502  0.58277167057E+02  0.97532876877E+02  0.57486178506E+03  0.58598204940E+03  0.50400001928E-02 0.  1.
</event>
<event>
 5   0  0.3998066E-03  0.9003509E+03  0.7818609E-02  0.9425143E-01
        1   -1    0    0  501    0  0.00000000000E+00  0.00000000000E+00  0.10065421728E+04  0.10065421728E+04  0.50400001928E-02 0.  1.
       -1   -1    0    0    0  501  0.00000000000E+00  0.00000000000E+00 -0.20134072834E+03  0.20134072840E+03  0.50400001928E-02 0. -1.
    10030    2    1    2    0    0  0.00000000000E+00  0.00000000000E+00  0.80520144449E+03  0.12078829012E+04  0.90035089654E+03 0.  0.
        4    1    3    3  502    0 -0.47650749962E+02  0.34530766804E+03  0.78476743511E+03  0.85870222993E+03  0.12699999809E+01 0.  1.
       -4    1    3    3    0  502  0.47650749962E+02 -0.34530766804E+03  0.20434009386E+02  0.34918067131E+03  0.12699999809E+01 0. -1.
</event>
<event>
 5   0  0.6524705E-03  0.9128735E+03  0.7818609E-02  0.9409630E-01
        2   -1    0    0  501    0  0.00000000000E+00  0.00000000000E+00  0.13462394871E+04  0.13462394871E+04  0.25500000920E-02 0. -1.
       -2   -1    0    0    0  501  0.00000000000E+00  0.00000000000E+00 -0.15475294024E+03  0.15475294026E+03  0.25500000920E-02 0.  1.
    10030    2    1    2    0    0  0.00000000000E+00  0.00000000000E+00  0.11914865469E+04  0.15009924274E+04  0.91287352666E+03 0.  0.
        3    1    3    3  502    0  0.10326392198E+03  0.44177654241E+03  0.67803068672E+03  0.81581589427E+03  0.10100000352E+00 0. -1.
       -3    1    3    3    0  502 -0.10326392198E+03 -0.44177654241E+03  0.51345586017E+03  0.68517653313E+03  0.10100000352E+00 0.  1.
</event>
<event>
 5   0  0.6724773E-03  0.8969811E+03  0.7818609E-02  0.9429363E-01
        2   -1    0    0  501    0  0.00000000000E+00  0.00000000000E+00  0.11965120647E+04  0.11965120647E+04  0.25500000920E-02 0.  1.
       -2   -1    0    0    0  501  0.00000000000E+00  0.00000000000E+00 -0.16810844141E+03  0.16810844143E+03  0.25500000920E-02 0. -1.
    10030    2    1    2    0    0  0.00000000000E+00  0.00000000000E+00  0.10284036233E+04  0.13646205062E+04  0.89698111094E+03 0.  0.
        5    1    3    3  502    0  0.33100023320E+02 -0.39765045379E+03  0.82561471921E+03  0.91699686451E+03  0.46999998093E+01 0.  1.
       -5    1    3    3    0  502 -0.33100023320E+02  0.39765045379E+03  0.20278890412E+03  0.44762364167E+03  0.46999998093E+01 0. -1.
</event>
<event>
 5   0  0.3943549E-03  0.9003578E+03  0.7818609E-02  0.9425134E-01
       -1   -1    0    0    0  501  0.00000000000E+00  0.00000000000E+00  0.25908477091E+03  0.25908477096E+03  0.50400001928E-02 0. -1.
        1   -1    0    0  501    0  0.00000000000E+00  0.00000000000E+00 -0.78221905635E+03  0.78221905637E+03  0.50400001928E-02 0.  1.
    10030    2    1    2    0    0  0.00000000000E+00  0.00000000000E+00 -0.52313428544E+03  0.10413038273E+04  0.90035780677E+03 0.  0.
        3    1    3    3  502    0  0.40018750058E+03  0.13067207627E+03 -0.77114408769E+02  0.42798582847E+03  0.10100000352E+00 0.  1.
       -3    1    3    3    0  502 -0.40018750058E+03 -0.13067207627E+03 -0.44601987667E+03  0.61331799885E+03  0.10100000352E+00 0. -1.
</event>
<event>
 5   0  0.2560250E-03  0.9024917E+03  0.7818609E-02  0.9422472E-01
        3   -1    0    0  501    0  0.00000000000E+00  0.00000000000E+00  0.31075512084E+03  0.31075513726E+03  0.10100000352E+00 0.  1.
       -3   -1    0    0    0  501  0.00000000000E+00  0.00000000000E+00 -0.65525164000E+03  0.65525164778E+03  0.10100000352E+00 0. -1.
    10030    2    1    2    0    0  0.00000000000E+00  0.00000000000E+00 -0.34449651915E+03  0.96600678504E+03  0.90249169360E+03 0.  0.
        3    1    3    3  502    0 -0.16882142798E+02  0.39996584016E+03 -0.39514681802E+03  0.56249328710E+03  0.10100000352E+00 0. -1.
       -3    1    3    3    0  502  0.16882142798E+02 -0.39996584016E+03  0.50650298862E+02  0.40351349794E+03  0.10100000352E+00 0.  1.
</event>
<event>
 5   0  0.3998066E-03  0.9017140E+03  0.7818609E-02  0.9423441E-01
       -1   -1    0    0    0  501  0.00000000000E+00  0.00000000000E+00  0.30515619082E+03  0.30515619086E+03  0.50400001928E-02 0.  1.
        1   -1    0    0  501    0  0.00000000000E+00  0.00000000000E+00 -0.66612456934E+03  0.66612456936E+03  0.50400001928E-02 0. -1.
    10030    2    1    2    0    0  0.00000000000E+00  0.00000000000E+00 -0.36096837852E+03  0.97128076023E+03  0.90171400393E+03 0.  0.
        4    1    3    3  502    0  0.33580603754E+03 -0.88838985736E+02  0.12911405856E+03  0.37058077831E+03  0.12699999809E+01 0.  1.
       -4    1    3    3    0  502 -0.33580603754E+03  0.88838985736E+02 -0.49008243708E+03  0.60069998191E+03  0.12699999809E+01 0. -1.
</event>
<event>
 5   0  0.6534628E-03  0.9002855E+03  0.7818609E-02  0.9425225E-01
        2   -1    0    0  501    0  0.00000000000E+00  0.00000000000E+00  0.64725668690E+03  0.64725668691E+03  0.25500000920E-02 0. -1.
       -2   -1    0    0    0  501  0.00000000000E+00  0.00000000000E+00 -0.31305736597E+03  0.31305736598E+03  0.25500000920E-02 0.  1.
    10030    2    1    2    0    0  0.00000000000E+00  0.00000000000E+00  0.33419932093E+03  0.96031405289E+03  0.90028545143E+03 0.  0.
        4    1    3    3  502    0 -0.44574805359E+03  0.31754956258E+02  0.22481031405E+03  0.50024093668E+03  0.12699999809E+01 0.  1.
       -4    1    3    3    0  502  0.44574805359E+03 -0.31754956258E+02  0.10938900688E+03  0.46007311620E+03  0.12699999809E+01 0. -1.
</event>
<event>
 5   0  0.3943549E-03  0.8950276E+03  0.7818609E-02  0.9431819E-01
        1   -1    0    0  501    0  0.00000000000E+00  0.00000000000E+00  0.14031594626E+04  0.14031594626E+04  0.50400001928E-02 0. -1.
       -1   -1    0    0    0  501  0.00000000000E+00  0.00000000000E+00 -0.14272690423E+03  0.14272690432E+03  0.50400001928E-02 0.  1.
    10030    2    1    2    0    0  0.00000000000E+00  0.00000000000E+00  0.12604325584E+04  0.15458863670E+04  0.89502761147E+03 0.  0.
        3    1    3    3  502    0  0.27903241509E+03 -0.12872348133E+03  0.11921247553E+04  0.12310931182E+04  0.10100000352E+00 0. -1.
       -3    1    3    3    0  502 -0.27903241509E+03  0.12872348133E+03  0.68307803149E+02  0.31479324880E+03  0.10100000352E+00 0.  1.
</event>
<event>
 5   0  0.6724773E-03  0.9062322E+03  0.7818609E-02  0.9417824E-01
        2   -1    0    0  501    0  0.00000000000E+00  0.00000000000E+00  0.85218202975E+03  0.85218202975E+03  0.25500000920E-02 0.  1.
       -2   -1    0    0    0  501  0.00000000000E+00  0.00000000000E+00 -0.24092765534E+03  0.24092765535E+03  0.25500000920E-02 0. -1.
    10030    2    1    2    0    0  0.00000000000E+00  0.00000000000E+00  0.61125437441E+03  0.10931096851E+04  0.90623224035E+03 0.  0.
        5    1    3    3  502    0 -0.19304954239E+03 -0.26205471388E+03  0.68582627896E+03  0.75915780559E+03  0.46999998093E+01 0.  1.
       -5    1    3    3    0  502  0.19304954239E+03  0.26205471388E+03 -0.74571904549E+02  0.33395187952E+03  0.46999998093E+01 0. -1.
</event>
<event>
 5   0  0.6609191E-03  0.8977699E+03  0.7818609E-02  0.9428373E-01
        2   -1    0    0  501    0  0.00000000000E+00  0.00000000000E+00  0.52875854713E+03  0.52875854714E+03  0.25500000920E-02 0.  1.
       -2   -1    0    0    0  501  0.00000000000E+00  0.00000000000E+00 -0.38107693931E+03  0.38107693932E+03  0.25500000920E-02 0. -1.
    10030    2    1    2    0    0  0.00000000000E+00  0.00000000000E+00  0.14768160782E+03  0.90983548646E+03  0.89776987872E+03 0.  0.
        2    1    3    3  502    0  0.17100466667E+03 -0.14325384094E+03  0.46860565655E+03  0.51899472090E+03  0.25500000920E-02 0.  1.
       -2    1    3    3    0  502 -0.17100466667E+03  0.14325384094E+03 -0.32092404873E+03  0.39084076556E+03  0.25500000920E-02 0. -1.
</event>
<event>
 5   0  0.6724773E-03  0.9008441E+03  0.7818609E-02  0.9424527E-01
        2   -1    0    0  501    0  0.00000000000E+00  0.00000000000E+00  0.99353067361E+02  0.99353067393E+02  0.25500000920E-02 0.  1.
       -2   -1    0    0    0  501  0.00000000000E+00  0.00000000000E+00 -0.20420108126E+04  0.20420108126E+04  0.25500000920E-02 0. -1.
    10030    2    1    2    0    0  0.00000000000E+00  0.00000000000E+00 -0.19426577453E+04  0.21413638800E+04  0.90084413270E+03 0.  0.
        5    1    3    3  502    0 -0.27197949707E+03  0.28614666758E+03 -0.14866924294E+04  0.15382227510E+04  0.46999998093E+01 0. -1.
       -5    1    3    3    0  502  0.27197949707E+03 -0.28614666758E+03 -0.45596531587E+03  0.60314112899E+03  0.46999998093E+01 0.  1.
</event>
<event>
 5   0  0.3794006E-03  0.9065586E+03  0.7818609E-02  0.9417420E-01
       -1   -1    0    0    0  501  0.00000000000E+00  0.00000000000E+00  0.68164337321E+03  0.68164337323E+03  0.50400001928E-02 0.  1.
        1   -1    0    0  501    0  0.00000000000E+00  0.00000000000E+00 -0.30142172541E+03  0.30142172546E+03  0.50400001928E-02 0. -1.
    10030    2    1    2    0    0  0.00000000000E+00  0.00000000000E+00  0.38022164780E+03  0.98306509869E+03  0.90655859535E+03 0.  0.
        5    1    3    3  502    0  0.19838958406E+03 -0.82915314392E+01 -0.25172126818E+03  0.32064445015E+03  0.46999998093E+01 0. -1.
       -5    1    3    3    0  502 -0.19838958406E+03  0.82915314392E+01  0.63194291598E+03  0.66242064854E+03  0.46999998093E+01 0.  1.
</event>
<event>
 5   0  0.3998066E-03  0.9082654E+03  0.7818609E-02  0.9415308E-01
       -1   -1    0    0    0  501  0.00000000000E+00  0.00000000000E+00  0.51538867386E+03  0.51538867388E+03  0.50400001928E-02 0. -1.
        1   -1    0    0  501    0  0.00000000000E+00  0.00000000000E+00 -0.40015725475E+03  0.40015725478E+03  0.50400001928E-02 0.  1.
    10030    2    1    2    0    0  0.00000000000E+00  0.00000000000E+00  0.11523141910E+03  0.91554592866E+03  0.90826541690E+03 0.  0.
        4    1    3    3  502    0 -0.19931882983E+03 -0.39523323310E+03 -0.44674803346E+02  0.44489859005E+03  0.12699999809E+01 0.  1.
       -4    1    3    3    0  502  0.19931882983E+03  0.39523323310E+03  0.15990622245E+03  0.47064733862E+03  0.12699999809E+01 0. -1.
</event>
<event>
 5   0  0.6524705E-03  0.9092552E+03  0.7818609E-02  0.9414085E-01
        2   -1    0    0  501    0  0.00000000000E+00  0.00000000000E+00  0.49465264815E+03  0.49465264816E+03  0.25500000920E-02 0.  1.
       -2   -1    0    0    0  501  0.00000000000E+00  0.00000000000E+00 -0.41784122825E+03  0.41784122825E+03  0.25500000920E-02 0. -1.
    10030    2    1    2    0    0  0.00000000000E+00  0.00000000000E+00  0.76811419905E+02  0.91249387641E+03  0.90925523384E+03 0.  0.
        3    1    3    3  502    0  0.25953439995E+03 -0.55156703931E+02 -0.33207841322E+03  0.42506052448E+03  0.10100000352E+00 0. -1.
       -3    1    3    3    0  502 -0.25953439995E+03  0.55156703931E+02  0.40888983312E+03  0.48743335193E+03  0.10100000352E+00 0.  1.
</event>
<event>
 5   0  0.3927993E-03  0.9027828E+03  0.7818609E-02  0.9422110E-01
        1   -1    0    0  501    0  0.00000000000E+00  0.00000000000E+00  0.37097153296E+03  0.37097153300E+03  0.50400001928E-02 0.  1.
       -1   -1    0    0    0  501  0.00000000000E+00  0.00000000000E+00 -0.54924478332E+03  0.54924478335E+03  0.50400001928E-02 0. -1.
    10030    2    1    2    0    0  0.00000000000E+00  0.00000000000E+00 -0.17827325036E+03  0.92021631634E+03  0.90278276295E+03 0.  0.
        2    1    3    3  502    0 -0.23236637492E+03 -0.33346561508E+03 -0.28929754960E+03  0.49888527824E+03  0.25500000920E-02 0. -1.
       -2    1    3    3    0  502  0.23236637492E+03  0.33346561508E+03  0.11102429924E+03  0.42133103810E+03  0.25500000920E-02 0.  1.
</event>
<event>
 5   0  0.6534628E-03  0.8963777E+03  0.7818609E-02  0.9430121E-01
       -2   -1    0    0    0  501  0.00000000000E+00  0.00000000000E+00  0.31081717057E+03  0.31081717058E+03  0.25500000920E-02 0.  1.
        2   -1    0    0  501    0  0.00000000000E+00  0.00000000000E+00 -0.64627461250E+03  0.64627461251E+03  0.25500000920E-02 0. -1.
    10030    2    1    2    0    0  0.00000000000E+00  0.00000000000E+00 -0.33545744193E+03  0.95709178308E+03  0.89637770270E+03 0.  0.
        4    1    3    3  502    0  0.19780463598E+03 -0.35523058503E+03 -0.36906412849E+03  0.54911327282E+03  0.12699999809E+01 0.  1.
       -4    1    3    3    0  502 -0.19780463598E+03  0.35523058503E+03  0.33606686555E+02  0.40797851026E+03  0.12699999809E+01 0. -1.
</event>
<event>
 5   0  0.3998066E-03  0.8959237E+03  0.7818609E-02  0.9430691E-01
       -1   -1    0    0    0  501  0.00000000000E+00  0.00000000000E+00  0.49420083250E+03  0.49420083253E+03  0.50400001928E-02 0.  1.
        1   -1    0    0  501    0  0.00000000000E+00  0.00000000000E+00 -0.40604914305E+03  0.40604914308E+03  0.50400001928E-02 0. -1.
    10030    2    1    2    0    0  0.00000000000E+00  0.00000000000E+00  0.88151689458E+02  0.90024997561E+03  0.89592371228E+03 0.  0.
        4    1    3    3  502    0  0.50527975732E+01 -0.20055759454E+03  0.44653372841E+03  0.48953331143E+03  0.12699999809E+01 0.  1.
       -4    1    3    3    0  502 -0.50527975732E+01  0.20055759454E+03 -0.35838203895E+03  0.41071666418E+03  0.12699999809E+01 0. -1.
</event>
<event>
 5   0  0.3969536E-03  0.8974364E+03  0.7818609E-02  0.9428792E-01
        1   -1    0    0  501    0  0.00000000000E+00  0.00000000000E+00  0.26826421591E+03  0.26826421596E+03  0.50400001928E-02 0.  1.
       -1   -1    0    0    0  501  0.00000000000E+00  0.00000000000E+00 -0.75055862676E+03  0.75055862677E+03  0.50400001928E-02 0. -1.
    10030    2    1    2    0    0  0.00000000000E+00  0.00000000000E+00 -0.48229441085E+03  0.10188228427E+04  0.89743639671E+03 0.  0.
        1    1    3    3  502    0 -0.29274183482E+03 -0.27010542816E+03 -0.65759222060E+01  0.39836913404E+03  0.50400001928E-02 0.  1.
       -1    1    3    3    0  502  0.29274183482E+03  0.27010542816E+03 -0.47571848864E+03  0.62045370870E+03  0.50400001928E-02 0. -1.
</event>
<event>
 5   0  0.3794006E-03  0.9015283E+03  0.7818609E-02  0.9423673E-01
       -1   -1    0    0    0  501  0.00000000000E+00  0.00000000000E+00  0.58545851878E+03  0.58545851880E+03  0.50400001928E-02 0.  1.
        1   -1    0    0  501    0  0.00000000000E+00  0.00000000000E+00 -0.34705845575E+03  0.34705845579E+03  0.50400001928E-02 0. -1.
    10030    2    1    2    0    0  0.00000000000E+00  0.00000000000E+00  0.23840006303E+03  0.93251697459E+03  0.90152832338E+03 0.  0.
        5    1    3    3  502    0  0.51370826528E+02  0.30714510867E+03  0.45626798396E+03  0.55243066786E+03  0.46999998093E+01 0.  1.
       -5    1    3    3    0  502 -0.51370826528E+02 -0.30714510867E+03 -0.21786792093E+03  0.38008630674E+03  0.46999998093E+01 0. -1.
</event>
<event>
 5   0  0.3943549E-03  0.9046054E+03  0.7818609E-02  0.9419843E-01
        1   -1    0    0  501    0  0.00000000000E+00  0.00000000000E+00  0.48942128935E+03  0.48942128938E+03  0.50400001928E-02 0. -1.
       -1   -1    0    0    0  501  0.00000000000E+00  0.00000000000E+00 -0.41799928682E+03  0.41799928685E+03  0.50400001928E-02 0.  1.
    10030    2    1    2    0    0  0.00000000000E+00  0.00000000000E+00  0.71422002528E+02  0.90742057623E+03  0.90460543870E+03 0.  0.
        3    1    3    3  502    0 -0.17473350672E+03 -0.35354987951E+02 -0.38126996209E+03  0.42089020865E+03  0.10100000352E+00 0.  1.
       -3    1    3    3    0  502  0.17473350672E+03  0.35354987951E+02  0.45269196462E+03  0.48653036758E+03  0.10100000352E+00 0. -1.
</event>
<event>
 5   0  0.6609191E-03  0.8976431E+03  0.7818609E-02  0.9428532E-01
       -2   -1    0    0    0  501  0.00000000000E+00  0.00000000000E+00  0.30910955339E+03  0.30910955340E+03  0.25500000920E-02 0.  1.
        2   -1    0    0  501    0  0.00000000000E+00  0.00000000000E+00 -0.65168084909E+03  0.65168084910E+03  0.25500000920E-02 0. -1.
    10030    2    1    2    0    0  0.00000000000E+00  0.00000000000E+00 -0.34257129570E+03  0.96079040250E+03  0.89764308325E+03 0.  0.
        2    1    3    3  502    0 -0.29722717512E+03  0.29369447744E+03  0.40696719265E+01  0.41787199229E+03  0.25500000920E-02 0.  1.
       -2    1    3    3    0  502  0.29722717512E+03 -0.29369447744E+03 -0.34664096763E+03  0.54291841021E+03  0.25500000920E-02 0. -1.
</event>
<event>
 5   0  0.3998066E-03  0.9030095E+03  0.7818609E-02  0.9421827E-01
        1   -1    0    0  501    0  0.00000000000E+00  0.00000000000E+00  0.13924360977E+04  0.13924360977E+04  0.50400001928E-02 0.  1.
       -1   -1    0    0    0  501  0.00000000000E+00  0.00000000000E+00 -0.14640279615E+03  0.14640279624E+03  0.50400001928E-02 0. -1.
    10030    2    1    2    0    0  0.00000000000E+00  0.00000000000E+00  0.12460333015E+04  0.15388388939E+04  0.90300949771E+03 0.  0.
        4    1    3    3  502    0 -0.13671231776E+03 -0.75549918794E+02  0.13449230466E+04  0.13539636857E+04  0.12699999809E+01 0.  1.
       -4    1    3    3    0  502  0.13671231776E+03  0.75549918794E+02 -0.98889745030E+02  0.18487520826E+03  0.12699999809E+01 0. -1.
</event>
<event>
 5   0  0.6724773E-03  0.9004940E+03  0.7818609E-02  0.9424964E-01
        2   -1    0    0  501    0  0.00000000000E+00  0.00000000000E+00  0.10554619997E+04  0.10554619997E+04  0.25500000920E-02 0.  1.
       -2   -1    0    0    0  501  0.00000000000E+00  0.00000000000E+00 -0.19206977356E+03  0.19206977358E+03  0.25500000920E-02 0. -1.
    10030    2    1    2    0    0  0.00000000000E+00  0.00000000000E+00  0.86339222612E+03  0.12475317733E+04  0.90049396955E+03 0.  0.
        5    1    3    3  502    0 -0.86368400045E+02 -0.23991764455E+03  0.94574766887E+03  0.97953086723E+03  0.46999998093E+01 0.  1.
       -5    1    3    3    0  502  0.86368400045E+02  0.23991764455E+03 -0.82355442741E+02  0.26800090604E+03  0.46999998093E+01 0. -1.
</event>
<event>
 5   0  0.2560250E-03  0.9030645E+03  0.7818609E-02  0.9421759E-01
       -3   -1    0    0    0  501  0.00000000000E+00  0.00000000000E+00  0.35092852474E+03  0.35092853928E+03  0.10100000352E+00 0. -1.
        3   -1    0    0  501    0  0.00000000000E+00  0.00000000000E+00 -0.58097691157E+03  0.58097692035E+03  0.10100000352E+00 0.  1.
    10030    2    1    2    0    0  0.00000000000E+00  0.00000000000E+00 -0.23004838683E+03  0.93190545963E+03  0.90306451896E+03 0.  0.
        5    1    3    3  502    0  0.19049735616E+03 -0.35174948665E+02  0.30584001045E+03  0.36205900307E+03  0.46999998093E+01 0. -1.
       -5    1    3    3    0  502 -0.19049735616E+03  0.35174948665E+02 -0.53588839727E+03  0.56984645656E+03  0.46999998093E+01 0.  1.
</event>
<event>
 5   0  0.6534628E-03  0.9036867E+03  0.7818609E-02  0.9420985E-01
       -2   -1    0    0    0  501  0.00000000000E+00  0.00000000000E+00  0.17065430727E+03  0.17065430729E+03  0.25500000920E-02 0. -1.
        2   -1    0    0  501    0  0.00000000000E+00  0.00000000000E+00 -0.11963508113E+04  0.11963508113E+04  0.25500000920E-02 0.  1.
    10030    2    1    2    0    0  0.00000000000E+00  0.00000000000E+00 -0.10256965040E+04  0.13670051186E+04  0.90368671335E+03 0.  0.
        4    1    3    3  502    0 -0.39313858179E+03 -0.15032470517E+03 -0.76143450345E+03  0.87002274534E+03  0.12699999809E+01 0. -1.
       -4    1    3    3    0  502  0.39313858179E+03  0.15032470517E+03 -0.26426200059E+03  0.49698237326E+03  0.12699999809E+01 0.  1.
</event>
<event>
 5   0  0.3969536E-03  0.8908080E+03  0.7818609E-02  0.9437145E-01
       -1   -1    0    0    0  501  0.00000000000E+00  0.00000000000E+00  0.54158680431E+03  0.54158680433E+03  0.50400001928E-02 0. -1.
        1   -1    0    0  501    0  0.00000000000E+00  0.00000000000E+00 -0.36630275415E+03  0.36630275419E+03  0.50400001928E-02 0.  1.
    10030    2    1    2    0    0  0.00000000000E+00  0.00000000000E+00  0.17528405016E+03  0.90788955852E+03  0.89080803333E+03 0.  0.
        1    1    3    3  502    0  0.41692545863E+03  0.61045079352E+02 -0.59456428672E+02  0.42554483512E+03  0.50400001928E-02 0. -1.
       -1    1    3    3    0  502 -0.41692545863E+03 -0.61045079352E+02  0.23474047883E+03  0.48234472340E+03  0.50400001928E-02 0.  1.
</event>
<event>
 5   0  0.6724773E-03  0.9057244E+03  0.7818609E-02  0.9418454E-01
        2   -1    0    0  501    0  0.00000000000E+00  0.00000000000E+00  0.11546401199E+04  0.11546401199E+04  0.25500000920E-02 0.  1.
       -2   -1    0    0    0  501  0.00000000000E+00  0.00000000000E+00 -0.17761740527E+03  0.17761740528E+03  0.25500000920E-02 0. -1.
    10030    2    1    2    0    0  0.00000000000E+00  0.00000000000E+00  0.97702271467E+03  0.13322575252E+04  0.90572442196E+03 0.  0.
        5    1    3    3  502    0 -0.39123286151E+03  0.49157800846E+02  0.81604513837E+03  0.90632852717E+03  0.46999998093E+01 0.  1.
       -5    1    3    3    0  502  0.39123286151E+03 -0.49157800846E+02  0.16097757630E+03  0.42592899805E+03  0.46999998093E+01 0. -1.
</event>
<event>
 5   0  0.2560250E-03  0.8957775E+03  0.7818609E-02  0.9430875E-01
        3   -1    0    0  501    0  0.00000000000E+00  0.00000000000E+00  0.47955509435E+03  0.47955510499E+03  0.10100000352E+00 0. -1.
       -3   -1    0    0    0  501  0.00000000000E+00  0.00000000000E+00 -0.41831339616E+03  0.41831340835E+03  0.10100000352E+00 0.  1.
    10030    2    1    2    0    0  0.00000000000E+00  0.00000000000E+00  0.61241698193E+02  0.89786851334E+03  0.89577749561E+03 0.  0.
        3    1    3    3  502    0 -0.23851998108E+03 -0.37811786350E+03  0.33650932331E+01  0.44707519964E+03  0.10100000352E+00 0. -1.
       -3    1    3    3    0  502  0.23851998108E+03  0.37811786350E+03  0.57876604960E+02  0.45079331370E+03  0.10100000352E+00 0.  1.
</event>
<event>
 5   0  0.6863405E-03  0.9031560E+03  0.7818609E-02  0.9421645E-01
        2   -1    0    0  501    0  0.00000000000E+00  0.00000000000E+00  0.77662231830E+03  0.77662231831E+03  0.25500000920E-02 0. -1.
       -2   -1    0    0    0  501  0.00000000000E+00  0.00000000000E+00 -0.26257637881E+03  0.26257637883E+03  0.25500000920E-02 0.  1.
    10030    2    1    2    0    0  0.00000000000E+00  0.00000000000E+00  0.51404593949E+03  0.10391986971E+04  0.90315596894E+03 0.  0.
        1    1    3    3  502    0 -0.14081608296E+03 -0.17961358011E+03 -0.19132805191E+03  0.29781979594E+03  0.50400001928E-02 0.  1.
       -1    1    3    3    0  502  0.14081608296E+03  0.17961358011E+03  0.70537399140E+03  0.74137890120E+03  0.50400001928E-02 0. -1.
</event>
<event>
 5   0  0.6524705E-03  0.9001356E+03  0.7818609E-02  0.9425412E-01
        2   -1    0    0  501    0  0.00000000000E+00  0.00000000000E+00  0.10688567210E+04  0.10688567210E+04  0.25500000920E-02 0. -1.
       -2   -1    0    0    0  501  0.00000000000E+00  0.00000000000E+00 -0.18951186765E+03  0.18951186767E+03  0.25500000920E-02 0.  1.
    10030    2    1    2    0    0  0.00000000000E+00  0.00000000000E+00  0.87934485338E+03  0.12583685887E+04  0.90013561970E+03 0.  0.
        3    1    3    3  502    0 -0.16275977882E+03  0.48012054931E+02  0.10224210065E+04  0.10364075587E+04  0.10100000352E+00 0. -1.
       -3    1    3    3    0  502  0.16275977882E+03 -0.48012054931E+02 -0.14307615315E+03  0.22196102996E+03  0.10100000352E+00 0.  1.
</event>
<event>
 5   0  0.3969536E-03  0.8995833E+03  0.7818609E-02  0.9426103E-01
       -1   -1    0    0    0  501  0.00000000000E+00  0.00000000000E+00  0.28039676949E+03  0.28039676954E+03  0.50400001928E-02 0. -1.
        1   -1    0    0  501    0  0.00000000000E+00  0.00000000000E+00 -0.72152225957E+03  0.72152225958E+03  0.50400001928E-02 0.  1.
    10030    2    1    2    0    0  0.00000000000E+00  0.00000000000E+00 -0.44112549008E+03  0.10019190291E+04  0.89958326069E+03 0.  0.
        1    1    3    3  502    0 -0.22262730775E+02 -0.11701106409E+03  0.26251257862E+03  0.28827083144E+03  0.50400001928E-02 0. -1.
       -1    1    3    3    0  502  0.22262730775E+02  0.11701106409E+03 -0.70363806870E+03  0.71364819768E+03  0.50400001928E-02 0.  1.
</event>
<event>
 5   0  0.3927993E-03  0.8969067E+03  0.7818609E-02  0.9429457E-01
       -1   -1    0    0    0  501  0.00000000000E+00  0.00000000000E+00  0.21985625994E+03  0.21985626000E+03  0.50400001928E-02 0.  1.
        1   -1    0    0  501    0  0.00000000000E+00  0.00000000000E+00 -0.91473579836E+03  0.91473579837E+03  0.50400001928E-02 0. -1.
    10030    2    1    2    0    0  0.00000000000E+00  0.00000000000E+00 -0.69487953842E+03  0.11345920584E+04  0.89690666515E+03 0.  0.
        2    1    3    3  502    0 -0.43100673365E+03 -0.58972442094E+02 -0.48523738313E+03  0.65169001171E+03  0.25500000920E-02 0.  1.
       -2    1    3    3    0  502  0.43100673365E+03  0.58972442094E+02 -0.20964215529E+03  0.48290204665E+03  0.25500000920E-02 0. -1.
</event>
<event>
 5   0  0.6863405E-03  0.9071023E+03  0.7818609E-02  0.9416747E-01
       -2   -1    0    0    0  501  0.00000000000E+00  0.00000000000E+00  0.58868241994E+03  0.58868241995E+03  0.25500000920E-02 0. -1.
        2   -1    0    0  501    0  0.00000000000E+00  0.00000000000E+00 -0.34943906490E+03  0.34943906491E+03  0.25500000920E-02 0.  1.
    10030    2    1    2    0    0  0.00000000000E+00  0.00000000000E+00  0.23924335504E+03  0.93812148485E+03  0.90710227506E+03 0.  0.
        1    1    3    3  502    0  0.42463920769E+03  0.36769788941E+02  0.27996594541E+03  0.50995235533E+03  0.50400001928E-02 0. -1.
       -1    1    3    3    0  502 -0.42463920769E+03 -0.36769788941E+02 -0.40722590372E+02  0.42816912953E+03  0.50400001928E-02 0.  1.
</event>
<event>
 5   0  0.6524705E-03  0.8974455E+03  0.7818609E-02  0.9428780E-01
        2   -1    0    0  501    0  0.00000000000E+00  0.00000000000E+00  0.34341746560E+03  0.34341746561E+03  0.25500000920E-02 0. -1.
       -2   -1    0    0    0  501  0.00000000000E+00  0.00000000000E+00 -0.58631876921E+03  0.58631876922E+03  0.25500000920E-02 0.  1.
    10030    2    1    2    0    0  0.00000000000E+00  0.00000000000E+00 -0.24290130361E+03  0.92973623482E+03  0.89744549865E+03 0.  0.
        3    1    3    3  502    0  0.91677490181E+02 -0.42807132222E+03 -0.19406411716E+02  0.43820821322E+03  0.10100000352E+00 0. -1.
       -3    1    3    3    0  502 -0.91677490181E+02  0.42807132222E+03 -0.22349489190E+03  0.49152802160E+03  0.10100000352E+00 0.  1.
</event>
<event>
 5   0  0.3794006E-03  0.8917108E+03  0.7818609E-02  0.9436003E-01
       -1   -1    0    0    0  501  0.00000000000E+00  0.00000000000E+00  0.17082851057E+03  0.17082851064E+03  0.50400001928E-02 0. -1.
        1   -1    0    0  501    0  0.00000000000E+00  0.00000000000E+00 -0.11636644185E+04  0.11636644185E+04  0.50400001928E-02 0.  1.
    10030    2    1    2    0    0  0.00000000000E+00  0.00000000000E+00 -0.99283590797E+03  0.13344929292E+04  0.89171084882E+03 0.  0.
        5    1    3    3  502    0  0.21672941053E+03 -0.38893736012E+03 -0.53057945338E+03  0.69266193330E+03  0.46999998093E+01 0.  1.
       -5    1    3    3    0  502 -0.21672941053E+03  0.38893736012E+03 -0.46225645459E+03  0.64183099589E+03  0.46999998093E+01 0. -1.
</event>
<event>
 5   0  0.6524705E-03  0.8967343E+03  0.7818609E-02  0.9429673E-01
        2   -1    0    0  501    0  0.00000000000E+00  0.00000000000E+00  0.95138791476E+03  0.95138791476E+03  0.25500000920E-02 0. -1.
       -2   -1    0    0    0  501  0.00000000000E+00  0.00000000000E+00 -0.21130509312E+03  0.21130509314E+03  0.25500000920E-02 0.  1.
    10030    2    1    2    0    0  0.00000000000E+00  0.00000000000E+00  0.74008282164E+03  0.11626930079E+04  0.89673432395E+03 0.  0.
        3    1    3    3  502    0 -0.32591954128E+03 -0.23010470949E+03  0.63532355704E+03  0.75020514331E+03  0.10100000352E+00 0. -1.
       -3    1    3    3    0  502  0.32591954128E+03  0.23010470949E+03  0.10475926459E+03  0.41248786459E+03  0.10100000352E+00 0.  1.
</event>
<event>
 5   0  0.3998066E-03  0.8965057E+03  0.7818609E-02  0.9429960E-01
       -1   -1    0    0    0  501  0.00000000000E+00  0.00000000000E+00  0.30189964464E+03  0.30189964468E+03  0.50400001928E-02 0.  1.
        1   -1    0    0  501    0  0.00000000000E+00  0.00000000000E+00 -0.66555427924E+03  0.66555427926E+03  0.50400001928E-02 0. -1.
    10030    2    1    2    0    0  0.00000000000E+00  0.00000000000E+00 -0.36365463459E+03  0.96745392394E+03  0.89650566183E+03 0.  0.
        4    1    3    3  502    0 -0.30976569082E+03 -0.13983199137E+03 -0.49722618864E+03  0.60228171530E+03  0.12699999809E+01 0. -1.
       -4    1    3    3    0  502  0.30976569082E+03  0.13983199137E+03  0.13357155404E+03  0.36517220864E+03  0.12699999809E+01 0.  1.
</event>
<event>
 5   0  0.3998066E-03  0.9148906E+03  0.7818609E-02  0.9407157E-01
        1   -1    0    0  501    0  0.00000000000E+00  0.00000000000E+00  0.86684435434E+03  0.86684435435E+03  0.50400001928E-02 0.  1.
       -1   -1    0    0    0  501  0.00000000000E+00  0.00000000000E+00 -0.24139997030E+03  0.24139997035E+03  0.50400001928E-02 0. -1.
    10030    2    1    2    0    0  0.00000000000E+00  0.00000000000E+00  0.62544438404E+03  0.11082443247E+04  0.91489059767E+03 0.  0.
        4    1    3    3  502    0 -0.55665466239E+02 -0.78207232586E+02  0.85450386657E+03  0.85987992548E+03  0.12699999809E+01 0.  1.
       -4    1    3    3    0  502  0.55665466239E+02  0.78207232586E+02 -0.22905948253E+03  0.24836439922E+03  0.12699999809E+01 0. -1.
</event>
<event>
 5   0  0.6524705E-03  0.9008196E+03  0.7818609E-02  0.9424558E-01
        2   -1    0    0  501    0  0.00000000000E+00  0.00000000000E+00  0.97275132880E+03  0.97275132881E+03  0.25500000920E-02 0.  1.
       -2   -1    0    0    0  501  0.00000000000E+00  0.00000000000E+00 -0.20855172921E+03  0.20855172923E+03  0.25500000920E-02 0. -1.
    10030    2    1    2    0    0  0.00000000000E+00  0.00000000000E+00  0.76419959959E+03  0.11813030580E+04  0.90081956401E+03 0.  0.
        3    1    3    3  502    0  0.14736046901E+03 -0.53436756285E+02 -0.17162911357E+03  0.23243742722E+03  0.10100000352E+00 0. -1.
       -3    1    3    3    0  502 -0.14736046901E+03  0.53436756285E+02  0.93582871317E+03  0.94886563081E+03  0.10100000352E+00 0.  1.
</event>
<event>
 5   0  0.3943549E-03  0.9012827E+03  0.7818609E-02  0.9423979E-01
       -1   -1    0    0    0  501  0.00000000000E+00  0.00000000000E+00  0.56471240409E+03  0.56471240412E+03  0.50400001928E-02 0. -1.
        1   -1    0    0  501    0  0.00000000000E+00  0.00000000000E+00 -0.35961244010E+03  0.35961244014E+03  0.50400001928E-02 0.  1.
    10030    2    1    2    0    0  0.00000000000E+00  0.00000000000E+00  0.20509996399E+03  0.92432484425E+03  0.90128265404E+03 0.  0.
        3    1    3    3  502    0 -0.13567506989E+03 -0.58599044087E+02  0.53915213712E+03  0.55904079433E+03  0.10100000352E+00 0. -1.
       -3    1    3    3    0  502  0.13567506989E+03  0.58599044087E+02 -0.33405217313E+03  0.36528404993E+03  0.10100000352E+00 0.  1.
</event>
<event>
 5   0  0.3969536E-03  0.8990825E+03  0.7818609E-02  0.9426729E-01
        1   -1    0    0  501    0  0.00000000000E+00  0.00000000000E+00  0.91281318951E+03  0.91281318952E+03  0.50400001928E-02 0.  1.
       -1   -1    0    0    0  501  0.00000000000E+00  0.00000000000E+00 -0.22138960606E+03  0.22138960612E+03  0.50400001928E-02 0. -1.
    10030    2    1    2    0    0  0.00000000000E+00  0.00000000000E+00  0.69142358345E+03  0.11342027956E+04  0.89908253787E+03 0.  0.
        1    1    3    3  502    0 -0.25232973087E+02 -0.39555731123E+03  0.78149247255E+02  0.40399207204E+03  0.50400001928E-02 0. -1.
       -1    1    3    3    0  502  0.25232973087E+02  0.39555731123E+03  0.61327433619E+03  0.73021072360E+03  0.50400001928E-02 0.  1.
</event>
<event>
 5   0  0.3998066E-03  0.8951091E+03  0.7818609E-02  0.9431716E-01
       -1   -1    0    0    0  501  0.00000000000E+00  0.00000000000E+00  0.70288380457E+03  0.70288380459E+03  0.50400001928E-02 0. -1.
        1   -1    0    0  501    0  0.00000000000E+00  0.00000000000E+00 -0.28497611374E+03  0.28497611378E+03  0.50400001928E-02 0.  1.
    10030    2    1    2    0    0  0.00000000000E+00  0.00000000000E+00  0.41790769083E+03  0.98785991837E+03  0.89510914433E+03 0.  0.
        4    1    3    3  502    0 -0.40119924673E+03 -0.19788185175E+03  0.22398169656E+03  0.50028739352E+03  0.12699999809E+01 0. -1.
       -4    1    3    3    0  502  0.40119924673E+03  0.19788185175E+03  0.19392599428E+03  0.48757252484E+03  0.12699999809E+01 0.  1.
</event>
<event>
 5   0  0.6609191E-03  0.8953505E+03  0.7818609E-02  0.9431412E-01
        2   -1    0    0  501    0  0.00000000000E+00  0.00000000000E+00  0.14789317808E+04  0.14789317808E+04  0.25500000920E-02 0.  1.
       -2   -1    0    0    0  501  0.00000000000E+00  0.00000000000E+00 -0.13551207246E+03  0.13551207249E+03  0.25500000920E-02 0. -1.
    10030    2    1    2    0    0  0.00000000000E+00  0.00000000000E+00  0.13434197083E+04  0.16144438532E+04  0.89535045801E+03 0.  0.
        2    1    3    3  502    0  0.14031727544E+03 -0.34489042255E+03  0.11198722898E+04  0.11801492647E+04  0.25500000920E-02 0.  1.
       -2    1    3    3    0  502 -0.14031727544E+03  0.34489042255E+03  0.22354741844E+03  0.43429458856E+03  0.25500000920E-02 0. -1.
</event>
<event>
 5   0  0.6609191E-03  0.8998925E+03  0.7818609E-02  0.9425716E-01
        2   -1    0    0  501    0  0.00000000000E+00  0.00000000000E+00  0.38144600622E+03  0.38144600623E+03  0.25500000920E-02 0.  1.
       -2   -1    0    0    0  501  0.00000000000E+00  0.00000000000E+00 -0.53074781442E+03  0.53074781443E+03  0.25500000920E-02 0. -1.
    10030    2    1    2    0    0  0.00000000000E+00  0.00000000000E+00 -0.14930180820E+03  0.91219382066E+03  0.89989251387E+03 0.  0.
        2    1    3    3  502    0  0.35355806846E+03 -0.10118713053E+03 -0.33744269224E+03  0.49910891969E+03  0.25500000920E-02 0. -1.
       -2    1    3    3    0  502 -0.35355806846E+03  0.10118713053E+03  0.18814088404E+03  0.41308490097E+03  0.25500000920E-02 0.  1.
</event>
<event>
 5   0  0.6609191E-03  0.8987752E+03  0.7818609E-02  0.9427114E-01
        2   -1    0    0  501    0  0.00000000000E+00  0.00000000000E+00  0.88245161221E+03  0.88245161221E+03  0.25500000920E-02 0. -1.
       -2   -1    0    0    0  501  0.00000000000E+00  0.00000000000E+00 -0.22885017124E+03  0.22885017126E+03  0.25500000920E-02 0.  1.
    10030    2    1    2    0    0  0.00000000000E+00  0.00000000000E+00  0.65360144096E+03  0.11113017835E+04  0.89877517228E+03 0.  0.
        2    1    3    3  502    0 -0.82626953082E+02  0.36999266492E+03  0.28437897774E+02  0.38017167110E+03  0.25500000920E-02 0.  1.
       -2    1    3    3    0  502  0.82626953082E+02 -0.36999266492E+03  0.62516354319E+03  0.73113011237E+03  0.25500000920E-02 0. -1.
</event>
<event>
 5   0  0.3927993E-03  0.9153254E+03  0.7818609E-02  0.9406624E-01
       -1   -1    0    0    0  501  0.00000000000E+00  0.00000000000E+00  0.51762938949E+03  0.51762938951E+03  0.50400001928E-02 0. -1.
        1   -1    0    0  501    0  0.00000000000E+00  0.00000000000E+00 -0.40464303944E+03  0.40464303947E+03  0.50400001928E-02 0.  1.
    10030    2    1    2    0    0  0.00000000000E+00  0.00000000000E+00  0.11298635005E+03  0.92227242899E+03  0.91532536181E+03 0.  0.
        2    1    3    3  502    0 -0.20138277750E+03  0.37554814203E+03 -0.11169796648E+03  0.44053134483E+03  0.25500000920E-02 0.  1.
       -2    1    3    3    0  502  0.20138277750E+03 -0.37554814203E+03  0.22468431653E+03  0.48174108415E+03  0.25500000920E-02 0. -1.
</event>
<event>
 5   0  0.3998066E-03  0.9058577E+03  0.7818609E-02  0.9418289E-01
        1   -1    0    0  501    0  0.00000000000E+00  0.00000000000E+00  0.26512350592E+03  0.26512350597E+03  0.50400001928E-02 0. -1.
       -1   -1    0    0    0  501  0.00000000000E+00  0.00000000000E+00 -0.77376967879E+03  0.77376967880E+03  0.50400001928E-02 0.  1.
    10030    2    1    2    0    0  0.00000000000E+00  0.00000000000E+00 -0.50864617286E+03  0.10388931848E+04  0.90585767105E+03 0.  0.
        4    1    3    3  502    0 -0.15381457357E+03  0.82093087967E+02  0.22509339562E+03  0.28472240478E+03  0.12699999809E+01 0.  1.
       -4    1    3    3    0  502  0.15381457357E+03 -0.82093087967E+02 -0.73373956848E+03  0.75417077999E+03  0.12699999809E+01 0. -1.
</event>
<event>
 5   0  0.3943549E-03  0.8946972E+03  0.7818609E-02  0.9432235E-01
        1   -1    0    0  501    0  0.00000000000E+00  0.00000000000E+00  0.39616459034E+03  0.39616459037E+03  0.50400001928E-02 0. -1.
       -1   -1    0    0    0  501  0.00000000000E+00  0.00000000000E+00 -0.50514554404E+03  0.50514554407E+03  0.50400001928E-02 0.  1.
    10030    2    1    2    0    0  0.00000000000E+00  0.00000000000E+00 -0.10898095370E+03  0.90131013444E+03  0.89469721703E+03 0.  0.
        3    1    3    3  502    0  0.82832318084E+02 -0.83248643387E+02  0.38035871931E+03  0.39807574041E+03  0.10100000352E+00 0. -1.
       -3    1    3    3    0  502 -0.82832318084E+02  0.83248643387E+02 -0.48933967301E+03  0.50323439403E+03  0.10100000352E+00 0.  1.
</event>
<event>
 5   0  0.6724773E-03  0.8991315E+03  0.7818609E-02  0.9426668E-01
       -2   -1    0    0    0  501  0.00000000000E+00  0.00000000000E+00  0.13786181840E+03  0.13786181843E+03  0.25500000920E-02 0. -1.
        2   -1    0    0  501    0  0.00000000000E+00  0.00000000000E+00 -0.14660285057E+04  0.14660285057E+04  0.25500000920E-02 0.  1.
    10030    2    1    2    0    0  0.00000000000E+00  0.00000000000E+00 -0.13281666873E+04  0.16038903241E+04  0.89913148236E+03 0.  0.
        5    1    3    3  502    0  0.72064275218E+02 -0.28306169522E+03 -0.12736444613E+04  0.13067170646E+04  0.46999998093E+01 0.  1.
       -5    1    3    3    0  502 -0.72064275218E+02  0.28306169522E+03 -0.54522225989E+02  0.29717325954E+03  0.46999998093E+01 0. -1.
</event>
<event>
 5   0  0.3998066E-03  0.8014474E+03  0.7818609E-02  0.9557924E-01
       -1   -1    0    0    0  501  0.00000000000E+00  0.00000000000E+00  0.21632579509E+03  0.21632579515E+03  0.50400001928E-02 0. -1.
        1   -1    0    0  501    0  0.00000000000E+00  0.00000000000E+00 -0.74230394151E+03  0.74230394152E+03  0.50400001928E-02 0.  1.
    10030    2    1    2    0    0  0.00000000000E+00  0.00000000000E+00 -0.52597814642E+03  0.95862973667E+03  0.80144741656E+03 0.  0.
        4    1    3    3  502    0  0.22356550113E+03  0.15346368064E+03 -0.61588641265E+03  0.67294154334E+03  0.12699999809E+01 0.  1.
       -4    1    3    3    0  502 -0.22356550113E+03 -0.15346368064E+03  0.89908266226E+02  0.28568819333E+03  0.12699999809E+01 0. -1.
</event>
<event>
 5   0  0.6724773E-03  0.8998383E+03  0.7818609E-02  0.9425784E-01
        2   -1    0    0  501    0  0.00000000000E+00  0.00000000000E+00  0.16140304070E+04  0.16140304070E+04  0.25500000920E-02 0. -1.
       -2   -1    0    0    0  501  0.00000000000E+00  0.00000000000E+00 -0.12541724198E+03  0.12541724200E+03  0.25500000920E-02 0.  1.
    10030    2    1    2    0    0  0.00000000000E+00  0.00000000000E+00  0.14886131650E+04  0.17394476490E+04  0.89983830134E+03 0.  0.
        5    1    3    3  502    0  0.33931652473E+01 -0.76670369945E+01 -0.12521875001E+03  0.12558711072E+03  0.46999998093E+01 0.  1.
       -5    1    3    3    0  502 -0.33931652473E+01  0.76670369945E+01  0.16138319151E+04  0.16138605383E+04  0.46999998093E+01 0. -1.
</event>
<event>
 5   0  0.3998066E-03  0.8944023E+03  0.7818609E-02  0.9432606E-01
       -1   -1    0    0    0  501  0.00000000000E+00  0.00000000000E+00  0.35272624331E+03  0.35272624334E+03  0.50400001928E-02 0.  1.
        1   -1    0    0  501    0  0.00000000000E+00  0.00000000000E+00 -0.56698041262E+03  0.56698041265E+03  0.50400001928E-02 0. -1.
    10030    2    1    2    0    0  0.00000000000E+00  0.00000000000E+00 -0.21425416932E+03  0.91970665599E+03  0.89440230545E+03 0.  0.
        4    1    3    3  502    0  0.14040466618E+03  0.89675161289E+02 -0.53387708990E+03  0.55926868754E+03  0.12699999809E+01 0. -1.
       -4    1    3    3    0  502 -0.14040466618E+03 -0.89675161289E+02  0.31962292059E+03  0.36043796845E+03  0.12699999809E+01 0.  1.
</event>
<event>
 5   0  0.3794006E-03  0.9077862E+03  0.7818609E-02  0.9415900E-01
       -1   -1    0    0    0  501  0.00000000000E+00  0.00000000000E+00  0.15183768506E+03  0.15183768514E+03  0.50400001928E-02 0.  1.
        1   -1    0    0  501    0  0.00000000000E+00  0.00000000000E+00 -0.13568367001E+04  0.13568367002E+04  0.50400001928E-02 0. -1.
    10030    2    1    2    0    0  0.00000000000E+00  0.00000000000E+00 -0.12049990151E+04  0.15086743853E+04  0.90778619427E+03 0.  0.
        5    1    3    3  502    0  0.34699164673E+03 -0.23423483087E+03 -0.31117505901E+03  0.52165234231E+03  0.46999998093E+01 0.  1.
       -5    1    3    3    0  502 -0.34699164673E+03  0.23423483087E+03 -0.89382395608E+03  0.98702204299E+03  0.46999998093E+01 0. -1.
</event>
<event>
 5   0  0.3943549E-03  0.9177720E+03  0.7818609E-02  0.9403634E-01
       -1   -1    0    0    0  501  0.00000000000E+00  0.00000000000E+00  0.56565209631E+03  0.56565209634E+03  0.50400001928E-02 0. -1.
        1   -1    0    0  501    0  0.00000000000E+00  0.00000000000E+00 -0.37227185415E+03  0.37227185419E+03  0.50400001928E-02 0.  1.
    10030    2    1    2    0    0  0.00000000000E+00  0.00000000000E+00  0.19338024216E+03  0.93792395052E+03  0.91777198634E+03 0.  0.
        3    1    3    3  502    0 -0.19792009817E+03  0.39103050168E+02 -0.32451871673E+03  0.38211754932E+03  0.10100000352E+00 0.  1.
       -3    1    3    3    0  502  0.19792009817E+03 -0.39103050168E+02  0.51789895889E+03  0.55580640120E+03  0.10100000352E+00 0. -1.
</event>
<event>
 5   0  0.3943549E-03  0.9204621E+03  0.7818609E-02  0.9400358E-01
        1   -1    0    0  501    0  0.00000000000E+00  0.00000000000E+00  0.28533082131E+03  0.28533082136E+03  0.50400001928E-02 0.  1.
       -1   -1    0    0    0  501  0.00000000000E+00  0.00000000000E+00 -0.74234043028E+03  0.74234043030E+03  0.50400001928E-02 0. -1.
    10030    2    1    2    0    0  0.00000000000E+00  0.00000000000E+00 -0.45700960897E+03  0.10276712517E+04  0.92046206809E+03 0.  0.
        3    1    3    3  502    0 -0.37327205343E+02  0.36814740706E+03 -0.53403267615E+03  0.64970512002E+03  0.10100000352E+00 0. -1.
       -3    1    3    3    0  502  0.37327205343E+02 -0.36814740706E+03  0.77023067184E+02  0.37796613164E+03  0.10100000352E+00 0.  1.
</event>
<event>
 5   0  0.6534628E-03  0.8936171E+03  0.7818609E-02  0.9433596E-01
        2   -1    0    0  501    0  0.00000000000E+00  0.00000000000E+00  0.11002172273E+03  0.11002172276E+03  0.25500000920E-02 0. -1.
       -2   -1    0    0    0  501  0.00000000000E+00  0.00000000000E+00 -0.18145316686E+04  0.18145316686E+04  0.25500000920E-02 0.  1.
    10030    2    1    2    0    0  0.00000000000E+00  0.00000000000E+00 -0.17045099459E+04  0.19245533914E+04  0.89361714433E+03 0.  0.
        4    1    3    3  502    0 -0.19720179908E+03 -0.28123544684E+03 -0.14676700959E+04  0.15073284478E+04  0.12699999809E+01 0.  1.
       -4    1    3    3    0  502  0.19720179908E+03  0.28123544684E+03 -0.23683984993E+03  0.41722494357E+03  0.12699999809E+01 0. -1.
</event>
<event>
 5   0  0.6609191E-03  0.8974038E+03  0.7818609E-02  0.9428833E-01
        2   -1    0    0  501    0  0.00000000000E+00  0.00000000000E+00  0.66995266066E+03  0.66995266066E+03  0.25500000920E-02 0.  1.
       -2   -1    0    0    0  501  0.00000000000E+00  0.00000000000E+00 -0.30051883368E+03  0.30051883369E+03  0.25500000920E-02 0. -1.
    10030    2    1    2    0    0  0.00000000000E+00  0.00000000000E+00  0.36943382698E+03  0.97047149435E+03  0.89740379364E+03 0.  0.
        2    1    3    3  502    0  0.50353768819E+02 -0.43936860214E+03  0.10269183398E+03  0.45401088461E+03  0.25500000920E-02 0.  1.
       -2    1    3    3    0  502 -0.50353768819E+02  0.43936860214E+03  0.26674199300E+03  0.51646060974E+03  0.25500000920E-02 0. -1.
</event>
<event>
 5   0  0.3943549E-03  0.8980733E+03  0.7818609E-02  0.9427993E-01
        1   -1    0    0  501    0  0.00000000000E+00  0.00000000000E+00  0.45967346530E+03  0.45967346533E+03  0.50400001928E-02 0. -1.
       -1   -1    0    0    0  501  0.00000000000E+00  0.00000000000E+00 -0.43864597037E+03  0.43864597040E+03  0.50400001928E-02 0.  1.
    10030    2    1    2    0    0  0.00000000000E+00  0.00000000000E+00  0.21027494933E+02  0.89831943573E+03  0.89807330050E+03 0.  0.
        3    1    3    3  502    0 -0.89559994069E+02  0.14759075729E+03  0.42515103322E+03  0.45886537832E+03  0.10100000352E+00 0. -1.
       -3    1    3    3    0  502  0.89559994069E+02 -0.14759075729E+03 -0.40412353829E+03  0.43945405741E+03  0.10100000352E+00 0.  1.
</event>
<event>
 5   0  0.6524705E-03  0.9067051E+03  0.7818609E-02  0.9417238E-01
       -2   -1    0    0    0  501  0.00000000000E+00  0.00000000000E+00  0.36556762140E+03  0.36556762141E+03  0.25500000920E-02 0. -1.
        2   -1    0    0  501    0  0.00000000000E+00  0.00000000000E+00 -0.56221761058E+03  0.56221761058E+03  0.25500000920E-02 0.  1.
    10030    2    1    2    0    0  0.00000000000E+00  0.00000000000E+00 -0.19664998918E+03  0.92778523199E+03  0.90670514416E+03 0.  0.
        3    1    3    3  502    0  0.62621832525E+02  0.60075648987E+02  0.35698977795E+03  0.36738574996E+03  0.10100000352E+00 0. -1.
       -3    1    3    3    0  502 -0.62621832525E+02 -0.60075648987E+02 -0.55363976713E+03  0.56039948203E+03  0.10100000352E+00 0.  1.
</event>
<event>
 5   0  0.3969536E-03  0.9199171E+03  0.7818609E-02  0.9401021E-01
        1   -1    0    0  501    0  0.00000000000E+00  0.00000000000E+00  0.48851116492E+03  0.48851116495E+03  0.50400001928E-02 0. -1.
       -1   -1    0    0    0  501  0.00000000000E+00  0.00000000000E+00 -0.43307480859E+03  0.43307480862E+03  0.50400001928E-02 0.  1.
    10030    2    1    2    0    0  0.00000000000E+00  0.00000000000E+00  0.55436356328E+02  0.92158597357E+03  0.91991712512E+03 0.  0.
        1    1    3    3  502    0  0.44920206106E+02 -0.18622412572E+02 -0.43049243962E+03  0.43323014641E+03  0.50400001928E-02 0.  1.
       -1    1    3    3    0  502 -0.44920206106E+02  0.18622412572E+02  0.48592879595E+03  0.48835582716E+03  0.50400001928E-02 0. -1.
</event>
<event>
 5   0  0.3998066E-03  0.9015589E+03  0.7818609E-02  0.9423635E-01
       -1   -1    0    0    0  501  0.00000000000E+00  0.00000000000E+00  0.35175435785E+03  0.35175435789E+03  0.50400001928E-02 0.  1.
        1   -1    0    0  501    0  0.00000000000E+00  0.00000000000E+00 -0.57768181303E+03  0.57768181305E+03  0.50400001928E-02 0. -1.
    10030    2    1    2    0    0  0.00000000000E+00  0.00000000000E+00 -0.22592745517E+03  0.92943617094E+03  0.90155886156E+03 0.  0.
        4    1    3    3  502    0  0.23989512071E+03  0.82501734199E+02 -0.49710367756E+03  0.55809487028E+03  0.12699999809E+01 0. -1.
       -4    1    3    3    0  502 -0.23989512071E+03 -0.82501734199E+02  0.27117622239E+03  0.37134130066E+03  0.12699999809E+01 0.  1.
</event>
<event>
 5   0  0.3794006E-03  0.8473215E+03  0.7818609E-02  0.9493939E-01
        1   -1    0    0  501    0  0.00000000000E+00  0.00000000000E+00  0.47759564154E+03  0.47759564156E+03  0.50400001928E-02 0. -1.
       -1   -1    0    0    0  501  0.00000000000E+00  0.00000000000E+00 -0.37581669416E+03  0.37581669419E+03  0.50400001928E-02 0.  1.
    10030    2    1    2    0    0  0.00000000000E+00  0.00000000000E+00  0.10177894738E+03  0.85341233575E+03  0.84732146242E+03 0.  0.
        5    1    3    3  502    0 -0.30684477152E+03 -0.27775290342E+03  0.14190462493E+03  0.43756074063E+03  0.46999998093E+01 0. -1.
       -5    1    3    3    0  502  0.30684477152E+03  0.27775290342E+03 -0.40125677546E+02  0.41585159512E+03  0.46999998093E+01 0.  1.
</event>
<event>
 5   0  0.6524705E-03  0.9037195E+03  0.7818609E-02  0.9420944E-01
       -2   -1    0    0    0  501  0.00000000000E+00  0.00000000000E+00  0.28455589459E+03  0.28455589460E+03  0.25500000920E-02 0.  1.
        2   -1    0    0  501    0  0.00000000000E+00  0.00000000000E+00 -0.71752941250E+03  0.71752941250E+03  0.25500000920E-02 0. -1.
    10030    2    1    2    0    0  0.00000000000E+00  0.00000000000E+00 -0.43297351791E+03  0.10020853071E+04  0.90371947833E+03 0.  0.
        3    1    3    3  502    0 -0.17044881173E+03 -0.39002254890E+03 -0.38467646850E+03  0.57371280419E+03  0.10100000352E+00 0. -1.
       -3    1    3    3    0  502  0.17044881173E+03  0.39002254890E+03 -0.48297049403E+02  0.42837250292E+03  0.10100000352E+00 0.  1.
</event>
<event>
 5   0  0.3969536E-03  0.8945888E+03  0.7818609E-02  0.9432371E-01
        1   -1    0    0  501    0  0.00000000000E+00  0.00000000000E+00  0.81988983074E+03  0.81988983076E+03  0.50400001928E-02 0.  1.
       -1   -1    0    0    0  501  0.00000000000E+00  0.00000000000E+00 -0.24402334730E+03  0.24402334735E+03  0.50400001928E-02 0. -1.
    10030    2    1    2    0    0  0.00000000000E+00  0.00000000000E+00  0.57586648345E+03  0.10639131781E+04  0.89458875680E+03 0.  0.
        1    1    3    3  502    0 -0.34537160473E+03  0.27074493174E+03  0.18502202846E+03  0.47625362408E+03  0.50400001928E-02 0. -1.
       -1    1    3    3    0  502  0.34537160473E+03 -0.27074493174E+03  0.39084445499E+03  0.58765955402E+03  0.50400001928E-02 0.  1.
</event>
<event>
 5   0  0.6863405E-03  0.8822468E+03  0.7818609E-02  0.9448050E-01
       -2   -1    0    0    0  501  0.00000000000E+00  0.00000000000E+00  0.13956090740E+03  0.13956090742E+03  0.25500000920E-02 0. -1.
        2   -1    0    0  501    0  0.00000000000E+00  0.00000000000E+00 -0.13943005790E+04  0.13943005790E+04  0.25500000920E-02 0.  1.
    10030    2    1    2    0    0  0.00000000000E+00  0.00000000000E+00 -0.12547396716E+04  0.15338614864E+04  0.88224679996E+03 0.  0.
        1    1    3    3  502    0 -0.71875814697E+02 -0.35691995225E+01 -0.13840260951E+04  0.13858957767E+04  0.50400001928E-02 0.  1.
       -1    1    3    3    0  502  0.71875814697E+02  0.35691995225E+01  0.12928642351E+03  0.14796570972E+03  0.50400001928E-02 0. -1.
</event>
<event>
 5   0  0.3998066E-03  0.9051559E+03  0.7818609E-02  0.9419159E-01
        1   -1    0    0  501    0  0.00000000000E+00  0.00000000000E+00  0.13492088464E+04  0.13492088464E+04  0.50400001928E-02 0.  1.
       -1   -1    0    0    0  501  0.00000000000E+00  0.00000000000E+00 -0.15181251452E+03  0.15181251461E+03  0.50400001928E-02 0. -1.
    10030    2    1    2    0    0  0.00000000000E+00  0.00000000000E+00  0.11973963319E+04  0.15010213610E+04  0.90515587090E+03 0.  0.
        4    1    3    3  502    0 -0.10107350570E+03  0.35870260676E+03  0.17286079593E+03  0.41081124780E+03  0.12699999809E+01 0. -1.
       -4    1    3    3    0  502  0.10107350570E+03 -0.35870260676E+03  0.10245355359E+04  0.10902101132E+04  0.12699999809E+01 0.  1.
</event>
<event>
 5   0  0.3794006E-03  0.8926267E+03  0.7818609E-02  0.9434846E-01
       -1   -1    0    0    0  501  0.00000000000E+00  0.00000000000E+00  0.82472580064E+03  0.82472580066E+03  0.50400001928E-02 0.  1.
        1   -1    0    0  501    0  0.00000000000E+00  0.00000000000E+00 -0.24152948720E+03  0.24152948726E+03  0.50400001928E-02 0. -1.
    10030    2    1    2    0    0  0.00000000000E+00  0.00000000000E+00  0.58319631344E+03  0.10662552879E+04  0.89262668512E+03 0.  0.
        5    1    3    3  502    0 -0.39602680596E+03 -0.86479987803E+02  0.51461588640E+03  0.65510886108E+03  0.46999998093E+01 0.  1.
       -5    1    3    3    0  502  0.39602680596E+03  0.86479987803E+02  0.68580427035E+02  0.41114642683E+03  0.46999998093E+01 0. -1.
</event>
<event>
 5   0  0.3927993E-03  0.9026220E+03  0.7818609E-02  0.9422310E-01
        1   -1    0    0  501    0  0.00000000000E+00  0.00000000000E+00  0.14980716987E+04  0.14980716987E+04  0.50400001928E-02 0. -1.
       -1   -1    0    0    0  501  0.00000000000E+00  0.00000000000E+00 -0.13596252989E+03  0.13596252999E+03  0.50400001928E-02 0.  1.
    10030    2    1    2    0    0  0.00000000000E+00  0.00000000000E+00  0.13621091688E+04  0.16340342287E+04  0.90262199884E+03 0.  0.
        2    1    3    3  502    0  0.19518089236E+03  0.47934944045E+02 -0.50476425768E+02  0.20722260777E+03  0.25500000920E-02 0.  1.
       -2    1    3    3    0  502 -0.19518089236E+03 -0.47934944045E+02  0.14125855946E+04  0.14268116209E+04  0.25500000920E-02 0. -1.
</event>
<event>
 5   0  0.3927993E-03  0.9101938E+03  0.7818609E-02  0.9412928E-01
       -1   -1    0    0    0  501  0.00000000000E+00  0.00000000000E+00  0.16424583539E+03  0.16424583547E+03  0.50400001928E-02 0. -1.
        1   -1    0    0  501    0  0.00000000000E+00  0.00000000000E+00 -0.12609949518E+04  0.12609949518E+04  0.50400001928E-02 0.  1.
    10030    2    1    2    0    0  0.00000000000E+00  0.00000000000E+00 -0.10967491164E+04  0.14252407872E+04  0.91019375813E+03 0.  0.
        2    1    3    3  502    0  0.30367512197E+03  0.53591483981E+02 -0.10724660413E+04  0.11159184722E+04  0.25500000920E-02 0.  1.
       -2    1    3    3    0  502 -0.30367512197E+03 -0.53591483981E+02 -0.24283075108E+02  0.30932231507E+03  0.25500000920E-02 0. -1.
</event>
<event>
 5   0  0.3794006E-03  0.8985883E+03  0.7818609E-02  0.9427348E-01
        1   -1    0    0  501    0  0.00000000000E+00  0.00000000000E+00  0.31770441462E+03  0.31770441466E+03  0.50400001928E-02 0. -1.
       -1   -1    0    0    0  501  0.00000000000E+00  0.00000000000E+00 -0.63538688055E+03  0.63538688057E+03  0.50400001928E-02 0.  1.
    10030    2    1    2    0    0  0.00000000000E+00  0.00000000000E+00 -0.31768246593E+03  0.95309129523E+03  0.89858826383E+03 0.  0.
        5    1    3    3  502    0  0.40895421845E+03 -0.18159724104E+03 -0.20155829336E+03  0.49078401193E+03  0.46999998093E+01 0.  1.
       -5    1    3    3    0  502 -0.40895421845E+03  0.18159724104E+03 -0.11612417257E+03  0.46230728330E+03  0.46999998093E+01 0. -1.
</event>
<event>
 5   0  0.6609191E-03  0.9009198E+03  0.7818609E-02  0.9424432E-01
        2   -1    0    0  501    0  0.00000000000E+00  0.00000000000E+00  0.12146229880E+04  0.12146229880E+04  0.25500000920E-02 0. -1.
       -2   -1    0    0    0  501  0.00000000000E+00  0.00000000000E+00 -0.16705936286E+03  0.16705936288E+03  0.25500000920E-02 0.  1.
    10030    2    1    2    0    0  0.00000000000E+00  0.00000000000E+00  0.10475636251E+04  0.13816823508E+04  0.90091984658E+03 0.  0.
        2    1    3    3  502    0 -0.15993391083E+03 -0.29643690239E+03  0.65072461027E+02  0.34305701876E+03  0.25500000920E-02 0.  1.
       -2    1    3    3    0  502  0.15993391083E+03  0.29643690239E+03  0.98249116407E+03  0.10386253321E+04  0.25500000920E-02 0. -1.
</event>
<event>
 5   0  0.3969536E-03  0.9184257E+03  0.7818609E-02  0.9402837E-01
        1   -1    0    0  501    0  0.00000000000E+00  0.00000000000E+00  0.61166816591E+03  0.61166816593E+03  0.50400001928E-02 0. -1.
       -1   -1    0    0    0  501  0.00000000000E+00  0.00000000000E+00 -0.34475629996E+03  0.34475629999E+03  0.50400001928E-02 0.  1.
    10030    2    1    2    0    0  0.00000000000E+00  0.00000000000E+00  0.26691186595E+03  0.95642446592E+03  0.91842572635E+03 0.  0.
        1    1    3    3  502    0 -0.30833057570E+03  0.13600475440E+01  0.48783966706E+03  0.57711102434E+03  0.50400001928E-02 0. -1.
       -1    1    3    3    0  502  0.30833057570E+03 -0.13600475440E+01 -0.22092780110E+03  0.37931344158E+03  0.50400001928E-02 0.  1.
</event>
<event>
 5   0  0.3969536E-03  0.8995081E+03  0.7818609E-02  0.9426197E-01
        1   -1    0    0  501    0  0.00000000000E+00  0.00000000000E+00  0.78762166733E+03  0.78762166735E+03  0.50400001928E-02 0. -1.
       -1   -1    0    0    0  501  0.00000000000E+00  0.00000000000E+00 -0.25682216434E+03  0.25682216439E+03  0.50400001928E-02 0.  1.
    10030    2    1    2    0    0  0.00000000000E+00  0.00000000000E+00  0.53079950300E+03  0.10444438317E+04  0.89950809072E+03 0.  0.
        1    1    3    3  502    0  0.82055010444E+02  0.33874827992E+03  0.59544463837E+03  0.68995488206E+03  0.50400001928E-02 0. -1.
       -1    1    3    3    0  502 -0.82055010444E+02 -0.33874827992E+03 -0.64645135371E+02  0.35448894968E+03  0.50400001928E-02 0.  1.
</event>
<event>
 5   0  0.3969536E-03  0.9047886E+03  0.7818609E-02  0.9419615E-01
        1   -1    0    0  501    0  0.00000000000E+00  0.00000000000E+00  0.37300276463E+03  0.37300276466E+03  0.50400001928E-02 0.  1.
       -1   -1    0    0    0  501  0.00000000000E+00  0.00000000000E+00 -0.54868383519E+03  0.54868383521E+03  0.50400001928E-02 0. -1.
    10030    2    1    2    0    0  0.00000000000E+00  0.00000000000E+00 -0.17568107056E+03  0.92168659987E+03  0.90478856637E+03 0.  0.
        1    1    3    3  502    0 -0.80912334184E+02  0.43488561724E+03  0.87366409224E+01  0.44243489332E+03  0.50400001928E-02 0. -1.
       -1    1    3    3    0  502  0.80912334184E+02 -0.43488561724E+03 -0.18441771148E+03  0.47925170656E+03  0.50400001928E-02 0.  1.
</event>
<event>
 5   0  0.2560250E-03  0.9037816E+03  0.7818609E-02  0.9420867E-01
        3   -1    0    0  501    0  0.00000000000E+00  0.00000000000E+00  0.46319602927E+03  0.46319604029E+03  0.10100000352E+00 0. -1.
       -3   -1    0    0    0  501  0.00000000000E+00  0.00000000000E+00 -0.44086146579E+03  0.44086147736E+03  0.10100000352E+00 0.  1.
    10030    2    1    2    0    0  0.00000000000E+00  0.00000000000E+00  0.22334563484E+02  0.90405751764E+03  0.90378159003E+03 0.  0.
        5    1    3    3  502    0  0.58566640285E+02 -0.43589006984E+03 -0.92561032319E+02  0.44946617119E+03  0.46999998093E+01 0. -1.
       -5    1    3    3    0  502 -0.58566640285E+02  0.43589006984E+03  0.11489559580E+03  0.45459134646E+03  0.46999998093E+01 0.  1.
</event>
<event>
 5   0  0.6534628E-03  0.8976270E+03  0.7818609E-02  0.9428553E-01
       -2   -1    0    0    0  501  0.00000000000E+00  0.00000000000E+00  0.26617504152E+03  0.26617504154E+03  0.25500000920E-02 0.  1.
        2   -1    0    0  501    0  0.00000000000E+00  0.00000000000E+00 -0.75677093847E+03  0.75677093847E+03  0.25500000920E-02 0. -1.
    10030    2    1    2    0    0  0.00000000000E+00  0.00000000000E+00 -0.49059589694E+03  0.10229459800E+04  0.89762695142E+03 0.  0.
        4    1    3    3  502    0 -0.21816331017E+03 -0.11229607423E+03 -0.67356492106E+03  0.71686606418E+03  0.12699999809E+01 0. -1.
       -4    1    3    3    0  502  0.21816331017E+03  0.11229607423E+03  0.18296902411E+03  0.30607991583E+03  0.12699999809E+01 0.  1.
</event>
<event>
 5   0  0.3943549E-03  0.9005793E+03  0.7818609E-02  0.9424858E-01
        1   -1    0    0  501    0  0.00000000000E+00  0.00000000000E+00  0.17056874937E+04  0.17056874937E+04  0.50400001928E-02 0.  1.
       -1   -1    0    0    0  501  0.00000000000E+00  0.00000000000E+00 -0.11887332816E+03  0.11887332826E+03  0.50400001928E-02 0. -1.
    10030    2    1    2    0    0  0.00000000000E+00  0.00000000000E+00  0.15868141656E+04  0.18245608220E+04  0.90057925643E+03 0.  0.
        3    1    3    3  502    0 -0.95554786751E+01 -0.20221350678E+03 -0.21480411731E+02  0.20357560705E+03  0.10100000352E+00 0. -1.
       -3    1    3    3    0  502  0.95554786751E+01  0.20221350678E+03  0.16082945773E+04  0.16209852150E+04  0.10100000352E+00 0.  1.
</event>
<event>
 5   0  0.6534628E-03  0.8886331E+03  0.7818609E-02  0.9439903E-01
        2   -1    0    0  501    0  0.00000000000E+00  0.00000000000E+00  0.60894266891E+03  0.60894266892E+03  0.25500000920E-02 0. -1.
       -2   -1    0    0    0  501  0.00000000000E+00  0.00000000000E+00 -0.32419667139E+03  0.32419667140E+03  0.25500000920E-02 0.  1.
    10030    2    1    2    0    0  0.00000000000E+00  0.00000000000E+00  0.28474599753E+03  0.93313934032E+03  0.88863307689E+03 0.  0.
        4    1    3    3  502    0  0.29484457544E+03  0.28282166060E+03  0.32574471437E+03  0.52252525988E+03  0.12699999809E+01 0. -1.
       -4    1    3    3    0  502 -0.29484457544E+03 -0.28282166060E+03 -0.40998716841E+02  0.41061408044E+03  0.12699999809E+01 0.  1.
</event>
<event>
 5   0  0.6524705E-03  0.9006293E+03  0.7818609E-02  0.9424795E-01
        2   -1    0    0  501    0  0.00000000000E+00  0.00000000000E+00  0.15457295838E+04  0.15457295838E+04  0.25500000920E-02 0.  1.
       -2   -1    0    0    0  501  0.00000000000E+00  0.00000000000E+00 -0.13118937378E+03  0.13118937381E+03  0.25500000920E-02 0. -1.
    10030    2    1    2    0    0  0.00000000000E+00  0.00000000000E+00  0.14145402100E+04  0.16769189576E+04  0.90062932697E+03 0.  0.
        3    1    3    3  502    0 -0.33352976409E+03  0.18347675773E+03  0.11552110153E+04  0.12163134153E+04  0.10100000352E+00 0.  1.
       -3    1    3    3    0  502  0.33352976409E+03 -0.18347675773E+03  0.25932919470E+03  0.46060554229E+03  0.10100000352E+00 0. -1.
</event>
<event>
 5   0  0.6863405E-03  0.8973037E+03  0.7818609E-02  0.9428958E-01
        2   -1    0    0  501    0  0.00000000000E+00  0.00000000000E+00  0.15308466245E+04  0.15308466245E+04  0.25500000920E-02 0. -1.
       -2   -1    0    0    0  501  0.00000000000E+00  0.00000000000E+00 -0.13148833199E+03  0.13148833201E+03  0.25500000920E-02 0.  1.
    10030    2    1    2    0    0  0.00000000000E+00  0.00000000000E+00  0.13993582925E+04  0.16623349566E+04  0.89730367036E+03 0.  0.
        1    1    3    3  502    0 -0.23233835429E+03 -0.95389474575E+02  0.13884044019E+04  0.14109383566E+04  0.50400001928E-02 0. -1.
       -1    1    3    3    0  502  0.23233835429E+03  0.95389474575E+02  0.10953890625E+02  0.25139659998E+03  0.50400001928E-02 0.  1.
</event>
<event>
 5   0  0.6534628E-03  0.8894701E+03  0.7818609E-02  0.9438841E-01
       -2   -1    0    0    0  501  0.00000000000E+00  0.00000000000E+00  0.48669870506E+03  0.48669870506E+03  0.25500000920E-02 0.  1.
        2   -1    0    0  501    0  0.00000000000E+00  0.00000000000E+00 -0.40638954848E+03  0.40638954849E+03  0.25500000920E-02 0. -1.
    10030    2    1    2    0    0  0.00000000000E+00  0.00000000000E+00  0.80309156578E+02  0.89308825355E+03  0.88947010517E+03 0.  0.
        4    1    3    3  502    0 -0.43321079903E+03  0.21891368905E+02 -0.58412077648E+02  0.43768071941E+03  0.12699999809E+01 0. -1.
       -4    1    3    3    0  502  0.43321079903E+03 -0.21891368905E+02  0.13872123423E+03  0.45540753414E+03  0.12699999809E+01 0.  1.
</event>
<event>
 5   0  0.3943549E-03  0.9027356E+03  0.7818609E-02  0.9422168E-01
       -1   -1    0    0    0  501  0.00000000000E+00  0.00000000000E+00  0.30168150128E+03  0.30168150132E+03  0.50400001928E-02 0. -1.
        1   -1    0    0  501    0  0.00000000000E+00  0.00000000000E+00 -0.67532439514E+03  0.67532439516E+03  0.50400001928E-02 0.  1.
    10030    2    1    2    0    0  0.00000000000E+00  0.00000000000E+00 -0.37364289386E+03  0.97700589648E+03  0.90273557015E+03 0.  0.
        3    1    3    3  502    0 -0.16001497254E+03  0.42202691802E+03 -0.18181996172E+03  0.48659019683E+03  0.10100000352E+00 0. -1.
       -3    1    3    3    0  502  0.16001497254E+03 -0.42202691802E+03 -0.19182293214E+03  0.49041569965E+03  0.10100000352E+00 0.  1.
</event>
<event>
 5   0  0.6524705E-03  0.8944617E+03  0.7818609E-02  0.9432531E-01
       -2   -1    0    0    0  501  0.00000000000E+00  0.00000000000E+00  0.20346438934E+03  0.20346438936E+03  0.25500000920E-02 0.  1.
        2   -1    0    0  501    0  0.00000000000E+00  0.00000000000E+00 -0.98304894093E+03  0.98304894093E+03  0.25500000920E-02 0. -1.
    10030    2    1    2    0    0  0.00000000000E+00  0.00000000000E+00 -0.77958455159E+03  0.11865133303E+04  0.89446174310E+03 0.  0.
        3    1    3    3  502    0  0.43264473904E+03 -0.10067942603E+03 -0.45868948948E+03  0.63852476460E+03  0.10100000352E+00 0.  1.
       -3    1    3    3    0  502 -0.43264473904E+03  0.10067942603E+03 -0.32089506211E+03  0.54798856569E+03  0.10100000352E+00 0. -1.
</event>
<event>
 5   0  0.3943549E-03  0.9001779E+03  0.7818609E-02  0.9425359E-01
       -1   -1    0    0    0  501  0.00000000000E+00  0.00000000000E+00  0.20864090209E+03  0.20864090215E+03  0.50400001928E-02 0.  1.
        1   -1    0    0  501    0  0.00000000000E+00  0.00000000000E+00 -0.97095083965E+03  0.97095083967E+03  0.50400001928E-02 0. -1.
    10030    2    1    2    0    0  0.00000000000E+00  0.00000000000E+00 -0.76230993756E+03  0.11795917418E+04  0.90017789156E+03 0.  0.
        3    1    3    3  502    0 -0.34167445402E+03  0.14073247637E+03 -0.44423386712E+02  0.37218343586E+03  0.10100000352E+00 0.  1.
       -3    1    3    3    0  502  0.34167445402E+03 -0.14073247637E+03 -0.71788655085E+03  0.80740830596E+03  0.10100000352E+00 0. -1.
</event>
<event>
 5   0  0.6534628E-03  0.8947613E+03  0.7818609E-02  0.9432154E-01
       -2   -1    0    0    0  501  0.00000000000E+00  0.00000000000E+00  0.12757389279E+03  0.12757389282E+03  0.25500000920E-02 0. -1.
        2   -1    0    0  501    0  0.00000000000E+00  0.00000000000E+00 -0.15688904284E+04  0.15688904284E+04  0.25500000920E-02 0.  1.
    10030    2    1    2    0    0  0.00000000000E+00  0.00000000000E+00 -0.14413165356E+04  0.16964643212E+04  0.89476132983E+03 0.  0.
        4    1    3    3  502    0 -0.14149707958E+03  0.21255102125E+03 -0.14171589285E+04  0.14399793060E+04  0.12699999809E+01 0.  1.
       -4    1    3    3    0  502  0.14149707958E+03 -0.21255102125E+03 -0.24157607128E+02  0.25648501525E+03  0.12699999809E+01 0. -1.
</event>
<event>
 5   0  0.6609191E-03  0.9251494E+03  0.7818609E-02  0.9394678E-01
        2   -1    0    0  501    0  0.00000000000E+00  0.00000000000E+00  0.66370213332E+03  0.66370213333E+03  0.25500000920E-02 0. -1.
       -2   -1    0    0    0  501  0.00000000000E+00  0.00000000000E+00 -0.32239668076E+03  0.32239668077E+03  0.25500000920E-02 0.  1.
    10030    2    1    2    0    0  0.00000000000E+00  0.00000000000E+00  0.34130545256E+03  0.98609881410E+03  0.92514942534E+03 0.  0.
        2    1    3    3  502    0 -0.35670568889E+03 -0.37299664858E+02  0.48203793530E+03  0.60082508649E+03  0.25500000920E-02 0. -1.
       -2    1    3    3    0  502  0.35670568889E+03  0.37299664858E+02 -0.14073248274E+03  0.38527372761E+03  0.25500000920E-02 0.  1.
</event>
<event>
 5   0  0.6863405E-03  0.8989402E+03  0.7818609E-02  0.9426907E-01
       -2   -1    0    0    0  501  0.00000000000E+00  0.00000000000E+00  0.23365352072E+03  0.23365352073E+03  0.25500000920E-02 0. -1.
        2   -1    0    0  501    0  0.00000000000E+00  0.00000000000E+00 -0.86462795094E+03  0.86462795094E+03  0.25500000920E-02 0.  1.
    10030    2    1    2    0    0  0.00000000000E+00  0.00000000000E+00 -0.63097443022E+03  0.10982814717E+04  0.89894018679E+03 0.  0.
        1    1    3    3  502    0 -0.88799604885E+02 -0.42361029763E+03 -0.46357795867E+03  0.63422044896E+03  0.50400001928E-02 0. -1.
       -1    1    3    3    0  502  0.88799604885E+02  0.42361029763E+03 -0.16739647155E+03  0.46406102271E+03  0.50400001928E-02 0.  1.
</event>
<event>
 5   0  0.6524705E-03  0.8917611E+03  0.7818609E-02  0.9435939E-01
        2   -1    0    0  501    0  0.00000000000E+00  0.00000000000E+00  0.23616252554E+03  0.23616252555E+03  0.25500000920E-02 0.  1.
       -2   -1    0    0    0  501  0.00000000000E+00  0.00000000000E+00 -0.84183316830E+03  0.84183316831E+03  0.25500000920E-02 0. -1.
    10030    2    1    2    0    0  0.00000000000E+00  0.00000000000E+00 -0.60567064276E+03  0.10779956939E+04  0.89176106019E+03 0.  0.
        3    1    3    3  502    0 -0.18310772118E+03 -0.11998871047E+03  0.16672316806E+03  0.27517694882E+03  0.10100000352E+00 0.  1.
       -3    1    3    3    0  502  0.18310772118E+03  0.11998871047E+03 -0.77239381082E+03  0.80281874504E+03  0.10100000352E+00 0. -1.
</event>
<event>
 5   0  0.2560250E-03  0.9007537E+03  0.7818609E-02  0.9424640E-01
        3   -1    0    0  501    0  0.00000000000E+00  0.00000000000E+00  0.13627201329E+03  0.13627205072E+03  0.10100000352E+00 0.  1.
       -3   -1    0    0    0  501  0.00000000000E+00  0.00000000000E+00 -0.14884879680E+04  0.14884879715E+04  0.10100000352E+00 0. -1.
    10030    2    1    2    0    0  0.00000000000E+00  0.00000000000E+00 -0.13522159547E+04  0.16247600222E+04  0.90075365189E+03 0.  0.
        5    1    3    3  502    0  0.37289717894E+03 -0.18982179073E+03 -0.97649302243E+03  0.10623772076E+04  0.46999998093E+01 0. -1.
       -5    1    3    3    0  502 -0.37289717894E+03  0.18982179073E+03 -0.37572293231E+03  0.56238281461E+03  0.46999998093E+01 0.  1.
</event>
<event>
 5   0  0.6609191E-03  0.9090641E+03  0.7818609E-02  0.9414321E-01
       -2   -1    0    0    0  501  0.00000000000E+00  0.00000000000E+00  0.12060438170E+03  0.12060438173E+03  0.25500000920E-02 0.  1.
        2   -1    0    0  501    0  0.00000000000E+00  0.00000000000E+00 -0.17130337635E+04  0.17130337635E+04  0.25500000920E-02 0. -1.
    10030    2    1    2    0    0  0.00000000000E+00  0.00000000000E+00 -0.15924293818E+04  0.18336381453E+04  0.90906408556E+03 0.  0.
        2    1    3    3  502    0 -0.75922399360E+02  0.23983939697E+03 -0.32623757985E+02  0.25367588899E+03  0.25500000920E-02 0.  1.
       -2    1    3    3    0  502  0.75922399360E+02 -0.23983939697E+03 -0.15598056238E+04  0.15799622563E+04  0.25500000920E-02 0. -1.
</event>
<event>
 5   0  0.3927993E-03  0.9003595E+03  0.7818609E-02  0.9425132E-01
       -1   -1    0    0    0  501  0.00000000000E+00  0.00000000000E+00  0.26041133636E+03  0.26041133640E+03  0.50400001928E-02 0. -1.
        1   -1    0    0  501    0  0.00000000000E+00  0.00000000000E+00 -0.77823725776E+03  0.77823725778E+03  0.50400001928E-02 0.  1.
    10030    2    1    2    0    0  0.00000000000E+00  0.00000000000E+00 -0.51782592141E+03  0.10386485942E+04  0.90035949338E+03 0.  0.
        2    1    3    3  502    0 -0.26452603785E+03  0.29273936474E+03 -0.88426782633E+01  0.39464991237E+03  0.25500000920E-02 0. -1.
       -2    1    3    3    0  502  0.26452603785E+03 -0.29273936474E+03 -0.50898324314E+03  0.64399868181E+03  0.25500000920E-02 0.  1.
</event>
<event>
 5   0  0.3927993E-03  0.9095070E+03  0.7818609E-02  0.9413775E-01
       -1   -1    0    0    0  501  0.00000000000E+00  0.00000000000E+00  0.18185570796E+03  0.18185570803E+03  0.50400001928E-02 0. -1.
        1   -1    0    0  501    0  0.00000000000E+00  0.00000000000E+00 -0.11371693648E+04  0.11371693648E+04  0.50400001928E-02 0.  1.
    10030    2    1    2    0    0  0.00000000000E+00  0.00000000000E+00 -0.95531365683E+03  0.13190250728E+04  0.90950698725E+03 0.  0.
        2    1    3    3  502    0  0.19257835803E+03 -0.22399701962E+03  0.23764730997E+02  0.29635426642E+03  0.25500000920E-02 0. -1.
       -2    1    3    3    0  502 -0.19257835803E+03  0.22399701962E+03 -0.97907838783E+03  0.10226708064E+04  0.25500000920E-02 0.  1.
</event>
<event>
 5   0  0.3998066E-03  0.8977981E+03  0.7818609E-02  0.9428338E-01
       -1   -1    0    0    0  501  0.00000000000E+00  0.00000000000E+00  0.66335133879E+03  0.66335133881E+03  0.50400001928E-02 0. -1.
        1   -1    0    0  501    0  0.00000000000E+00  0.00000000000E+00 -0.30377623499E+03  0.30377623503E+03  0.50400001928E-02 0.  1.
    10030    2    1    2    0    0  0.00000000000E+00  0.00000000000E+00  0.35957510380E+03  0.96712757385E+03  0.89779813367E+03 0.  0.
        4    1    3    3  502    0 -0.31984138119E+03 -0.12563460852E+03  0.49092786640E+03  0.59924481382E+03  0.12699999809E+01 0. -1.
       -4    1    3    3    0  502  0.31984138119E+03  0.12563460852E+03 -0.13135276260E+03  0.36788276003E+03  0.12699999809E+01 0.  1.
</event>
<event>
 5   0  0.3794006E-03  0.9036159E+03  0.7818609E-02  0.9421073E-01
        1   -1    0    0  501    0  0.00000000000E+00  0.00000000000E+00  0.50691887129E+03  0.50691887131E+03  0.50400001928E-02 0.  1.
       -1   -1    0    0    0  501  0.00000000000E+00  0.00000000000E+00 -0.40268850912E+03  0.40268850915E+03  0.50400001928E-02 0. -1.
    10030    2    1    2    0    0  0.00000000000E+00  0.00000000000E+00  0.10423036216E+03  0.90960738047E+03  0.90361585765E+03 0.  0.
        5    1    3    3  502    0 -0.27234727104E+03 -0.11230756182E+03 -0.29267937288E+03  0.41529426891E+03  0.46999998093E+01 0. -1.
       -5    1    3    3    0  502  0.27234727104E+03  0.11230756182E+03  0.39690973504E+03  0.49431311155E+03  0.46999998093E+01 0.  1.
</event>
<event>
 5   0  0.3794006E-03  0.9009028E+03  0.7818609E-02  0.9424454E-01
        1   -1    0    0  501    0  0.00000000000E+00  0.00000000000E+00  0.15585463874E+04  0.15585463874E+04  0.50400001928E-02 0. -1.
       -1   -1    0    0    0  501  0.00000000000E+00  0.00000000000E+00 -0.13018956510E+03  0.13018956520E+03  0.50400001928E-02 0.  1.
    10030    2    1    2    0    0  0.00000000000E+00  0.00000000000E+00  0.14283568223E+04  0.16887359526E+04  0.90090282818E+03 0.  0.
        5    1    3    3  502    0 -0.85141687686E+02  0.25498627642E+03  0.36717699173E+02  0.27136209679E+03  0.46999998093E+01 0.  1.
       -5    1    3    3    0  502  0.85141687686E+02 -0.25498627642E+03  0.13916391231E+04  0.14173738558E+04  0.46999998093E+01 0. -1.
</event>
<event>
 5   0  0.6524705E-03  0.9143734E+03  0.7818609E-02  0.9407790E-01
       -2   -1    0    0    0  501  0.00000000000E+00  0.00000000000E+00  0.17877689159E+03  0.17877689161E+03  0.25500000920E-02 0. -1.
        2   -1    0    0  501    0  0.00000000000E+00  0.00000000000E+00 -0.11691650898E+04  0.11691650898E+04  0.25500000920E-02 0.  1.
    10030    2    1    2    0    0  0.00000000000E+00  0.00000000000E+00 -0.99038819823E+03  0.13479419814E+04  0.91437344783E+03 0.  0.
        3    1    3    3  502    0 -0.45659572445E+03  0.67342252184E+01 -0.52798187382E+03  0.69806151209E+03  0.10100000352E+00 0.  1.
       -3    1    3    3    0  502  0.45659572445E+03 -0.67342252184E+01 -0.46240632441E+03  0.64988046934E+03  0.10100000352E+00 0. -1.
</event>
<event>
 5   0  0.6524705E-03  0.8961017E+03  0.7818609E-02  0.9430468E-01
        2   -1    0    0  501    0  0.00000000000E+00  0.00000000000E+00  0.52392313676E+03  0.52392313676E+03  0.25500000920E-02 0. -1.
       -2   -1    0    0    0  501  0.00000000000E+00  0.00000000000E+00 -0.38316605175E+03  0.38316605176E+03  0.25500000920E-02 0.  1.
    10030    2    1    2    0    0  0.00000000000E+00  0.00000000000E+00  0.14075708501E+03  0.90708918852E+03  0.89610169007E+03 0.  0.
        3    1    3    3  502    0  0.33878236723E+03  0.28286649198E+03 -0.77861656520E+01  0.44141542702E+03  0.10100000352E+00 0.  1.
       -3    1    3    3    0  502 -0.33878236723E+03 -0.28286649198E+03  0.14854325066E+03  0.46567376150E+03  0.10100000352E+00 0. -1.
</event>
<event>
 5   0  0.3794006E-03  0.8997938E+03  0.7818609E-02  0.9425839E-01
        1   -1    0    0  501    0  0.00000000000E+00  0.00000000000E+00  0.75888612115E+03  0.75888612117E+03  0.50400001928E-02 0.  1.
       -1   -1    0    0    0  501  0.00000000000E+00  0.00000000000E+00 -0.26671621239E+03  0.26671621244E+03  0.50400001928E-02 0. -1.
    10030    2    1    2    0    0  0.00000000000E+00  0.00000000000E+00  0.49216990876E+03  0.10256023336E+04  0.89979382506E+03 0.  0.
        5    1    3    3  502    0 -0.21771672174E+03 -0.18097783897E+03 -0.15241449662E+03  0.32156775009E+03  0.46999998093E+01 0. -1.
       -5    1    3    3    0  502  0.21771672174E+03  0.18097783897E+03  0.64458440538E+03  0.70403458351E+03  0.46999998093E+01 0.  1.
</event>
<event>
 5   0  0.6863405E-03  0.9005831E+03  0.7818609E-02  0.9424853E-01
        2   -1    0    0  501    0  0.00000000000E+00  0.00000000000E+00  0.13894594613E+03  0.13894594616E+03  0.25500000920E-02 0.  1.
       -2   -1    0    0    0  501  0.00000000000E+00  0.00000000000E+00 -0.14592904428E+04  0.14592904428E+04  0.25500000920E-02 0. -1.
    10030    2    1    2    0    0  0.00000000000E+00  0.00000000000E+00 -0.13203444966E+04  0.15982363889E+04  0.90058312503E+03 0.  0.
        1    1    3    3  502    0  0.40259507773E+03 -0.20044724296E+03 -0.62046575667E+03  0.76631563278E+03  0.50400001928E-02 0.  1.
       -1    1    3    3    0  502 -0.40259507773E+03  0.20044724296E+03 -0.69987873997E+03  0.83192075615E+03  0.50400001928E-02 0. -1.
</event>
<event>
 5   0  0.3927993E-03  0.8998904E+03  0.7818609E-02  0.9425718E-01
       -1   -1    0    0    0  501  0.00000000000E+00  0.00000000000E+00  0.21871154993E+03  0.21871154999E+03  0.50400001928E-02 0. -1.
        1   -1    0    0  501    0  0.00000000000E+00  0.00000000000E+00 -0.92565154510E+03  0.92565154511E+03  0.50400001928E-02 0.  1.
    10030    2    1    2    0    0  0.00000000000E+00  0.00000000000E+00 -0.70693999516E+03  0.11443630951E+04  0.89989040259E+03 0.  0.
        2    1    3    3  502    0  0.37821988104E+03 -0.23258268382E+03 -0.26084128949E+03  0.51495937853E+03  0.25500000920E-02 0. -1.
       -2    1    3    3    0  502 -0.37821988104E+03  0.23258268382E+03 -0.44609870567E+03  0.62940371657E+03  0.25500000920E-02 0.  1.
</event>
<event>
 5   0  0.6524705E-03  0.9001563E+03  0.7818609E-02  0.9425386E-01
       -2   -1    0    0    0  501  0.00000000000E+00  0.00000000000E+00  0.25238828356E+03  0.25238828358E+03  0.25500000920E-02 0.  1.
        2   -1    0    0  501    0  0.00000000000E+00  0.00000000000E+00 -0.80261387136E+03  0.80261387137E+03  0.25500000920E-02 0. -1.
    10030    2    1    2    0    0  0.00000000000E+00  0.00000000000E+00 -0.55022558780E+03  0.10550021549E+04  0.90015629169E+03 0.  0.
        3    1    3    3  502    0  0.31946271249E+03  0.22013596112E+03 -0.77119742248E+01  0.38804091382E+03  0.10100000352E+00 0.  1.
       -3    1    3    3    0  502 -0.31946271249E+03 -0.22013596112E+03 -0.54251361357E+03  0.66696124113E+03  0.10100000352E+00 0. -1.
</event>
<event>
 5   0  0.6534628E-03  0.9038893E+03  0.7818609E-02  0.9420733E-01
        2   -1    0    0  501    0  0.00000000000E+00  0.00000000000E+00  0.80754780183E+03  0.80754780183E+03  0.25500000920E-02 0. -1.
       -2   -1    0    0    0  501  0.00000000000E+00  0.00000000000E+00 -0.25293109305E+03  0.25293109306E+03  0.25500000920E-02 0.  1.
    10030    2    1    2    0    0  0.00000000000E+00  0.00000000000E+00  0.55461670878E+03  0.10604788949E+04  0.90388925918E+03 0.  0.
        4    1    3    3  502    0  0.12459284246E+03  0.44318724411E+02 -0.22972243053E+03  0.26506892257E+03  0.12699999809E+01 0.  1.
       -4    1    3    3    0  502 -0.12459284246E+03 -0.44318724411E+02  0.78433913931E+03  0.79540997232E+03  0.12699999809E+01 0. -1.
</event>
<event>
 5   0  0.6724773E-03  0.8963838E+03  0.7818609E-02  0.9430113E-01
       -2   -1    0    0    0  501  0.00000000000E+00  0.00000000000E+00  0.17309241899E+03  0.17309241900E+03  0.25500000920E-02 0. -1.
        2   -1    0    0  501    0  0.00000000000E+00  0.00000000000E+00 -0.11605127978E+04  0.11605127978E+04  0.25500000920E-02 0.  1.
    10030    2    1    2    0    0  0.00000000000E+00  0.00000000000E+00 -0.98742037878E+03  0.13336052168E+04  0.89638377371E+03 0.  0.
        5    1    3    3  502    0  0.34553107225E+03  0.27494464435E+03 -0.37974729288E+03  0.58242284965E+03  0.46999998093E+01 0. -1.
       -5    1    3    3    0  502 -0.34553107225E+03 -0.27494464435E+03 -0.60767308589E+03  0.75118236712E+03  0.46999998093E+01 0.  1.
</event>
<event>
 5   0  0.3969536E-03  0.9147613E+03  0.7818609E-02  0.9407315E-01
       -1   -1    0    0    0  501  0.00000000000E+00  0.00000000000E+00  0.22932882474E+03  0.22932882479E+03  0.50400001928E-02 0. -1.
        1   -1    0    0  501    0  0.00000000000E+00  0.00000000000E+00 -0.91221439933E+03  0.91221439935E+03  0.50400001928E-02 0.  1.
    10030    2    1    2    0    0  0.00000000000E+00  0.00000000000E+00 -0.68288557460E+03  0.11415432241E+04  0.91476129378E+03 0.  0.
        1    1    3    3  502    0  0.14320915008E+03 -0.32686871010E+03 -0.69845310535E+03  0.78433969344E+03  0.50400001928E-02 0.  1.
       -1    1    3    3    0  502 -0.14320915008E+03  0.32686871010E+03  0.15567530750E+02  0.35720353071E+03  0.50400001928E-02 0. -1.
</event>
<event>
 5   0  0.3943549E-03  0.9007320E+03  0.7818609E-02  0.9424667E-01
        1   -1    0    0  501    0  0.00000000000E+00  0.00000000000E+00  0.13372925382E+04  0.13372925382E+04  0.50400001928E-02 0.  1.
       -1   -1    0    0    0  501  0.00000000000E+00  0.00000000000E+00 -0.15167178419E+03  0.15167178428E+03  0.50400001928E-02 0. -1.
    10030    2    1    2    0    0  0.00000000000E+00  0.00000000000E+00  0.11856207540E+04  0.14889643225E+04  0.90073202525E+03 0.  0.
        3    1    3    3  502    0 -0.19714471153E+03  0.22154800261E+03  0.11530977871E+04  0.11906233961E+04  0.10100000352E+00 0.  1.
       -3    1    3    3    0  502  0.19714471153E+03 -0.22154800261E+03  0.32522966952E+02  0.29834092634E+03  0.10100000352E+00 0. -1.
</event>
<event>
 5   0  0.3998066E-03  0.9036184E+03  0.7818609E-02  0.9421070E-01
        1   -1    0    0  501    0  0.00000000000E+00  0.00000000000E+00  0.12496782529E+04  0.12496782529E+04  0.50400001928E-02 0.  1.
       -1   -1    0    0    0  501  0.00000000000E+00  0.00000000000E+00 -0.16334728561E+03  0.16334728569E+03  0.50400001928E-02 0. -1.
    10030    2    1    2    0    0  0.00000000000E+00  0.00000000000E+00  0.10863309673E+04  0.14130255386E+04  0.90361839415E+03 0.  0.
        4    1    3    3  502    0 -0.24423246553E+03 -0.38006223415E+03  0.53416362619E+03  0.69959216082E+03  0.12699999809E+01 0. -1.
       -4    1    3    3    0  502  0.24423246553E+03  0.38006223415E+03  0.55216734108E+03  0.71343337776E+03  0.12699999809E+01 0.  1.
</event>
<event>
 5   0  0.3794006E-03  0.9046117E+03  0.7818609E-02  0.9419835E-01
       -1   -1    0    0    0  501  0.00000000000E+00  0.00000000000E+00  0.14571020167E+03  0.14571020175E+03  0.50400001928E-02 0.  1.
        1   -1    0    0  501    0  0.00000000000E+00  0.00000000000E+00 -0.14040237402E+04  0.14040237402E+04  0.50400001928E-02 0. -1.
    10030    2    1    2    0    0  0.00000000000E+00  0.00000000000E+00 -0.12583135386E+04  0.15497339420E+04  0.90461170103E+03 0.  0.
        5    1    3    3  502    0 -0.10122525277E+03  0.19277512137E+02 -0.13836042208E+04  0.13874440183E+04  0.46999998093E+01 0. -1.
       -5    1    3    3    0  502  0.10122525277E+03 -0.19277512137E+02  0.12529068221E+03  0.16228992365E+03  0.46999998093E+01 0.  1.
</event>
<event>
 5   0  0.6524705E-03  0.8848522E+03  0.7818609E-02  0.9444718E-01
        2   -1    0    0  501    0  0.00000000000E+00  0.00000000000E+00  0.21879453595E+03  0.21879453597E+03  0.25500000920E-02 0.  1.
       -2   -1    0    0    0  501  0.00000000000E+00  0.00000000000E+00 -0.89463321375E+03  0.89463321375E+03  0.25500000920E-02 0. -1.
    10030    2    1    2    0    0  0.00000000000E+00  0.00000000000E+00 -0.67583867779E+03  0.11134277497E+04  0.88485221108E+03 0.  0.
        3    1    3    3  502    0  0.19939895403E+03 -0.23890841239E+03 -0.73364801110E+03  0.79691692589E+03  0.10100000352E+00 0. -1.
       -3    1    3    3    0  502 -0.19939895403E+03  0.23890841239E+03  0.57809333307E+02  0.31651082383E+03  0.10100000352E+00 0.  1.
</event>
<event>
 5   0  0.3927993E-03  0.9002270E+03  0.7818609E-02  0.9425298E-01
       -1   -1    0    0    0  501  0.00000000000E+00  0.00000000000E+00  0.44631359215E+03  0.44631359218E+03  0.50400001928E-02 0.  1.
        1   -1    0    0  501    0  0.00000000000E+00  0.00000000000E+00 -0.45394576286E+03  0.45394576289E+03  0.50400001928E-02 0. -1.
    10030    2    1    2    0    0  0.00000000000E+00  0.00000000000E+00 -0.76321707092E+01  0.90025935507E+03  0.90022700268E+03 0.  0.
        2    1    3    3  502    0 -0.20664715608E+03  0.22761261232E+03 -0.33260079458E+03  0.45291703099E+03  0.25500000920E-02 0. -1.
       -2    1    3    3    0  502  0.20664715608E+03 -0.22761261232E+03  0.32496862387E+03  0.44734232407E+03  0.25500000920E-02 0.  1.
</event>
<event>
 5   0  0.3998066E-03  0.9008592E+03  0.7818609E-02  0.9424508E-01
       -1   -1    0    0    0  501  0.00000000000E+00  0.00000000000E+00  0.74644124381E+03  0.74644124382E+03  0.50400001928E-02 0.  1.
        1   -1    0    0  501    0  0.00000000000E+00  0.00000000000E+00 -0.27180551505E+03  0.27180551510E+03  0.50400001928E-02 0. -1.
    10030    2    1    2    0    0  0.00000000000E+00  0.00000000000E+00  0.47463572876E+03  0.10182467589E+04  0.90085924929E+03 0.  0.
        4    1    3    3  502    0 -0.10567339429E+03 -0.16431487567E+03 -0.22142352843E+03  0.29529008868E+03  0.12699999809E+01 0. -1.
       -4    1    3    3    0  502  0.10567339429E+03  0.16431487567E+03  0.69605925719E+03  0.72295667024E+03  0.12699999809E+01 0.  1.
</event>
<event>
 5   0  0.3943549E-03  0.9013842E+03  0.7818609E-02  0.9423853E-01
        1   -1    0    0  501    0  0.00000000000E+00  0.00000000000E+00  0.75331638622E+03  0.75331638623E+03  0.50400001928E-02 0.  1.
       -1   -1    0    0    0  501  0.00000000000E+00  0.00000000000E+00 -0.26963886667E+03  0.26963886672E+03  0.50400001928E-02 0. -1.
    10030    2    1    2    0    0  0.00000000000E+00  0.00000000000E+00  0.48367751954E+03  0.10229552530E+04  0.90138421699E+03 0.  0.
        3    1    3    3  502    0 -0.27191017289E+03 -0.11377783752E+03 -0.14508889497E+03  0.32852904906E+03  0.10100000352E+00 0. -1.
       -3    1    3    3    0  502  0.27191017289E+03  0.11377783752E+03  0.62876641451E+03  0.69442620389E+03  0.10100000352E+00 0.  1.
</event>
<event>
 5   0  0.3998066E-03  0.8981764E+03  0.7818609E-02  0.9427864E-01
       -1   -1    0    0    0  501  0.00000000000E+00  0.00000000000E+00  0.15283226494E+03  0.15283226502E+03  0.50400001928E-02 0.  1.
        1   -1    0    0  501    0  0.00000000000E+00  0.00000000000E+00 -0.13196179822E+04  0.13196179822E+04  0.50400001928E-02 0. -1.
    10030    2    1    2    0    0  0.00000000000E+00  0.00000000000E+00 -0.11667857173E+04  0.14724502473E+04  0.89817638612E+03 0.  0.
        4    1    3    3  502    0 -0.20875733373E+03 -0.30568958795E+03 -0.16654957131E+03  0.40591393321E+03  0.12699999809E+01 0.  1.
       -4    1    3    3    0  502  0.20875733373E+03  0.30568958795E+03 -0.10002361460E+04  0.10665363140E+04  0.12699999809E+01 0. -1.
</event>
<event>
 5   0  0.6609191E-03  0.9035494E+03  0.7818609E-02  0.9421155E-01
       -2   -1    0    0    0  501  0.00000000000E+00  0.00000000000E+00  0.46946535816E+03  0.46946535816E+03  0.25500000920E-02 0. -1.
        2   -1    0    0  501    0  0.00000000000E+00  0.00000000000E+00 -0.43475063966E+03  0.43475063967E+03  0.25500000920E-02 0.  1.
    10030    2    1    2    0    0  0.00000000000E+00  0.00000000000E+00  0.34714718494E+02  0.90421599783E+03  0.90354936725E+03 0.  0.
        2    1    3    3  502    0 -0.64449677986E+02  0.41872417115E+03 -0.13965540958E+03  0.44607995464E+03  0.25500000920E-02 0.  1.
       -2    1    3    3    0  502  0.64449677986E+02 -0.41872417115E+03  0.17437012808E+03  0.45813604319E+03  0.25500000920E-02 0. -1.
</event>
<event>
 5   0  0.6724773E-03  0.8950772E+03  0.7818609E-02  0.9431756E-01
       -2   -1    0    0    0  501  0.00000000000E+00  0.00000000000E+00  0.15141913994E+03  0.15141913996E+03  0.25500000920E-02 0.  1.
        2   -1    0    0  501    0  0.00000000000E+00  0.00000000000E+00 -0.13227573760E+04  0.13227573760E+04  0.25500000920E-02 0. -1.
    10030    2    1    2    0    0  0.00000000000E+00  0.00000000000E+00 -0.11713382361E+04  0.14741765160E+04  0.89507716816E+03 0.  0.
        5    1    3    3  502    0  0.31885782855E+03 -0.30421928314E+03 -0.45757444795E+03  0.63530791942E+03  0.46999998093E+01 0. -1.
       -5    1    3    3    0  502 -0.31885782855E+03  0.30421928314E+03 -0.71376378811E+03  0.83886859655E+03  0.46999998093E+01 0.  1.
</event>
<event>
 5   0  0.6524705E-03  0.8424081E+03  0.7818609E-02  0.9500584E-01
        2   -1    0    0  501    0  0.00000000000E+00  0.00000000000E+00  0.19989296428E+04  0.19989296428E+04  0.25500000920E-02 0. -1.
       -2   -1    0    0    0  501  0.00000000000E+00  0.00000000000E+00 -0.88753916018E+02  0.88753916054E+02  0.25500000920E-02 0.  1.
    10030    2    1    2    0    0  0.00000000000E+00  0.00000000000E+00  0.19101757268E+04  0.20876835588E+04  0.84240805713E+03 0.  0.
        3    1    3    3  502    0  0.25111339699E+03  0.11640405902E+03  0.16825379862E+03  0.32390923737E+03  0.10100000352E+00 0.  1.
       -3    1    3    3    0  502 -0.25111339699E+03 -0.11640405902E+03  0.17419219282E+04  0.17637743215E+04  0.10100000352E+00 0. -1.
</event>
<event>
 5   0  0.6724773E-03  0.8967037E+03  0.7818609E-02  0.9429711E-01
       -2   -1    0    0    0  501  0.00000000000E+00  0.00000000000E+00  0.22701994429E+03  0.22701994431E+03  0.25500000920E-02 0. -1.
        2   -1    0    0  501    0  0.00000000000E+00  0.00000000000E+00 -0.88547010201E+03  0.88547010202E+03  0.25500000920E-02 0.  1.
    10030    2    1    2    0    0  0.00000000000E+00  0.00000000000E+00 -0.65845015772E+03  0.11124900463E+04  0.89670368180E+03 0.  0.
        5    1    3    3  502    0 -0.28602127478E+03 -0.24685901400E+03 -0.62865429933E+03  0.73346837729E+03  0.46999998093E+01 0.  1.
       -5    1    3    3    0  502  0.28602127478E+03  0.24685901400E+03 -0.29795858393E+02  0.37902166903E+03  0.46999998093E+01 0. -1.
</event>
<event>
 5   0  0.3998066E-03  0.9006745E+03  0.7818609E-02  0.9424739E-01
        1   -1    0    0  501    0  0.00000000000E+00  0.00000000000E+00  0.15250869744E+04  0.15250869744E+04  0.50400001928E-02 0. -1.
       -1   -1    0    0    0  501  0.00000000000E+00  0.00000000000E+00 -0.13297841286E+03  0.13297841295E+03  0.50400001928E-02 0.  1.
    10030    2    1    2    0    0  0.00000000000E+00  0.00000000000E+00  0.13921085615E+04  0.16580653873E+04  0.90067451482E+03 0.  0.
        4    1    3    3  502    0  0.24903730859E+03 -0.31892643832E+03  0.33218409563E+03  0.52352797482E+03  0.12699999809E+01 0.  1.
       -4    1    3    3    0  502 -0.24903730859E+03  0.31892643832E+03  0.10599244659E+04  0.11345374125E+04  0.12699999809E+01 0. -1.
</event>
<event>
 5   0  0.3794006E-03  0.8949437E+03  0.7818609E-02  0.9431924E-01
        1   -1    0    0  501    0  0.00000000000E+00  0.00000000000E+00  0.11829301244E+04  0.11829301244E+04  0.50400001928E-02 0.  1.
       -1   -1    0    0    0  501  0.00000000000E+00  0.00000000000E+00 -0.16926700287E+03  0.16926700294E+03  0.50400001928E-02 0. -1.
    10030    2    1    2    0    0  0.00000000000E+00  0.00000000000E+00  0.10136631215E+04  0.13521971274E+04  0.89494365592E+03 0.  0.
        5    1    3    3  502    0  0.20940951175E+03 -0.13583813584E+03  0.10679230717E+04  0.10967160616E+04  0.46999998093E+01 0.  1.
       -5    1    3    3    0  502 -0.20940951175E+03  0.13583813584E+03 -0.54259950161E+02  0.25548106574E+03  0.46999998093E+01 0. -1.
</event>
<event>
 5   0  0.3943549E-03  0.9028921E+03  0.7818609E-02  0.9421973E-01
        1   -1    0    0  501    0  0.00000000000E+00  0.00000000000E+00  0.85974866208E+03  0.85974866210E+03  0.50400001928E-02 0. -1.
       -1   -1    0    0    0  501  0.00000000000E+00  0.00000000000E+00 -0.23705012734E+03  0.23705012739E+03  0.50400001928E-02 0.  1.
    10030    2    1    2    0    0  0.00000000000E+00  0.00000000000E+00  0.62269853475E+03  0.10967987895E+04  0.90289208627E+03 0.  0.
        3    1    3    3  502    0 -0.21263478694E+03  0.35766888853E+02 -0.17045455729E+03  0.27485921716E+03  0.10100000352E+00 0.  1.
       -3    1    3    3    0  502  0.21263478694E+03 -0.35766888853E+02  0.79315309204E+03  0.82193957233E+03  0.10100000352E+00 0. -1.
</event>
<event>
 5   0  0.3794006E-03  0.8964996E+03  0.7818609E-02  0.9429968E-01
        1   -1    0    0  501    0  0.00000000000E+00  0.00000000000E+00  0.13352631194E+04  0.13352631194E+04  0.50400001928E-02 0.  1.
       -1   -1    0    0    0  501  0.00000000000E+00  0.00000000000E+00 -0.15047811719E+03  0.15047811727E+03  0.50400001928E-02 0. -1.
    10030    2    1    2    0    0  0.00000000000E+00  0.00000000000E+00  0.11847850022E+04  0.14857412367E+04  0.89649959338E+03 0.  0.
        5    1    3    3  502    0  0.33614009313E+03  0.29453645894E+03  0.53585307984E+03  0.69778399310E+03  0.46999998093E+01 0.  1.
       -5    1    3    3    0  502 -0.33614009313E+03 -0.29453645894E+03  0.64893192240E+03  0.78795724361E+03  0.46999998093E+01 0. -1.
</event>
<event>
 5   0  0.6609191E-03  0.9248200E+03  0.7818609E-02  0.9395076E-01
        2   -1    0    0  501    0  0.00000000000E+00  0.00000000000E+00  0.70707934413E+03  0.70707934414E+03  0.25500000920E-02 0.  1.
       -2   -1    0    0    0  501  0.00000000000E+00  0.00000000000E+00 -0.30240311134E+03  0.30240311135E+03  0.25500000920E-02 0. -1.
    10030    2    1    2    0    0  0.00000000000E+00  0.00000000000E+00  0.40467623279E+03  0.10094824555E+04  0.92481996873E+03 0.  0.
        2    1    3    3  502    0 -0.28047370187E+03 -0.18203543784E+03  0.55098477249E+03  0.64450493993E+03  0.25500000920E-02 0.  1.
       -2    1    3    3    0  502  0.28047370187E+03  0.18203543784E+03 -0.14630853970E+03  0.36497751556E+03  0.25500000920E-02 0. -1.
</event>
<event>
 5   0  0.6524705E-03  0.9011494E+03  0.7818609E-02  0.9424146E-01
       -2   -1    0    0    0  501  0.00000000000E+00  0.00000000000E+00  0.35510256541E+03  0.35510256542E+03  0.25500000920E-02 0.  1.
        2   -1    0    0  501    0  0.00000000000E+00  0.00000000000E+00 -0.57171532943E+03  0.57171532944E+03  0.25500000920E-02 0. -1.
    10030    2    1    2    0    0  0.00000000000E+00  0.00000000000E+00 -0.21661276402E+03  0.92681789486E+03  0.90114944415E+03 0.  0.
        3    1    3    3  502    0  0.14848142621E+03  0.69536983930E+02 -0.53994567298E+03  0.56429023209E+03  0.10100000352E+00 0. -1.
       -3    1    3    3    0  502 -0.14848142621E+03 -0.69536983930E+02  0.32333290896E+03  0.36252766278E+03  0.10100000352E+00 0.  1.
</event>
<event>
 5   0  0.6524705E-03  0.9025439E+03  0.7818609E-02  0.9422407E-01
       -2   -1    0    0    0  501  0.00000000000E+00  0.00000000000E+00  0.31779520377E+03  0.31779520378E+03  0.25500000920E-02 0.  1.
        2   -1    0    0  501    0  0.00000000000E+00  0.00000000000E+00 -0.64081007791E+03  0.64081007791E+03  0.25500000920E-02 0. -1.
    10030    2    1    2    0    0  0.00000000000E+00  0.00000000000E+00 -0.32301487414E+03  0.95860528169E+03  0.90254389211E+03 0.  0.
        3    1    3    3  502    0  0.44527116933E+03 -0.55114312729E+02 -0.21291157328E+03  0.49662395224E+03  0.10100000352E+00 0.  1.
       -3    1    3    3    0  502 -0.44527116933E+03  0.55114312729E+02 -0.11010330086E+03  0.46198132945E+03  0.10100000352E+00 0. -1.
</event>
<event>
 5   0  0.3927993E-03  0.9070652E+03  0.7818609E-02  0.9416792E-01
       -1   -1    0    0    0  501  0.00000000000E+00  0.00000000000E+00  0.84335415540E+03  0.84335415542E+03  0.50400001928E-02 0.  1.
        1   -1    0    0  501    0  0.00000000000E+00  0.00000000000E+00 -0.24389730537E+03  0.24389730542E+03  0.50400001928E-02 0. -1.
    10030    2    1    2    0    0  0.00000000000E+00  0.00000000000E+00  0.59945685003E+03  0.10872514608E+04  0.90706517079E+03 0.  0.
        2    1    3    3  502    0  0.22593440565E+03  0.34273899803E+02 -0.16984587140E+03  0.28472561511E+03  0.25500000920E-02 0. -1.
       -2    1    3    3    0  502 -0.22593440565E+03 -0.34273899803E+02  0.76930272142E+03  0.80252584573E+03  0.25500000920E-02 0.  1.
</event>
<event>
 5   0  0.6534628E-03  0.9026953E+03  0.7818609E-02  0.9422218E-01
       -2   -1    0    0    0  501  0.00000000000E+00  0.00000000000E+00  0.13044009337E+03  0.13044009339E+03  0.25500000920E-02 0.  1.
        2   -1    0    0  501    0  0.00000000000E+00  0.00000000000E+00 -0.15617489983E+04  0.15617489983E+04  0.25500000920E-02 0. -1.
    10030    2    1    2    0    0  0.00000000000E+00  0.00000000000E+00 -0.14313089050E+04  0.16921890917E+04  0.90269526460E+03 0.  0.
        4    1    3    3  502    0  0.14344643619E+03  0.12696289873E+03  0.50449256766E+02  0.19809896042E+03  0.12699999809E+01 0.  1.
       -4    1    3    3    0  502 -0.14344643619E+03 -0.12696289873E+03 -0.14817581617E+04  0.14940901313E+04  0.12699999809E+01 0. -1.
</event>
<event>
 5   0  0.6524705E-03  0.9012436E+03  0.7818609E-02  0.9424028E-01
        2   -1    0    0  501    0  0.00000000000E+00  0.00000000000E+00  0.10179491859E+04  0.10179491859E+04  0.25500000920E-02 0.  1.
       -2   -1    0    0    0  501  0.00000000000E+00  0.00000000000E+00 -0.19947950867E+03  0.19947950868E+03  0.25500000920E-02 0. -1.
    10030    2    1    2    0    0  0.00000000000E+00  0.00000000000E+00  0.81846967722E+03  0.12174286946E+04  0.90124359295E+03 0.  0.
        3    1    3    3  502    0 -0.18501064169E+03  0.39128368226E+02  0.96175655009E+03  0.98017122921E+03  0.10100000352E+00 0.  1.
       -3    1    3    3    0  502  0.18501064169E+03 -0.39128368226E+02 -0.14328687286E+03  0.23725746537E+03  0.10100000352E+00 0. -1.
</event>
<event>
 5   0  0.6524705E-03  0.8989636E+03  0.7818609E-02  0.9426878E-01
       -2   -1    0    0    0  501  0.00000000000E+00  0.00000000000E+00  0.94658107161E+02  0.94658107196E+02  0.25500000920E-02 0. -1.
        2   -1    0    0  501    0  0.00000000000E+00  0.00000000000E+00 -0.21343535795E+04  0.21343535795E+04  0.25500000920E-02 0.  1.
    10030    2    1    2    0    0  0.00000000000E+00  0.00000000000E+00 -0.20396954723E+04  0.22290116867E+04  0.89896355852E+03 0.  0.
        3    1    3    3  502    0  0.39709472337E+03  0.14773118912E+03 -0.13919856944E+04  0.14550370810E+04  0.10100000352E+00 0. -1.
       -3    1    3    3    0  502 -0.39709472337E+03 -0.14773118912E+03 -0.64770977791E+03  0.77397460564E+03  0.10100000352E+00 0.  1.
</event>
<event>
 5   0  0.6524705E-03  0.8961295E+03  0.7818609E-02  0.9430433E-01
        2   -1    0    0  501    0  0.00000000000E+00  0.00000000000E+00  0.11076156492E+04  0.11076156492E+04  0.25500000920E-02 0.  1.
       -2   -1    0    0    0  501  0.00000000000E+00  0.00000000000E+00 -0.18125604114E+03  0.18125604116E+03  0.25500000920E-02 0. -1.
    10030    2    1    2    0    0  0.00000000000E+00  0.00000000000E+00  0.92635960810E+03  0.12888716904E+04  0.89612951676E+03 0.  0.
        3    1    3    3  502    0  0.38554352450E+03  0.15897551617E+03  0.22752811678E+03  0.47506428844E+03  0.10100000352E+00 0. -1.
       -3    1    3    3    0  502 -0.38554352450E+03 -0.15897551617E+03  0.69883149133E+03  0.81380740197E+03  0.10100000352E+00 0.  1.
</event>
<event>
 5   0  0.6724773E-03  0.9021417E+03  0.7818609E-02  0.9422908E-01
        2   -1    0    0  501    0  0.00000000000E+00  0.00000000000E+00  0.82714152103E+03  0.82714152103E+03  0.25500000920E-02 0. -1.
       -2   -1    0    0    0  501  0.00000000000E+00  0.00000000000E+00 -0.24598562199E+03  0.24598562200E+03  0.25500000920E-02 0.  1.
    10030    2    1    2    0    0  0.00000000000E+00  0.00000000000E+00  0.58115589904E+03  0.10731271430E+04  0.90214172175E+03 0.  0.
        5    1    3    3  502    0  0.13835950153E+03 -0.37519718705E+03  0.42405516916E+02  0.40216488994E+03  0.46999998093E+01 0.  1.
       -5    1    3    3    0  502 -0.13835950153E+03  0.37519718705E+03  0.53875038212E+03  0.67096225309E+03  0.46999998093E+01 0. -1.
</event>
<event>
 5   0  0.3943549E-03  0.9021601E+03  0.7818609E-02  0.9422885E-01
       -1   -1    0    0    0  501  0.00000000000E+00  0.00000000000E+00  0.52081555831E+03  0.52081555833E+03  0.50400001928E-02 0. -1.
        1   -1    0    0  501    0  0.00000000000E+00  0.00000000000E+00 -0.39068188973E+03  0.39068188976E+03  0.50400001928E-02 0.  1.
    10030    2    1    2    0    0  0.00000000000E+00  0.00000000000E+00  0.13013366858E+03  0.91149744809E+03  0.90216008899E+03 0.  0.
        3    1    3    3  502    0 -0.96183736894E+01  0.14128756373E+03 -0.36763967111E+03  0.39397160653E+03  0.10100000352E+00 0.  1.
       -3    1    3    3    0  502  0.96183736894E+01 -0.14128756373E+03  0.49777333969E+03  0.51752584156E+03  0.10100000352E+00 0. -1.
</event>
<event>
 5   0  0.2560250E-03  0.9112864E+03  0.7818609E-02  0.9411582E-01
        3   -1    0    0  501    0  0.00000000000E+00  0.00000000000E+00  0.72270719979E+03  0.72270720684E+03  0.10100000352E+00 0. -1.
       -3   -1    0    0    0  501  0.00000000000E+00  0.00000000000E+00 -0.28726811612E+03  0.28726813388E+03  0.10100000352E+00 0.  1.
    10030    2    1    2    0    0  0.00000000000E+00  0.00000000000E+00  0.43543908366E+03  0.10099753407E+04  0.91128644964E+03 0.  0.
        5    1    3    3  502    0 -0.10736313508E+03 -0.23552860534E+03 -0.19783700198E+03  0.32582531525E+03  0.46999998093E+01 0.  1.
       -5    1    3    3    0  502  0.10736313508E+03  0.23552860534E+03  0.63327608564E+03  0.68415002547E+03  0.46999998093E+01 0. -1.
</event>
<event>
 5   0  0.3927993E-03  0.9375587E+03  0.7818609E-02  0.9379812E-01
        1   -1    0    0  501    0  0.00000000000E+00  0.00000000000E+00  0.10736926326E+04  0.10736926326E+04  0.50400001928E-02 0.  1.
       -1   -1    0    0    0  501  0.00000000000E+00  0.00000000000E+00 -0.20467131259E+03  0.20467131266E+03  0.50400001928E-02 0. -1.
    10030    2    1    2    0    0  0.00000000000E+00  0.00000000000E+00  0.86902132004E+03  0.12783639453E+04  0.93755870321E+03 0.  0.
        2    1    3    3  502    0  0.23511690320E+03  0.34254064149E+03  0.73055105620E+03  0.84042780473E+03  0.25500000920E-02 0.  1.
       -2    1    3    3    0  502 -0.23511690320E+03 -0.34254064149E+03  0.13847026384E+03  0.43793614057E+03  0.25500000920E-02 0. -1.
</event>
<event>
 5   0  0.3998066E-03  0.8985927E+03  0.7818609E-02  0.9427342E-01
        1   -1    0    0  501    0  0.00000000000E+00  0.00000000000E+00  0.12706600397E+04  0.12706600397E+04  0.50400001928E-02 0. -1.
       -1   -1    0    0    0  501  0.00000000000E+00  0.00000000000E+00 -0.15886799850E+03  0.15886799858E+03  0.50400001928E-02 0.  1.
    10030    2    1    2    0    0  0.00000000000E+00  0.00000000000E+00  0.11117920412E+04  0.14295280382E+04  0.89859271606E+03 0.  0.
        4    1    3    3  502    0 -0.62359180831E+02  0.14287125378E+03  0.12262561114E+04  0.12361256110E+04  0.12699999809E+01 0. -1.
       -4    1    3    3    0  502  0.62359180831E+02 -0.14287125378E+03 -0.11446407022E+03  0.19340242724E+03  0.12699999809E+01 0.  1.
</event>
<event>
 5   0  0.6524705E-03  0.9008672E+03  0.7818609E-02  0.9424498E-01
       -2   -1    0    0    0  501  0.00000000000E+00  0.00000000000E+00  0.68653581158E+03  0.68653581159E+03  0.25500000920E-02 0.  1.
        2   -1    0    0  501    0  0.00000000000E+00  0.00000000000E+00 -0.29552782182E+03  0.29552782183E+03  0.25500000920E-02 0. -1.
    10030    2    1    2    0    0  0.00000000000E+00  0.00000000000E+00  0.39100798977E+03  0.98206363342E+03  0.90086721109E+03 0.  0.
        3    1    3    3  502    0  0.31077717109E+03 -0.14740811304E+03 -0.12153279520E+03  0.36480382724E+03  0.10100000352E+00 0. -1.
       -3    1    3    3    0  502 -0.31077717109E+03  0.14740811304E+03  0.51254078497E+03  0.61725980617E+03  0.10100000352E+00 0.  1.
</event>
<event>
 5   0  0.6524705E-03  0.8990996E+03  0.7818609E-02  0.9426708E-01
        2   -1    0    0  501    0  0.00000000000E+00  0.00000000000E+00  0.64669875347E+03  0.64669875347E+03  0.25500000920E-02 0. -1.
       -2   -1    0    0    0  501  0.00000000000E+00  0.00000000000E+00 -0.31250258159E+03  0.31250258160E+03  0.25500000920E-02 0.  1.
    10030    2    1    2    0    0  0.00000000000E+00  0.00000000000E+00  0.33419617188E+03  0.95920133507E+03  0.89909961622E+03 0.  0.
        3    1    3    3  502    0 -0.21253820572E+03 -0.38108673723E+03  0.28247264431E+03  0.51979841782E+03  0.10100000352E+00 0. -1.
       -3    1    3    3    0  502  0.21253820572E+03  0.38108673723E+03  0.51723527570E+02  0.43940291725E+03  0.10100000352E+00 0.  1.
</event>
<event>
 5   0  0.6863405E-03  0.9039818E+03  0.7818609E-02  0.9420618E-01
        2   -1    0    0  501    0  0.00000000000E+00  0.00000000000E+00  0.10662487278E+04  0.10662487278E+04  0.25500000920E-02 0. -1.
       -2   -1    0    0    0  501  0.00000000000E+00  0.00000000000E+00 -0.19160237672E+03  0.19160237674E+03  0.25500000920E-02 0.  1.
    10030    2    1    2    0    0  0.00000000000E+00  0.00000000000E+00  0.87464635110E+03  0.12578511046E+04  0.90398183707E+03 0.  0.
        1    1    3    3  502    0  0.35215837945E+03  0.22332986791E+03  0.19469839702E+03  0.46021649247E+03  0.50400001928E-02 0.  1.
       -1    1    3    3    0  502 -0.35215837945E+03 -0.22332986791E+03  0.67994795408E+03  0.79763461209E+03  0.50400001928E-02 0. -1.
</event>
<event>
 5   0  0.3969536E-03  0.8922769E+03  0.7818609E-02  0.9435287E-01
       -1   -1    0    0    0  501  0.00000000000E+00  0.00000000000E+00  0.72282317779E+03  0.72282317781E+03  0.50400001928E-02 0. -1.
        1   -1    0    0  501    0  0.00000000000E+00  0.00000000000E+00 -0.27536407625E+03  0.27536407629E+03  0.50400001928E-02 0.  1.
    10030    2    1    2    0    0  0.00000000000E+00  0.00000000000E+00  0.44745910154E+03  0.99818725410E+03  0.89227694507E+03 0.  0.
        1    1    3    3  502    0  0.87051522226E+02  0.26217275688E+03  0.61563602087E+03  0.67477420830E+03  0.50400001928E-02 0. -1.
       -1    1    3    3    0  502 -0.87051522226E+02 -0.26217275688E+03 -0.16817691933E+03  0.32341304580E+03  0.50400001928E-02 0.  1.
</event>
<event>
 5   0  0.6609191E-03  0.9353359E+03  0.7818609E-02  0.9382457E-01
        2   -1    0    0  501    0  0.00000000000E+00  0.00000000000E+00  0.57733536497E+03  0.57733536497E+03  0.25500000920E-02 0. -1.
       -2   -1    0    0    0  501  0.00000000000E+00  0.00000000000E+00 -0.37883233402E+03  0.37883233403E+03  0.25500000920E-02 0.  1.
    10030    2    1    2    0    0  0.00000000000E+00  0.00000000000E+00  0.19850303094E+03  0.95616769901E+03  0.93533588370E+03 0.  0.
        2    1    3    3  502    0 -0.40590507960E+03  0.33808276684E+02 -0.13567400173E+03  0.42931266924E+03  0.25500000920E-02 0.  1.
       -2    1    3    3    0  502  0.40590507960E+03 -0.33808276684E+02  0.33417703268E+03  0.52685502977E+03  0.25500000920E-02 0. -1.
</event>
<event>
 5   0  0.6524705E-03  0.8943687E+03  0.7818609E-02  0.9432648E-01
        2   -1    0    0  501    0  0.00000000000E+00  0.00000000000E+00  0.18339167707E+04  0.18339167707E+04  0.25500000920E-02 0. -1.
       -2   -1    0    0    0  501  0.00000000000E+00  0.00000000000E+00 -0.10904194739E+03  0.10904194742E+03  0.25500000920E-02 0.  1.
    10030    2    1    2    0    0  0.00000000000E+00  0.00000000000E+00  0.17248748233E+04  0.19429587181E+04  0.89436872946E+03 0.  0.
        3    1    3    3  502    0 -0.22527555389E+03  0.25790419180E+03  0.23765830371E+03  0.41682745453E+03  0.10100000352E+00 0.  1.
       -3    1    3    3    0  502  0.22527555389E+03 -0.25790419180E+03  0.14872165196E+04  0.15261312636E+04  0.10100000352E+00 0. -1.
</event>
<event>
 5   0  0.3969536E-03  0.8917535E+03  0.7818609E-02  0.9435949E-01
        1   -1    0    0  501    0  0.00000000000E+00  0.00000000000E+00  0.11105095045E+04  0.11105095045E+04  0.50400001928E-02 0. -1.
       -1   -1    0    0    0  501  0.00000000000E+00  0.00000000000E+00 -0.17902240834E+03  0.17902240841E+03  0.50400001928E-02 0.  1.
    10030    2    1    2    0    0  0.00000000000E+00  0.00000000000E+00  0.93148709612E+03  0.12895319129E+04  0.89175352205E+03 0.  0.
        1    1    3    3  502    0  0.55274542361E+01 -0.23632563930E+02  0.11095535939E+04  0.11098190071E+04  0.50400001928E-02 0. -1.
       -1    1    3    3    0  502 -0.55274542361E+01  0.23632563930E+02 -0.17806649779E+03  0.17971290574E+03  0.50400001928E-02 0.  1.
</event>
<event>
 5   0  0.6534628E-03  0.8984758E+03  0.7818609E-02  0.9427489E-01
       -2   -1    0    0    0  501  0.00000000000E+00  0.00000000000E+00  0.33913232266E+03  0.33913232267E+03  0.25500000920E-02 0.  1.
        2   -1    0    0  501    0  0.00000000000E+00  0.00000000000E+00 -0.59509134626E+03  0.59509134627E+03  0.25500000920E-02 0. -1.
    10030    2    1    2    0    0  0.00000000000E+00  0.00000000000E+00 -0.25595902360E+03  0.93422366893E+03  0.89847584377E+03 0.  0.
        4    1    3    3  502    0  0.25224630851E+03  0.36963095865E+03 -0.16901952889E+03  0.47835599692E+03  0.12699999809E+01 0.  1.
       -4    1    3    3    0  502 -0.25224630851E+03 -0.36963095865E+03 -0.86939494716E+02  0.45586767201E+03  0.12699999809E+01 0. -1.
</event>
<event>
 5   0  0.2560250E-03  0.8985603E+03  0.7818609E-02  0.9427383E-01
        3   -1    0    0  501    0  0.00000000000E+00  0.00000000000E+00  0.53520449932E+03  0.53520450885E+03  0.10100000352E+00 0. -1.
       -3   -1    0    0    0  501  0.00000000000E+00  0.00000000000E+00 -0.37715047333E+03  0.37715048685E+03  0.10100000352E+00 0.  1.
    10030    2    1    2    0    0  0.00000000000E+00  0.00000000000E+00  0.15805402599E+03  0.91235499570E+03  0.89856027235E+03 0.  0.
        2    1    3    3  502    0 -0.12795221202E+03 -0.41212823741E+03  0.20597114663E+03  0.47816897210E+03  0.25500000920E-02 0. -1.
       -2    1    3    3    0  502  0.12795221202E+03  0.41212823741E+03 -0.47917120646E+02  0.43418602360E+03  0.25500000920E-02 0.  1.
</event>
<event>
 5   0  0.6724773E-03  0.9010051E+03  0.7818609E-02  0.9424326E-01
       -2   -1    0    0    0  501  0.00000000000E+00  0.00000000000E+00  0.19896860617E+03  0.19896860619E+03  0.25500000920E-02 0.  1.
        2   -1    0    0  501    0  0.00000000000E+00  0.00000000000E+00 -0.10200230154E+04  0.10200230154E+04  0.25500000920E-02 0. -1.
    10030    2    1    2    0    0  0.00000000000E+00  0.00000000000E+00 -0.82105440920E+03  0.12189916216E+04  0.90100512240E+03 0.  0.
        5    1    3    3  502    0  0.20727701186E+03  0.13337766877E+03  0.99611523180E+02  0.26589078156E+03  0.46999998093E+01 0.  1.
       -5    1    3    3    0  502 -0.20727701186E+03 -0.13337766877E+03 -0.92066593238E+03  0.95310084001E+03  0.46999998093E+01 0. -1.
</event>
<event>
 5   0  0.6534628E-03  0.9121069E+03  0.7818609E-02  0.9410572E-01
        2   -1    0    0  501    0  0.00000000000E+00  0.00000000000E+00  0.14644893449E+03  0.14644893451E+03  0.25500000920E-02 0.  1.
       -2   -1    0    0    0  501  0.00000000000E+00  0.00000000000E+00 -0.14201861492E+04  0.14201861492E+04  0.25500000920E-02 0. -1.
    10030    2    1    2    0    0  0.00000000000E+00  0.00000000000E+00 -0.12737372147E+04  0.15666350837E+04  0.91210689801E+03 0.  0.
        4    1    3    3  502    0  0.32215466823E+03  0.28704643084E+03 -0.38324555917E+03  0.57711182214E+03  0.12699999809E+01 0.  1.
       -4    1    3    3    0  502 -0.32215466823E+03 -0.28704643084E+03 -0.89049165557E+03  0.98952326160E+03  0.12699999809E+01 0. -1.
</event>
<event>
 5   0  0.6524705E-03  0.9314263E+03  0.7818609E-02  0.9387128E-01
       -2   -1    0    0    0  501  0.00000000000E+00  0.00000000000E+00  0.59208608436E+03  0.59208608437E+03  0.25500000920E-02 0. -1.
        2   -1    0    0  501    0  0.00000000000E+00  0.00000000000E+00 -0.36631281566E+03  0.36631281567E+03  0.25500000920E-02 0.  1.
    10030    2    1    2    0    0  0.00000000000E+00  0.00000000000E+00  0.22577326870E+03  0.95839890004E+03  0.93142626264E+03 0.  0.
        3    1    3    3  502    0 -0.21937152471E+03  0.82984095465E+02 -0.30110578842E+03  0.38167385551E+03  0.10100000352E+00 0.  1.
       -3    1    3    3    0  502  0.21937152471E+03 -0.82984095465E+02  0.52687905712E+03  0.57672504453E+03  0.10100000352E+00 0. -1.
</event>
<event>
 5   0  0.6524705E-03  0.8976476E+03  0.7818609E-02  0.9428527E-01
        2   -1    0    0  501    0  0.00000000000E+00  0.00000000000E+00  0.17885783690E+04  0.17885783690E+04  0.25500000920E-02 0. -1.
       -2   -1    0    0    0  501  0.00000000000E+00  0.00000000000E+00 -0.11262733876E+03  0.11262733879E+03  0.25500000920E-02 0.  1.
    10030    2    1    2    0    0  0.00000000000E+00  0.00000000000E+00  0.16759510302E+04  0.19012057078E+04  0.89764764110E+03 0.  0.
        3    1    3    3  502    0  0.27882787604E+03  0.10723008116E+03  0.15474205405E+04  0.15759928978E+04  0.10100000352E+00 0. -1.
       -3    1    3    3    0  502 -0.27882787604E+03 -0.10723008116E+03  0.12853048978E+03  0.32521280997E+03  0.10100000352E+00 0.  1.
</event>
<event>
 5   0  0.6534628E-03  0.8995023E+03  0.7818609E-02  0.9426204E-01
        2   -1    0    0  501    0  0.00000000000E+00  0.00000000000E+00  0.13148513085E+04  0.13148513085E+04  0.25500000920E-02 0.  1.
       -2   -1    0    0    0  501  0.00000000000E+00  0.00000000000E+00 -0.15383953508E+03  0.15383953510E+03  0.25500000920E-02 0. -1.
    10030    2    1    2    0    0  0.00000000000E+00  0.00000000000E+00  0.11610117734E+04  0.14686908436E+04  0.89950233799E+03 0.  0.
        4    1    3    3  502    0  0.14240114899E+03  0.22715953306E+03 -0.90954972093E+01  0.26826084631E+03  0.12699999809E+01 0. -1.
       -4    1    3    3    0  502 -0.14240114899E+03 -0.22715953306E+03  0.11701072706E+04  0.12004299973E+04  0.12699999809E+01 0.  1.
</event>
<event>
 5   0  0.6524705E-03  0.9070727E+03  0.7818609E-02  0.9416783E-01
        2   -1    0    0  501    0  0.00000000000E+00  0.00000000000E+00  0.13607343594E+04  0.13607343594E+04  0.25500000920E-02 0. -1.
       -2   -1    0    0    0  501  0.00000000000E+00  0.00000000000E+00 -0.15116487769E+03  0.15116487771E+03  0.25500000920E-02 0.  1.
    10030    2    1    2    0    0  0.00000000000E+00  0.00000000000E+00  0.12095694818E+04  0.15118992372E+04  0.90707274907E+03 0.  0.
        3    1    3    3  502    0  0.11336321526E+03 -0.36793719748E+03  0.10043494222E+04  0.10756146020E+04  0.10100000352E+00 0. -1.
       -3    1    3    3    0  502 -0.11336321526E+03  0.36793719748E+03  0.20522005955E+03  0.43628463519E+03  0.10100000352E+00 0.  1.
</event>
<event>
 5   0  0.2560250E-03  0.9431082E+03  0.7818609E-02  0.9373243E-01
       -3   -1    0    0    0  501  0.00000000000E+00  0.00000000000E+00  0.60289191907E+03  0.60289192753E+03  0.10100000352E+00 0.  1.
        3   -1    0    0  501    0  0.00000000000E+00  0.00000000000E+00 -0.36882769781E+03  0.36882771164E+03  0.10100000352E+00 0. -1.
    10030    2    1    2    0    0  0.00000000000E+00  0.00000000000E+00  0.23406422126E+03  0.97171963918E+03  0.94310815789E+03 0.  0.
        5    1    3    3  502    0  0.20602728740E+03 -0.20116457004E+03 -0.26769474475E+03  0.39318824214E+03  0.46999998093E+01 0. -1.
       -5    1    3    3    0  502 -0.20602728740E+03  0.20116457004E+03  0.50175896601E+03  0.57853139704E+03  0.46999998093E+01 0.  1.
</event>
<event>
 5   0  0.3794006E-03  0.8983296E+03  0.7818609E-02  0.9427672E-01
        1   -1    0    0  501    0  0.00000000000E+00  0.00000000000E+00  0.63130201717E+03  0.63130201719E+03  0.50400001928E-02 0. -1.
       -1   -1    0    0    0  501  0.00000000000E+00  0.00000000000E+00 -0.31957604748E+03  0.31957604752E+03  0.50400001928E-02 0.  1.
    10030    2    1    2    0    0  0.00000000000E+00  0.00000000000E+00  0.31172596969E+03  0.95087806471E+03  0.89832956857E+03 0.  0.
        5    1    3    3  502    0  0.44255756673E+03  0.48851951120E+02  0.21833397193E+03  0.49591887067E+03  0.46999998093E+01 0. -1.
       -5    1    3    3    0  502 -0.44255756673E+03 -0.48851951120E+02  0.93391997764E+02  0.45495919404E+03  0.46999998093E+01 0.  1.
</event>
<event>
 5   0  0.6863405E-03  0.9025658E+03  0.7818609E-02  0.9422380E-01
       -2   -1    0    0    0  501  0.00000000000E+00  0.00000000000E+00  0.15371527404E+03  0.15371527406E+03  0.25500000920E-02 0. -1.
        2   -1    0    0  501    0  0.00000000000E+00  0.00000000000E+00 -0.13248927817E+04  0.13248927817E+04  0.25500000920E-02 0.  1.
    10030    2    1    2    0    0  0.00000000000E+00  0.00000000000E+00 -0.11711775077E+04  0.14786080558E+04  0.90256580264E+03 0.  0.
        1    1    3    3  502    0 -0.72176405347E+02  0.26879369958E+03 -0.11675556937E+04  0.12002690467E+04  0.50400001928E-02 0.  1.
       -1    1    3    3    0  502  0.72176405347E+02 -0.26879369958E+03 -0.36218139478E+01  0.27833900909E+03  0.50400001928E-02 0. -1.
</event>
<event>
 5   0  0.3943549E-03  0.9013380E+03  0.7818609E-02  0.9423910E-01
        1   -1    0    0  501    0  0.00000000000E+00  0.00000000000E+00  0.51199339851E+03  0.51199339853E+03  0.50400001928E-02 0.  1.
       -1   -1    0    0    0  501  0.00000000000E+00  0.00000000000E+00 -0.39668975323E+03  0.39668975326E+03  0.50400001928E-02 0. -1.
    10030    2    1    2    0    0  0.00000000000E+00  0.00000000000E+00  0.11530364528E+03  0.90868315180E+03  0.90133797199E+03 0.  0.
        3    1    3    3  502    0 -0.25107992097E+02  0.42154992671E+03 -0.10100848254E+03  0.43420902308E+03  0.10100000352E+00 0. -1.
       -3    1    3    3    0  502  0.25107992097E+02 -0.42154992671E+03  0.21631212782E+03  0.47447412872E+03  0.10100000352E+00 0.  1.
</event>
<event>
 5   0  0.6534628E-03  0.8985132E+03  0.7818609E-02  0.9427442E-01
       -2   -1    0    0    0  501  0.00000000000E+00  0.00000000000E+00  0.30018853666E+03  0.30018853668E+03  0.25500000920E-02 0.  1.
        2   -1    0    0  501    0  0.00000000000E+00  0.00000000000E+00 -0.67234908142E+03  0.67234908143E+03  0.25500000920E-02 0. -1.
    10030    2    1    2    0    0  0.00000000000E+00  0.00000000000E+00 -0.37216054476E+03  0.97253761810E+03  0.89851318719E+03 0.  0.
        4    1    3    3  502    0  0.18001353291E+03  0.44825640551E+02 -0.62895408220E+03  0.65574313606E+03  0.12699999809E+01 0. -1.
       -4    1    3    3    0  502 -0.18001353291E+03 -0.44825640551E+02  0.25679353744E+03  0.31679448204E+03  0.12699999809E+01 0.  1.
</event>
<event>
 5   0  0.6534628E-03  0.9113705E+03  0.7818609E-02  0.9411478E-01
       -2   -1    0    0    0  501  0.00000000000E+00  0.00000000000E+00  0.48364273029E+03  0.48364273029E+03  0.25500000920E-02 0. -1.
        2   -1    0    0  501    0  0.00000000000E+00  0.00000000000E+00 -0.42934389533E+03  0.42934389534E+03  0.25500000920E-02 0.  1.
    10030    2    1    2    0    0  0.00000000000E+00  0.00000000000E+00  0.54298834958E+02  0.91298662563E+03  0.91137051472E+03 0.  0.
        4    1    3    3  502    0 -0.25966828011E+03  0.27567303062E+03 -0.22672492492E+03  0.44139442677E+03  0.12699999809E+01 0.  1.
       -4    1    3    3    0  502  0.25966828011E+03 -0.27567303062E+03  0.28102375988E+03  0.47159219886E+03  0.12699999809E+01 0. -1.
</event>
<event>
 5   0  0.2560250E-03  0.9037425E+03  0.7818609E-02  0.9420915E-01
       -3   -1    0    0    0  501  0.00000000000E+00  0.00000000000E+00  0.38715027711E+03  0.38715029028E+03  0.10100000352E+00 0. -1.
        3   -1    0    0  501    0  0.00000000000E+00  0.00000000000E+00 -0.52741181178E+03  0.52741182145E+03  0.10100000352E+00 0.  1.
    10030    2    1    2    0    0  0.00000000000E+00  0.00000000000E+00 -0.14026153468E+03  0.91456211173E+03  0.90374252866E+03 0.  0.
        1    1    3    3  502    0  0.12095915693E+03 -0.21518555494E+03  0.31288651994E+03  0.39853972837E+03  0.50400001928E-02 0. -1.
       -1    1    3    3    0  502 -0.12095915693E+03  0.21518555494E+03 -0.45314805462E+03  0.51602238336E+03  0.50400001928E-02 0.  1.
</event>
<event>
 5   0  0.6534628E-03  0.8971479E+03  0.7818609E-02  0.9429154E-01
        2   -1    0    0  501    0  0.00000000000E+00  0.00000000000E+00  0.59990325311E+03  0.59990325312E+03  0.25500000920E-02 0.  1.
       -2   -1    0    0    0  501  0.00000000000E+00  0.00000000000E+00 -0.33541836299E+03  0.33541836300E+03  0.25500000920E-02 0. -1.
    10030    2    1    2    0    0  0.00000000000E+00  0.00000000000E+00  0.26448489013E+03  0.93532161611E+03  0.89714785206E+03 0.  0.
        4    1    3    3  502    0  0.25387957020E+02 -0.46031903081E+02 -0.33219400617E+03  0.33633012815E+03  0.12699999809E+01 0. -1.
       -4    1    3    3    0  502 -0.25387957020E+02  0.46031903081E+02  0.59667889630E+03  0.59899148796E+03  0.12699999809E+01 0.  1.
</event>
<event>
 5   0  0.6863405E-03  0.9070024E+03  0.7818609E-02  0.9416870E-01
        2   -1    0    0  501    0  0.00000000000E+00  0.00000000000E+00  0.69446930114E+03  0.69446930114E+03  0.25500000920E-02 0.  1.
       -2   -1    0    0    0  501  0.00000000000E+00  0.00000000000E+00 -0.29614463643E+03  0.29614463644E+03  0.25500000920E-02 0. -1.
    10030    2    1    2    0    0  0.00000000000E+00  0.00000000000E+00  0.39832466471E+03  0.99061393759E+03  0.90700244478E+03 0.  0.
        1    1    3    3  502    0 -0.10635574285E+03 -0.41939269258E+03  0.34756115567E+03  0.55497795594E+03  0.50400001928E-02 0.  1.
       -1    1    3    3    0  502  0.10635574285E+03  0.41939269258E+03  0.50763509038E+02  0.43563598165E+03  0.50400001928E-02 0. -1.
</event>
<event>
 5   0  0.3998066E-03  0.9055962E+03  0.7818609E-02  0.9418613E-01
        1   -1    0    0  501    0  0.00000000000E+00  0.00000000000E+00  0.12879219421E+03  0.12879219431E+03  0.50400001928E-02 0.  1.
       -1   -1    0    0    0  501  0.00000000000E+00  0.00000000000E+00 -0.15919141732E+04  0.15919141732E+04  0.50400001928E-02 0. -1.
    10030    2    1    2    0    0  0.00000000000E+00  0.00000000000E+00 -0.14631219790E+04  0.17207063675E+04  0.90559620018E+03 0.  0.
        4    1    3    3  502    0 -0.20563470907E+03  0.10651603521E+03 -0.14708689270E+04  0.14889890237E+04  0.12699999809E+01 0. -1.
       -4    1    3    3    0  502  0.20563470907E+03 -0.10651603521E+03  0.77469479993E+01  0.23171734384E+03  0.12699999809E+01 0.  1.
</event>
<event>
 5   0  0.2560250E-03  0.8992174E+03  0.7818609E-02  0.9426560E-01
       -3   -1    0    0    0  501  0.00000000000E+00  0.00000000000E+00  0.52297990258E+03  0.52297991233E+03  0.10100000352E+00 0. -1.
        3   -1    0    0  501    0  0.00000000000E+00  0.00000000000E+00 -0.38653108174E+03  0.38653109494E+03  0.10100000352E+00 0.  1.
    10030    2    1    2    0    0  0.00000000000E+00  0.00000000000E+00  0.13644882084E+03  0.90951100727E+03  0.89921743290E+03 0.  0.
        1    1    3    3  502    0  0.23845238551E+03  0.20641609929E+03  0.39233108337E+03  0.50337940482E+03  0.50400001928E-02 0. -1.
       -1    1    3    3    0  502 -0.23845238551E+03 -0.20641609929E+03 -0.25588226253E+03  0.40613160244E+03  0.50400001928E-02 0.  1.
</event>
<event>
 5   0  0.3794006E-03  0.8978935E+03  0.7818609E-02  0.9428219E-01
        1   -1    0    0  501    0  0.00000000000E+00  0.00000000000E+00  0.28340643907E+03  0.28340643912E+03  0.50400001928E-02 0.  1.
       -1   -1    0    0    0  501  0.00000000000E+00  0.00000000000E+00 -0.71118061794E+03  0.71118061796E+03  0.50400001928E-02 0. -1.
    10030    2    1    2    0    0  0.00000000000E+00  0.00000000000E+00 -0.42777417887E+03  0.99458705708E+03  0.89789346028E+03 0.  0.
        5    1    3    3  502    0  0.13277732823E+03  0.28141469147E+03  0.14454419902E+03  0.34313140768E+03  0.46999998093E+01 0.  1.
       -5    1    3    3    0  502 -0.13277732823E+03 -0.28141469147E+03 -0.57231837789E+03  0.65145564940E+03  0.46999998093E+01 0. -1.
</event>
<event>
 5   0  0.6534628E-03  0.8974827E+03  0.7818609E-02  0.9428734E-01
       -2   -1    0    0    0  501  0.00000000000E+00  0.00000000000E+00  0.20067207270E+03  0.20067207272E+03  0.25500000920E-02 0.  1.
        2   -1    0    0  501    0  0.00000000000E+00  0.00000000000E+00 -0.10034720287E+04  0.10034720287E+04  0.25500000920E-02 0. -1.
    10030    2    1    2    0    0  0.00000000000E+00  0.00000000000E+00 -0.80279995600E+03  0.12041441014E+04  0.89748272832E+03 0.  0.
        4    1    3    3  502    0  0.11263269911E+03  0.15466496628E+03  0.14320050293E+03  0.23898822909E+03  0.12699999809E+01 0.  1.
       -4    1    3    3    0  502 -0.11263269911E+03 -0.15466496628E+03 -0.94600045893E+03  0.96515587233E+03  0.12699999809E+01 0. -1.
</event>
<event>
 5   0  0.6863405E-03  0.9018404E+03  0.7818609E-02  0.9423284E-01
        2   -1    0    0  501    0  0.00000000000E+00  0.00000000000E+00  0.17840119756E+04  0.17840119756E+04  0.25500000920E-02 0. -1.
       -2   -1    0    0    0  501  0.00000000000E+00  0.00000000000E+00 -0.11397289369E+03  0.11397289372E+03  0.25500000920E-02 0.  1.
    10030    2    1    2    0    0  0.00000000000E+00  0.00000000000E+00  0.16700390819E+04  0.18979848693E+04  0.90184035675E+03 0.  0.
        1    1    3    3  502    0 -0.25881020224E+03  0.84150836324E+02  0.15916841585E+04  0.16147825069E+04  0.50400001928E-02 0. -1.
       -1    1    3    3    0  502  0.25881020224E+03 -0.84150836324E+02  0.78354923370E+02  0.28320236242E+03  0.50400001928E-02 0.  1.
</event>
<event>
 5   0  0.6609191E-03  0.9095596E+03  0.7818609E-02  0.9413710E-01
        2   -1    0    0  501    0  0.00000000000E+00  0.00000000000E+00  0.47805616437E+03  0.47805616438E+03  0.25500000920E-02 0. -1.
       -2   -1    0    0    0  501  0.00000000000E+00  0.00000000000E+00 -0.43263672407E+03  0.43263672408E+03  0.25500000920E-02 0.  1.
    10030    2    1    2    0    0  0.00000000000E+00  0.00000000000E+00  0.45419440305E+02  0.91069288846E+03  0.90955957008E+03 0.  0.
        2    1    3    3  502    0 -0.24548953105E+03 -0.30259333546E+03  0.25751592678E+03  0.46705705120E+03  0.25500000920E-02 0. -1.
       -2    1    3    3    0  502  0.24548953105E+03  0.30259333546E+03 -0.21209648648E+03  0.44363583726E+03  0.25500000920E-02 0.  1.
</event>
<event>
 5   0  0.6724773E-03  0.8133427E+03  0.7818609E-02  0.9540902E-01
        2   -1    0    0  501    0  0.00000000000E+00  0.00000000000E+00  0.18635768666E+03  0.18635768668E+03  0.25500000920E-02 0.  1.
       -2   -1    0    0    0  501  0.00000000000E+00  0.00000000000E+00 -0.88744166675E+03  0.88744166675E+03  0.25500000920E-02 0. -1.
    10030    2    1    2    0    0  0.00000000000E+00  0.00000000000E+00 -0.70108398008E+03  0.10737993534E+04  0.81334267335E+03 0.  0.
        5    1    3    3  502    0  0.20257737851E+02 -0.78077954510E+01  0.18555614932E+03  0.18688101070E+03  0.46999998093E+01 0.  1.
       -5    1    3    3    0  502 -0.20257737851E+02  0.78077954510E+01 -0.88664012940E+03  0.88691834273E+03  0.46999998093E+01 0. -1.
</event>
<event>
 5   0  0.6609191E-03  0.8862522E+03  0.7818609E-02  0.9442932E-01
       -2   -1    0    0    0  501  0.00000000000E+00  0.00000000000E+00  0.69303241126E+02  0.69303241173E+02  0.25500000920E-02 0.  1.
        2   -1    0    0  501    0  0.00000000000E+00  0.00000000000E+00 -0.28333555822E+04  0.28333555822E+04  0.25500000920E-02 0. -1.
    10030    2    1    2    0    0  0.00000000000E+00  0.00000000000E+00 -0.27640523411E+04  0.29026588234E+04  0.88625216543E+03 0.  0.
        2    1    3    3  502    0  0.35442561364E+03  0.17365566389E+02 -0.51275869049E+03  0.62357080847E+03  0.25500000920E-02 0.  1.
       -2    1    3    3    0  502 -0.35442561364E+03 -0.17365566389E+02 -0.22512936506E+04  0.22790880149E+04  0.25500000920E-02 0. -1.
</event>
<event>
 5   0  0.3943549E-03  0.9251644E+03  0.7818609E-02  0.9394660E-01
       -1   -1    0    0    0  501  0.00000000000E+00  0.00000000000E+00  0.23625673194E+03  0.23625673199E+03  0.50400001928E-02 0.  1.
        1   -1    0    0  501    0  0.00000000000E+00  0.00000000000E+00 -0.90571929784E+03  0.90571929786E+03  0.50400001928E-02 0. -1.
    10030    2    1    2    0    0  0.00000000000E+00  0.00000000000E+00 -0.66946256590E+03  0.11419760298E+04  0.92516437761E+03 0.  0.
        3    1    3    3  502    0  0.50460593534E+01  0.44329056960E+03 -0.17167434667E+03  0.47539886761E+03  0.10100000352E+00 0.  1.
       -3    1    3    3    0  502 -0.50460593534E+01 -0.44329056960E+03 -0.49778821923E+03  0.66657716224E+03  0.10100000352E+00 0. -1.
</event>
<event>
 5   0  0.6863405E-03  0.9055694E+03  0.7818609E-02  0.9418646E-01
       -2   -1    0    0    0  501  0.00000000000E+00  0.00000000000E+00  0.14660042097E+03  0.14660042099E+03  0.25500000920E-02 0.  1.
        2   -1    0    0  501    0  0.00000000000E+00  0.00000000000E+00 -0.13984544051E+04  0.13984544051E+04  0.25500000920E-02 0. -1.
    10030    2    1    2    0    0  0.00000000000E+00  0.00000000000E+00 -0.12518539841E+04  0.15450548261E+04  0.90556944407E+03 0.  0.
        1    1    3    3  502    0 -0.40076374847E+03 -0.10734339466E+03 -0.31655083717E+03  0.52186072759E+03  0.50400001928E-02 0.  1.
       -1    1    3    3    0  502  0.40076374847E+03  0.10734339466E+03 -0.93530314698E+03  0.10231940985E+04  0.50400001928E-02 0. -1.
</event>
<event>
 5   0  0.3927993E-03  0.8275490E+03  0.7818609E-02  0.9520975E-01
       -1   -1    0    0    0  501  0.00000000000E+00  0.00000000000E+00  0.25931389375E+03  0.25931389380E+03  0.50400001928E-02 0. -1.
        1   -1    0    0  501    0  0.00000000000E+00  0.00000000000E+00 -0.66023967286E+03  0.66023967288E+03  0.50400001928E-02 0.  1.
    10030    2    1    2    0    0  0.00000000000E+00  0.00000000000E+00 -0.40092577912E+03  0.91955356668E+03  0.82754896026E+03 0.  0.
        2    1    3    3  502    0 -0.12684500875E+03  0.17617560985E+02 -0.63766458683E+03  0.65039692496E+03  0.25500000920E-02 0.  1.
       -2    1    3    3    0  502  0.12684500875E+03 -0.17617560985E+02  0.23673880771E+03  0.26915664172E+03  0.25500000920E-02 0. -1.
</event>
<event>
 5   0  0.3998066E-03  0.8968079E+03  0.7818609E-02  0.9429581E-01
        1   -1    0    0  501    0  0.00000000000E+00  0.00000000000E+00  0.95406907726E+03  0.95406907727E+03  0.50400001928E-02 0.  1.
       -1   -1    0    0    0  501  0.00000000000E+00  0.00000000000E+00 -0.21074583041E+03  0.21074583047E+03  0.50400001928E-02 0. -1.
    10030    2    1    2    0    0  0.00000000000E+00  0.00000000000E+00  0.74332324685E+03  0.11648149077E+04  0.89680785009E+03 0.  0.
        4    1    3    3  502    0  0.24418482108E+03  0.22610093206E+02 -0.11592822994E+03  0.27125340654E+03  0.12699999809E+01 0. -1.
       -4    1    3    3    0  502 -0.24418482108E+03 -0.22610093206E+02  0.85925147679E+03  0.89356150120E+03  0.12699999809E+01 0.  1.
</event>
<event>
 5   0  0.6524705E-03  0.8990900E+03  0.7818609E-02  0.9426720E-01
       -2   -1    0    0    0  501  0.00000000000E+00  0.00000000000E+00  0.50309845741E+03  0.50309845741E+03  0.25500000920E-02 0. -1.
        2   -1    0    0  501    0  0.00000000000E+00  0.00000000000E+00 -0.40169220580E+03  0.40169220581E+03  0.25500000920E-02 0.  1.
    10030    2    1    2    0    0  0.00000000000E+00  0.00000000000E+00  0.10140625160E+03  0.90479066323E+03  0.89909004910E+03 0.  0.
        3    1    3    3  502    0 -0.43857088158E+03  0.47658589239E+02 -0.36302902474E+02  0.44264395425E+03  0.10100000352E+00 0.  1.
       -3    1    3    3    0  502  0.43857088158E+03 -0.47658589239E+02  0.13770915408E+03  0.46214670898E+03  0.10100000352E+00 0. -1.
</event>
<event>
 5   0  0.6724773E-03  0.9021921E+03  0.7818609E-02  0.9422845E-01
        2   -1    0    0  501    0  0.00000000000E+00  0.00000000000E+00  0.30417439847E+03  0.30417439848E+03  0.25500000920E-02 0. -1.
       -2   -1    0    0    0  501  0.00000000000E+00  0.00000000000E+00 -0.66898350741E+03  0.66898350742E+03  0.25500000920E-02 0.  1.
    10030    2    1    2    0    0  0.00000000000E+00  0.00000000000E+00 -0.36480910894E+03  0.97315790590E+03  0.90219212136E+03 0.  0.
        5    1    3    3  502    0  0.19600787597E+03 -0.14855809565E+02  0.25551754217E+03  0.32241446444E+03  0.46999998093E+01 0. -1.
       -5    1    3    3    0  502 -0.19600787597E+03  0.14855809565E+02 -0.62032665112E+03  0.65074344146E+03  0.46999998093E+01 0.  1.
</event>
<event>
 5   0  0.2560250E-03  0.8918735E+03  0.7818609E-02  0.9435797E-01
       -3   -1    0    0    0  501  0.00000000000E+00  0.00000000000E+00  0.42947490809E+03  0.42947491997E+03  0.10100000352E+00 0.  1.
        3   -1    0    0  501    0  0.00000000000E+00  0.00000000000E+00 -0.46302956837E+03  0.46302957938E+03  0.10100000352E+00 0. -1.
    10030    2    1    2    0    0  0.00000000000E+00  0.00000000000E+00 -0.33554660275E+02  0.89250449935E+03  0.89187351465E+03 0.  0.
        1    1    3    3  502    0 -0.42708882312E+03 -0.68849148210E+02  0.91532895421E+02  0.44218021102E+03  0.50400001928E-02 0.  1.
       -1    1    3    3    0  502  0.42708882312E+03  0.68849148210E+02 -0.12508755570E+03  0.45032428833E+03  0.50400001928E-02 0. -1.
</event>
<event>
 5   0  0.6724773E-03  0.9024852E+03  0.7818609E-02  0.9422480E-01
        2   -1    0    0  501    0  0.00000000000E+00  0.00000000000E+00  0.19425917476E+04  0.19425917476E+04  0.25500000920E-02 0. -1.
       -2   -1    0    0    0  501  0.00000000000E+00  0.00000000000E+00 -0.10481866235E+03  0.10481866238E+03  0.25500000920E-02 0.  1.
    10030    2    1    2    0    0  0.00000000000E+00  0.00000000000E+00  0.18377730853E+04  0.20474104100E+04  0.90248516557E+03 0.  0.
        5    1    3    3  502    0 -0.42802418864E+03  0.13355991518E+03  0.10335553029E+04  0.11266328644E+04  0.46999998093E+01 0. -1.
       -5    1    3    3    0  502  0.42802418864E+03 -0.13355991518E+03  0.80421778232E+03  0.92077754556E+03  0.46999998093E+01 0.  1.
</event>
<event>
 5   0  0.6863405E-03  0.9895163E+03  0.7818609E-02  0.9320118E-01
        2   -1    0    0  501    0  0.00000000000E+00  0.00000000000E+00  0.67976410174E+03  0.67976410175E+03  0.25500000920E-02 0. -1.
       -2   -1    0    0    0  501  0.00000000000E+00  0.00000000000E+00 -0.36010377838E+03  0.36010377839E+03  0.25500000920E-02 0.  1.
    10030    2    1    2    0    0  0.00000000000E+00  0.00000000000E+00  0.31966032336E+03  0.10398678801E+04  0.98951628881E+03 0.  0.
        1    1    3    3  502    0  0.40934303497E+03  0.73035346627E+01 -0.13210139335E+03  0.43019279404E+03  0.50400001928E-02 0. -1.
       -1    1    3    3    0  502 -0.40934303497E+03 -0.73035346627E+01  0.45176171671E+03  0.60967508609E+03  0.50400001928E-02 0.  1.
</event>
<event>
 5   0  0.3998066E-03  0.9015475E+03  0.7818609E-02  0.9423649E-01
       -1   -1    0    0    0  501  0.00000000000E+00  0.00000000000E+00  0.25415028832E+03  0.25415028837E+03  0.50400001928E-02 0.  1.
        1   -1    0    0  501    0  0.00000000000E+00  0.00000000000E+00 -0.79951497036E+03  0.79951497038E+03  0.50400001928E-02 0. -1.
    10030    2    1    2    0    0  0.00000000000E+00  0.00000000000E+00 -0.54536468204E+03  0.10536652587E+04  0.90154747022E+03 0.  0.
        4    1    3    3  502    0 -0.29677876426E+03 -0.66118537389E+02  0.11625369817E+03  0.32552393329E+03  0.12699999809E+01 0.  1.
       -4    1    3    3    0  502  0.29677876426E+03  0.66118537389E+02 -0.66161838021E+03  0.72814132546E+03  0.12699999809E+01 0. -1.
</event>
<event>
 5   0  0.2560250E-03  0.9110968E+03  0.7818609E-02  0.9411815E-01
       -3   -1    0    0    0  501  0.00000000000E+00  0.00000000000E+00  0.46282474678E+03  0.46282475780E+03  0.10100000352E+00 0.  1.
        3   -1    0    0  501    0  0.00000000000E+00  0.00000000000E+00 -0.44838643183E+03  0.44838644321E+03  0.10100000352E+00 0. -1.
    10030    2    1    2    0    0  0.00000000000E+00  0.00000000000E+00  0.14438314942E+02  0.91121120100E+03  0.91109680490E+03 0.  0.
        2    1    3    3  502    0  0.32960757527E+03  0.27281902283E+03 -0.14917494417E+03  0.45312750619E+03  0.25500000920E-02 0. -1.
       -2    1    3    3    0  502 -0.32960757527E+03 -0.27281902283E+03  0.16361325912E+03  0.45808369481E+03  0.25500000920E-02 0.  1.
</event>
<event>
 5   0  0.6724773E-03  0.8995564E+03  0.7818609E-02  0.9426136E-01
        2   -1    0    0  501    0  0.00000000000E+00  0.00000000000E+00  0.35601898042E+03  0.35601898043E+03  0.25500000920E-02 0.  1.
       -2   -1    0    0    0  501  0.00000000000E+00  0.00000000000E+00 -0.56822935945E+03  0.56822935945E+03  0.25500000920E-02 0. -1.
    10030    2    1    2    0    0  0.00000000000E+00  0.00000000000E+00 -0.21221037903E+03  0.92424833988E+03  0.89955641780E+03 0.  0.
        5    1    3    3  502    0  0.16874231659E+03  0.40219196233E+03 -0.21887212036E+03  0.48801581843E+03  0.46999998093E+01 0. -1.
       -5    1    3    3    0  502 -0.16874231659E+03 -0.40219196233E+03  0.66617413292E+01  0.43623252145E+03  0.46999998093E+01 0.  1.
</event>
<event>
 5   0  0.6609191E-03  0.8981469E+03  0.7818609E-02  0.9427901E-01
       -2   -1    0    0    0  501  0.00000000000E+00  0.00000000000E+00  0.23136000719E+03  0.23136000721E+03  0.25500000920E-02 0. -1.
        2   -1    0    0  501    0  0.00000000000E+00  0.00000000000E+00 -0.87165861568E+03  0.87165861568E+03  0.25500000920E-02 0.  1.
    10030    2    1    2    0    0  0.00000000000E+00  0.00000000000E+00 -0.64029860848E+03  0.11030186229E+04  0.89814685570E+03 0.  0.
        2    1    3    3  502    0 -0.24239361674E+03 -0.30179509623E+03 -0.40551042928E+02  0.38920345918E+03  0.25500000920E-02 0. -1.
       -2    1    3    3    0  502  0.24239361674E+03  0.30179509623E+03 -0.59974756556E+03  0.71381516371E+03  0.25500000920E-02 0.  1.
</event>
<event>
 5   0  0.6524705E-03  0.8813597E+03  0.7818609E-02  0.9449187E-01
       -2   -1    0    0    0  501  0.00000000000E+00  0.00000000000E+00  0.17577728181E+03  0.17577728183E+03  0.25500000920E-02 0.  1.
        2   -1    0    0  501    0  0.00000000000E+00  0.00000000000E+00 -0.11047998612E+04  0.11047998612E+04  0.25500000920E-02 0. -1.
    10030    2    1    2    0    0  0.00000000000E+00  0.00000000000E+00 -0.92902257937E+03  0.12805771430E+04  0.88135966905E+03 0.  0.
        3    1    3    3  502    0  0.24200998268E+03 -0.35731629607E+03 -0.33492143440E+03  0.54627478852E+03  0.10100000352E+00 0.  1.
       -3    1    3    3    0  502 -0.24200998268E+03  0.35731629607E+03 -0.59410114497E+03  0.73430235449E+03  0.10100000352E+00 0. -1.
</event>
<event>
 5   0  0.3969536E-03  0.9054723E+03  0.7818609E-02  0.9418767E-01
       -1   -1    0    0    0  501  0.00000000000E+00  0.00000000000E+00  0.29290047403E+03  0.29290047407E+03  0.50400001928E-02 0. -1.
        1   -1    0    0  501    0  0.00000000000E+00  0.00000000000E+00 -0.69979411080E+03  0.69979411082E+03  0.50400001928E-02 0.  1.
    10030    2    1    2    0    0  0.00000000000E+00  0.00000000000E+00 -0.40689363677E+03  0.99269458489E+03  0.90547231168E+03 0.  0.
        1    1    3    3  502    0 -0.25617024546E+03  0.32308997198E+03  0.15392472593E+01  0.41232595597E+03  0.50400001928E-02 0. -1.
       -1    1    3    3    0  502  0.25617024546E+03 -0.32308997198E+03 -0.40843288403E+03  0.58036862892E+03  0.50400001928E-02 0.  1.
</event>
<event>
 5   0  0.6524705E-03  0.9195605E+03  0.7818609E-02  0.9401455E-01
        2   -1    0    0  501    0  0.00000000000E+00  0.00000000000E+00  0.37118902958E+03  0.37118902959E+03  0.25500000920E-02 0.  1.
       -2   -1    0    0    0  501  0.00000000000E+00  0.00000000000E+00 -0.56951538321E+03  0.56951538322E+03  0.25500000920E-02 0. -1.
    10030    2    1    2    0    0  0.00000000000E+00  0.00000000000E+00 -0.19832635364E+03  0.94070441280E+03  0.91956046551E+03 0.  0.
        3    1    3    3  502    0  0.37223192278E+03 -0.25380624578E+03 -0.52724449648E+01  0.45055745873E+03  0.10100000352E+00 0.  1.
       -3    1    3    3    0  502 -0.37223192278E+03  0.25380624578E+03 -0.19305390867E+03  0.49014695408E+03  0.10100000352E+00 0. -1.
</event>
<event>
 5   0  0.6724773E-03  0.9032226E+03  0.7818609E-02  0.9421562E-01
       -2   -1    0    0    0  501  0.00000000000E+00  0.00000000000E+00  0.34685724346E+03  0.34685724347E+03  0.25500000920E-02 0.  1.
        2   -1    0    0  501    0  0.00000000000E+00  0.00000000000E+00 -0.58800209676E+03  0.58800209677E+03  0.25500000920E-02 0. -1.
    10030    2    1    2    0    0  0.00000000000E+00  0.00000000000E+00 -0.24114485331E+03  0.93485934023E+03  0.90322264462E+03 0.  0.
        5    1    3    3  502    0 -0.25271076739E+02 -0.26256004029E+03 -0.49995487105E+03  0.56529051395E+03  0.46999998093E+01 0. -1.
       -5    1    3    3    0  502  0.25271076739E+02  0.26256004029E+03  0.25881001774E+03  0.36956882628E+03  0.46999998093E+01 0.  1.
</event>
<event>
 5   0  0.3969536E-03  0.9006748E+03  0.7818609E-02  0.9424738E-01
        1   -1    0    0  501    0  0.00000000000E+00  0.00000000000E+00  0.71060164721E+03  0.71060164722E+03  0.50400001928E-02 0.  1.
       -1   -1    0    0    0  501  0.00000000000E+00  0.00000000000E+00 -0.28539728958E+03  0.28539728962E+03  0.50400001928E-02 0. -1.
    10030    2    1    2    0    0  0.00000000000E+00  0.00000000000E+00  0.42520435763E+03  0.99599893685E+03  0.90067482282E+03 0.  0.
        1    1    3    3  502    0  0.35881349984E+03  0.18787206538E+03 -0.51120940666E+01  0.40505453232E+03  0.50400001928E-02 0. -1.
       -1    1    3    3    0  502 -0.35881349984E+03 -0.18787206538E+03  0.43031645169E+03  0.59094440453E+03  0.50400001928E-02 0.  1.
</event>
<event>
 5   0  0.3927993E-03  0.9005767E+03  0.7818609E-02  0.9424861E-01
       -1   -1    0    0    0  501  0.00000000000E+00  0.00000000000E+00  0.12525254511E+03  0.12525254521E+03  0.50400001928E-02 0. -1.
        1   -1    0    0  501    0  0.00000000000E+00  0.00000000000E+00 -0.16188062148E+04  0.16188062148E+04  0.50400001928E-02 0.  1.
    10030    2    1    2    0    0  0.00000000000E+00  0.00000000000E+00 -0.14935536697E+04  0.17440587601E+04  0.90057670089E+03 0.  0.
        2    1    3    3  502    0 -0.37121367751E+03 -0.14593154578E+03 -0.11514478566E+04  0.12185761269E+04  0.25500000920E-02 0.  1.
       -2    1    3    3    0  502  0.37121367751E+03  0.14593154578E+03 -0.34210581309E+03  0.52548263318E+03  0.25500000920E-02 0. -1.
</event>
<event>
 5   0  0.6534628E-03  0.9029929E+03  0.7818609E-02  0.9421848E-01
        2   -1    0    0  501    0  0.00000000000E+00  0.00000000000E+00  0.21006268456E+04  0.21006268456E+04  0.25500000920E-02 0.  1.
       -2   -1    0    0    0  501  0.00000000000E+00  0.00000000000E+00 -0.97042009471E+02  0.97042009504E+02  0.25500000920E-02 0. -1.
    10030    2    1    2    0    0  0.00000000000E+00  0.00000000000E+00  0.20035848361E+04  0.21976688551E+04  0.90299291312E+03 0.  0.
        4    1    3    3  502    0 -0.15642586964E+03 -0.26357604806E+03  0.18086348218E+04  0.18344216848E+04  0.12699999809E+01 0.  1.
       -4    1    3    3    0  502  0.15642586964E+03  0.26357604806E+03  0.19495001429E+03  0.36324717036E+03  0.12699999809E+01 0. -1.
</event>
<event>
 5   0  0.6534628E-03  0.8881165E+03  0.7818609E-02  0.9440559E-01
       -2   -1    0    0    0  501  0.00000000000E+00  0.00000000000E+00  0.12512754974E+03  0.12512754976E+03  0.25500000920E-02 0. -1.
        2   -1    0    0  501    0  0.00000000000E+00  0.00000000000E+00 -0.15758938060E+04  0.15758938060E+04  0.25500000920E-02 0.  1.
    10030    2    1    2    0    0  0.00000000000E+00  0.00000000000E+00 -0.14507662562E+04  0.17010213557E+04  0.88811650274E+03 0.  0.
        4    1    3    3  502    0 -0.30720114775E+02  0.41810655525E+03 -0.10057610585E+04  0.10896392690E+04  0.12699999809E+01 0. -1.
       -4    1    3    3    0  502  0.30720114775E+02 -0.41810655525E+03 -0.44500519776E+03  0.61138208670E+03  0.12699999809E+01 0.  1.
</event>
<event>
 5   0  0.6609191E-03  0.8886995E+03  0.7818609E-02  0.9439819E-01
       -2   -1    0    0    0  501  0.00000000000E+00  0.00000000000E+00  0.31732869911E+03  0.31732869912E+03  0.25500000920E-02 0. -1.
        2   -1    0    0  501    0  0.00000000000E+00  0.00000000000E+00 -0.62221501295E+03  0.62221501296E+03  0.25500000920E-02 0.  1.
    10030    2    1    2    0    0  0.00000000000E+00  0.00000000000E+00 -0.30488631385E+03  0.93954371208E+03  0.88869945569E+03 0.  0.
        2    1    3    3  502    0  0.15673852583E+03  0.25920594819E+03 -0.49614599393E+03  0.58130502867E+03  0.25500000920E-02 0.  1.
       -2    1    3    3    0  502 -0.15673852583E+03 -0.25920594819E+03  0.19125968009E+03  0.35823868341E+03  0.25500000920E-02 0. -1.
</event>
<event>
 5   0  0.6863405E-03  0.9018915E+03  0.7818609E-02  0.9423220E-01
       -2   -1    0    0    0  501  0.00000000000E+00  0.00000000000E+00  0.50643847923E+03  0.50643847924E+03  0.25500000920E-02 0. -1.
        2   -1    0    0  501    0  0.00000000000E+00  0.00000000000E+00 -0.40153361008E+03  0.40153361008E+03  0.25500000920E-02 0.  1.
    10030    2    1    2    0    0  0.00000000000E+00  0.00000000000E+00  0.10490486916E+03  0.90797208932E+03  0.90189150313E+03 0.  0.
        1    1    3    3  502    0 -0.20298159683E+03 -0.14925916217E+03 -0.32406403303E+03  0.41048425509E+03  0.50400001928E-02 0.  1.
       -1    1    3    3    0  502  0.20298159683E+03  0.14925916217E+03  0.42896890219E+03  0.49748783424E+03  0.50400001928E-02 0. -1.
</event>
<event>
 5   0  0.6534628E-03  0.8973094E+03  0.7818609E-02  0.9428951E-01
       -2   -1    0    0    0  501  0.00000000000E+00  0.00000000000E+00  0.19733778688E+03  0.19733778690E+03  0.25500000920E-02 0. -1.
        2   -1    0    0  501    0  0.00000000000E+00  0.00000000000E+00 -0.10200328406E+04  0.10200328406E+04  0.25500000920E-02 0.  1.
    10030    2    1    2    0    0  0.00000000000E+00  0.00000000000E+00 -0.82269505376E+03  0.12173706275E+04  0.89730936322E+03 0.  0.
        4    1    3    3  502    0  0.31571570057E+03 -0.14924334798E+03 -0.79348986567E+03  0.86693584557E+03  0.12699999809E+01 0.  1.
       -4    1    3    3    0  502 -0.31571570057E+03  0.14924334798E+03 -0.29205188085E+02  0.35043478197E+03  0.12699999809E+01 0. -1.
</event>
<event>
 5   0  0.6724773E-03  0.9027908E+03  0.7818609E-02  0.9422100E-01
        2   -1    0    0  501    0  0.00000000000E+00  0.00000000000E+00  0.50941187916E+03  0.50941187917E+03  0.25500000920E-02 0. -1.
       -2   -1    0    0    0  501  0.00000000000E+00  0.00000000000E+00 -0.39998634788E+03  0.39998634789E+03  0.25500000920E-02 0.  1.
    10030    2    1    2    0    0  0.00000000000E+00  0.00000000000E+00  0.10942553128E+03  0.90939822706E+03  0.90279077780E+03 0.  0.
        5    1    3    3  502    0 -0.13357795192E+03  0.16921461531E+03  0.45417416182E+03  0.50276526783E+03  0.46999998093E+01 0. -1.
       -5    1    3    3    0  502  0.13357795192E+03 -0.16921461531E+03 -0.34474863054E+03  0.40663295923E+03  0.46999998093E+01 0.  1.
</event>
<event>
 5   0  0.3943549E-03  0.8988112E+03  0.7818609E-02  0.9427069E-01
        1   -1    0    0  501    0  0.00000000000E+00  0.00000000000E+00  0.83605081953E+03  0.83605081954E+03  0.50400001928E-02 0.  1.
       -1   -1    0    0    0  501  0.00000000000E+00  0.00000000000E+00 -0.24157072806E+03  0.24157072812E+03  0.50400001928E-02 0. -1.
    10030    2    1    2    0    0  0.00000000000E+00  0.00000000000E+00  0.59448009146E+03  0.10776215477E+04  0.89881122647E+03 0.  0.
        3    1    3    3  502    0 -0.11205529475E+03 -0.36051884909E+02 -0.22275939274E+03  0.25194817869E+03  0.10100000352E+00 0. -1.
       -3    1    3    3    0  502  0.11205529475E+03  0.36051884909E+02  0.81723948421E+03  0.82567336897E+03  0.10100000352E+00 0.  1.
</event>
<event>
 5   0  0.3943549E-03  0.9030306E+03  0.7818609E-02  0.9421801E-01
        1   -1    0    0  501    0  0.00000000000E+00  0.00000000000E+00  0.75622951620E+03  0.75622951621E+03  0.50400001928E-02 0. -1.
       -1   -1    0    0    0  501  0.00000000000E+00  0.00000000000E+00 -0.26958227909E+03  0.26958227914E+03  0.50400001928E-02 0.  1.
    10030    2    1    2    0    0  0.00000000000E+00  0.00000000000E+00  0.48664723711E+03  0.10258117953E+04  0.90303062301E+03 0.  0.
        3    1    3    3  502    0  0.36082179844E+03 -0.15943623152E+03  0.49285829125E+03  0.63128566244E+03  0.10100000352E+00 0. -1.
       -3    1    3    3    0  502 -0.36082179844E+03  0.15943623152E+03 -0.62110541422E+01  0.39452613291E+03  0.10100000352E+00 0.  1.
</event>
<event>
 5   0  0.3998066E-03  0.8984258E+03  0.7818609E-02  0.9427551E-01
       -1   -1    0    0    0  501  0.00000000000E+00  0.00000000000E+00  0.50372738552E+03  0.50372738554E+03  0.50400001928E-02 0. -1.
        1   -1    0    0  501    0  0.00000000000E+00  0.00000000000E+00 -0.40059808724E+03  0.40059808727E+03  0.50400001928E-02 0.  1.
    10030    2    1    2    0    0  0.00000000000E+00  0.00000000000E+00  0.10312929828E+03  0.90432547281E+03  0.89842579472E+03 0.  0.
        4    1    3    3  502    0 -0.40653677240E+03  0.14751104714E+03 -0.70719565535E+02  0.43821744167E+03  0.12699999809E+01 0.  1.
       -4    1    3    3    0  502  0.40653677240E+03 -0.14751104714E+03  0.17384886382E+03  0.46610803114E+03  0.12699999809E+01 0. -1.
</event>
<event>
 5   0  0.3969536E-03  0.9061214E+03  0.7818609E-02  0.9417962E-01
        1   -1    0    0  501    0  0.00000000000E+00  0.00000000000E+00  0.45882438667E+03  0.45882438669E+03  0.50400001928E-02 0. -1.
       -1   -1    0    0    0  501  0.00000000000E+00  0.00000000000E+00 -0.44736941840E+03  0.44736941843E+03  0.50400001928E-02 0.  1.
    10030    2    1    2    0    0  0.00000000000E+00  0.00000000000E+00  0.11454968267E+02  0.90619380512E+03  0.90612140254E+03 0.  0.
        1    1    3    3  502    0 -0.10353166280E+03 -0.27918577441E+03 -0.33576795006E+03  0.44878014456E+03  0.50400001928E-02 0.  1.
       -1    1    3    3    0  502  0.10353166280E+03  0.27918577441E+03  0.34722291833E+03  0.45741366057E+03  0.50400001928E-02 0. -1.
</event>
<event>
 5   0  0.6863405E-03  0.8863140E+03  0.7818609E-02  0.9442853E-01
        2   -1    0    0  501    0  0.00000000000E+00  0.00000000000E+00  0.13215988384E+04  0.13215988384E+04  0.25500000920E-02 0. -1.
       -2   -1    0    0    0  501  0.00000000000E+00  0.00000000000E+00 -0.14859890025E+03  0.14859890027E+03  0.25500000920E-02 0.  1.
    10030    2    1    2    0    0  0.00000000000E+00  0.00000000000E+00  0.11729999381E+04  0.14701977386E+04  0.88631401653E+03 0.  0.
        1    1    3    3  502    0 -0.25597757634E+02  0.53084018680E+02  0.13150696666E+04  0.13163895268E+04  0.50400001928E-02 0. -1.
       -1    1    3    3    0  502  0.25597757634E+02 -0.53084018680E+02 -0.14206972852E+03  0.15380821181E+03  0.50400001928E-02 0.  1.
</event>
<event>
 5   0  0.6534628E-03  0.9372150E+03  0.7818609E-02  0.9380220E-01
        2   -1    0    0  501    0  0.00000000000E+00  0.00000000000E+00  0.11800054748E+04  0.11800054748E+04  0.25500000920E-02 0. -1.
       -2   -1    0    0    0  501  0.00000000000E+00  0.00000000000E+00 -0.18609489504E+03  0.18609489506E+03  0.25500000920E-02 0.  1.
    10030    2    1    2    0    0  0.00000000000E+00  0.00000000000E+00  0.99391057977E+03  0.13661003699E+04  0.93721501269E+03 0.  0.
        4    1    3    3  502    0 -0.23848274712E+03  0.36522844839E+03  0.24734275230E+03  0.50144380563E+03  0.12699999809E+01 0. -1.
       -4    1    3    3    0  502  0.23848274712E+03 -0.36522844839E+03  0.74656782748E+03  0.86465656426E+03  0.12699999809E+01 0.  1.
</event>
<event>
 5   0  0.6609191E-03  0.9007107E+03  0.7818609E-02  0.9424693E-01
        2   -1    0    0  501    0  0.00000000000E+00  0.00000000000E+00  0.73657724083E+03  0.73657724084E+03  0.25500000920E-02 0. -1.
       -2   -1    0    0    0  501  0.00000000000E+00  0.00000000000E+00 -0.27535460532E+03  0.27535460533E+03  0.25500000920E-02 0.  1.
    10030    2    1    2    0    0  0.00000000000E+00  0.00000000000E+00  0.46122263551E+03  0.10119318462E+04  0.90071068706E+03 0.  0.
        2    1    3    3  502    0  0.28824827134E+03 -0.14907301029E+03 -0.12021386867E+03  0.34606531545E+03  0.25500000920E-02 0.  1.
       -2    1    3    3    0  502 -0.28824827134E+03  0.14907301029E+03  0.58143650418E+03  0.66586653072E+03  0.25500000920E-02 0. -1.
</event>
<event>
 5   0  0.3794006E-03  0.9001711E+03  0.7818609E-02  0.9425368E-01
        1   -1    0    0  501    0  0.00000000000E+00  0.00000000000E+00  0.39403205971E+03  0.39403205974E+03  0.50400001928E-02 0. -1.
       -1   -1    0    0    0  501  0.00000000000E+00  0.00000000000E+00 -0.51411296691E+03  0.51411296694E+03  0.50400001928E-02 0.  1.
    10030    2    1    2    0    0  0.00000000000E+00  0.00000000000E+00 -0.12008090720E+03  0.90814502668E+03  0.90017107552E+03 0.  0.
        5    1    3    3  502    0  0.18718374398E+03 -0.34457548314E+03  0.16278910089E+03  0.42460852436E+03  0.46999998093E+01 0. -1.
       -5    1    3    3    0  502 -0.18718374398E+03  0.34457548314E+03 -0.28287000809E+03  0.48353650232E+03  0.46999998093E+01 0.  1.
</event>
<event>
 5   0  0.3943549E-03  0.8765212E+03  0.7818609E-02  0.9455416E-01
        1   -1    0    0  501    0  0.00000000000E+00  0.00000000000E+00  0.47652654704E+03  0.47652654706E+03  0.50400001928E-02 0.  1.
       -1   -1    0    0    0  501  0.00000000000E+00  0.00000000000E+00 -0.40306749018E+03  0.40306749021E+03  0.50400001928E-02 0. -1.
    10030    2    1    2    0    0  0.00000000000E+00  0.00000000000E+00  0.73459056860E+02  0.87959403727E+03  0.87652121330E+03 0.  0.
        3    1    3    3  502    0 -0.12216901076E+03 -0.11978311776E+03 -0.36816865418E+03  0.40598205701E+03  0.10100000352E+00 0. -1.
       -3    1    3    3    0  502  0.12216901076E+03  0.11978311776E+03  0.44162771104E+03  0.47361198027E+03  0.10100000352E+00 0.  1.
</event>
<event>
 5   0  0.6863405E-03  0.9049694E+03  0.7818609E-02  0.9419391E-01
        2   -1    0    0  501    0  0.00000000000E+00  0.00000000000E+00  0.10273246656E+04  0.10273246656E+04  0.25500000920E-02 0. -1.
       -2   -1    0    0    0  501  0.00000000000E+00  0.00000000000E+00 -0.19929667694E+03  0.19929667696E+03  0.25500000920E-02 0.  1.
    10030    2    1    2    0    0  0.00000000000E+00  0.00000000000E+00  0.82802798862E+03  0.12266213425E+04  0.90496937407E+03 0.  0.
        1    1    3    3  502    0  0.88267784927E+02 -0.28768144734E+03  0.87204171666E+03  0.92250125887E+03  0.50400001928E-02 0. -1.
       -1    1    3    3    0  502 -0.88267784927E+02  0.28768144734E+03 -0.44013728036E+02  0.30412008366E+03  0.50400001928E-02 0.  1.
</event>
<event>
 5   0  0.3998066E-03  0.8971082E+03  0.7818609E-02  0.9429204E-01
       -1   -1    0    0    0  501  0.00000000000E+00  0.00000000000E+00  0.21420404561E+03  0.21420404566E+03  0.50400001928E-02 0.  1.
        1   -1    0    0  501    0  0.00000000000E+00  0.00000000000E+00 -0.93929494157E+03  0.93929494158E+03  0.50400001928E-02 0. -1.
    10030    2    1    2    0    0  0.00000000000E+00  0.00000000000E+00 -0.72509089596E+03  0.11534989872E+04  0.89710819089E+03 0.  0.
        4    1    3    3  502    0  0.21016780042E+02 -0.25785944724E+03 -0.83369129019E+03  0.87291235517E+03  0.12699999809E+01 0. -1.
       -4    1    3    3    0  502 -0.21016780042E+02  0.25785944724E+03  0.10860039423E+03  0.28058663207E+03  0.12699999809E+01 0.  1.
</event>
<event>
 5   0  0.3943549E-03  0.8961421E+03  0.7818609E-02  0.9430417E-01
        1   -1    0    0  501    0  0.00000000000E+00  0.00000000000E+00  0.15086823471E+04  0.15086823471E+04  0.50400001928E-02 0. -1.
       -1   -1    0    0    0  501  0.00000000000E+00  0.00000000000E+00 -0.13307484748E+03  0.13307484758E+03  0.50400001928E-02 0.  1.
    10030    2    1    2    0    0  0.00000000000E+00  0.00000000000E+00  0.13756074996E+04  0.16417571947E+04  0.89614211669E+03 0.  0.
        3    1    3    3  502    0  0.11053889079E+03  0.41682568299E+03  0.46488905891E+03  0.63410120933E+03  0.10100000352E+00 0.  1.
       -3    1    3    3    0  502 -0.11053889079E+03 -0.41682568299E+03  0.91071844069E+03  0.10076559853E+04  0.10100000352E+00 0. -1.
</event>
<event>
 5   0  0.3969536E-03  0.8828781E+03  0.7818609E-02  0.9447241E-01
        1   -1    0    0  501    0  0.00000000000E+00  0.00000000000E+00  0.15167849025E+04  0.15167849025E+04  0.50400001928E-02 0.  1.
       -1   -1    0    0    0  501  0.00000000000E+00  0.00000000000E+00 -0.12847465603E+03  0.12847465613E+03  0.50400001928E-02 0. -1.
    10030    2    1    2    0    0  0.00000000000E+00  0.00000000000E+00  0.13883102465E+04  0.16452595587E+04  0.88287806341E+03 0.  0.
        1    1    3    3  502    0 -0.38278255217E+03  0.10411392211E+03  0.10550538827E+04  0.11271649775E+04  0.50400001928E-02 0.  1.
       -1    1    3    3    0  502  0.38278255217E+03 -0.10411392211E+03  0.33325636380E+03  0.51809458120E+03  0.50400001928E-02 0. -1.
</event>
<event>
 5   0  0.2560250E-03  0.9005516E+03  0.7818609E-02  0.9424892E-01
       -3   -1    0    0    0  501  0.00000000000E+00  0.00000000000E+00  0.12609177998E+04  0.12609178038E+04  0.10100000352E+00 0.  1.
        3   -1    0    0  501    0  0.00000000000E+00  0.00000000000E+00 -0.16079419178E+03  0.16079422350E+03  0.10100000352E+00 0. -1.
    10030    2    1    2    0    0  0.00000000000E+00  0.00000000000E+00  0.11001236080E+04  0.14217120273E+04  0.90055157307E+03 0.  0.
        5    1    3    3  502    0 -0.85350132345E+02  0.33335370508E+03  0.91645293659E+02  0.35613240183E+03  0.46999998093E+01 0. -1.
       -5    1    3    3    0  502  0.85350132345E+02 -0.33335370508E+03  0.10084783144E+04  0.10655796255E+04  0.46999998093E+01 0.  1.
</event>
<event>
 5   0  0.3794006E-03  0.9067471E+03  0.7818609E-02  0.9417186E-01
        1   -1    0    0  501    0  0.00000000000E+00  0.00000000000E+00  0.69458958243E+03  0.69458958245E+03  0.50400001928E-02 0.  1.
       -1   -1    0    0    0  501  0.00000000000E+00  0.00000000000E+00 -0.29592665517E+03  0.29592665521E+03  0.50400001928E-02 0. -1.
    10030    2    1    2    0    0  0.00000000000E+00  0.00000000000E+00  0.39866292726E+03  0.99051623766E+03  0.90674709125E+03 0.  0.
        5    1    3    3  502    0 -0.32938339609E+03  0.23532604913E+03 -0.23615867223E+02  0.40552628793E+03  0.46999998093E+01 0.  1.
       -5    1    3    3    0  502  0.32938339609E+03 -0.23532604913E+03  0.42227879449E+03  0.58498994973E+03  0.46999998093E+01 0. -1.
</event>
<event>
 5   0  0.3943549E-03  0.9106877E+03  0.7818609E-02  0.9412319E-01
        1   -1    0    0  501    0  0.00000000000E+00  0.00000000000E+00  0.38593741947E+03  0.38593741950E+03  0.50400001928E-02 0. -1.
       -1   -1    0    0    0  501  0.00000000000E+00  0.00000000000E+00 -0.53723222701E+03  0.53723222703E+03  0.50400001928E-02 0.  1.
    10030    2    1    2    0    0  0.00000000000E+00  0.00000000000E+00 -0.15129480754E+03  0.92316964654E+03  0.91068769482E+03 0.  0.
        3    1    3    3  502    0 -0.24101278935E+03 -0.28142173712E+03 -0.34394966558E+03  0.50555587368E+03  0.10100000352E+00 0.  1.
       -3    1    3    3    0  502  0.24101278935E+03  0.28142173712E+03  0.19265485804E+03  0.41761377286E+03  0.10100000352E+00 0. -1.
</event>
<event>
 5   0  0.6534628E-03  0.9008768E+03  0.7818609E-02  0.9424486E-01
       -2   -1    0    0    0  501  0.00000000000E+00  0.00000000000E+00  0.25517017149E+03  0.25517017151E+03  0.25500000920E-02 0.  1.
        2   -1    0    0  501    0  0.00000000000E+00  0.00000000000E+00 -0.79513506924E+03  0.79513506924E+03  0.25500000920E-02 0. -1.
    10030    2    1    2    0    0  0.00000000000E+00  0.00000000000E+00 -0.53996489775E+03  0.10503052407E+04  0.90087679954E+03 0.  0.
        4    1    3    3  502    0 -0.41577096696E+03 -0.17277538874E+03 -0.25450194428E+03  0.51719404914E+03  0.12699999809E+01 0.  1.
       -4    1    3    3    0  502  0.41577096696E+03  0.17277538874E+03 -0.28546295347E+03  0.53311119161E+03  0.12699999809E+01 0. -1.
</event>
<event>
 5   0  0.6863405E-03  0.8441450E+03  0.7818609E-02  0.9498229E-01
       -2   -1    0    0    0  501  0.00000000000E+00  0.00000000000E+00  0.94759012205E+02  0.94759012240E+02  0.25500000920E-02 0.  1.
        2   -1    0    0  501    0  0.00000000000E+00  0.00000000000E+00 -0.18799817674E+04  0.18799817675E+04  0.25500000920E-02 0. -1.
    10030    2    1    2    0    0  0.00000000000E+00  0.00000000000E+00 -0.17852227552E+04  0.19747407797E+04  0.84414504745E+03 0.  0.
        1    1    3    3  502    0 -0.17349792335E+03 -0.20441316906E+03 -0.16551744351E+04  0.16767494397E+04  0.50400001928E-02 0. -1.
       -1    1    3    3    0  502  0.17349792335E+03  0.20441316906E+03 -0.13004832019E+03  0.29799133998E+03  0.50400001928E-02 0.  1.
</event>
<event>
 5   0  0.3998066E-03  0.9001306E+03  0.7818609E-02  0.9425418E-01
        1   -1    0    0  501    0  0.00000000000E+00  0.00000000000E+00  0.11856368476E+04  0.11856368476E+04  0.50400001928E-02 0. -1.
       -1   -1    0    0    0  501  0.00000000000E+00  0.00000000000E+00 -0.17084386398E+03  0.17084386406E+03  0.50400001928E-02 0.  1.
    10030    2    1    2    0    0  0.00000000000E+00  0.00000000000E+00  0.10147929836E+04  0.13564807116E+04  0.90013061357E+03 0.  0.
        4    1    3    3  502    0  0.11174234399E+03 -0.31048489397E+03  0.96861659303E+03  0.10232824332E+04  0.12699999809E+01 0. -1.
       -4    1    3    3    0  502 -0.11174234399E+03  0.31048489397E+03  0.46176390541E+02  0.33319827846E+03  0.12699999809E+01 0.  1.
</event>
<event>
 5   0  0.6724773E-03  0.8950711E+03  0.7818609E-02  0.9431764E-01
       -2   -1    0    0    0  501  0.00000000000E+00  0.00000000000E+00  0.42847950159E+03  0.42847950160E+03  0.25500000920E-02 0. -1.
        2   -1    0    0  501    0  0.00000000000E+00  0.00000000000E+00 -0.46743909381E+03  0.46743909382E+03  0.25500000920E-02 0.  1.
    10030    2    1    2    0    0  0.00000000000E+00  0.00000000000E+00 -0.38959592218E+02  0.89591859541E+03  0.89507110320E+03 0.  0.
        5    1    3    3  502    0 -0.11983454929E+03  0.40171787775E+03 -0.17624356281E+03  0.45477627020E+03  0.46999998093E+01 0.  1.
       -5    1    3    3    0  502  0.11983454929E+03 -0.40171787775E+03  0.13728397060E+03  0.44114232521E+03  0.46999998093E+01 0. -1.
</event>
<event>
 5   0  0.3998066E-03  0.9041547E+03  0.7818609E-02  0.9420403E-01
       -1   -1    0    0    0  501  0.00000000000E+00  0.00000000000E+00  0.22800303514E+03  0.22800303519E+03  0.50400001928E-02 0. -1.
        1   -1    0    0  501    0  0.00000000000E+00  0.00000000000E+00 -0.89636499514E+03  0.89636499516E+03  0.50400001928E-02 0.  1.
    10030    2    1    2    0    0  0.00000000000E+00  0.00000000000E+00 -0.66836196001E+03  0.11243680303E+04  0.90415472021E+03 0.  0.
        4    1    3    3  502    0 -0.13161318409E+03 -0.18466178925E+03 -0.82052203178E+03  0.85128140128E+03  0.12699999809E+01 0.  1.
       -4    1    3    3    0  502  0.13161318409E+03  0.18466178925E+03  0.15216007177E+03  0.27308662907E+03  0.12699999809E+01 0. -1.
</event>
<event>
 5   0  0.3969536E-03  0.9043711E+03  0.7818609E-02  0.9420134E-01
       -1   -1    0    0    0  501  0.00000000000E+00  0.00000000000E+00  0.40129529745E+03  0.40129529748E+03  0.50400001928E-02 0. -1.
        1   -1    0    0  501    0  0.00000000000E+00  0.00000000000E+00 -0.50952943390E+03  0.50952943392E+03  0.50400001928E-02 0.  1.
    10030    2    1    2    0    0  0.00000000000E+00  0.00000000000E+00 -0.10823413645E+03  0.91082473140E+03  0.90437108702E+03 0.  0.
        1    1    3    3  502    0  0.18657187899E+03  0.27018516195E+03 -0.36724193353E+03  0.49262128003E+03  0.50400001928E-02 0.  1.
       -1    1    3    3    0  502 -0.18657187899E+03 -0.27018516195E+03  0.25900779708E+03  0.41820345137E+03  0.50400001928E-02 0. -1.
</event>
<event>
 5   0  0.3969536E-03  0.9405626E+03  0.7818609E-02  0.9376250E-01
        1   -1    0    0  501    0  0.00000000000E+00  0.00000000000E+00  0.89417401140E+03  0.89417401142E+03  0.50400001928E-02 0.  1.
       -1   -1    0    0    0  501  0.00000000000E+00  0.00000000000E+00 -0.24733943064E+03  0.24733943069E+03  0.50400001928E-02 0. -1.
    10030    2    1    2    0    0  0.00000000000E+00  0.00000000000E+00  0.64683458076E+03  0.11415134421E+04  0.94056257827E+03 0.  0.
        1    1    3    3  502    0  0.33248389940E+03 -0.16576537958E+03  0.67336277848E+03  0.76905210220E+03  0.50400001928E-02 0.  1.
       -1    1    3    3    0  502 -0.33248389940E+03  0.16576537958E+03 -0.26528197719E+02  0.37246133991E+03  0.50400001928E-02 0. -1.
</event>
<event>
 5   0  0.3943549E-03  0.9159799E+03  0.7818609E-02  0.9405823E-01
        1   -1    0    0  501    0  0.00000000000E+00  0.00000000000E+00  0.11324971213E+04  0.11324971213E+04  0.50400001928E-02 0.  1.
       -1   -1    0    0    0  501  0.00000000000E+00  0.00000000000E+00 -0.18521443365E+03  0.18521443372E+03  0.50400001928E-02 0. -1.
    10030    2    1    2    0    0  0.00000000000E+00  0.00000000000E+00  0.94728268760E+03  0.13177115550E+04  0.91597994078E+03 0.  0.
        3    1    3    3  502    0 -0.10771832454E+03 -0.37459555241E+03  0.12769399915E+03  0.41015952134E+03  0.10100000352E+00 0. -1.
       -3    1    3    3    0  502  0.10771832454E+03  0.37459555241E+03  0.81958868845E+03  0.90755203364E+03  0.10100000352E+00 0.  1.
</event>
<event>
 5   0  0.6724773E-03  0.9087553E+03  0.7818609E-02  0.9414703E-01
        2   -1    0    0  501    0  0.00000000000E+00  0.00000000000E+00  0.11002494442E+04  0.11002494442E+04  0.25500000920E-02 0. -1.
       -2   -1    0    0    0  501  0.00000000000E+00  0.00000000000E+00 -0.18764747491E+03  0.18764747493E+03  0.25500000920E-02 0.  1.
    10030    2    1    2    0    0  0.00000000000E+00  0.00000000000E+00  0.91260196932E+03  0.12878969192E+04  0.90875525857E+03 0.  0.
        5    1    3    3  502    0 -0.22779769153E+02  0.13192225648E+03 -0.15902689683E+03  0.20792797683E+03  0.46999998093E+01 0.  1.
       -5    1    3    3    0  502  0.22779769153E+02 -0.13192225648E+03  0.10716288661E+04  0.10799689423E+04  0.46999998093E+01 0. -1.
</event>
<event>
 5   0  0.6863405E-03  0.8991524E+03  0.7818609E-02  0.9426642E-01
        2   -1    0    0  501    0  0.00000000000E+00  0.00000000000E+00  0.23064136185E+03  0.23064136186E+03  0.25500000920E-02 0.  1.
       -2   -1    0    0    0  501  0.00000000000E+00  0.00000000000E+00 -0.87633350339E+03  0.87633350340E+03  0.25500000920E-02 0. -1.
    10030    2    1    2    0    0  0.00000000000E+00  0.00000000000E+00 -0.64569214154E+03  0.11069748653E+04  0.89915238456E+03 0.  0.
        1    1    3    3  502    0  0.10071884255E+03  0.26191141188E+03  0.10958944068E+03  0.30125025884E+03  0.50400001928E-02 0.  1.
       -1    1    3    3    0  502 -0.10071884255E+03 -0.26191141188E+03 -0.75528158223E+03  0.80572460642E+03  0.50400001928E-02 0. -1.
</event>
<event>
 5   0  0.3998066E-03  0.9001450E+03  0.7818609E-02  0.9425400E-01
        1   -1    0    0  501    0  0.00000000000E+00  0.00000000000E+00  0.10469164569E+04  0.10469164569E+04  0.50400001928E-02 0.  1.
       -1   -1    0    0    0  501  0.00000000000E+00  0.00000000000E+00 -0.19348750021E+03  0.19348750028E+03  0.50400001928E-02 0. -1.
    10030    2    1    2    0    0  0.00000000000E+00  0.00000000000E+00  0.85342895668E+03  0.12404039572E+04  0.90014498438E+03 0.  0.
        4    1    3    3  502    0 -0.24098966801E+03  0.13601782672E+03 -0.62402953672E+02  0.28367694795E+03  0.12699999809E+01 0. -1.
       -4    1    3    3    0  502  0.24098966801E+03 -0.13601782672E+03  0.91583191035E+03  0.95672700923E+03  0.12699999809E+01 0.  1.
</event>
<event>
 5   0  0.3943549E-03  0.9059818E+03  0.7818609E-02  0.9418135E-01
       -1   -1    0    0    0  501  0.00000000000E+00  0.00000000000E+00  0.17481114560E+03  0.17481114567E+03  0.50400001928E-02 0.  1.
        1   -1    0    0  501    0  0.00000000000E+00  0.00000000000E+00 -0.11738426349E+04  0.11738426350E+04  0.50400001928E-02 0. -1.
    10030    2    1    2    0    0  0.00000000000E+00  0.00000000000E+00 -0.99903148935E+03  0.13486537806E+04  0.90598184490E+03 0.  0.
        3    1    3    3  502    0 -0.39238496708E+02  0.30394777315E+03 -0.99608909094E+03  0.10421695619E+04  0.10100000352E+00 0. -1.
       -3    1    3    3    0  502  0.39238496708E+02 -0.30394777315E+03 -0.29423984063E+01  0.30648421874E+03  0.10100000352E+00 0.  1.
</event>
<event>
 5   0  0.6724773E-03  0.9020230E+03  0.7818609E-02  0.9423056E-01
       -2   -1    0    0    0  501  0.00000000000E+00  0.00000000000E+00  0.14076182316E+03  0.14076182318E+03  0.25500000920E-02 0. -1.
        2   -1    0    0  501    0  0.00000000000E+00  0.00000000000E+00 -0.14450747782E+04  0.14450747782E+04  0.25500000920E-02 0.  1.
    10030    2    1    2    0    0  0.00000000000E+00  0.00000000000E+00 -0.13043129551E+04  0.15858366014E+04  0.90202297177E+03 0.  0.
        5    1    3    3  502    0 -0.72995477428E+02  0.15769089796E+03 -0.13838141006E+04  0.13946893253E+04  0.46999998093E+01 0.  1.
       -5    1    3    3    0  502  0.72995477428E+02 -0.15769089796E+03  0.79501145548E+02  0.19114727612E+03  0.46999998093E+01 0. -1.
</event>
<event>
 5   0  0.3943549E-03  0.9008539E+03  0.7818609E-02  0.9424515E-01
        1   -1    0    0  501    0  0.00000000000E+00  0.00000000000E+00  0.40583202337E+03  0.40583202340E+03  0.50400001928E-02 0. -1.
       -1   -1    0    0    0  501  0.00000000000E+00  0.00000000000E+00 -0.49992222507E+03  0.49992222509E+03  0.50400001928E-02 0.  1.
    10030    2    1    2    0    0  0.00000000000E+00  0.00000000000E+00 -0.94090201699E+02  0.90575424849E+03  0.90085392412E+03 0.  0.
        3    1    3    3  502    0 -0.17101825391E+03 -0.19769455748E+03  0.32176635558E+03  0.41456480677E+03  0.10100000352E+00 0. -1.
       -3    1    3    3    0  502  0.17101825391E+03  0.19769455748E+03 -0.41585655728E+03  0.49118944172E+03  0.10100000352E+00 0.  1.
</event>
<event>
 5   0  0.3943549E-03  0.9049696E+03  0.7818609E-02  0.9419390E-01
       -1   -1    0    0    0  501  0.00000000000E+00  0.00000000000E+00  0.79767282209E+03  0.79767282210E+03  0.50400001928E-02 0. -1.
        1   -1    0    0  501    0  0.00000000000E+00  0.00000000000E+00 -0.25667476554E+03  0.25667476559E+03  0.50400001928E-02 0.  1.
    10030    2    1    2    0    0  0.00000000000E+00  0.00000000000E+00  0.54099805654E+03  0.10543475877E+04  0.90496957877E+03 0.  0.
        3    1    3    3  502    0 -0.95636241944E+02  0.44200996326E+03  0.28791180807E+03  0.53610849446E+03  0.10100000352E+00 0.  1.
       -3    1    3    3    0  502  0.95636241944E+02 -0.44200996326E+03  0.25308624847E+03  0.51823909324E+03  0.10100000352E+00 0. -1.
</event>
<event>
 5   0  0.6534628E-03  0.8993988E+03  0.7818609E-02  0.9426333E-01
       -2   -1    0    0    0  501  0.00000000000E+00  0.00000000000E+00  0.19644925786E+03  0.19644925787E+03  0.25500000920E-02 0. -1.
        2   -1    0    0  501    0  0.00000000000E+00  0.00000000000E+00 -0.10294237372E+04  0.10294237372E+04  0.25500000920E-02 0.  1.
    10030    2    1    2    0    0  0.00000000000E+00  0.00000000000E+00 -0.83297447937E+03  0.12258729951E+04  0.89939875296E+03 0.  0.
        4    1    3    3  502    0  0.25555195243E+03  0.35470448142E+03 -0.56012513594E+03  0.71053771915E+03  0.12699999809E+01 0.  1.
       -4    1    3    3    0  502 -0.25555195243E+03 -0.35470448142E+03 -0.27284934343E+03  0.51533527595E+03  0.12699999809E+01 0. -1.
</event>
<event>
 5   0  0.6609191E-03  0.8937390E+03  0.7818609E-02  0.9433442E-01
        2   -1    0    0  501    0  0.00000000000E+00  0.00000000000E+00  0.53473994736E+03  0.53473994737E+03  0.25500000920E-02 0.  1.
       -2   -1    0    0    0  501  0.00000000000E+00  0.00000000000E+00 -0.37343826696E+03  0.37343826697E+03  0.25500000920E-02 0. -1.
    10030    2    1    2    0    0  0.00000000000E+00  0.00000000000E+00  0.16130168040E+03  0.90817821433E+03  0.89373902057E+03 0.  0.
        2    1    3    3  502    0 -0.16605417266E+03  0.20028019637E+03  0.44984731675E+03  0.51966215343E+03  0.25500000920E-02 0.  1.
       -2    1    3    3    0  502  0.16605417266E+03 -0.20028019637E+03 -0.28854563635E+03  0.38851606090E+03  0.25500000920E-02 0. -1.
</event>
<event>
 5   0  0.3927993E-03  0.9096428E+03  0.7818609E-02  0.9413607E-01
       -1   -1    0    0    0  501  0.00000000000E+00  0.00000000000E+00  0.10770129739E+04  0.10770129739E+04  0.50400001928E-02 0.  1.
        1   -1    0    0  501    0  0.00000000000E+00  0.00000000000E+00 -0.19207057011E+03  0.19207057017E+03  0.50400001928E-02 0. -1.
    10030    2    1    2    0    0  0.00000000000E+00  0.00000000000E+00  0.88494240380E+03  0.12690835441E+04  0.90964277815E+03 0.  0.
        2    1    3    3  502    0  0.28922085504E+02 -0.41775359831E+01 -0.19075950545E+03  0.19298478635E+03  0.25500000920E-02 0. -1.
       -2    1    3    3    0  502 -0.28922085504E+02  0.41775359831E+01  0.10757019092E+04  0.10760987577E+04  0.25500000920E-02 0.  1.
</event>
<event>
 5   0  0.6609191E-03  0.9031563E+03  0.7818609E-02  0.9421644E-01
       -2   -1    0    0    0  501  0.00000000000E+00  0.00000000000E+00  0.44597984336E+03  0.44597984336E+03  0.25500000920E-02 0. -1.
        2   -1    0    0  501    0  0.00000000000E+00  0.00000000000E+00 -0.45724671990E+03  0.45724671990E+03  0.25500000920E-02 0.  1.
    10030    2    1    2    0    0  0.00000000000E+00  0.00000000000E+00 -0.11266876542E+02  0.90322656327E+03  0.90315628885E+03 0.  0.
        2    1    3    3  502    0 -0.25656981529E+03  0.26059498149E+03 -0.27057858090E+03  0.45491821567E+03  0.25500000920E-02 0.  1.
       -2    1    3    3    0  502  0.25656981529E+03 -0.26059498149E+03  0.25931170436E+03  0.44830834760E+03  0.25500000920E-02 0. -1.
</event>
<event>
 5   0  0.3927993E-03  0.9003630E+03  0.7818609E-02  0.9425128E-01
       -1   -1    0    0    0  501  0.00000000000E+00  0.00000000000E+00  0.60341600435E+03  0.60341600437E+03  0.50400001928E-02 0.  1.
        1   -1    0    0  501    0  0.00000000000E+00  0.00000000000E+00 -0.33586013293E+03  0.33586013296E+03  0.50400001928E-02 0. -1.
    10030    2    1    2    0    0  0.00000000000E+00  0.00000000000E+00  0.26755587143E+03  0.93927613734E+03  0.90036299226E+03 0.  0.
        2    1    3    3  502    0 -0.21429328550E+03  0.36166688464E+03 -0.34238148856E+02  0.42177813895E+03  0.25500000920E-02 0. -1.
       -2    1    3    3    0  502  0.21429328550E+03 -0.36166688464E+03  0.30179402028E+03  0.51749799839E+03  0.25500000920E-02 0.  1.
</event>
<event>
 5   0  0.2560250E-03  0.9100101E+03  0.7818609E-02  0.9413154E-01
        3   -1    0    0  501    0  0.00000000000E+00  0.00000000000E+00  0.95937397793E+03  0.95937398325E+03  0.10100000352E+00 0.  1.
       -3   -1    0    0    0  501  0.00000000000E+00  0.00000000000E+00 -0.21579652903E+03  0.21579655267E+03  0.10100000352E+00 0. -1.
    10030    2    1    2    0    0  0.00000000000E+00  0.00000000000E+00  0.74357744890E+03  0.11751705359E+04  0.91001009114E+03 0.  0.
        1    1    3    3  502    0  0.30466564511E+02 -0.73441436324E+02 -0.20675573828E+03  0.22151702295E+03  0.50400001928E-02 0. -1.
       -1    1    3    3    0  502 -0.30466564511E+02  0.73441436324E+02  0.95033318717E+03  0.95365351296E+03  0.50400001928E-02 0.  1.
</event>
<event>
 5   0  0.3969536E-03  0.9010784E+03  0.7818609E-02  0.9424234E-01
       -1   -1    0    0    0  501  0.00000000000E+00  0.00000000000E+00  0.12961501524E+04  0.12961501524E+04  0.50400001928E-02 0. -1.
        1   -1    0    0  501    0  0.00000000000E+00  0.00000000000E+00 -0.15660653676E+03  0.15660653684E+03  0.50400001928E-02 0.  1.
    10030    2    1    2    0    0  0.00000000000E+00  0.00000000000E+00  0.11395436156E+04  0.14527566892E+04  0.90107843511E+03 0.  0.
        1    1    3    3  502    0  0.24321926213E+03  0.35780918035E+03  0.36709963900E+03  0.56740211843E+03  0.50400001928E-02 0.  1.
       -1    1    3    3    0  502 -0.24321926213E+03 -0.35780918035E+03  0.77244397663E+03  0.88535457082E+03  0.50400001928E-02 0. -1.
</event>
<event>
 5   0  0.6609191E-03  0.9097637E+03  0.7818609E-02  0.9413458E-01
        2   -1    0    0  501    0  0.00000000000E+00  0.00000000000E+00  0.12133706182E+04  0.12133706182E+04  0.25500000920E-02 0.  1.
       -2   -1    0    0    0  501  0.00000000000E+00  0.00000000000E+00 -0.17053116841E+03  0.17053116843E+03  0.25500000920E-02 0. -1.
    10030    2    1    2    0    0  0.00000000000E+00  0.00000000000E+00  0.10428394498E+04  0.13839017867E+04  0.90976372593E+03 0.  0.
        2    1    3    3  502    0  0.39487486462E+03 -0.63877267475E+02  0.19195099008E+03  0.44367966666E+03  0.25500000920E-02 0. -1.
       -2    1    3    3    0  502 -0.39487486462E+03  0.63877267475E+02  0.85088845975E+03  0.94022212001E+03  0.25500000920E-02 0.  1.
</event>
<event>
 5   0  0.6534628E-03  0.8992753E+03  0.7818609E-02  0.9426488E-01
        2   -1    0    0  501    0  0.00000000000E+00  0.00000000000E+00  0.81394032152E+03  0.81394032152E+03  0.25500000920E-02 0. -1.
       -2   -1    0    0    0  501  0.00000000000E+00  0.00000000000E+00 -0.24838923282E+03  0.24838923283E+03  0.25500000920E-02 0.  1.
    10030    2    1    2    0    0  0.00000000000E+00  0.00000000000E+00  0.56555108870E+03  0.10623295544E+04  0.89927529051E+03 0.  0.
        4    1    3    3  502    0  0.32361009570E+03 -0.10625831216E+03  0.62952405150E+03  0.71576285686E+03  0.12699999809E+01 0. -1.
       -4    1    3    3    0  502 -0.32361009570E+03  0.10625831216E+03 -0.63972962799E+02  0.34656669750E+03  0.12699999809E+01 0.  1.
</event>
<event>
 5   0  0.6863405E-03  0.9030560E+03  0.7818609E-02  0.9421769E-01
       -2   -1    0    0    0  501  0.00000000000E+00  0.00000000000E+00  0.14253386906E+03  0.14253386908E+03  0.25500000920E-02 0. -1.
        2   -1    0    0  501    0  0.00000000000E+00  0.00000000000E+00 -0.14303794711E+04  0.14303794711E+04  0.25500000920E-02 0.  1.
    10030    2    1    2    0    0  0.00000000000E+00  0.00000000000E+00 -0.12878456020E+04  0.15729133402E+04  0.90305596782E+03 0.  0.
        1    1    3    3  502    0 -0.41197150539E+03 -0.18273716249E+03 -0.69207025274E+03  0.82587809424E+03  0.50400001928E-02 0.  1.
       -1    1    3    3    0  502  0.41197150539E+03  0.18273716249E+03 -0.59577534927E+03  0.74703524591E+03  0.50400001928E-02 0. -1.
</event>
<event>
 5   0  0.6863405E-03  0.8963529E+03  0.7818609E-02  0.9430152E-01
       -2   -1    0    0    0  501  0.00000000000E+00  0.00000000000E+00  0.78823182490E+02  0.78823182531E+02  0.25500000920E-02 0.  1.
        2   -1    0    0  501    0  0.00000000000E+00  0.00000000000E+00 -0.25482622053E+04  0.25482622053E+04  0.25500000920E-02 0. -1.
    10030    2    1    2    0    0  0.00000000000E+00  0.00000000000E+00 -0.24694390228E+04  0.26270853879E+04  0.89635291464E+03 0.  0.
        1    1    3    3  502    0 -0.27297557360E+03  0.28506841116E+03 -0.61242062401E+03  0.72858677147E+03  0.50400001928E-02 0.  1.
       -1    1    3    3    0  502  0.27297557360E+03 -0.28506841116E+03 -0.18570183988E+04  0.18984986164E+04  0.50400001928E-02 0. -1.
</event>
<event>
 5   0  0.3927993E-03  0.8996856E+03  0.7818609E-02  0.9425975E-01
        1   -1    0    0  501    0  0.00000000000E+00  0.00000000000E+00  0.38358557473E+03  0.38358557476E+03  0.50400001928E-02 0.  1.
       -1   -1    0    0    0  501  0.00000000000E+00  0.00000000000E+00 -0.52754473424E+03  0.52754473427E+03  0.50400001928E-02 0. -1.
    10030    2    1    2    0    0  0.00000000000E+00  0.00000000000E+00 -0.14395915952E+03  0.91113030903E+03  0.89968561199E+03 0.  0.
        2    1    3    3  502    0 -0.62206190837E+02 -0.14740858299E+03 -0.49775568463E+03  0.52283804577E+03  0.25500000920E-02 0. -1.
       -2    1    3    3    0  502  0.62206190837E+02  0.14740858299E+03  0.35379652511E+03  0.38829226326E+03  0.25500000920E-02 0.  1.
</event>
<event>
 5   0  0.2560250E-03  0.9132602E+03  0.7818609E-02  0.9409156E-01
        4   -1    0    0  501    0  0.00000000000E+00  0.00000000000E+00  0.11794744014E+04  0.11794750851E+04  0.12699999809E+01 0. -1.
       -4   -1    0    0    0  501  0.00000000000E+00  0.00000000000E+00 -0.17678001190E+03  0.17678457373E+03  0.12699999809E+01 0.  1.
    10030    2    1    2    0    0  0.00000000000E+00  0.00000000000E+00  0.10026943895E+04  0.13562596588E+04  0.91326021674E+03 0.  0.
        1    1    3    3  502    0 -0.25985717344E+03  0.37311120589E+03  0.56388512292E+03  0.72436465570E+03  0.50400001928E-02 0. -1.
       -1    1    3    3    0  502  0.25985717344E+03 -0.37311120589E+03  0.43880926653E+03  0.63189500312E+03  0.50400001928E-02 0.  1.
</event>
<event>
 5   0  0.6863405E-03  0.8993912E+03  0.7818609E-02  0.9426343E-01
       -2   -1    0    0    0  501  0.00000000000E+00  0.00000000000E+00  0.19349268081E+03  0.19349268083E+03  0.25500000920E-02 0. -1.
        2   -1    0    0  501    0  0.00000000000E+00  0.00000000000E+00 -0.10451359074E+04  0.10451359074E+04  0.25500000920E-02 0.  1.
    10030    2    1    2    0    0  0.00000000000E+00  0.00000000000E+00 -0.85164322654E+03  0.12386285882E+04  0.89939123531E+03 0.  0.
        1    1    3    3  502    0 -0.12236189318E+03  0.10602034748E+02 -0.10215897661E+04  0.10289462990E+04  0.50400001928E-02 0.  1.
       -1    1    3    3    0  502  0.12236189318E+03 -0.10602034748E+02  0.16994653957E+03  0.20968228915E+03  0.50400001928E-02 0. -1.
</event>
<event>
 5   0  0.6724773E-03  0.9058061E+03  0.7818609E-02  0.9418352E-01
        2   -1    0    0  501    0  0.00000000000E+00  0.00000000000E+00  0.23830740188E+04  0.23830740188E+04  0.25500000920E-02 0. -1.
       -2   -1    0    0    0  501  0.00000000000E+00  0.00000000000E+00 -0.86074191809E+02  0.86074191847E+02  0.25500000920E-02 0.  1.
    10030    2    1    2    0    0  0.00000000000E+00  0.00000000000E+00  0.22969998270E+04  0.24691482107E+04  0.90580609457E+03 0.  0.
        5    1    3    3  502    0  0.19991468092E+03 -0.33546918043E+03  0.17736416467E+04  0.18161311162E+04  0.46999998093E+01 0. -1.
       -5    1    3    3    0  502 -0.19991468092E+03  0.33546918043E+03  0.52335818037E+03  0.65301709443E+03  0.46999998093E+01 0.  1.
</event>
<event>
 5   0  0.6534628E-03  0.8971248E+03  0.7818609E-02  0.9429183E-01
        2   -1    0    0  501    0  0.00000000000E+00  0.00000000000E+00  0.15722241336E+04  0.15722241336E+04  0.25500000920E-02 0. -1.
       -2   -1    0    0    0  501  0.00000000000E+00  0.00000000000E+00 -0.12797681915E+03  0.12797681918E+03  0.25500000920E-02 0.  1.
    10030    2    1    2    0    0  0.00000000000E+00  0.00000000000E+00  0.14442473145E+04  0.17002009528E+04  0.89712483778E+03 0.  0.
        4    1    3    3  502    0  0.33466947503E+02  0.28541622912E+03  0.13748542506E+04  0.14045669381E+04  0.12699999809E+01 0. -1.
       -4    1    3    3    0  502 -0.33466947503E+02 -0.28541622912E+03  0.69393063888E+02  0.29563401468E+03  0.12699999809E+01 0.  1.
</event>
<event>
 5   0  0.3969536E-03  0.8735528E+03  0.7818609E-02  0.9459259E-01
        1   -1    0    0  501    0  0.00000000000E+00  0.00000000000E+00  0.43494051219E+03  0.43494051221E+03  0.50400001928E-02 0.  1.
       -1   -1    0    0    0  501  0.00000000000E+00  0.00000000000E+00 -0.43862008229E+03  0.43862008232E+03  0.50400001928E-02 0. -1.
    10030    2    1    2    0    0  0.00000000000E+00  0.00000000000E+00 -0.36795701035E+01  0.87356059453E+03  0.87355284504E+03 0.  0.
        1    1    3    3  502    0  0.36033805392E+03  0.23480962341E+03 -0.77962539245E+02  0.43710093789E+03  0.50400001928E-02 0. -1.
       -1    1    3    3    0  502 -0.36033805392E+03 -0.23480962341E+03  0.74282969141E+02  0.43645965665E+03  0.50400001928E-02 0.  1.
</event>
<event>
 5   0  0.6524705E-03  0.9040366E+03  0.7818609E-02  0.9420549E-01
        2   -1    0    0  501    0  0.00000000000E+00  0.00000000000E+00  0.91189822144E+03  0.91189822144E+03  0.25500000920E-02 0. -1.
       -2   -1    0    0    0  501  0.00000000000E+00  0.00000000000E+00 -0.22406070644E+03  0.22406070645E+03  0.25500000920E-02 0.  1.
    10030    2    1    2    0    0  0.00000000000E+00  0.00000000000E+00  0.68783751500E+03  0.11359589279E+04  0.90403663577E+03 0.  0.
        3    1    3    3  502    0  0.77913026935E+02 -0.43067508723E+03  0.20192920669E+03  0.48200299298E+03  0.10100000352E+00 0.  1.
       -3    1    3    3    0  502 -0.77913026935E+02  0.43067508723E+03  0.48590830831E+03  0.65395593492E+03  0.10100000352E+00 0. -1.
</event>
<event>
 5   0  0.6863405E-03  0.9170317E+03  0.7818609E-02  0.9404538E-01
       -2   -1    0    0    0  501  0.00000000000E+00  0.00000000000E+00  0.52581281590E+03  0.52581281590E+03  0.25500000920E-02 0. -1.
        2   -1    0    0  501    0  0.00000000000E+00  0.00000000000E+00 -0.39983199788E+03  0.39983199789E+03  0.25500000920E-02 0.  1.
    10030    2    1    2    0    0  0.00000000000E+00  0.00000000000E+00  0.12598081802E+03  0.92564481379E+03  0.91703170872E+03 0.  0.
        1    1    3    3  502    0  0.29812358121E+03  0.27716352886E+03 -0.15003562146E+03  0.43382943553E+03  0.50400001928E-02 0.  1.
       -1    1    3    3    0  502 -0.29812358121E+03 -0.27716352886E+03  0.27601643948E+03  0.49181537826E+03  0.50400001928E-02 0. -1.
</event>
<event>
 5   0  0.3998066E-03  0.9093457E+03  0.7818609E-02  0.9413974E-01
        1   -1    0    0  501    0  0.00000000000E+00  0.00000000000E+00  0.50813115419E+03  0.50813115422E+03  0.50400001928E-02 0.  1.
       -1   -1    0    0    0  501  0.00000000000E+00  0.00000000000E+00 -0.40683869965E+03  0.40683869968E+03  0.50400001928E-02 0. -1.
    10030    2    1    2    0    0  0.00000000000E+00  0.00000000000E+00  0.10129245454E+03  0.91496985390E+03  0.90934573854E+03 0.  0.
        4    1    3    3  502    0 -0.22072904863E+03 -0.24164437905E+03 -0.26692024124E+03  0.42232848225E+03  0.12699999809E+01 0. -1.
       -4    1    3    3    0  502  0.22072904863E+03  0.24164437905E+03  0.36821269578E+03  0.49264137165E+03  0.12699999809E+01 0.  1.
</event>
<event>
 5   0  0.6524705E-03  0.8965720E+03  0.7818609E-02  0.9429877E-01
        2   -1    0    0  501    0  0.00000000000E+00  0.00000000000E+00  0.10150946885E+04  0.10150946885E+04  0.25500000920E-02 0. -1.
       -2   -1    0    0    0  501  0.00000000000E+00  0.00000000000E+00 -0.19797202555E+03  0.19797202557E+03  0.25500000920E-02 0.  1.
    10030    2    1    2    0    0  0.00000000000E+00  0.00000000000E+00  0.81712266292E+03  0.12130667141E+04  0.89657203084E+03 0.  0.
        3    1    3    3  502    0  0.27712098847E+03  0.30495693326E+03  0.16970485425E+03  0.44563945197E+03  0.10100000352E+00 0. -1.
       -3    1    3    3    0  502 -0.27712098847E+03 -0.30495693326E+03  0.64741780867E+03  0.76742726208E+03  0.10100000352E+00 0.  1.
</event>
<event>
 5   0  0.6863405E-03  0.8995437E+03  0.7818609E-02  0.9426152E-01
        2   -1    0    0  501    0  0.00000000000E+00  0.00000000000E+00  0.71426184078E+03  0.71426184078E+03  0.25500000920E-02 0. -1.
       -2   -1    0    0    0  501  0.00000000000E+00  0.00000000000E+00 -0.28322206038E+03  0.28322206039E+03  0.25500000920E-02 0.  1.
    10030    2    1    2    0    0  0.00000000000E+00  0.00000000000E+00  0.43103978040E+03  0.99748390118E+03  0.89954368478E+03 0.  0.
        1    1    3    3  502    0 -0.45051563409E+02 -0.23655165690E+02  0.71105981320E+03  0.71287815804E+03  0.50400001928E-02 0. -1.
       -1    1    3    3    0  502  0.45051563409E+02  0.23655165690E+02 -0.28002003281E+03  0.28460574314E+03  0.50400001928E-02 0.  1.
</event>
<event>
 5   0  0.3927993E-03  0.9009708E+03  0.7818609E-02  0.9424369E-01
        1   -1    0    0  501    0  0.00000000000E+00  0.00000000000E+00  0.14436080847E+04  0.14436080847E+04  0.50400001928E-02 0.  1.
       -1   -1    0    0    0  501  0.00000000000E+00  0.00000000000E+00 -0.14057630559E+03  0.14057630568E+03  0.50400001928E-02 0. -1.
    10030    2    1    2    0    0  0.00000000000E+00  0.00000000000E+00  0.13030317791E+04  0.15841843904E+04  0.90097079053E+03 0.  0.
        2    1    3    3  502    0  0.37011383407E+03  0.19350556483E+03  0.94839642604E+03  0.10362839547E+04  0.25500000920E-02 0.  1.
       -2    1    3    3    0  502 -0.37011383407E+03 -0.19350556483E+03  0.35463535303E+03  0.54790043568E+03  0.25500000920E-02 0. -1.
</event>
<event>
 5   0  0.6724773E-03  0.8337826E+03  0.7818609E-02  0.9512366E-01
       -2   -1    0    0    0  501  0.00000000000E+00  0.00000000000E+00  0.47380229696E+03  0.47380229697E+03  0.25500000920E-02 0.  1.
        2   -1    0    0  501    0  0.00000000000E+00  0.00000000000E+00 -0.36681618838E+03  0.36681618839E+03  0.25500000920E-02 0. -1.
    10030    2    1    2    0    0  0.00000000000E+00  0.00000000000E+00  0.10698610858E+03  0.84061848536E+03  0.83378259187E+03 0.  0.
        5    1    3    3  502    0  0.20139789246E+03 -0.30542091076E+03 -0.14797828407E+03  0.39466784310E+03  0.46999998093E+01 0. -1.
       -5    1    3    3    0  502 -0.20139789246E+03  0.30542091076E+03  0.25496439265E+03  0.44595064227E+03  0.46999998093E+01 0.  1.
</event>
<event>
 5   0  0.3969536E-03  0.8989309E+03  0.7818609E-02  0.9426919E-01
        1   -1    0    0  501    0  0.00000000000E+00  0.00000000000E+00  0.13779965312E+04  0.13779965312E+04  0.50400001928E-02 0. -1.
       -1   -1    0    0    0  501  0.00000000000E+00  0.00000000000E+00 -0.14660355156E+03  0.14660355165E+03  0.50400001928E-02 0.  1.
    10030    2    1    2    0    0  0.00000000000E+00  0.00000000000E+00  0.12313929797E+04  0.15246000829E+04  0.89893088853E+03 0.  0.
        1    1    3    3  502    0  0.15483205606E+03  0.30311038694E+02 -0.98097002168E+02  0.18578144824E+03  0.50400001928E-02 0.  1.
       -1    1    3    3    0  502 -0.15483205606E+03 -0.30311038694E+02  0.13294899818E+04  0.13388186347E+04  0.50400001928E-02 0. -1.
</event>
<event>
 5   0  0.6863405E-03  0.9061672E+03  0.7818609E-02  0.9417905E-01
       -2   -1    0    0    0  501  0.00000000000E+00  0.00000000000E+00  0.13745323592E+03  0.13745323595E+03  0.25500000920E-02 0.  1.
        2   -1    0    0  501    0  0.00000000000E+00  0.00000000000E+00 -0.14934878315E+04  0.14934878315E+04  0.25500000920E-02 0. -1.
    10030    2    1    2    0    0  0.00000000000E+00  0.00000000000E+00 -0.13560345956E+04  0.16309410675E+04  0.90616717062E+03 0.  0.
        1    1    3    3  502    0 -0.42963438163E+03  0.14305320157E+03 -0.70559720259E+03  0.83840165356E+03  0.50400001928E-02 0.  1.
       -1    1    3    3    0  502  0.42963438163E+03 -0.14305320157E+03 -0.65043739304E+03  0.79253941394E+03  0.50400001928E-02 0. -1.
</event>
<event>
 5   0  0.6609191E-03  0.9010156E+03  0.7818609E-02  0.9424313E-01
        2   -1    0    0  501    0  0.00000000000E+00  0.00000000000E+00  0.64964663218E+03  0.64964663219E+03  0.25500000920E-02 0. -1.
       -2   -1    0    0    0  501  0.00000000000E+00  0.00000000000E+00 -0.31241177707E+03  0.31241177708E+03  0.25500000920E-02 0.  1.
    10030    2    1    2    0    0  0.00000000000E+00  0.00000000000E+00  0.33723485512E+03  0.96205840926E+03  0.90101555776E+03 0.  0.
        2    1    3    3  502    0 -0.28769656198E+03 -0.23865341278E+03  0.43711434957E+03  0.57514669243E+03  0.25500000920E-02 0. -1.
       -2    1    3    3    0  502  0.28769656198E+03  0.23865341278E+03 -0.99879494450E+02  0.38691171684E+03  0.25500000920E-02 0.  1.
</event>
<event>
 5   0  0.3794006E-03  0.9012294E+03  0.7818609E-02  0.9424046E-01
        1   -1    0    0  501    0  0.00000000000E+00  0.00000000000E+00  0.35183907243E+03  0.35183907246E+03  0.50400001928E-02 0. -1.
       -1   -1    0    0    0  501  0.00000000000E+00  0.00000000000E+00 -0.57712064249E+03  0.57712064251E+03  0.50400001928E-02 0.  1.
    10030    2    1    2    0    0  0.00000000000E+00  0.00000000000E+00 -0.22528157006E+03  0.92895971497E+03  0.90122936383E+03 0.  0.
        5    1    3    3  502    0  0.11863751825E+03 -0.20856317842E+03 -0.50576556094E+03  0.55981635628E+03  0.46999998093E+01 0.  1.
       -5    1    3    3    0  502 -0.11863751825E+03  0.20856317842E+03  0.28048399088E+03  0.36914335869E+03  0.46999998093E+01 0. -1.
</event>
<event>
 5   0  0.3943549E-03  0.8956530E+03  0.7818609E-02  0.9431032E-01
       -1   -1    0    0    0  501  0.00000000000E+00  0.00000000000E+00  0.22535506678E+03  0.22535506684E+03  0.50400001928E-02 0.  1.
        1   -1    0    0  501    0  0.00000000000E+00  0.00000000000E+00 -0.88992270150E+03  0.88992270152E+03  0.50400001928E-02 0. -1.
    10030    2    1    2    0    0  0.00000000000E+00  0.00000000000E+00 -0.66456763472E+03  0.11152777684E+04  0.89565303521E+03 0.  0.
        3    1    3    3  502    0 -0.19914732819E+03 -0.36450755325E+03 -0.12383384835E+03  0.43342847957E+03  0.10100000352E+00 0.  1.
       -3    1    3    3    0  502  0.19914732819E+03  0.36450755325E+03 -0.54073378637E+03  0.68184928879E+03  0.10100000352E+00 0. -1.
</event>
<event>
 5   0  0.6524705E-03  0.9456086E+03  0.7818609E-02  0.9370298E-01
       -2   -1    0    0    0  501  0.00000000000E+00  0.00000000000E+00  0.32659873471E+03  0.32659873472E+03  0.25500000920E-02 0. -1.
        2   -1    0    0  501    0  0.00000000000E+00  0.00000000000E+00 -0.68446047594E+03  0.68446047595E+03  0.25500000920E-02 0.  1.
    10030    2    1    2    0    0  0.00000000000E+00  0.00000000000E+00 -0.35786174123E+03  0.10110592107E+04  0.94560864085E+03 0.  0.
        3    1    3    3  502    0 -0.19531703052E+03 -0.30841676703E+03  0.14232209975E+03  0.39182296369E+03  0.10100000352E+00 0. -1.
       -3    1    3    3    0  502  0.19531703052E+03  0.30841676703E+03 -0.50018384098E+03  0.61923624698E+03  0.10100000352E+00 0.  1.
</event>
<event>
 5   0  0.6724773E-03  0.8959162E+03  0.7818609E-02  0.9430701E-01
        2   -1    0    0  501    0  0.00000000000E+00  0.00000000000E+00  0.77786380340E+03  0.77786380341E+03  0.25500000920E-02 0. -1.
       -2   -1    0    0    0  501  0.00000000000E+00  0.00000000000E+00 -0.25797119259E+03  0.25797119260E+03  0.25500000920E-02 0.  1.
    10030    2    1    2    0    0  0.00000000000E+00  0.00000000000E+00  0.51989261081E+03  0.10358349960E+04  0.89591618591E+03 0.  0.
        5    1    3    3  502    0 -0.31839930224E+03  0.23649821625E+03  0.50062730199E+03  0.63871692279E+03  0.46999998093E+01 0. -1.
       -5    1    3    3    0  502  0.31839930224E+03 -0.23649821625E+03  0.19265308821E+02  0.39711807322E+03  0.46999998093E+01 0.  1.
</event>
<event>
 5   0  0.3794006E-03  0.8982859E+03  0.7818609E-02  0.9427727E-01
       -1   -1    0    0    0  501  0.00000000000E+00  0.00000000000E+00  0.17506206177E+03  0.17506206185E+03  0.50400001928E-02 0.  1.
        1   -1    0    0  501    0  0.00000000000E+00  0.00000000000E+00 -0.11523308063E+04  0.11523308063E+04  0.50400001928E-02 0. -1.
    10030    2    1    2    0    0  0.00000000000E+00  0.00000000000E+00 -0.97726874452E+03  0.13273928681E+04  0.89828593855E+03 0.  0.
        5    1    3    3  502    0  0.37236054437E+03  0.20365746526E+03 -0.70570261793E+03  0.82350896359E+03  0.46999998093E+01 0. -1.
       -5    1    3    3    0  502 -0.37236054437E+03 -0.20365746526E+03 -0.27156612659E+03  0.50388390456E+03  0.46999998093E+01 0.  1.
</event>
<event>
 5   0  0.6863405E-03  0.9005275E+03  0.7818609E-02  0.9424922E-01
       -2   -1    0    0    0  501  0.00000000000E+00  0.00000000000E+00  0.30738436891E+03  0.30738436893E+03  0.25500000920E-02 0.  1.
        2   -1    0    0  501    0  0.00000000000E+00  0.00000000000E+00 -0.65955681619E+03  0.65955681620E+03  0.25500000920E-02 0. -1.
    10030    2    1    2    0    0  0.00000000000E+00  0.00000000000E+00 -0.35217244728E+03  0.96694118512E+03  0.90052752477E+03 0.  0.
        1    1    3    3  502    0 -0.24783230216E+03  0.24440030913E+03 -0.48278248199E+03  0.59517332437E+03  0.50400001928E-02 0. -1.
       -1    1    3    3    0  502  0.24783230216E+03 -0.24440030913E+03  0.13061003471E+03  0.37176786076E+03  0.50400001928E-02 0.  1.
</event>
<event>
 5   0  0.3969536E-03  0.9034518E+03  0.7818609E-02  0.9421277E-01
       -1   -1    0    0    0  501  0.00000000000E+00  0.00000000000E+00  0.34329666578E+03  0.34329666581E+03  0.50400001928E-02 0.  1.
        1   -1    0    0  501    0  0.00000000000E+00  0.00000000000E+00 -0.59440213229E+03  0.59440213231E+03  0.50400001928E-02 0. -1.
    10030    2    1    2    0    0  0.00000000000E+00  0.00000000000E+00 -0.25110546651E+03  0.93769879812E+03  0.90345175891E+03 0.  0.
        1    1    3    3  502    0 -0.36184847381E+03 -0.14550346455E+03 -0.36211968193E+03  0.53219943654E+03  0.50400001928E-02 0. -1.
       -1    1    3    3    0  502  0.36184847381E+03  0.14550346455E+03  0.11101421542E+03  0.40549936158E+03  0.50400001928E-02 0.  1.
</event>
<event>
 5   0  0.6524705E-03  0.8966027E+03  0.7818609E-02  0.9429838E-01
       -2   -1    0    0    0  501  0.00000000000E+00  0.00000000000E+00  0.13866618040E+03  0.13866618043E+03  0.25500000920E-02 0. -1.
        2   -1    0    0  501    0  0.00000000000E+00  0.00000000000E+00 -0.14493375154E+04  0.14493375154E+04  0.25500000920E-02 0.  1.
    10030    2    1    2    0    0  0.00000000000E+00  0.00000000000E+00 -0.13106713350E+04  0.15880036959E+04  0.89660269329E+03 0.  0.
        3    1    3    3  502    0  0.34051368566E+03  0.19498718749E+03 -0.10393268503E+04  0.11109319895E+04  0.10100000352E+00 0.  1.
       -3    1    3    3    0  502 -0.34051368566E+03 -0.19498718749E+03 -0.27134448476E+03  0.47707170637E+03  0.10100000352E+00 0. -1.
</event>
<event>
 5   0  0.6534628E-03  0.8990829E+03  0.7818609E-02  0.9426729E-01
        2   -1    0    0  501    0  0.00000000000E+00  0.00000000000E+00  0.56978494452E+03  0.56978494453E+03  0.25500000920E-02 0. -1.
       -2   -1    0    0    0  501  0.00000000000E+00  0.00000000000E+00 -0.35467335447E+03  0.35467335448E+03  0.25500000920E-02 0.  1.
    10030    2    1    2    0    0  0.00000000000E+00  0.00000000000E+00  0.21511159005E+03  0.92445829901E+03  0.89908294970E+03 0.  0.
        4    1    3    3  502    0  0.12369119836E+03 -0.42296089203E+03  0.19889131701E+03  0.48348195170E+03  0.12699999809E+01 0. -1.
       -4    1    3    3    0  502 -0.12369119836E+03  0.42296089203E+03  0.16220273045E+02  0.44097634732E+03  0.12699999809E+01 0.  1.
</event>
<event>
 5   0  0.6609191E-03  0.9073433E+03  0.7818609E-02  0.9416448E-01
       -2   -1    0    0    0  501  0.00000000000E+00  0.00000000000E+00  0.19759958460E+03  0.19759958462E+03  0.25500000920E-02 0.  1.
        2   -1    0    0  501    0  0.00000000000E+00  0.00000000000E+00 -0.10415910674E+04  0.10415910674E+04  0.25500000920E-02 0. -1.
    10030    2    1    2    0    0  0.00000000000E+00  0.00000000000E+00 -0.84399148281E+03  0.12391906520E+04  0.90734329172E+03 0.  0.
        2    1    3    3  502    0 -0.30305515557E+03  0.17038831128E+03 -0.23951624406E+02  0.34849431022E+03  0.25500000920E-02 0. -1.
       -2    1    3    3    0  502  0.30305515557E+03 -0.17038831128E+03 -0.82003985840E+03  0.89069634181E+03  0.25500000920E-02 0.  1.
</event>
<event>
 5   0  0.6609191E-03  0.9018672E+03  0.7818609E-02  0.9423250E-01
        2   -1    0    0  501    0  0.00000000000E+00  0.00000000000E+00  0.13881194560E+03  0.13881194562E+03  0.25500000920E-02 0. -1.
       -2   -1    0    0    0  501  0.00000000000E+00  0.00000000000E+00 -0.14648675482E+04  0.14648675482E+04  0.25500000920E-02 0.  1.
    10030    2    1    2    0    0  0.00000000000E+00  0.00000000000E+00 -0.13260556026E+04  0.16036794938E+04  0.90186720624E+03 0.  0.
        2    1    3    3  502    0  0.17369099262E+03  0.39349164432E+03 -0.42223821845E+03  0.60273489047E+03  0.25500000920E-02 0. -1.
       -2    1    3    3    0  502 -0.17369099262E+03 -0.39349164432E+03 -0.90381738411E+03  0.10009446033E+04  0.25500000920E-02 0.  1.
</event>
<event>
 5   0  0.6863405E-03  0.8954105E+03  0.7818609E-02  0.9431337E-01
        2   -1    0    0  501    0  0.00000000000E+00  0.00000000000E+00  0.33715383707E+03  0.33715383708E+03  0.25500000920E-02 0. -1.
       -2   -1    0    0    0  501  0.00000000000E+00  0.00000000000E+00 -0.59450601374E+03  0.59450601375E+03  0.25500000920E-02 0.  1.
    10030    2    1    2    0    0  0.00000000000E+00  0.00000000000E+00 -0.25735217668E+03  0.93165985083E+03  0.89541048397E+03 0.  0.
        1    1    3    3  502    0 -0.14631444858E+03  0.16089657441E+03  0.27850322558E+03  0.35335488139E+03  0.50400001928E-02 0. -1.
       -1    1    3    3    0  502  0.14631444858E+03 -0.16089657441E+03 -0.53585540226E+03  0.57830496943E+03  0.50400001928E-02 0.  1.
</event>
<event>
 5   0  0.3794006E-03  0.8994074E+03  0.7818609E-02  0.9426322E-01
        1   -1    0    0  501    0  0.00000000000E+00  0.00000000000E+00  0.49013246403E+03  0.49013246406E+03  0.50400001928E-02 0.  1.
       -1   -1    0    0    0  501  0.00000000000E+00  0.00000000000E+00 -0.41260972341E+03  0.41260972344E+03  0.50400001928E-02 0. -1.
    10030    2    1    2    0    0  0.00000000000E+00  0.00000000000E+00  0.77522740622E+02  0.90274218749E+03  0.89940740589E+03 0.  0.
        5    1    3    3  502    0  0.83651105670E+02 -0.39243820302E+03 -0.16498408432E+03  0.43387450806E+03  0.46999998093E+01 0. -1.
       -5    1    3    3    0  502 -0.83651105670E+02  0.39243820302E+03  0.24250682495E+03  0.46886767943E+03  0.46999998093E+01 0.  1.
</event>
<event>
 5   0  0.3969536E-03  0.8435366E+03  0.7818609E-02  0.9499053E-01
       -1   -1    0    0    0  501  0.00000000000E+00  0.00000000000E+00  0.38682372552E+03  0.38682372555E+03  0.50400001928E-02 0. -1.
        1   -1    0    0  501    0  0.00000000000E+00  0.00000000000E+00 -0.45986963189E+03  0.45986963192E+03  0.50400001928E-02 0.  1.
    10030    2    1    2    0    0  0.00000000000E+00  0.00000000000E+00 -0.73045906372E+02  0.84669335746E+03  0.84353656538E+03 0.  0.
        1    1    3    3  502    0 -0.22941140616E+03  0.33825201644E+03  0.68003518869E+02  0.41432897377E+03  0.50400001928E-02 0. -1.
       -1    1    3    3    0  502  0.22941140616E+03 -0.33825201644E+03 -0.14104942524E+03  0.43236438369E+03  0.50400001928E-02 0.  1.
</event>
<event>
 5   0  0.6863405E-03  0.8983594E+03  0.7818609E-02  0.9427635E-01
        2   -1    0    0  501    0  0.00000000000E+00  0.00000000000E+00  0.63731423566E+03  0.63731423566E+03  0.25500000920E-02 0. -1.
       -2   -1    0    0    0  501  0.00000000000E+00  0.00000000000E+00 -0.31658230565E+03  0.31658230566E+03  0.25500000920E-02 0.  1.
    10030    2    1    2    0    0  0.00000000000E+00  0.00000000000E+00  0.32073193001E+03  0.95389654133E+03  0.89835941617E+03 0.  0.
        1    1    3    3  502    0 -0.60024161770E+02 -0.21486242088E+03  0.57433120190E+03  0.61613723260E+03  0.50400001928E-02 0. -1.
       -1    1    3    3    0  502  0.60024161770E+02  0.21486242088E+03 -0.25359927189E+03  0.33775930872E+03  0.50400001928E-02 0.  1.
</event>
<event>
 5   0  0.3927993E-03  0.9047727E+03  0.7818609E-02  0.9419635E-01
       -1   -1    0    0    0  501  0.00000000000E+00  0.00000000000E+00  0.24375241803E+03  0.24375241808E+03  0.50400001928E-02 0. -1.
        1   -1    0    0  501    0  0.00000000000E+00  0.00000000000E+00 -0.83959538711E+03  0.83959538713E+03  0.50400001928E-02 0.  1.
    10030    2    1    2    0    0  0.00000000000E+00  0.00000000000E+00 -0.59584296908E+03  0.10833478052E+04  0.90477269148E+03 0.  0.
        2    1    3    3  502    0 -0.19183581361E+02  0.34268099557E+03 -0.65080076925E+03  0.73575805519E+03  0.25500000920E-02 0.  1.
       -2    1    3    3    0  502  0.19183581361E+02 -0.34268099557E+03  0.54957800166E+02  0.34758975002E+03  0.25500000920E-02 0. -1.
</event>
<event>
 5   0  0.3943549E-03  0.8996283E+03  0.7818609E-02  0.9426046E-01
       -1   -1    0    0    0  501  0.00000000000E+00  0.00000000000E+00  0.40239754933E+03  0.40239754937E+03  0.50400001928E-02 0. -1.
        1   -1    0    0  501    0  0.00000000000E+00  0.00000000000E+00 -0.50281812258E+03  0.50281812261E+03  0.50400001928E-02 0.  1.
    10030    2    1    2    0    0  0.00000000000E+00  0.00000000000E+00 -0.10042057325E+03  0.90521567197E+03  0.89962832395E+03 0.  0.
        3    1    3    3  502    0  0.31831605750E+03  0.23389207220E+03  0.16630549237E+03  0.42858854499E+03  0.10100000352E+00 0.  1.
       -3    1    3    3    0  502 -0.31831605750E+03 -0.23389207220E+03 -0.26672606562E+03  0.47662712699E+03  0.10100000352E+00 0. -1.
</event>
<event>
 5   0  0.3998066E-03  0.9127603E+03  0.7818609E-02  0.9409769E-01
       -1   -1    0    0    0  501  0.00000000000E+00  0.00000000000E+00  0.16055950039E+03  0.16055950047E+03  0.50400001928E-02 0.  1.
        1   -1    0    0  501    0  0.00000000000E+00  0.00000000000E+00 -0.12972316384E+04  0.12972316385E+04  0.50400001928E-02 0. -1.
    10030    2    1    2    0    0  0.00000000000E+00  0.00000000000E+00 -0.11366721381E+04  0.14577911389E+04  0.91276034933E+03 0.  0.
        4    1    3    3  502    0  0.15922490894E+03  0.32079081451E+03 -0.11653936518E+03  0.37661964212E+03  0.12699999809E+01 0. -1.
       -4    1    3    3    0  502 -0.15922490894E+03 -0.32079081451E+03 -0.10201327729E+04  0.10811714968E+04  0.12699999809E+01 0.  1.
</event>
<event>
 5   0  0.6863405E-03  0.9031208E+03  0.7818609E-02  0.9421689E-01
       -2   -1    0    0    0  501  0.00000000000E+00  0.00000000000E+00  0.95494508407E+02  0.95494508441E+02  0.25500000920E-02 0. -1.
        2   -1    0    0  501    0  0.00000000000E+00  0.00000000000E+00 -0.21352726427E+04  0.21352726427E+04  0.25500000920E-02 0.  1.
    10030    2    1    2    0    0  0.00000000000E+00  0.00000000000E+00 -0.20397781343E+04  0.22307671511E+04  0.90312083659E+03 0.  0.
        1    1    3    3  502    0 -0.31498212803E+03 -0.32139475853E+03 -0.92751789836E+03  0.10309208425E+04  0.50400001928E-02 0.  1.
       -1    1    3    3    0  502  0.31498212803E+03  0.32139475853E+03 -0.11122602359E+04  0.11998463086E+04  0.50400001928E-02 0. -1.
</event>
<event>
 5   0  0.3927993E-03  0.8999564E+03  0.7818609E-02  0.9425636E-01
        1   -1    0    0  501    0  0.00000000000E+00  0.00000000000E+00  0.92003457953E+03  0.92003457954E+03  0.50400001928E-02 0.  1.
       -1   -1    0    0    0  501  0.00000000000E+00  0.00000000000E+00 -0.22007910931E+03  0.22007910936E+03  0.50400001928E-02 0. -1.
    10030    2    1    2    0    0  0.00000000000E+00  0.00000000000E+00  0.69995547022E+03  0.11401136889E+04  0.89995642302E+03 0.  0.
        2    1    3    3  502    0 -0.33350438769E+02 -0.43819697369E+03  0.22746858989E+03  0.49484421681E+03  0.25500000920E-02 0. -1.
       -2    1    3    3    0  502  0.33350438769E+02  0.43819697369E+03  0.47248688034E+03  0.64526947209E+03  0.25500000920E-02 0.  1.
</event>
<event>
 5   0  0.3794006E-03  0.8973060E+03  0.7818609E-02  0.9428955E-01
       -1   -1    0    0    0  501  0.00000000000E+00  0.00000000000E+00  0.20921406897E+03  0.20921406903E+03  0.50400001928E-02 0. -1.
        1   -1    0    0  501    0  0.00000000000E+00  0.00000000000E+00 -0.96212218394E+03  0.96212218395E+03  0.50400001928E-02 0.  1.
    10030    2    1    2    0    0  0.00000000000E+00  0.00000000000E+00 -0.75290811497E+03  0.11713362530E+04  0.89730596117E+03 0.  0.
        5    1    3    3  502    0 -0.18087414367E+03  0.19746772912E+03  0.93411811365E+02  0.28364910786E+03  0.46999998093E+01 0. -1.
       -5    1    3    3    0  502  0.18087414367E+03 -0.19746772912E+03 -0.84631992634E+03  0.88768714512E+03  0.46999998093E+01 0.  1.
</event>
<event>
 5   0  0.3794006E-03  0.8873829E+03  0.7818609E-02  0.9441492E-01
        1   -1    0    0  501    0  0.00000000000E+00  0.00000000000E+00  0.72821904847E+03  0.72821904849E+03  0.50400001928E-02 0. -1.
       -1   -1    0    0    0  501  0.00000000000E+00  0.00000000000E+00 -0.27033362190E+03  0.27033362195E+03  0.50400001928E-02 0.  1.
    10030    2    1    2    0    0  0.00000000000E+00  0.00000000000E+00  0.45788542657E+03  0.99855267044E+03  0.88738287778E+03 0.  0.
        5    1    3    3  502    0  0.68917598390E+02  0.31487361481E+03  0.57200492925E+03  0.65658720499E+03  0.46999998093E+01 0. -1.
       -5    1    3    3    0  502 -0.68917598390E+02 -0.31487361481E+03 -0.11411950268E+03  0.34196546545E+03  0.46999998093E+01 0.  1.
</event>
<event>
 5   0  0.6863405E-03  0.9011023E+03  0.7818609E-02  0.9424205E-01
       -2   -1    0    0    0  501  0.00000000000E+00  0.00000000000E+00  0.12737433121E+03  0.12737433123E+03  0.25500000920E-02 0.  1.
        2   -1    0    0  501    0  0.00000000000E+00  0.00000000000E+00 -0.15936988460E+04  0.15936988461E+04  0.25500000920E-02 0. -1.
    10030    2    1    2    0    0  0.00000000000E+00  0.00000000000E+00 -0.14663245148E+04  0.17210731773E+04  0.90110226875E+03 0.  0.
        1    1    3    3  502    0  0.30594127630E+03  0.90294579603E+02 -0.12543589563E+03  0.34276426241E+03  0.50400001928E-02 0.  1.
       -1    1    3    3    0  502 -0.30594127630E+03 -0.90294579603E+02 -0.13408886192E+04  0.13783089149E+04  0.50400001928E-02 0. -1.
</event>
<event>
 5   0  0.2560250E-03  0.8980572E+03  0.7818609E-02  0.9428013E-01
        3   -1    0    0  501    0  0.00000000000E+00  0.00000000000E+00  0.60991079455E+03  0.60991080292E+03  0.10100000352E+00 0.  1.
       -3   -1    0    0    0  501  0.00000000000E+00  0.00000000000E+00 -0.33058383995E+03  0.33058385537E+03  0.10100000352E+00 0. -1.
    10030    2    1    2    0    0  0.00000000000E+00  0.00000000000E+00  0.27932695461E+03  0.94049465829E+03  0.89805715559E+03 0.  0.
        3    1    3    3  502    0 -0.19986506739E+03  0.23004186073E+03 -0.20571053162E+03  0.36767123340E+03  0.10100000352E+00 0. -1.
       -3    1    3    3    0  502  0.19986506739E+03 -0.23004186073E+03  0.48503748623E+03  0.57282342489E+03  0.10100000352E+00 0.  1.
</event>
<event>
 5   0  0.3794006E-03  0.9281001E+03  0.7818609E-02  0.9391121E-01
       -1   -1    0    0    0  501  0.00000000000E+00  0.00000000000E+00  0.83564629974E+03  0.83564629975E+03  0.50400001928E-02 0. -1.
        1   -1    0    0  501    0  0.00000000000E+00  0.00000000000E+00 -0.25769570394E+03  0.25769570399E+03  0.50400001928E-02 0.  1.
    10030    2    1    2    0    0  0.00000000000E+00  0.00000000000E+00  0.57795059580E+03  0.10933420037E+04  0.92810012712E+03 0.  0.
        5    1    3    3  502    0 -0.86898445283E+02 -0.18741195854E+03 -0.20050948667E+03  0.28792486214E+03  0.46999998093E+01 0.  1.
       -5    1    3    3    0  502  0.86898445283E+02  0.18741195854E+03  0.77846008246E+03  0.80541714160E+03  0.46999998093E+01 0. -1.
</event>
<event>
 5   0  0.6609191E-03  0.8695625E+03  0.7818609E-02  0.9464451E-01
        2   -1    0    0  501    0  0.00000000000E+00  0.00000000000E+00  0.83912442271E+03  0.83912442272E+03  0.25500000920E-02 0. -1.
       -2   -1    0    0    0  501  0.00000000000E+00  0.00000000000E+00 -0.22527614779E+03  0.22527614781E+03  0.25500000920E-02 0.  1.
    10030    2    1    2    0    0  0.00000000000E+00  0.00000000000E+00  0.61384827492E+03  0.10644005705E+04  0.86956245889E+03 0.  0.
        2    1    3    3  502    0  0.96919285189E+02 -0.42111770880E+03  0.24820417863E+03  0.49833601797E+03  0.25500000920E-02 0.  1.
       -2    1    3    3    0  502 -0.96919285189E+02  0.42111770880E+03  0.36564409629E+03  0.56606455256E+03  0.25500000920E-02 0. -1.
</event>
<event>
 5   0  0.3927993E-03  0.8996619E+03  0.7818609E-02  0.9426004E-01
       -1   -1    0    0    0  501  0.00000000000E+00  0.00000000000E+00  0.84704913546E+03  0.84704913547E+03  0.50400001928E-02 0. -1.
        1   -1    0    0  501    0  0.00000000000E+00  0.00000000000E+00 -0.23888566914E+03  0.23888566919E+03  0.50400001928E-02 0.  1.
    10030    2    1    2    0    0  0.00000000000E+00  0.00000000000E+00  0.60816346632E+03  0.10859348047E+04  0.89966193552E+03 0.  0.
        2    1    3    3  502    0  0.57083311242E+02 -0.58231051270E+02  0.83805338257E+03  0.84201118270E+03  0.25500000920E-02 0. -1.
       -2    1    3    3    0  502 -0.57083311242E+02  0.58231051270E+02 -0.22988991625E+03  0.24392362197E+03  0.25500000920E-02 0.  1.
</event>
<event>
 5   0  0.6724773E-03  0.9153175E+03  0.7818609E-02  0.9406634E-01
       -2   -1    0    0    0  501  0.00000000000E+00  0.00000000000E+00  0.14925262042E+03  0.14925262044E+03  0.25500000920E-02 0.  1.
        2   -1    0    0  501    0  0.00000000000E+00  0.00000000000E+00 -0.14033357843E+04  0.14033357843E+04  0.25500000920E-02 0. -1.
    10030    2    1    2    0    0  0.00000000000E+00  0.00000000000E+00 -0.12540831638E+04  0.15525884047E+04  0.91531752555E+03 0.  0.
        5    1    3    3  502    0 -0.43951560983E+03  0.44777544721E+02 -0.82952940014E+03  0.93985111347E+03  0.46999998093E+01 0. -1.
       -5    1    3    3    0  502  0.43951560983E+03 -0.44777544721E+02 -0.42455376370E+03  0.61273729123E+03  0.46999998093E+01 0.  1.
</event>
<event>
 5   0  0.6534628E-03  0.9008063E+03  0.7818609E-02  0.9424574E-01
       -2   -1    0    0    0  501  0.00000000000E+00  0.00000000000E+00  0.20057168385E+03  0.20057168387E+03  0.25500000920E-02 0.  1.
        2   -1    0    0  501    0  0.00000000000E+00  0.00000000000E+00 -0.10114238870E+04  0.10114238870E+04  0.25500000920E-02 0. -1.
    10030    2    1    2    0    0  0.00000000000E+00  0.00000000000E+00 -0.81085220318E+03  0.12119955709E+04  0.90080628799E+03 0.  0.
        4    1    3    3  502    0 -0.24091484055E+03 -0.36567449310E+03 -0.26365059317E+03  0.51114679250E+03  0.12699999809E+01 0.  1.
       -4    1    3    3    0  502  0.24091484055E+03  0.36567449310E+03 -0.54720161000E+03  0.70084877840E+03  0.12699999809E+01 0. -1.
</event>
<event>
 5   0  0.6534628E-03  0.9418330E+03  0.7818609E-02  0.9374748E-01
       -2   -1    0    0    0  501  0.00000000000E+00  0.00000000000E+00  0.17679893725E+04  0.17679893725E+04  0.25500000920E-02 0.  1.
        2   -1    0    0  501    0  0.00000000000E+00  0.00000000000E+00 -0.12543195584E+03  0.12543195586E+03  0.25500000920E-02 0. -1.
    10030    2    1    2    0    0  0.00000000000E+00  0.00000000000E+00  0.16425574167E+04  0.18934213284E+04  0.94183303174E+03 0.  0.
        4    1    3    3  502    0 -0.26559139573E+03  0.29905130188E+03  0.32155099639E+03  0.51319306973E+03  0.12699999809E+01 0. -1.
       -4    1    3    3    0  502  0.26559139573E+03 -0.29905130188E+03  0.13210064203E+04  0.13802282586E+04  0.12699999809E+01 0.  1.
</event>
<event>
 5   0  0.3794006E-03  0.8964518E+03  0.7818609E-02  0.9430028E-01
       -1   -1    0    0    0  501  0.00000000000E+00  0.00000000000E+00  0.96646221143E+03  0.96646221144E+03  0.50400001928E-02 0. -1.
        1   -1    0    0  501    0  0.00000000000E+00  0.00000000000E+00 -0.20787823623E+03  0.20787823629E+03  0.50400001928E-02 0.  1.
    10030    2    1    2    0    0  0.00000000000E+00  0.00000000000E+00  0.75858397520E+03  0.11743404477E+04  0.89645180559E+03 0.  0.
        5    1    3    3  502    0  0.15608586814E+03 -0.39558329621E+03  0.56471617291E+03  0.70694793898E+03  0.46999998093E+01 0. -1.
       -5    1    3    3    0  502 -0.15608586814E+03  0.39558329621E+03  0.19386780229E+03  0.46739250875E+03  0.46999998093E+01 0.  1.
</event>
<event>
 5   0  0.2560250E-03  0.8115005E+03  0.7818609E-02  0.9543518E-01
       -3   -1    0    0    0  501  0.00000000000E+00  0.00000000000E+00  0.65218064630E+03  0.65218065412E+03  0.10100000352E+00 0.  1.
        3   -1    0    0  501    0  0.00000000000E+00  0.00000000000E+00 -0.25243502229E+03  0.25243504249E+03  0.10100000352E+00 0. -1.
    10030    2    1    2    0    0  0.00000000000E+00  0.00000000000E+00  0.39974562401E+03  0.90461569661E+03  0.81150045881E+03 0.  0.
        2    1    3    3  502    0  0.15968208178E+03  0.21395807842E+03 -0.14073011780E+03  0.30179693939E+03  0.25500000920E-02 0. -1.
       -2    1    3    3    0  502 -0.15968208178E+03 -0.21395807842E+03  0.54047574182E+03  0.60281875722E+03  0.25500000920E-02 0.  1.
</event>
<event>
 5   0  0.3794006E-03  0.8951045E+03  0.7818609E-02  0.9431722E-01
       -1   -1    0    0    0  501  0.00000000000E+00  0.00000000000E+00  0.85613614190E+03  0.85613614192E+03  0.50400001928E-02 0.  1.
        1   -1    0    0  501    0  0.00000000000E+00  0.00000000000E+00 -0.23396165219E+03  0.23396165224E+03  0.50400001928E-02 0. -1.
    10030    2    1    2    0    0  0.00000000000E+00  0.00000000000E+00  0.62217448971E+03  0.10900977942E+04  0.89510452193E+03 0.  0.
        5    1    3    3  502    0  0.23110311004E+03 -0.21020575128E+03  0.70134089215E+03  0.76778658645E+03  0.46999998093E+01 0.  1.
       -5    1    3    3    0  502 -0.23110311004E+03  0.21020575128E+03 -0.79166402438E+02  0.32231120771E+03  0.46999998093E+01 0. -1.
</event>
<event>
 5   0  0.6534628E-03  0.8883828E+03  0.7818609E-02  0.9440221E-01
        2   -1    0    0  501    0  0.00000000000E+00  0.00000000000E+00  0.84027582711E+03  0.84027582711E+03  0.25500000920E-02 0.  1.
       -2   -1    0    0    0  501  0.00000000000E+00  0.00000000000E+00 -0.23481099747E+03  0.23481099748E+03  0.25500000920E-02 0. -1.
    10030    2    1    2    0    0  0.00000000000E+00  0.00000000000E+00  0.60546482964E+03  0.10750868246E+04  0.88838281190E+03 0.  0.
        4    1    3    3  502    0 -0.88564344972E+02  0.21042928375E+03 -0.15836977568E+03  0.27786098216E+03  0.12699999809E+01 0. -1.
       -4    1    3    3    0  502  0.88564344972E+02 -0.21042928375E+03  0.76383460532E+03  0.79722584243E+03  0.12699999809E+01 0.  1.
</event>
<event>
 5   0  0.6724773E-03  0.8975063E+03  0.7818609E-02  0.9428704E-01
       -2   -1    0    0    0  501  0.00000000000E+00  0.00000000000E+00  0.12181080314E+03  0.12181080316E+03  0.25500000920E-02 0. -1.
        2   -1    0    0  501    0  0.00000000000E+00  0.00000000000E+00 -0.16532144182E+04  0.16532144182E+04  0.25500000920E-02 0.  1.
    10030    2    1    2    0    0  0.00000000000E+00  0.00000000000E+00 -0.15314036150E+04  0.17750252213E+04  0.89750626975E+03 0.  0.
        5    1    3    3  502    0  0.16456358503E+03  0.32462146374E+03 -0.12848211956E+04  0.13353830398E+04  0.46999998093E+01 0.  1.
       -5    1    3    3    0  502 -0.16456358503E+03 -0.32462146374E+03 -0.24658241942E+03  0.43964218156E+03  0.46999998093E+01 0. -1.
</event>
<event>
 5   0  0.3943549E-03  0.8936017E+03  0.7818609E-02  0.9433615E-01
        1   -1    0    0  501    0  0.00000000000E+00  0.00000000000E+00  0.16304538459E+04  0.16304538459E+04  0.50400001928E-02 0.  1.
       -1   -1    0    0    0  501  0.00000000000E+00  0.00000000000E+00 -0.12243892157E+03  0.12243892168E+03  0.50400001928E-02 0. -1.
    10030    2    1    2    0    0  0.00000000000E+00  0.00000000000E+00  0.15080149244E+04  0.17528927676E+04  0.89360172487E+03 0.  0.
        3    1    3    3  502    0 -0.10105316421E+03 -0.39926116099E+02 -0.96128208010E+02  0.14507404771E+03  0.10100000352E+00 0. -1.
       -3    1    3    3    0  502  0.10105316421E+03  0.39926116099E+02  0.16041431324E+04  0.16078187199E+04  0.10100000352E+00 0.  1.
</event>
<event>
 5   0  0.6534628E-03  0.8991091E+03  0.7818609E-02  0.9426696E-01
        2   -1    0    0  501    0  0.00000000000E+00  0.00000000000E+00  0.10669692465E+04  0.10669692465E+04  0.25500000920E-02 0.  1.
       -2   -1    0    0    0  501  0.00000000000E+00  0.00000000000E+00 -0.18941436408E+03  0.18941436410E+03  0.25500000920E-02 0. -1.
    10030    2    1    2    0    0  0.00000000000E+00  0.00000000000E+00  0.87755488237E+03  0.12563836106E+04  0.89910911758E+03 0.  0.
        4    1    3    3  502    0  0.38543866108E+03  0.19292628804E+03  0.61725861374E+03  0.75285677470E+03  0.12699999809E+01 0.  1.
       -4    1    3    3    0  502 -0.38543866108E+03 -0.19292628804E+03  0.26029626863E+03  0.50352683586E+03  0.12699999809E+01 0. -1.
</event>
<event>
 5   0  0.6863405E-03  0.9084884E+03  0.7818609E-02  0.9415032E-01
        2   -1    0    0  501    0  0.00000000000E+00  0.00000000000E+00  0.65044824326E+03  0.65044824326E+03  0.25500000920E-02 0.  1.
       -2   -1    0    0    0  501  0.00000000000E+00  0.00000000000E+00 -0.31722397821E+03  0.31722397822E+03  0.25500000920E-02 0. -1.
    10030    2    1    2    0    0  0.00000000000E+00  0.00000000000E+00  0.33322426504E+03  0.96767222148E+03  0.90848836945E+03 0.  0.
        1    1    3    3  502    0 -0.24150613291E+02  0.29921116040E+03  0.52974269831E+03  0.60888249857E+03  0.50400001928E-02 0.  1.
       -1    1    3    3    0  502  0.24150613291E+02 -0.29921116040E+03 -0.19651843327E+03  0.35878972291E+03  0.50400001928E-02 0. -1.
</event>
<event>
 5   0  0.3943549E-03  0.8995988E+03  0.7818609E-02  0.9426083E-01
        1   -1    0    0  501    0  0.00000000000E+00  0.00000000000E+00  0.34788688242E+03  0.34788688246E+03  0.50400001928E-02 0. -1.
       -1   -1    0    0    0  501  0.00000000000E+00  0.00000000000E+00 -0.58156694852E+03  0.58156694854E+03  0.50400001928E-02 0.  1.
    10030    2    1    2    0    0  0.00000000000E+00  0.00000000000E+00 -0.23368006610E+03  0.92945383100E+03  0.89959882762E+03 0.  0.
        3    1    3    3  502    0 -0.25417291618E+03 -0.16997005339E+02 -0.49985394788E+03  0.56102294866E+03  0.10100000352E+00 0.  1.
       -3    1    3    3    0  502  0.25417291618E+03  0.16997005339E+02  0.26617388179E+03  0.36843088233E+03  0.10100000352E+00 0. -1.
</event>
<event>
 5   0  0.6524705E-03  0.9035117E+03  0.7818609E-02  0.9421202E-01
       -2   -1    0    0    0  501  0.00000000000E+00  0.00000000000E+00  0.26391444990E+03  0.26391444991E+03  0.25500000920E-02 0. -1.
        2   -1    0    0  501    0  0.00000000000E+00  0.00000000000E+00 -0.77329352929E+03  0.77329352929E+03  0.25500000920E-02 0.  1.
    10030    2    1    2    0    0  0.00000000000E+00  0.00000000000E+00 -0.50937907939E+03  0.10372079792E+04  0.90351167430E+03 0.  0.
        3    1    3    3  502    0 -0.47746328817E+02 -0.83579075187E+02  0.25200566114E+03  0.26976292772E+03  0.10100000352E+00 0. -1.
       -3    1    3    3    0  502  0.47746328817E+02  0.83579075187E+02 -0.76138474053E+03  0.76744505148E+03  0.10100000352E+00 0.  1.
</event>
<event>
 5   0  0.3943549E-03  0.9294063E+03  0.7818609E-02  0.9389551E-01
        1   -1    0    0  501    0  0.00000000000E+00  0.00000000000E+00  0.39105325566E+03  0.39105325569E+03  0.50400001928E-02 0. -1.
       -1   -1    0    0    0  501  0.00000000000E+00  0.00000000000E+00 -0.55222403232E+03  0.55222403234E+03  0.50400001928E-02 0.  1.
    10030    2    1    2    0    0  0.00000000000E+00  0.00000000000E+00 -0.16117077666E+03  0.94327728803E+03  0.92940627438E+03 0.  0.
        3    1    3    3  502    0  0.22717135916E+03 -0.40193710332E+03 -0.13418199922E+03  0.48079629841E+03  0.10100000352E+00 0. -1.
       -3    1    3    3    0  502 -0.22717135916E+03  0.40193710332E+03 -0.26988777440E+02  0.46248098962E+03  0.10100000352E+00 0.  1.
</event>
<event>
 5   0  0.3794006E-03  0.8807171E+03  0.7818609E-02  0.9450012E-01
       -1   -1    0    0    0  501  0.00000000000E+00  0.00000000000E+00  0.14648503275E+03  0.14648503283E+03  0.50400001928E-02 0. -1.
        1   -1    0    0  501    0  0.00000000000E+00  0.00000000000E+00 -0.13237916202E+04  0.13237916202E+04  0.50400001928E-02 0.  1.
    10030    2    1    2    0    0  0.00000000000E+00  0.00000000000E+00 -0.11773065874E+04  0.14702766530E+04  0.88071711441E+03 0.  0.
        5    1    3    3  502    0  0.32045598077E+03 -0.12109740108E+01 -0.84502792250E+02  0.33144579340E+03  0.46999998093E+01 0. -1.
       -5    1    3    3    0  502 -0.32045598077E+03  0.12109740108E+01 -0.10928037952E+04  0.11388308596E+04  0.46999998093E+01 0.  1.
</event>
<event>
 5   0  0.3969536E-03  0.8993076E+03  0.7818609E-02  0.9426447E-01
       -1   -1    0    0    0  501  0.00000000000E+00  0.00000000000E+00  0.58446370367E+03  0.58446370370E+03  0.50400001928E-02 0. -1.
        1   -1    0    0  501    0  0.00000000000E+00  0.00000000000E+00 -0.34593855757E+03  0.34593855760E+03  0.50400001928E-02 0.  1.
    10030    2    1    2    0    0  0.00000000000E+00  0.00000000000E+00  0.23852514611E+03  0.93040226130E+03  0.89930757948E+03 0.  0.
        1    1    3    3  502    0  0.34560826658E+03  0.47364535564E+02 -0.17427290438E+03  0.38994809704E+03  0.50400001928E-02 0.  1.
       -1    1    3    3    0  502 -0.34560826658E+03 -0.47364535564E+02  0.41279805049E+03  0.54045416426E+03  0.50400001928E-02 0. -1.
</event>
<event>
 5   0  0.3969536E-03  0.8914316E+03  0.7818609E-02  0.9436356E-01
       -1   -1    0    0    0  501  0.00000000000E+00  0.00000000000E+00  0.33779190444E+03  0.33779190448E+03  0.50400001928E-02 0. -1.
        1   -1    0    0  501    0  0.00000000000E+00  0.00000000000E+00 -0.58812120773E+03  0.58812120776E+03  0.50400001928E-02 0.  1.
    10030    2    1    2    0    0  0.00000000000E+00  0.00000000000E+00 -0.25032930329E+03  0.92591311223E+03  0.89143161898E+03 0.  0.
        1    1    3    3  502    0 -0.15580293422E+02  0.14841552239E+03 -0.56140162042E+03  0.58089731645E+03  0.50400001928E-02 0.  1.
       -1    1    3    3    0  502  0.15580293422E+02 -0.14841552239E+03  0.31107231712E+03  0.34501579578E+03  0.50400001928E-02 0. -1.
</event>
<event>
 5   0  0.6524705E-03  0.9035070E+03  0.7818609E-02  0.9421208E-01
       -2   -1    0    0    0  501  0.00000000000E+00  0.00000000000E+00  0.88574033937E+02  0.88574033974E+02  0.25500000920E-02 0. -1.
        2   -1    0    0  501    0  0.00000000000E+00  0.00000000000E+00 -0.23040750145E+04  0.23040750145E+04  0.25500000920E-02 0.  1.
    10030    2    1    2    0    0  0.00000000000E+00  0.00000000000E+00 -0.22155009806E+04  0.23926490485E+04  0.90350698631E+03 0.  0.
        3    1    3    3  502    0  0.24954989589E+03  0.23675087649E+03 -0.18832426570E+04  0.19144004397E+04  0.10100000352E+00 0.  1.
       -3    1    3    3    0  502 -0.24954989589E+03 -0.23675087649E+03 -0.33225832360E+03  0.47824860884E+03  0.10100000352E+00 0. -1.
</event>
<event>
 5   0  0.3969536E-03  0.9015869E+03  0.7818609E-02  0.9423600E-01
        1   -1    0    0  501    0  0.00000000000E+00  0.00000000000E+00  0.91633707149E+03  0.91633707150E+03  0.50400001928E-02 0.  1.
       -1   -1    0    0    0  501  0.00000000000E+00  0.00000000000E+00 -0.22176852816E+03  0.22176852822E+03  0.50400001928E-02 0. -1.
    10030    2    1    2    0    0  0.00000000000E+00  0.00000000000E+00  0.69456854332E+03  0.11381055997E+04  0.90158687587E+03 0.  0.
        1    1    3    3  502    0 -0.54211161590E+02 -0.29061257744E+03  0.77688710871E+03  0.83123287947E+03  0.50400001928E-02 0.  1.
       -1    1    3    3    0  502  0.54211161590E+02  0.29061257744E+03 -0.82318565383E+02  0.30687272026E+03  0.50400001928E-02 0. -1.
</event>
<event>
 5   0  0.3927993E-03  0.8994028E+03  0.7818609E-02  0.9426328E-01
        1   -1    0    0  501    0  0.00000000000E+00  0.00000000000E+00  0.94928102854E+03  0.94928102856E+03  0.50400001928E-02 0. -1.
       -1   -1    0    0    0  501  0.00000000000E+00  0.00000000000E+00 -0.21303634846E+03  0.21303634852E+03  0.50400001928E-02 0.  1.
    10030    2    1    2    0    0  0.00000000000E+00  0.00000000000E+00  0.73624468008E+03  0.11623173771E+04  0.89940283306E+03 0.  0.
        2    1    3    3  502    0 -0.11603254606E+03  0.35949426108E+03  0.68343730275E+03  0.78088809845E+03  0.25500000920E-02 0. -1.
       -2    1    3    3    0  502  0.11603254606E+03 -0.35949426108E+03  0.52807377326E+02  0.38142927863E+03  0.25500000920E-02 0.  1.
</event>
<event>
 5   0  0.3794006E-03  0.8999681E+03  0.7818609E-02  0.9425621E-01
        1   -1    0    0  501    0  0.00000000000E+00  0.00000000000E+00  0.41150559751E+03  0.41150559754E+03  0.50400001928E-02 0.  1.
       -1   -1    0    0    0  501  0.00000000000E+00  0.00000000000E+00 -0.49206044263E+03  0.49206044265E+03  0.50400001928E-02 0. -1.
    10030    2    1    2    0    0  0.00000000000E+00  0.00000000000E+00 -0.80554845114E+02  0.90356604020E+03  0.89996805828E+03 0.  0.
        5    1    3    3  502    0 -0.14879637766E+03 -0.30863063050E+03  0.25255678513E+03  0.42567622414E+03  0.46999998093E+01 0.  1.
       -5    1    3    3    0  502  0.14879637766E+03  0.30863063050E+03 -0.33311163025E+03  0.47788981606E+03  0.46999998093E+01 0. -1.
</event>
<event>
 5   0  0.6863405E-03  0.8886314E+03  0.7818609E-02  0.9439905E-01
        2   -1    0    0  501    0  0.00000000000E+00  0.00000000000E+00  0.99595520163E+03  0.99595520164E+03  0.25500000920E-02 0.  1.
       -2   -1    0    0    0  501  0.00000000000E+00  0.00000000000E+00 -0.19821820036E+03  0.19821820038E+03  0.25500000920E-02 0. -1.
    10030    2    1    2    0    0  0.00000000000E+00  0.00000000000E+00  0.79773700127E+03  0.11941734020E+04  0.88863141452E+03 0.  0.
        1    1    3    3  502    0  0.16104023912E+03 -0.24861712409E+03  0.84390296249E+03  0.89438059188E+03  0.50400001928E-02 0.  1.
       -1    1    3    3    0  502 -0.16104023912E+03  0.24861712409E+03 -0.46165961211E+02  0.29979281014E+03  0.50400001928E-02 0. -1.
</event>
<event>
 5   0  0.6524705E-03  0.8934838E+03  0.7818609E-02  0.9433764E-01
        2   -1    0    0  501    0  0.00000000000E+00  0.00000000000E+00  0.63964550659E+03  0.63964550660E+03  0.25500000920E-02 0. -1.
       -2   -1    0    0    0  501  0.00000000000E+00  0.00000000000E+00 -0.31201395402E+03  0.31201395403E+03  0.25500000920E-02 0.  1.
    10030    2    1    2    0    0  0.00000000000E+00  0.00000000000E+00  0.32763155257E+03  0.95165946063E+03  0.89348379659E+03 0.  0.
        3    1    3    3  502    0  0.23500509628E+03  0.33409325636E+03 -0.28885785619E+02  0.40948760425E+03  0.10100000352E+00 0. -1.
       -3    1    3    3    0  502 -0.23500509628E+03 -0.33409325636E+03  0.35651733819E+03  0.54217185638E+03  0.10100000352E+00 0.  1.
</event>
<event>
 5   0  0.3998066E-03  0.8992042E+03  0.7818609E-02  0.9426577E-01
       -1   -1    0    0    0  501  0.00000000000E+00  0.00000000000E+00  0.67110863424E+03  0.67110863426E+03  0.50400001928E-02 0. -1.
        1   -1    0    0  501    0  0.00000000000E+00  0.00000000000E+00 -0.30120614136E+03  0.30120614141E+03  0.50400001928E-02 0.  1.
    10030    2    1    2    0    0  0.00000000000E+00  0.00000000000E+00  0.36990249288E+03  0.97231477567E+03  0.89920418635E+03 0.  0.
        4    1    3    3  502    0 -0.34929222845E+03 -0.15630736361E+03  0.44015633286E+03  0.58324631421E+03  0.12699999809E+01 0. -1.
       -4    1    3    3    0  502  0.34929222845E+03  0.15630736361E+03 -0.70253839984E+02  0.38906846147E+03  0.12699999809E+01 0.  1.
</event>
<event>
 5   0  0.3927993E-03  0.8490376E+03  0.7818609E-02  0.9491630E-01
        1   -1    0    0  501    0  0.00000000000E+00  0.00000000000E+00  0.17998504577E+04  0.17998504577E+04  0.50400001928E-02 0.  1.
       -1   -1    0    0    0  501  0.00000000000E+00  0.00000000000E+00 -0.10012843036E+03  0.10012843048E+03  0.50400001928E-02 0. -1.
    10030    2    1    2    0    0  0.00000000000E+00  0.00000000000E+00  0.16997220274E+04  0.18999788882E+04  0.84903757593E+03 0.  0.
        2    1    3    3  502    0 -0.22469608310E+03 -0.19130921327E+02  0.44992344190E+02  0.22995354520E+03  0.25500000920E-02 0. -1.
       -2    1    3    3    0  502  0.22469608310E+03  0.19130921327E+02  0.16547296832E+04  0.16700253430E+04  0.25500000920E-02 0.  1.
</event>
<event>
 5   0  0.3998066E-03  0.8990809E+03  0.7818609E-02  0.9426731E-01
       -1   -1    0    0    0  501  0.00000000000E+00  0.00000000000E+00  0.51554780013E+03  0.51554780015E+03  0.50400001928E-02 0. -1.
        1   -1    0    0  501    0  0.00000000000E+00  0.00000000000E+00 -0.39198423450E+03  0.39198423453E+03  0.50400001928E-02 0.  1.
    10030    2    1    2    0    0  0.00000000000E+00  0.00000000000E+00  0.12356356563E+03  0.90753203468E+03  0.89908088581E+03 0.  0.
        4    1    3    3  502    0  0.35022853810E+03  0.27768930713E+03  0.11033398188E+03  0.46037656397E+03  0.12699999809E+01 0. -1.
       -4    1    3    3    0  502 -0.35022853810E+03 -0.27768930713E+03  0.13229583749E+02  0.44715547071E+03  0.12699999809E+01 0.  1.
</event>
<event>
 5   0  0.3969536E-03  0.9040883E+03  0.7818609E-02  0.9420485E-01
       -1   -1    0    0    0  501  0.00000000000E+00  0.00000000000E+00  0.39653568331E+03  0.39653568334E+03  0.50400001928E-02 0. -1.
        1   -1    0    0  501    0  0.00000000000E+00  0.00000000000E+00 -0.51532290119E+03  0.51532290121E+03  0.50400001928E-02 0.  1.
    10030    2    1    2    0    0  0.00000000000E+00  0.00000000000E+00 -0.11878721788E+03  0.91185858456E+03  0.90408831156E+03 0.  0.
        1    1    3    3  502    0  0.19458505131E+03  0.35546619301E+03 -0.26142586218E+03  0.48224790099E+03  0.50400001928E-02 0.  1.
       -1    1    3    3    0  502 -0.19458505131E+03 -0.35546619301E+03  0.14263864430E+03  0.42961068357E+03  0.50400001928E-02 0. -1.
</event>
<event>
 5   0  0.2560250E-03  0.8999214E+03  0.7818609E-02  0.9425680E-01
        3   -1    0    0  501    0  0.00000000000E+00  0.00000000000E+00  0.13545256238E+03  0.13545260003E+03  0.10100000352E+00 0. -1.
       -3   -1    0    0    0  501  0.00000000000E+00  0.00000000000E+00 -0.14947270331E+04  0.14947270366E+04  0.10100000352E+00 0.  1.
    10030    2    1    2    0    0  0.00000000000E+00  0.00000000000E+00 -0.13592744708E+04  0.16301796366E+04  0.89992141917E+03 0.  0.
        1    1    3    3  502    0  0.14716510832E+03 -0.38359336916E+03 -0.34727737945E+03  0.53796191341E+03  0.50400001928E-02 0. -1.
       -1    1    3    3    0  502 -0.14716510832E+03  0.38359336916E+03 -0.10119970913E+04  0.10922177232E+04  0.50400001928E-02 0.  1.
</event>
<event>
 5   0  0.3969536E-03  0.9008185E+03  0.7818609E-02  0.9424559E-01
        1   -1    0    0  501    0  0.00000000000E+00  0.00000000000E+00  0.13878764449E+04  0.13878764449E+04  0.50400001928E-02 0. -1.
       -1   -1    0    0    0  501  0.00000000000E+00  0.00000000000E+00 -0.14617187208E+03  0.14617187217E+03  0.50400001928E-02 0.  1.
    10030    2    1    2    0    0  0.00000000000E+00  0.00000000000E+00  0.12417045728E+04  0.15340483170E+04  0.90081851278E+03 0.  0.
        1    1    3    3  502    0  0.21973449131E+02  0.44374073094E+03  0.74691459517E+03  0.86906276025E+03  0.50400001928E-02 0.  1.
       -1    1    3    3    0  502 -0.21973449131E+02 -0.44374073094E+03  0.49478997761E+03  0.66498555678E+03  0.50400001928E-02 0. -1.
</event>
<event>
 5   0  0.6534628E-03  0.8994254E+03  0.7818609E-02  0.9426300E-01
       -2   -1    0    0    0  501  0.00000000000E+00  0.00000000000E+00  0.93894040951E+02  0.93894040985E+02  0.25500000920E-02 0. -1.
        2   -1    0    0  501    0  0.00000000000E+00  0.00000000000E+00 -0.21539334009E+04  0.21539334009E+04  0.25500000920E-02 0.  1.
    10030    2    1    2    0    0  0.00000000000E+00  0.00000000000E+00 -0.20600393599E+04  0.22478274419E+04  0.89942539655E+03 0.  0.
        4    1    3    3  502    0  0.84346538398E+01 -0.44957161609E+03 -0.10116346849E+04  0.11070646458E+04  0.12699999809E+01 0.  1.
       -4    1    3    3    0  502 -0.84346538398E+01  0.44957161609E+03 -0.10484046751E+04  0.11407627961E+04  0.12699999809E+01 0. -1.
</event>
<event>
 5   0  0.2560250E-03  0.9022177E+03  0.7818609E-02  0.9422813E-01
        3   -1    0    0  501    0  0.00000000000E+00  0.00000000000E+00  0.88267035900E+03  0.88267036478E+03  0.10100000352E+00 0. -1.
       -3   -1    0    0    0  501  0.00000000000E+00  0.00000000000E+00 -0.23054948102E+03  0.23054950315E+03  0.10100000352E+00 0.  1.
    10030    2    1    2    0    0  0.00000000000E+00  0.00000000000E+00  0.65212087798E+03  0.11132198679E+04  0.90221773140E+03 0.  0.
        5    1    3    3  502    0  0.21706747769E+03 -0.28495411570E+03  0.66433000079E+03  0.75476723423E+03  0.46999998093E+01 0. -1.
       -5    1    3    3    0  502 -0.21706747769E+03  0.28495411570E+03 -0.12209122812E+02  0.35845263369E+03  0.46999998093E+01 0.  1.
</event>
<event>
 5   0  0.6534628E-03  0.8985707E+03  0.7818609E-02  0.9427370E-01
       -2   -1    0    0    0  501  0.00000000000E+00  0.00000000000E+00  0.10313143934E+03  0.10313143937E+03  0.25500000920E-02 0. -1.
        2   -1    0    0  501    0  0.00000000000E+00  0.00000000000E+00 -0.19572819480E+04  0.19572819480E+04  0.25500000920E-02 0.  1.
    10030    2    1    2    0    0  0.00000000000E+00  0.00000000000E+00 -0.18541505087E+04  0.20604133874E+04  0.89857065283E+03 0.  0.
        4    1    3    3  502    0  0.12130912721E+03  0.24721822642E+03 -0.11307052366E+03  0.29768995959E+03  0.12699999809E+01 0. -1.
       -4    1    3    3    0  502 -0.12130912721E+03 -0.24721822642E+03 -0.17410799850E+04  0.17627234278E+04  0.12699999809E+01 0.  1.
</event>
<event>
 5   0  0.3969536E-03  0.8779858E+03  0.7818609E-02  0.9453526E-01
        1   -1    0    0  501    0  0.00000000000E+00  0.00000000000E+00  0.65624890765E+03  0.65624890767E+03  0.50400001928E-02 0.  1.
       -1   -1    0    0    0  501  0.00000000000E+00  0.00000000000E+00 -0.29366110157E+03  0.29366110161E+03  0.50400001928E-02 0. -1.
    10030    2    1    2    0    0  0.00000000000E+00  0.00000000000E+00  0.36258780608E+03  0.94991000929E+03  0.87798582484E+03 0.  0.
        1    1    3    3  502    0  0.22259533554E+03  0.34792983757E+03  0.34217254238E+03  0.53636359315E+03  0.50400001928E-02 0.  1.
       -1    1    3    3    0  502 -0.22259533554E+03 -0.34792983757E+03  0.20415263708E+02  0.41354641613E+03  0.50400001928E-02 0. -1.
</event>
<event>
 5   0  0.3998066E-03  0.8714471E+03  0.7818609E-02  0.9461995E-01
        1   -1    0    0  501    0  0.00000000000E+00  0.00000000000E+00  0.66989112536E+03  0.66989112538E+03  0.50400001928E-02 0. -1.
       -1   -1    0    0    0  501  0.00000000000E+00  0.00000000000E+00 -0.28341173434E+03  0.28341173439E+03  0.50400001928E-02 0.  1.
    10030    2    1    2    0    0  0.00000000000E+00  0.00000000000E+00  0.38647939102E+03  0.95330285976E+03  0.87144708546E+03 0.  0.
        4    1    3    3  502    0 -0.15414678834E+03 -0.39335733848E+03  0.30984556563E+03  0.52392472316E+03  0.12699999809E+01 0.  1.
       -4    1    3    3    0  502  0.15414678834E+03  0.39335733848E+03  0.76633825381E+02  0.42937813660E+03  0.12699999809E+01 0. -1.
</event>
<event>
 5   0  0.6534628E-03  0.8986565E+03  0.7818609E-02  0.9427262E-01
        2   -1    0    0  501    0  0.00000000000E+00  0.00000000000E+00  0.11718831420E+04  0.11718831420E+04  0.25500000920E-02 0.  1.
       -2   -1    0    0    0  501  0.00000000000E+00  0.00000000000E+00 -0.17228328607E+03  0.17228328609E+03  0.25500000920E-02 0. -1.
    10030    2    1    2    0    0  0.00000000000E+00  0.00000000000E+00  0.99959985595E+03  0.13441664281E+04  0.89865650525E+03 0.  0.
        4    1    3    3  502    0  0.90869464524E+02  0.23194617351E+03 -0.59534936635E+02  0.25612947618E+03  0.12699999809E+01 0. -1.
       -4    1    3    3    0  502 -0.90869464524E+02 -0.23194617351E+03  0.10591347926E+04  0.10880369519E+04  0.12699999809E+01 0.  1.
</event>
<event>
 5   0  0.6534628E-03  0.8579748E+03  0.7818609E-02  0.9479696E-01
        2   -1    0    0  501    0  0.00000000000E+00  0.00000000000E+00  0.19929062179E+04  0.19929062179E+04  0.25500000920E-02 0.  1.
       -2   -1    0    0    0  501  0.00000000000E+00  0.00000000000E+00 -0.92342614935E+02  0.92342614971E+02  0.25500000920E-02 0. -1.
    10030    2    1    2    0    0  0.00000000000E+00  0.00000000000E+00  0.19005636030E+04  0.20852488329E+04  0.85797475842E+03 0.  0.
        4    1    3    3  502    0 -0.36135108368E+03 -0.26539386378E+02  0.15084858967E+04  0.15513897828E+04  0.12699999809E+01 0.  1.
       -4    1    3    3    0  502  0.36135108368E+03  0.26539386378E+02  0.39207770626E+03  0.53385905007E+03  0.12699999809E+01 0. -1.
</event>
<event>
 5   0  0.6724773E-03  0.9212874E+03  0.7818609E-02  0.9399355E-01
        2   -1    0    0  501    0  0.00000000000E+00  0.00000000000E+00  0.64520721507E+03  0.64520721507E+03  0.25500000920E-02 0. -1.
       -2   -1    0    0    0  501  0.00000000000E+00  0.00000000000E+00 -0.32887515766E+03  0.32887515767E+03  0.25500000920E-02 0.  1.
    10030    2    1    2    0    0  0.00000000000E+00  0.00000000000E+00  0.31633205741E+03  0.97408237274E+03  0.92128741354E+03 0.  0.
        5    1    3    3  502    0 -0.45409848739E+02 -0.11724983397E+03  0.62668600862E+03  0.63919247597E+03  0.46999998093E+01 0. -1.
       -5    1    3    3    0  502  0.45409848739E+02  0.11724983397E+03 -0.31035395122E+03  0.33488989678E+03  0.46999998093E+01 0.  1.
</event>
<event>
 5   0  0.6863405E-03  0.8936186E+03  0.7818609E-02  0.9433594E-01
       -2   -1    0    0    0  501  0.00000000000E+00  0.00000000000E+00  0.27641655116E+03  0.27641655117E+03  0.25500000920E-02 0. -1.
        2   -1    0    0  501    0  0.00000000000E+00  0.00000000000E+00 -0.72223797069E+03  0.72223797070E+03  0.25500000920E-02 0.  1.
    10030    2    1    2    0    0  0.00000000000E+00  0.00000000000E+00 -0.44582141953E+03  0.99865452187E+03  0.89361855170E+03 0.  0.
        1    1    3    3  502    0  0.32992906588E+03 -0.96204935718E+02 -0.54200694966E+03  0.64177886509E+03  0.50400001928E-02 0. -1.
       -1    1    3    3    0  502 -0.32992906588E+03  0.96204935718E+02  0.96185530129E+02  0.35687565678E+03  0.50400001928E-02 0.  1.
</event>
<event>
 5   0  0.3794006E-03  0.8989943E+03  0.7818609E-02  0.9426839E-01
        1   -1    0    0  501    0  0.00000000000E+00  0.00000000000E+00  0.11308998402E+03  0.11308998413E+03  0.50400001928E-02 0. -1.
       -1   -1    0    0    0  501  0.00000000000E+00  0.00000000000E+00 -0.17866100943E+04  0.17866100943E+04  0.50400001928E-02 0.  1.
    10030    2    1    2    0    0  0.00000000000E+00  0.00000000000E+00 -0.16735201103E+04  0.18997000784E+04  0.89899434285E+03 0.  0.
        5    1    3    3  502    0 -0.26080213044E+02  0.11801331511E+03 -0.17515767372E+04  0.17557478396E+04  0.46999998093E+01 0.  1.
       -5    1    3    3    0  502  0.26080213044E+02 -0.11801331511E+03  0.78056626910E+02  0.14395223881E+03  0.46999998093E+01 0. -1.
</event>
<event>
 5   0  0.6724773E-03  0.8861234E+03  0.7818609E-02  0.9443096E-01
        2   -1    0    0  501    0  0.00000000000E+00  0.00000000000E+00  0.85709331883E+03  0.85709331884E+03  0.25500000920E-02 0.  1.
       -2   -1    0    0    0  501  0.00000000000E+00  0.00000000000E+00 -0.22903418768E+03  0.22903418770E+03  0.25500000920E-02 0. -1.
    10030    2    1    2    0    0  0.00000000000E+00  0.00000000000E+00  0.62805913115E+03  0.10861275065E+04  0.88612340463E+03 0.  0.
        5    1    3    3  502    0 -0.12874421428E+03  0.31986115785E+03 -0.26962313888E+02  0.34588334649E+03  0.46999998093E+01 0. -1.
       -5    1    3    3    0  502  0.12874421428E+03 -0.31986115785E+03  0.65502144504E+03  0.74024416004E+03  0.46999998093E+01 0.  1.
</event>
<event>
 5   0  0.3927993E-03  0.8951166E+03  0.7818609E-02  0.9431707E-01
        1   -1    0    0  501    0  0.00000000000E+00  0.00000000000E+00  0.15300260072E+04  0.15300260072E+04  0.50400001928E-02 0. -1.
       -1   -1    0    0    0  501  0.00000000000E+00  0.00000000000E+00 -0.13091832222E+03  0.13091832232E+03  0.50400001928E-02 0.  1.
    10030    2    1    2    0    0  0.00000000000E+00  0.00000000000E+00  0.13991076850E+04  0.16609443295E+04  0.89511661342E+03 0.  0.
        2    1    3    3  502    0  0.18442523510E+03 -0.57746140275E+02 -0.49507706026E+02  0.19949510525E+03  0.25500000920E-02 0.  1.
       -2    1    3    3    0  502 -0.18442523510E+03  0.57746140275E+02  0.14486153910E+04  0.14614492243E+04  0.25500000920E-02 0. -1.
</event>
<event>
 5   0  0.6724773E-03  0.9143997E+03  0.7818609E-02  0.9407758E-01
       -2   -1    0    0    0  501  0.00000000000E+00  0.00000000000E+00  0.15201514933E+03  0.15201514935E+03  0.25500000920E-02 0.  1.
        2   -1    0    0  501    0  0.00000000000E+00  0.00000000000E+00 -0.13750714305E+04  0.13750714305E+04  0.25500000920E-02 0. -1.
    10030    2    1    2    0    0  0.00000000000E+00  0.00000000000E+00 -0.12230562812E+04  0.15270865799E+04  0.91439966944E+03 0.  0.
        5    1    3    3  502    0 -0.37432833053E+03  0.24484023369E+03 -0.45361272469E+03  0.63706752630E+03  0.46999998093E+01 0.  1.
       -5    1    3    3    0  502  0.37432833053E+03 -0.24484023369E+03 -0.76944355648E+03  0.89001905355E+03  0.46999998093E+01 0. -1.
</event>
<event>
 5   0  0.3943549E-03  0.9021435E+03  0.7818609E-02  0.9422906E-01
       -1   -1    0    0    0  501  0.00000000000E+00  0.00000000000E+00  0.45602128169E+03  0.45602128171E+03  0.50400001928E-02 0. -1.
        1   -1    0    0  501    0  0.00000000000E+00  0.00000000000E+00 -0.44617596991E+03  0.44617596994E+03  0.50400001928E-02 0.  1.
    10030    2    1    2    0    0  0.00000000000E+00  0.00000000000E+00  0.98453117757E+01  0.90219725165E+03  0.90214353111E+03 0.  0.
        3    1    3    3  502    0  0.23488549864E+03 -0.46028334914E+01 -0.38016305291E+03  0.44689634206E+03  0.10100000352E+00 0.  1.
       -3    1    3    3    0  502 -0.23488549864E+03  0.46028334914E+01  0.39000836469E+03  0.45530090959E+03  0.10100000352E+00 0. -1.
</event>
<event>
 5   0  0.3998066E-03  0.9267920E+03  0.7818609E-02  0.9392696E-01
       -1   -1    0    0    0  501  0.00000000000E+00  0.00000000000E+00  0.24694664135E+03  0.24694664140E+03  0.50400001928E-02 0.  1.
        1   -1    0    0  501    0  0.00000000000E+00  0.00000000000E+00 -0.86956369574E+03  0.86956369575E+03  0.50400001928E-02 0. -1.
    10030    2    1    2    0    0  0.00000000000E+00  0.00000000000E+00 -0.62261705439E+03  0.11165103371E+04  0.92679195969E+03 0.  0.
        4    1    3    3  502    0  0.76790455897E+02  0.32957205158E+03  0.70070723894E+02  0.34558071495E+03  0.12699999809E+01 0.  1.
       -4    1    3    3    0  502 -0.76790455897E+02 -0.32957205158E+03 -0.69268777829E+03  0.77092962220E+03  0.12699999809E+01 0. -1.
</event>
<event>
 5   0  0.3943549E-03  0.9030751E+03  0.7818609E-02  0.9421746E-01
       -1   -1    0    0    0  501  0.00000000000E+00  0.00000000000E+00  0.14274567713E+03  0.14274567722E+03  0.50400001928E-02 0.  1.
        1   -1    0    0  501    0  0.00000000000E+00  0.00000000000E+00 -0.14283174423E+04  0.14283174424E+04  0.50400001928E-02 0. -1.
    10030    2    1    2    0    0  0.00000000000E+00  0.00000000000E+00 -0.12855717652E+04  0.15710631196E+04  0.90307505899E+03 0.  0.
        3    1    3    3  502    0 -0.11314816978E+03  0.42034208287E+03 -0.85151981182E+03  0.95633465642E+03  0.10100000352E+00 0. -1.
       -3    1    3    3    0  502  0.11314816978E+03 -0.42034208287E+03 -0.43405195340E+03  0.61472846315E+03  0.10100000352E+00 0.  1.
</event>
<event>
 5   0  0.3943549E-03  0.8937769E+03  0.7818609E-02  0.9433394E-01
       -1   -1    0    0    0  501  0.00000000000E+00  0.00000000000E+00  0.30825964681E+03  0.30825964685E+03  0.50400001928E-02 0.  1.
        1   -1    0    0  501    0  0.00000000000E+00  0.00000000000E+00 -0.64786065193E+03  0.64786065195E+03  0.50400001928E-02 0. -1.
    10030    2    1    2    0    0  0.00000000000E+00  0.00000000000E+00 -0.33960100512E+03  0.95612029881E+03  0.89377692022E+03 0.  0.
        3    1    3    3  502    0 -0.20404742196E+03 -0.31129599327E+03 -0.43437511533E+03  0.57203347529E+03  0.10100000352E+00 0. -1.
       -3    1    3    3    0  502  0.20404742196E+03  0.31129599327E+03  0.94774110209E+02  0.38408682352E+03  0.10100000352E+00 0.  1.
</event>
<event>
 5   0  0.6609191E-03  0.9405863E+03  0.7818609E-02  0.9376222E-01
       -2   -1    0    0    0  501  0.00000000000E+00  0.00000000000E+00  0.19475648201E+04  0.19475648201E+04  0.25500000920E-02 0.  1.
        2   -1    0    0  501    0  0.00000000000E+00  0.00000000000E+00 -0.11356521910E+03  0.11356521913E+03  0.25500000920E-02 0. -1.
    10030    2    1    2    0    0  0.00000000000E+00  0.00000000000E+00  0.18339996010E+04  0.20611300392E+04  0.94058625449E+03 0.  0.
        2    1    3    3  502    0  0.42536225313E+03  0.19760883136E+03  0.84130137532E+03  0.96320833715E+03  0.25500000920E-02 0.  1.
       -2    1    3    3    0  502 -0.42536225313E+03 -0.19760883136E+03  0.99269822565E+03  0.10979217021E+04  0.25500000920E-02 0. -1.
</event>
<event>
 5   0  0.3794006E-03  0.8987584E+03  0.7818609E-02  0.9427135E-01
       -1   -1    0    0    0  501  0.00000000000E+00  0.00000000000E+00  0.37392206607E+03  0.37392206610E+03  0.50400001928E-02 0. -1.
        1   -1    0    0  501    0  0.00000000000E+00  0.00000000000E+00 -0.54006353705E+03  0.54006353707E+03  0.50400001928E-02 0.  1.
    10030    2    1    2    0    0  0.00000000000E+00  0.00000000000E+00 -0.16614147098E+03  0.91398560317E+03  0.89875841828E+03 0.  0.
        5    1    3    3  502    0  0.71166693638E+02  0.32290430517E+03  0.22636681881E+03  0.40074420175E+03  0.46999998093E+01 0. -1.
       -5    1    3    3    0  502 -0.71166693638E+02 -0.32290430517E+03 -0.39250828979E+03  0.51324140142E+03  0.46999998093E+01 0.  1.
</event>
<event>
 5   0  0.3927993E-03  0.8993867E+03  0.7818609E-02  0.9426348E-01
       -1   -1    0    0    0  501  0.00000000000E+00  0.00000000000E+00  0.28829164893E+03  0.28829164897E+03  0.50400001928E-02 0.  1.
        1   -1    0    0  501    0  0.00000000000E+00  0.00000000000E+00 -0.70145669228E+03  0.70145669229E+03  0.50400001928E-02 0. -1.
    10030    2    1    2    0    0  0.00000000000E+00  0.00000000000E+00 -0.41316504335E+03  0.98974834127E+03  0.89938669437E+03 0.  0.
        2    1    3    3  502    0 -0.77521529233E+02 -0.42710659940E+03 -0.33583261381E+03  0.54882891619E+03  0.25500000920E-02 0.  1.
       -2    1    3    3    0  502  0.77521529233E+02  0.42710659940E+03 -0.77332429534E+02  0.44091942508E+03  0.25500000920E-02 0. -1.
</event>
<event>
 5   0  0.3943549E-03  0.9021473E+03  0.7818609E-02  0.9422901E-01
        1   -1    0    0  501    0  0.00000000000E+00  0.00000000000E+00  0.27147818396E+03  0.27147818400E+03  0.50400001928E-02 0. -1.
       -1   -1    0    0    0  501  0.00000000000E+00  0.00000000000E+00 -0.74947984157E+03  0.74947984158E+03  0.50400001928E-02 0.  1.
    10030    2    1    2    0    0  0.00000000000E+00  0.00000000000E+00 -0.47800165761E+03  0.10209580256E+04  0.90214727474E+03 0.  0.
        3    1    3    3  502    0  0.83777998007E+02  0.34748448287E+03 -0.55037856517E+03  0.65626274767E+03  0.10100000352E+00 0.  1.
       -3    1    3    3    0  502 -0.83777998007E+02 -0.34748448287E+03  0.72376907558E+02  0.36469527791E+03  0.10100000352E+00 0. -1.
</event>
<event>
 5   0  0.6863405E-03  0.9005806E+03  0.7818609E-02  0.9424856E-01
        2   -1    0    0  501    0  0.00000000000E+00  0.00000000000E+00  0.10625018481E+04  0.10625018481E+04  0.25500000920E-02 0.  1.
       -2   -1    0    0    0  501  0.00000000000E+00  0.00000000000E+00 -0.19083390316E+03  0.19083390318E+03  0.25500000920E-02 0. -1.
    10030    2    1    2    0    0  0.00000000000E+00  0.00000000000E+00  0.87166794491E+03  0.12533357513E+04  0.90058064558E+03 0.  0.
        1    1    3    3  502    0  0.40158464197E+03  0.64745738641E+02  0.70461228607E+03  0.81359738756E+03  0.50400001928E-02 0.  1.
       -1    1    3    3    0  502 -0.40158464197E+03 -0.64745738641E+02  0.16705565884E+03  0.43973836370E+03  0.50400001928E-02 0. -1.
</event>
<event>
 5   0  0.6609191E-03  0.9023860E+03  0.7818609E-02  0.9422604E-01
        2   -1    0    0  501    0  0.00000000000E+00  0.00000000000E+00  0.99164670781E+03  0.99164670781E+03  0.25500000920E-02 0.  1.
       -2   -1    0    0    0  501  0.00000000000E+00  0.00000000000E+00 -0.20528994974E+03  0.20528994976E+03  0.25500000920E-02 0. -1.
    10030    2    1    2    0    0  0.00000000000E+00  0.00000000000E+00  0.78635675806E+03  0.11969366576E+04  0.90238595472E+03 0.  0.
        2    1    3    3  502    0 -0.12803136477E+03  0.32746315819E+03  0.76822966756E+03  0.84486742893E+03  0.25500000920E-02 0.  1.
       -2    1    3    3    0  502  0.12803136477E+03 -0.32746315819E+03  0.18127090497E+02  0.35206922864E+03  0.25500000920E-02 0. -1.
</event>
<event>
 5   0  0.3943549E-03  0.9002376E+03  0.7818609E-02  0.9425284E-01
       -1   -1    0    0    0  501  0.00000000000E+00  0.00000000000E+00  0.23975275511E+03  0.23975275517E+03  0.50400001928E-02 0. -1.
        1   -1    0    0  501    0  0.00000000000E+00  0.00000000000E+00 -0.84506610074E+03  0.84506610076E+03  0.50400001928E-02 0.  1.
    10030    2    1    2    0    0  0.00000000000E+00  0.00000000000E+00 -0.60531334563E+03  0.10848188559E+04  0.90023758185E+03 0.  0.
        3    1    3    3  502    0 -0.40117419031E+03  0.19392714378E+03 -0.37942464373E+03  0.58524485348E+03  0.10100000352E+00 0.  1.
       -3    1    3    3    0  502  0.40117419031E+03 -0.19392714378E+03 -0.22588870190E+03  0.49957400244E+03  0.10100000352E+00 0. -1.
</event>
<event>
 5   0  0.6863405E-03  0.8548644E+03  0.7818609E-02  0.9483831E-01
       -2   -1    0    0    0  501  0.00000000000E+00  0.00000000000E+00  0.77361360800E+02  0.77361360842E+02  0.25500000920E-02 0. -1.
        2   -1    0    0  501    0  0.00000000000E+00  0.00000000000E+00 -0.23616216726E+04  0.23616216726E+04  0.25500000920E-02 0.  1.
    10030    2    1    2    0    0  0.00000000000E+00  0.00000000000E+00 -0.22842603118E+04  0.24389830335E+04  0.85486435495E+03 0.  0.
        1    1    3    3  502    0 -0.21720886467E+03 -0.18591007428E+02 -0.93176101017E+02  0.23708037092E+03  0.50400001928E-02 0. -1.
       -1    1    3    3    0  502  0.21720886467E+03  0.18591007428E+02 -0.21910842108E+04  0.22019026626E+04  0.50400001928E-02 0.  1.
</event>
<event>
 5   0  0.3969536E-03  0.9011499E+03  0.7818609E-02  0.9424145E-01
        1   -1    0    0  501    0  0.00000000000E+00  0.00000000000E+00  0.11809338759E+04  0.11809338759E+04  0.50400001928E-02 0.  1.
       -1   -1    0    0    0  501  0.00000000000E+00  0.00000000000E+00 -0.17191292332E+03  0.17191292339E+03  0.50400001928E-02 0. -1.
    10030    2    1    2    0    0  0.00000000000E+00  0.00000000000E+00  0.10090209525E+04  0.13528467993E+04  0.90114992072E+03 0.  0.
        1    1    3    3  502    0  0.26140875068E+03  0.13771839766E+03 -0.61708414872E+01  0.29553167563E+03  0.50400001928E-02 0. -1.
       -1    1    3    3    0  502 -0.26140875068E+03 -0.13771839766E+03  0.10151917940E+04  0.10573151236E+04  0.50400001928E-02 0.  1.
</event>
<event>
 5   0  0.3943549E-03  0.8981941E+03  0.7818609E-02  0.9427842E-01
       -1   -1    0    0    0  501  0.00000000000E+00  0.00000000000E+00  0.26900363725E+03  0.26900363730E+03  0.50400001928E-02 0. -1.
        1   -1    0    0  501    0  0.00000000000E+00  0.00000000000E+00 -0.74976005742E+03  0.74976005743E+03  0.50400001928E-02 0.  1.
    10030    2    1    2    0    0  0.00000000000E+00  0.00000000000E+00 -0.48075642016E+03  0.10187636947E+04  0.89819414949E+03 0.  0.
        3    1    3    3  502    0 -0.36814672810E+03  0.16610955010E+03 -0.46311554316E+03  0.61449199552E+03  0.10100000352E+00 0.  1.
       -3    1    3    3    0  502  0.36814672810E+03 -0.16610955010E+03 -0.17640877004E+02  0.40427169921E+03  0.10100000352E+00 0. -1.
</event>
<event>
 5   0  0.6534628E-03  0.8890018E+03  0.7818609E-02  0.9439435E-01
        2   -1    0    0  501    0  0.00000000000E+00  0.00000000000E+00  0.60813817118E+03  0.60813817119E+03  0.25500000920E-02 0. -1.
       -2   -1    0    0    0  501  0.00000000000E+00  0.00000000000E+00 -0.32489500749E+03  0.32489500750E+03  0.25500000920E-02 0.  1.
    10030    2    1    2    0    0  0.00000000000E+00  0.00000000000E+00  0.28324316370E+03  0.93303317869E+03  0.88900181257E+03 0.  0.
        4    1    3    3  502    0 -0.78814269380E+02  0.66199698978E+02  0.59545684330E+03  0.60428846947E+03  0.12699999809E+01 0. -1.
       -4    1    3    3    0  502  0.78814269380E+02 -0.66199698978E+02 -0.31221367961E+03  0.32874470921E+03  0.12699999809E+01 0.  1.
</event>
<event>
 5   0  0.2560250E-03  0.9114225E+03  0.7818609E-02  0.9411414E-01
        4   -1    0    0  501    0  0.00000000000E+00  0.00000000000E+00  0.41883500373E+03  0.41883692918E+03  0.12699999809E+01 0. -1.
       -4   -1    0    0    0  501  0.00000000000E+00  0.00000000000E+00 -0.49583035954E+03  0.49583198600E+03  0.12699999809E+01 0.  1.
    10030    2    1    2    0    0  0.00000000000E+00  0.00000000000E+00 -0.76995355812E+02  0.91466891518E+03  0.91142248139E+03 0.  0.
        4    1    3    3  502    0 -0.33361298875E+03  0.24474994970E+03  0.15315626917E+03  0.44120133707E+03  0.12699999809E+01 0.  1.
       -4    1    3    3    0  502  0.33361298875E+03 -0.24474994970E+03 -0.23015162498E+03  0.47346757811E+03  0.12699999809E+01 0. -1.
</event>
<event>
 5   0  0.2560250E-03  0.9185182E+03  0.7818609E-02  0.9402724E-01
       -3   -1    0    0    0  501  0.00000000000E+00  0.00000000000E+00  0.43181961575E+03  0.43181962756E+03  0.10100000352E+00 0.  1.
        3   -1    0    0  501    0  0.00000000000E+00  0.00000000000E+00 -0.48844221570E+03  0.48844222614E+03  0.10100000352E+00 0. -1.
    10030    2    1    2    0    0  0.00000000000E+00  0.00000000000E+00 -0.56622599945E+02  0.92026185370E+03  0.91851824182E+03 0.  0.
        3    1    3    3  502    0 -0.16747423253E+03 -0.26922025943E+03  0.30457197047E+03  0.43964902143E+03  0.10100000352E+00 0.  1.
       -3    1    3    3    0  502  0.16747423253E+03  0.26922025943E+03 -0.36119457041E+03  0.48061283227E+03  0.10100000352E+00 0. -1.
</event>
<event>
 5   0  0.6863405E-03  0.8848218E+03  0.7818609E-02  0.9444756E-01
       -2   -1    0    0    0  501  0.00000000000E+00  0.00000000000E+00  0.17219706312E+03  0.17219706314E+03  0.25500000920E-02 0.  1.
        2   -1    0    0  501    0  0.00000000000E+00  0.00000000000E+00 -0.11366476281E+04  0.11366476281E+04  0.25500000920E-02 0. -1.
    10030    2    1    2    0    0  0.00000000000E+00  0.00000000000E+00 -0.96445056493E+03  0.13088446912E+04  0.88482175237E+03 0.  0.
        1    1    3    3  502    0 -0.34951883224E+03  0.87273841321E+02 -0.10235907877E+03  0.37450970415E+03  0.50400001928E-02 0.  1.
       -1    1    3    3    0  502  0.34951883224E+03 -0.87273841321E+02 -0.86209148616E+03  0.93433498704E+03  0.50400001928E-02 0. -1.
</event>
<event>
 5   0  0.6724773E-03  0.8970264E+03  0.7818609E-02  0.9429306E-01
       -2   -1    0    0    0  501  0.00000000000E+00  0.00000000000E+00  0.15751382559E+03  0.15751382561E+03  0.25500000920E-02 0.  1.
        2   -1    0    0  501    0  0.00000000000E+00  0.00000000000E+00 -0.12771203126E+04  0.12771203126E+04  0.25500000920E-02 0. -1.
    10030    2    1    2    0    0  0.00000000000E+00  0.00000000000E+00 -0.11196064870E+04  0.14346341382E+04  0.89702643484E+03 0.  0.
        5    1    3    3  502    0  0.40314567448E+03  0.11572826424E+03 -0.30580517336E+03  0.51909378734E+03  0.46999998093E+01 0.  1.
       -5    1    3    3    0  502 -0.40314567448E+03 -0.11572826424E+03 -0.81380131366E+03  0.91554035089E+03  0.46999998093E+01 0. -1.
</event>
<event>
 5   0  0.6534628E-03  0.8998553E+03  0.7818609E-02  0.9425762E-01
        2   -1    0    0  501    0  0.00000000000E+00  0.00000000000E+00  0.73814734088E+03  0.73814734089E+03  0.25500000920E-02 0. -1.
       -2   -1    0    0    0  501  0.00000000000E+00  0.00000000000E+00 -0.27424725538E+03  0.27424725539E+03  0.25500000920E-02 0.  1.
    10030    2    1    2    0    0  0.00000000000E+00  0.00000000000E+00  0.46390008551E+03  0.10123945963E+04  0.89985528238E+03 0.  0.
        4    1    3    3  502    0 -0.14192039904E+03  0.39375962077E+03  0.46245557341E+02  0.42110367261E+03  0.12699999809E+01 0.  1.
       -4    1    3    3    0  502  0.14192039904E+03 -0.39375962077E+03  0.41765452816E+03  0.59129092366E+03  0.12699999809E+01 0. -1.
</event>
<event>
 5   0  0.3943549E-03  0.9051484E+03  0.7818609E-02  0.9419168E-01
       -1   -1    0    0    0  501  0.00000000000E+00  0.00000000000E+00  0.24033245937E+03  0.24033245942E+03  0.50400001928E-02 0.  1.
        1   -1    0    0  501    0  0.00000000000E+00  0.00000000000E+00 -0.85225026757E+03  0.85225026759E+03  0.50400001928E-02 0. -1.
    10030    2    1    2    0    0  0.00000000000E+00  0.00000000000E+00 -0.61191780820E+03  0.10925827270E+04  0.90514839190E+03 0.  0.
        3    1    3    3  502    0  0.14127856965E+02  0.15715135819E+03 -0.81797429234E+03  0.83305347899E+03  0.10100000352E+00 0. -1.
       -3    1    3    3    0  502 -0.14127856965E+02 -0.15715135819E+03  0.20605648414E+03  0.25952924802E+03  0.10100000352E+00 0.  1.
</event>
<event>
 5   0  0.3943549E-03  0.9072594E+03  0.7818609E-02  0.9416552E-01
       -1   -1    0    0    0  501  0.00000000000E+00  0.00000000000E+00  0.42335463105E+03  0.42335463108E+03  0.50400001928E-02 0. -1.
        1   -1    0    0  501    0  0.00000000000E+00  0.00000000000E+00 -0.48606977797E+03  0.48606977799E+03  0.50400001928E-02 0.  1.
    10030    2    1    2    0    0  0.00000000000E+00  0.00000000000E+00 -0.62715146919E+02  0.90942440907E+03  0.90725937094E+03 0.  0.
        3    1    3    3  502    0  0.31049794242E+03 -0.28195418087E+03  0.14189222524E+03  0.44276466226E+03  0.10100000352E+00 0. -1.
       -3    1    3    3    0  502 -0.31049794242E+03  0.28195418087E+03 -0.20460737216E+03  0.46665974682E+03  0.10100000352E+00 0.  1.
</event>
<event>
 5   0  0.6524705E-03  0.8956102E+03  0.7818609E-02  0.9431086E-01
       -2   -1    0    0    0  501  0.00000000000E+00  0.00000000000E+00  0.15260078364E+03  0.15260078367E+03  0.25500000920E-02 0.  1.
        2   -1    0    0  501    0  0.00000000000E+00  0.00000000000E+00 -0.13140785320E+04  0.13140785320E+04  0.25500000920E-02 0. -1.
    10030    2    1    2    0    0  0.00000000000E+00  0.00000000000E+00 -0.11614777484E+04  0.14666793157E+04  0.89561021382E+03 0.  0.
        3    1    3    3  502    0  0.33172301333E+03  0.26231685475E+03 -0.33961684424E+03  0.54239275525E+03  0.10100000352E+00 0.  1.
       -3    1    3    3    0  502 -0.33172301333E+03 -0.26231685475E+03 -0.82186090415E+03  0.92428656045E+03  0.10100000352E+00 0. -1.
</event>
<event>
 5   0  0.6534628E-03  0.9022240E+03  0.7818609E-02  0.9422806E-01
        2   -1    0    0  501    0  0.00000000000E+00  0.00000000000E+00  0.33045220382E+03  0.33045220383E+03  0.25500000920E-02 0.  1.
       -2   -1    0    0    0  501  0.00000000000E+00  0.00000000000E+00 -0.61582899795E+03  0.61582899796E+03  0.25500000920E-02 0. -1.
    10030    2    1    2    0    0  0.00000000000E+00  0.00000000000E+00 -0.28537679413E+03  0.94628120179E+03  0.90222402884E+03 0.  0.
        4    1    3    3  502    0 -0.30541963818E+03  0.33195907963E+03 -0.13771880195E+03  0.47164188453E+03  0.12699999809E+01 0. -1.
       -4    1    3    3    0  502  0.30541963818E+03 -0.33195907963E+03 -0.14765799218E+03  0.47463931726E+03  0.12699999809E+01 0.  1.
</event>
<event>
 5   0  0.3927993E-03  0.9008709E+03  0.7818609E-02  0.9424493E-01
       -1   -1    0    0    0  501  0.00000000000E+00  0.00000000000E+00  0.16387809806E+03  0.16387809814E+03  0.50400001928E-02 0. -1.
        1   -1    0    0  501    0  0.00000000000E+00  0.00000000000E+00 -0.12380672084E+04  0.12380672084E+04  0.50400001928E-02 0.  1.
    10030    2    1    2    0    0  0.00000000000E+00  0.00000000000E+00 -0.10741891103E+04  0.14019453066E+04  0.90087091072E+03 0.  0.
        2    1    3    3  502    0  0.38238211638E+02 -0.28506905771E+02  0.15993740612E+03  0.16689750863E+03  0.25500000920E-02 0. -1.
       -2    1    3    3    0  502 -0.38238211638E+02  0.28506905771E+02 -0.12341265165E+04  0.12350477979E+04  0.25500000920E-02 0.  1.
</event>
<event>
 5   0  0.3969536E-03  0.8910354E+03  0.7818609E-02  0.9436858E-01
        1   -1    0    0  501    0  0.00000000000E+00  0.00000000000E+00  0.70489342982E+03  0.70489342984E+03  0.50400001928E-02 0.  1.
       -1   -1    0    0    0  501  0.00000000000E+00  0.00000000000E+00 -0.28158300899E+03  0.28158300903E+03  0.50400001928E-02 0. -1.
    10030    2    1    2    0    0  0.00000000000E+00  0.00000000000E+00  0.42331042083E+03  0.98647643888E+03  0.89103538205E+03 0.  0.
        1    1    3    3  502    0  0.19520988319E+03 -0.10202437754E+03 -0.21708495083E+03  0.30926000067E+03  0.50400001928E-02 0. -1.
       -1    1    3    3    0  502 -0.19520988319E+03  0.10202437754E+03  0.64039537166E+03  0.67721643821E+03  0.50400001928E-02 0.  1.
</event>
<event>
 5   0  0.3927993E-03  0.9035402E+03  0.7818609E-02  0.9421167E-01
       -1   -1    0    0    0  501  0.00000000000E+00  0.00000000000E+00  0.34315591252E+03  0.34315591256E+03  0.50400001928E-02 0. -1.
        1   -1    0    0  501    0  0.00000000000E+00  0.00000000000E+00 -0.59476242775E+03  0.59476242777E+03  0.50400001928E-02 0.  1.
    10030    2    1    2    0    0  0.00000000000E+00  0.00000000000E+00 -0.25160651523E+03  0.93791834033E+03  0.90354024516E+03 0.  0.
        2    1    3    3  502    0  0.16494145723E+03  0.14185299836E+03 -0.53680780982E+03  0.57921548852E+03  0.25500000920E-02 0.  1.
       -2    1    3    3    0  502 -0.16494145723E+03 -0.14185299836E+03  0.28520129459E+03  0.35870285181E+03  0.25500000920E-02 0. -1.
</event>
<event>
 5   0  0.2560250E-03  0.8969785E+03  0.7818609E-02  0.9429366E-01
       -3   -1    0    0    0  501  0.00000000000E+00  0.00000000000E+00  0.53197727014E+03  0.53197727973E+03  0.10100000352E+00 0. -1.
        3   -1    0    0  501    0  0.00000000000E+00  0.00000000000E+00 -0.37810373859E+03  0.37810375208E+03  0.10100000352E+00 0.  1.
    10030    2    1    2    0    0  0.00000000000E+00  0.00000000000E+00  0.15387353155E+03  0.91008103181E+03  0.89697849514E+03 0.  0.
        5    1    3    3  502    0  0.16238289478E+03  0.20504903052E+03 -0.29267457156E+03  0.39254783691E+03  0.46999998093E+01 0.  1.
       -5    1    3    3    0  502 -0.16238289478E+03 -0.20504903052E+03  0.44654810310E+03  0.51753319489E+03  0.46999998093E+01 0. -1.
</event>
<event>
 5   0  0.6534628E-03  0.9058134E+03  0.7818609E-02  0.9418343E-01
       -2   -1    0    0    0  501  0.00000000000E+00  0.00000000000E+00  0.33837899880E+03  0.33837899881E+03  0.25500000920E-02 0.  1.
        2   -1    0    0  501    0  0.00000000000E+00  0.00000000000E+00 -0.60619747212E+03  0.60619747213E+03  0.25500000920E-02 0. -1.
    10030    2    1    2    0    0  0.00000000000E+00  0.00000000000E+00 -0.26781847332E+03  0.94457647093E+03  0.90581343266E+03 0.  0.
        4    1    3    3  502    0 -0.10830216248E+03 -0.39979556847E+03 -0.32493418797E+03  0.52645008726E+03  0.12699999809E+01 0. -1.
       -4    1    3    3    0  502  0.10830216248E+03  0.39979556847E+03  0.57115714651E+02  0.41812638367E+03  0.12699999809E+01 0.  1.
</event>
<event>
 5   0  0.6534628E-03  0.9152166E+03  0.7818609E-02  0.9406757E-01
       -2   -1    0    0    0  501  0.00000000000E+00  0.00000000000E+00  0.32700836561E+03  0.32700836562E+03  0.25500000920E-02 0.  1.
        2   -1    0    0  501    0  0.00000000000E+00  0.00000000000E+00 -0.64036703502E+03  0.64036703503E+03  0.25500000920E-02 0. -1.
    10030    2    1    2    0    0  0.00000000000E+00  0.00000000000E+00 -0.31335866942E+03  0.96737540064E+03  0.91521664652E+03 0.  0.
        4    1    3    3  502    0 -0.97130146969E+02  0.74716284265E+02  0.30934083176E+03  0.33273135061E+03  0.12699999809E+01 0.  1.
       -4    1    3    3    0  502  0.97130146969E+02 -0.74716284265E+02 -0.62269950117E+03  0.63464405004E+03  0.12699999809E+01 0. -1.
</event>
<event>
 5   0  0.6724773E-03  0.8953254E+03  0.7818609E-02  0.9431444E-01
       -2   -1    0    0    0  501  0.00000000000E+00  0.00000000000E+00  0.21986518570E+03  0.21986518572E+03  0.25500000920E-02 0.  1.
        2   -1    0    0  501    0  0.00000000000E+00  0.00000000000E+00 -0.91147630972E+03  0.91147630973E+03  0.25500000920E-02 0. -1.
    10030    2    1    2    0    0  0.00000000000E+00  0.00000000000E+00 -0.69161112402E+03  0.11313414954E+04  0.89532543382E+03 0.  0.
        5    1    3    3  502    0  0.10891653940E+03  0.87380716236E+02  0.19160971681E+03  0.23713830500E+03  0.46999998093E+01 0.  1.
       -5    1    3    3    0  502 -0.10891653940E+03 -0.87380716236E+02 -0.88322084083E+03  0.89420319045E+03  0.46999998093E+01 0. -1.
</event>
<event>
 5   0  0.3943549E-03  0.8983206E+03  0.7818609E-02  0.9427683E-01
        1   -1    0    0  501    0  0.00000000000E+00  0.00000000000E+00  0.96614079531E+03  0.96614079533E+03  0.50400001928E-02 0. -1.
       -1   -1    0    0    0  501  0.00000000000E+00  0.00000000000E+00 -0.20881531794E+03  0.20881531800E+03  0.50400001928E-02 0.  1.
    10030    2    1    2    0    0  0.00000000000E+00  0.00000000000E+00  0.75732547738E+03  0.11749561133E+04  0.89832064963E+03 0.  0.
        3    1    3    3  502    0 -0.22238732229E+02  0.40551854047E+03  0.62958806369E+03  0.74921357970E+03  0.10100000352E+00 0.  1.
       -3    1    3    3    0  502  0.22238732229E+02 -0.40551854047E+03  0.12773741369E+03  0.42574253362E+03  0.10100000352E+00 0. -1.
</event>
<event>
 5   0  0.3927993E-03  0.9028666E+03  0.7818609E-02  0.9422005E-01
        1   -1    0    0  501    0  0.00000000000E+00  0.00000000000E+00  0.40146470279E+03  0.40146470282E+03  0.50400001928E-02 0.  1.
       -1   -1    0    0    0  501  0.00000000000E+00  0.00000000000E+00 -0.50762124288E+03  0.50762124291E+03  0.50400001928E-02 0. -1.
    10030    2    1    2    0    0  0.00000000000E+00  0.00000000000E+00 -0.10615654010E+03  0.90908594573E+03  0.90286657138E+03 0.  0.
        2    1    3    3  502    0 -0.24141347874E+02 -0.22775263670E+03 -0.44477981438E+03  0.50028307136E+03  0.25500000920E-02 0. -1.
       -2    1    3    3    0  502  0.24141347874E+02  0.22775263670E+03  0.33862327428E+03  0.40880287437E+03  0.25500000920E-02 0.  1.
</event>
<event>
 5   0  0.6863405E-03  0.9369720E+03  0.7818609E-02  0.9380509E-01
        2   -1    0    0  501    0  0.00000000000E+00  0.00000000000E+00  0.98000798978E+03  0.98000798979E+03  0.25500000920E-02 0.  1.
       -2   -1    0    0    0  501  0.00000000000E+00  0.00000000000E+00 -0.22395645882E+03  0.22395645884E+03  0.25500000920E-02 0. -1.
    10030    2    1    2    0    0  0.00000000000E+00  0.00000000000E+00  0.75605153096E+03  0.12039644486E+04  0.93697197187E+03 0.  0.
        1    1    3    3  502    0 -0.12515310386E+03  0.11147999397E+03 -0.18411418346E+03  0.24897614552E+03  0.50400001928E-02 0. -1.
       -1    1    3    3    0  502  0.12515310386E+03 -0.11147999397E+03  0.94016571442E+03  0.95498830310E+03  0.50400001928E-02 0.  1.
</event>
<event>
 5   0  0.3998066E-03  0.8957782E+03  0.7818609E-02  0.9430874E-01
       -1   -1    0    0    0  501  0.00000000000E+00  0.00000000000E+00  0.16971269781E+04  0.16971269781E+04  0.50400001928E-02 0. -1.
        1   -1    0    0  501    0  0.00000000000E+00  0.00000000000E+00 -0.11820249173E+03  0.11820249184E+03  0.50400001928E-02 0.  1.
    10030    2    1    2    0    0  0.00000000000E+00  0.00000000000E+00  0.15789244863E+04  0.18153294699E+04  0.89577818168E+03 0.  0.
        4    1    3    3  502    0 -0.20992351888E+03  0.37671624178E+03  0.54442681839E+03  0.69453954825E+03  0.12699999809E+01 0.  1.
       -4    1    3    3    0  502  0.20992351888E+03 -0.37671624178E+03  0.10344976679E+04  0.11207899216E+04  0.12699999809E+01 0. -1.
</event>
<event>
 5   0  0.6534628E-03  0.9256286E+03  0.7818609E-02  0.9394100E-01
        2   -1    0    0  501    0  0.00000000000E+00  0.00000000000E+00  0.12552398512E+04  0.12552398512E+04  0.25500000920E-02 0. -1.
       -2   -1    0    0    0  501  0.00000000000E+00  0.00000000000E+00 -0.17064235183E+03  0.17064235184E+03  0.25500000920E-02 0.  1.
    10030    2    1    2    0    0  0.00000000000E+00  0.00000000000E+00  0.10845974994E+04  0.14258822030E+04  0.92562860874E+03 0.  0.
        4    1    3    3  502    0 -0.21759979779E+03 -0.34851120719E+03  0.87047455573E+03  0.96256807480E+03  0.12699999809E+01 0.  1.
       -4    1    3    3    0  502  0.21759979779E+03  0.34851120719E+03  0.21412294363E+03  0.46331412824E+03  0.12699999809E+01 0. -1.
</event>
<event>
 5   0  0.2560250E-03  0.8888329E+03  0.7818609E-02  0.9439649E-01
        3   -1    0    0  501    0  0.00000000000E+00  0.00000000000E+00  0.43163793531E+03  0.43163794712E+03  0.10100000352E+00 0.  1.
       -3   -1    0    0    0  501  0.00000000000E+00  0.00000000000E+00 -0.45757328386E+03  0.45757329501E+03  0.10100000352E+00 0. -1.
    10030    2    1    2    0    0  0.00000000000E+00  0.00000000000E+00 -0.25935348556E+02  0.88921124213E+03  0.88883293752E+03 0.  0.
        1    1    3    3  502    0  0.23614083284E+02 -0.18742507296E+03 -0.41540772169E+03  0.45634346513E+03  0.50400001928E-02 0. -1.
       -1    1    3    3    0  502 -0.23614083284E+02  0.18742507296E+03  0.38947237313E+03  0.43286777700E+03  0.50400001928E-02 0.  1.
</event>
<event>
 5   0  0.6609191E-03  0.9132243E+03  0.7818609E-02  0.9409200E-01
       -2   -1    0    0    0  501  0.00000000000E+00  0.00000000000E+00  0.58881040979E+03  0.58881040979E+03  0.25500000920E-02 0. -1.
        2   -1    0    0  501    0  0.00000000000E+00  0.00000000000E+00 -0.35409474607E+03  0.35409474607E+03  0.25500000920E-02 0.  1.
    10030    2    1    2    0    0  0.00000000000E+00  0.00000000000E+00  0.23471566372E+03  0.94290515587E+03  0.91322433726E+03 0.  0.
        2    1    3    3  502    0 -0.21097562078E+03 -0.25570010714E+03  0.44157208824E+03  0.55215864248E+03  0.25500000920E-02 0. -1.
       -2    1    3    3    0  502  0.21097562078E+03  0.25570010714E+03 -0.20685642451E+03  0.39074651338E+03  0.25500000920E-02 0.  1.
</event>
<event>
 5   0  0.3998066E-03  0.9019548E+03  0.7818609E-02  0.9423141E-01
       -1   -1    0    0    0  501  0.00000000000E+00  0.00000000000E+00  0.19027732268E+03  0.19027732275E+03  0.50400001928E-02 0. -1.
        1   -1    0    0  501    0  0.00000000000E+00  0.00000000000E+00 -0.10688642525E+04  0.10688642525E+04  0.50400001928E-02 0.  1.
    10030    2    1    2    0    0  0.00000000000E+00  0.00000000000E+00 -0.87858692981E+03  0.12591415753E+04  0.90195482886E+03 0.  0.
        4    1    3    3  502    0 -0.22084261585E+03  0.34119821282E+03 -0.16647598668E+03  0.43920786474E+03  0.12699999809E+01 0. -1.
       -4    1    3    3    0  502  0.22084261585E+03 -0.34119821282E+03 -0.71211094313E+03  0.81993371051E+03  0.12699999809E+01 0.  1.
</event>
<event>
 5   0  0.6534628E-03  0.9050240E+03  0.7818609E-02  0.9419323E-01
        2   -1    0    0  501    0  0.00000000000E+00  0.00000000000E+00  0.16247828633E+04  0.16247828633E+04  0.25500000920E-02 0.  1.
       -2   -1    0    0    0  501  0.00000000000E+00  0.00000000000E+00 -0.12602737336E+03  0.12602737339E+03  0.25500000920E-02 0. -1.
    10030    2    1    2    0    0  0.00000000000E+00  0.00000000000E+00  0.14987554899E+04  0.17508102367E+04  0.90502401419E+03 0.  0.
        4    1    3    3  502    0 -0.18216842278E+03 -0.53006341659E+02 -0.45366220510E+02  0.19507617327E+03  0.12699999809E+01 0. -1.
       -4    1    3    3    0  502  0.18216842278E+03  0.53006341659E+02  0.15441217104E+04  0.15557340634E+04  0.12699999809E+01 0.  1.
</event>
<event>
 5   0  0.3943549E-03  0.8967645E+03  0.7818609E-02  0.9429635E-01
        1   -1    0    0  501    0  0.00000000000E+00  0.00000000000E+00  0.14110803965E+04  0.14110803965E+04  0.50400001928E-02 0.  1.
       -1   -1    0    0    0  501  0.00000000000E+00  0.00000000000E+00 -0.14247710584E+03  0.14247710593E+03  0.50400001928E-02 0. -1.
    10030    2    1    2    0    0  0.00000000000E+00  0.00000000000E+00  0.12686032906E+04  0.15535575024E+04  0.89676452000E+03 0.  0.
        3    1    3    3  502    0 -0.10068629659E+03 -0.41707370396E+03  0.40870023305E+03  0.59255725086E+03  0.10100000352E+00 0.  1.
       -3    1    3    3    0  502  0.10068629659E+03  0.41707370396E+03  0.85990305758E+03  0.96100025156E+03  0.10100000352E+00 0. -1.
</event>
<event>
 5   0  0.6724773E-03  0.8435606E+03  0.7818609E-02  0.9499021E-01
        2   -1    0    0  501    0  0.00000000000E+00  0.00000000000E+00  0.35383508762E+03  0.35383508763E+03  0.25500000920E-02 0.  1.
       -2   -1    0    0    0  501  0.00000000000E+00  0.00000000000E+00 -0.50277273439E+03  0.50277273439E+03  0.25500000920E-02 0. -1.
    10030    2    1    2    0    0  0.00000000000E+00  0.00000000000E+00 -0.14893764677E+03  0.85660782202E+03  0.84356063097E+03 0.  0.
        5    1    3    3  502    0 -0.40843833748E+03 -0.10228090995E+03 -0.99202986600E+02  0.43260441816E+03  0.46999998093E+01 0. -1.
       -5    1    3    3    0  502  0.40843833748E+03  0.10228090995E+03 -0.49734660165E+02  0.42400340386E+03  0.46999998093E+01 0.  1.
</event>
<event>
 5   0  0.6724773E-03  0.9363582E+03  0.7818609E-02  0.9381239E-01
        2   -1    0    0  501    0  0.00000000000E+00  0.00000000000E+00  0.48088484867E+03  0.48088484868E+03  0.25500000920E-02 0.  1.
       -2   -1    0    0    0  501  0.00000000000E+00  0.00000000000E+00 -0.45580902263E+03  0.45580902264E+03  0.25500000920E-02 0. -1.
    10030    2    1    2    0    0  0.00000000000E+00  0.00000000000E+00  0.25075826039E+02  0.93669387132E+03  0.93635816412E+03 0.  0.
        5    1    3    3  502    0  0.44312379897E+03 -0.96589580822E+02  0.12868860410E+03  0.47145635552E+03  0.46999998093E+01 0.  1.
       -5    1    3    3    0  502 -0.44312379897E+03  0.96589580822E+02 -0.10361277806E+03  0.46523751580E+03  0.46999998093E+01 0. -1.
</event>
<event>
 5   0  0.6863405E-03  0.9077147E+03  0.7818609E-02  0.9415989E-01
       -2   -1    0    0    0  501  0.00000000000E+00  0.00000000000E+00  0.27001078582E+03  0.27001078583E+03  0.25500000920E-02 0. -1.
        2   -1    0    0  501    0  0.00000000000E+00  0.00000000000E+00 -0.76288253388E+03  0.76288253389E+03  0.25500000920E-02 0.  1.
    10030    2    1    2    0    0  0.00000000000E+00  0.00000000000E+00 -0.49287174807E+03  0.10328933197E+04  0.90771474036E+03 0.  0.
        1    1    3    3  502    0 -0.41447793814E+03 -0.63367303910E+02 -0.44411439452E+03  0.61077407595E+03  0.50400001928E-02 0.  1.
       -1    1    3    3    0  502  0.41447793814E+03  0.63367303910E+02 -0.48757353549E+02  0.42211924377E+03  0.50400001928E-02 0. -1.
</event>
<event>
 5   0  0.3927993E-03  0.8985265E+03  0.7818609E-02  0.9427425E-01
       -1   -1    0    0    0  501  0.00000000000E+00  0.00000000000E+00  0.16066470148E+03  0.16066470156E+03  0.50400001928E-02 0.  1.
        1   -1    0    0  501    0  0.00000000000E+00  0.00000000000E+00 -0.12562651988E+04  0.12562651988E+04  0.50400001928E-02 0. -1.
    10030    2    1    2    0    0  0.00000000000E+00  0.00000000000E+00 -0.10956004974E+04  0.14169299004E+04  0.89852651205E+03 0.  0.
        2    1    3    3  502    0 -0.39417157848E+03  0.96618752348E+01 -0.88738606399E+03  0.97103996400E+03  0.25500000920E-02 0. -1.
       -2    1    3    3    0  502  0.39417157848E+03 -0.96618752348E+01 -0.20821443336E+03  0.44588993640E+03  0.25500000920E-02 0.  1.
</event>
<event>
 5   0  0.3943549E-03  0.8979098E+03  0.7818609E-02  0.9428198E-01
       -1   -1    0    0    0  501  0.00000000000E+00  0.00000000000E+00  0.40080752633E+03  0.40080752636E+03  0.50400001928E-02 0. -1.
        1   -1    0    0  501    0  0.00000000000E+00  0.00000000000E+00 -0.50288602659E+03  0.50288602661E+03  0.50400001928E-02 0.  1.
    10030    2    1    2    0    0  0.00000000000E+00  0.00000000000E+00 -0.10207850026E+03  0.90369355298E+03  0.89790980476E+03 0.  0.
        3    1    3    3  502    0 -0.20166505273E+03 -0.78057923238E+02 -0.44701817341E+03  0.49657536229E+03  0.10100000352E+00 0.  1.
       -3    1    3    3    0  502  0.20166505273E+03  0.78057923238E+02  0.34493967315E+03  0.40711819069E+03  0.10100000352E+00 0. -1.
</event>
<event>
 5   0  0.3943549E-03  0.9058583E+03  0.7818609E-02  0.9418288E-01
        1   -1    0    0  501    0  0.00000000000E+00  0.00000000000E+00  0.73838425552E+03  0.73838425553E+03  0.50400001928E-02 0. -1.
       -1   -1    0    0    0  501  0.00000000000E+00  0.00000000000E+00 -0.27782936280E+03  0.27782936284E+03  0.50400001928E-02 0.  1.
    10030    2    1    2    0    0  0.00000000000E+00  0.00000000000E+00  0.46055489272E+03  0.10162136184E+04  0.90585832721E+03 0.  0.
        3    1    3    3  502    0  0.31675652615E+03  0.30806660106E+03  0.11862867928E+03  0.45750683196E+03  0.10100000352E+00 0.  1.
       -3    1    3    3    0  502 -0.31675652615E+03 -0.30806660106E+03  0.34192621344E+03  0.55870678641E+03  0.10100000352E+00 0. -1.
</event>
<event>
 5   0  0.6534628E-03  0.8954380E+03  0.7818609E-02  0.9431302E-01
       -2   -1    0    0    0  501  0.00000000000E+00  0.00000000000E+00  0.29595617135E+03  0.29595617136E+03  0.25500000920E-02 0.  1.
        2   -1    0    0  501    0  0.00000000000E+00  0.00000000000E+00 -0.67730405376E+03  0.67730405377E+03  0.25500000920E-02 0. -1.
    10030    2    1    2    0    0  0.00000000000E+00  0.00000000000E+00 -0.38134788241E+03  0.97326022513E+03  0.89543802600E+03 0.  0.
        4    1    3    3  502    0  0.25707256699E+03 -0.26264255192E+03 -0.46859843065E+03  0.59552793124E+03  0.12699999809E+01 0.  1.
       -4    1    3    3    0  502 -0.25707256699E+03  0.26264255192E+03  0.87250548239E+02  0.37773229389E+03  0.12699999809E+01 0. -1.
</event>
<event>
 5   0  0.3794006E-03  0.8995586E+03  0.7818609E-02  0.9426133E-01
       -1   -1    0    0    0  501  0.00000000000E+00  0.00000000000E+00  0.41193502697E+03  0.41193502700E+03  0.50400001928E-02 0.  1.
        1   -1    0    0  501    0  0.00000000000E+00  0.00000000000E+00 -0.49110034321E+03  0.49110034323E+03  0.50400001928E-02 0. -1.
    10030    2    1    2    0    0  0.00000000000E+00  0.00000000000E+00 -0.79165316243E+02  0.90303537023E+03  0.89955863210E+03 0.  0.
        5    1    3    3  502    0  0.71998247552E+02  0.41982672744E+03  0.10533982103E+03  0.43881294035E+03  0.46999998093E+01 0.  1.
       -5    1    3    3    0  502 -0.71998247552E+02 -0.41982672744E+03 -0.18450513727E+03  0.46422242988E+03  0.46999998093E+01 0. -1.
</event>
<event>
 5   0  0.3998066E-03  0.8849832E+03  0.7818609E-02  0.9444550E-01
        1   -1    0    0  501    0  0.00000000000E+00  0.00000000000E+00  0.69851611913E+03  0.69851611915E+03  0.50400001928E-02 0.  1.
       -1   -1    0    0    0  501  0.00000000000E+00  0.00000000000E+00 -0.28030676848E+03  0.28030676853E+03  0.50400001928E-02 0. -1.
    10030    2    1    2    0    0  0.00000000000E+00  0.00000000000E+00  0.41820935065E+03  0.97882288767E+03  0.88498315490E+03 0.  0.
        4    1    3    3  502    0  0.44116203878E+03  0.30866058430E+02  0.19267994630E+03  0.48239385634E+03  0.12699999809E+01 0. -1.
       -4    1    3    3    0  502 -0.44116203878E+03 -0.30866058430E+02  0.22552940435E+03  0.49642903133E+03  0.12699999809E+01 0.  1.
</event>
<event>
 5   0  0.3927993E-03  0.9049985E+03  0.7818609E-02  0.9419355E-01
        1   -1    0    0  501    0  0.00000000000E+00  0.00000000000E+00  0.14190881482E+04  0.14190881482E+04  0.50400001928E-02 0. -1.
       -1   -1    0    0    0  501  0.00000000000E+00  0.00000000000E+00 -0.14428672629E+03  0.14428672638E+03  0.50400001928E-02 0.  1.
    10030    2    1    2    0    0  0.00000000000E+00  0.00000000000E+00  0.12748014219E+04  0.15633748746E+04  0.90499852664E+03 0.  0.
        2    1    3    3  502    0 -0.39340734527E+03  0.21644451751E+03  0.54063026304E+03  0.70277923261E+03  0.25500000920E-02 0.  1.
       -2    1    3    3    0  502  0.39340734527E+03 -0.21644451751E+03  0.73417115889E+03  0.86059564200E+03  0.25500000920E-02 0. -1.
</event>
<event>
 5   0  0.6524705E-03  0.8999455E+03  0.7818609E-02  0.9425650E-01
        2   -1    0    0  501    0  0.00000000000E+00  0.00000000000E+00  0.78045544209E+03  0.78045544209E+03  0.25500000920E-02 0.  1.
       -2   -1    0    0    0  501  0.00000000000E+00  0.00000000000E+00 -0.25943246957E+03  0.25943246958E+03  0.25500000920E-02 0. -1.
    10030    2    1    2    0    0  0.00000000000E+00  0.00000000000E+00  0.52102297252E+03  0.10398879117E+04  0.89994551555E+03 0.  0.
        3    1    3    3  502    0 -0.27952291092E+03 -0.79549921502E+01 -0.14684010746E+03  0.31584547961E+03  0.10100000352E+00 0. -1.
       -3    1    3    3    0  502  0.27952291092E+03  0.79549921502E+01  0.66786307998E+03  0.72404243207E+03  0.10100000352E+00 0.  1.
</event>
<event>
 5   0  0.6534628E-03  0.9025206E+03  0.7818609E-02  0.9422436E-01
       -2   -1    0    0    0  501  0.00000000000E+00  0.00000000000E+00  0.10722894183E+04  0.10722894183E+04  0.25500000920E-02 0. -1.
        2   -1    0    0  501    0  0.00000000000E+00  0.00000000000E+00 -0.18990756711E+03  0.18990756713E+03  0.25500000920E-02 0.  1.
    10030    2    1    2    0    0  0.00000000000E+00  0.00000000000E+00  0.88238185123E+03  0.12621969855E+04  0.90252063620E+03 0.  0.
        4    1    3    3  502    0 -0.20710075690E+03  0.21498654643E+03 -0.32089850590E+02  0.30023542440E+03  0.12699999809E+01 0.  1.
       -4    1    3    3    0  502  0.20710075690E+03 -0.21498654643E+03  0.91447170182E+03  0.96196156107E+03  0.12699999809E+01 0. -1.
</event>
<event>
 5   0  0.6524705E-03  0.9065972E+03  0.7818609E-02  0.9417372E-01
        2   -1    0    0  501    0  0.00000000000E+00  0.00000000000E+00  0.22353374841E+04  0.22353374841E+04  0.25500000920E-02 0. -1.
       -2   -1    0    0    0  501  0.00000000000E+00  0.00000000000E+00 -0.91923317693E+02  0.91923317728E+02  0.25500000920E-02 0.  1.
    10030    2    1    2    0    0  0.00000000000E+00  0.00000000000E+00  0.21434141664E+04  0.23272608019E+04  0.90659723747E+03 0.  0.
        3    1    3    3  502    0  0.17107807750E+03  0.11619243924E+03  0.36232518414E+02  0.20995522649E+03  0.10100000352E+00 0.  1.
       -3    1    3    3    0  502 -0.17107807750E+03 -0.11619243924E+03  0.21071816480E+04  0.21173055754E+04  0.10100000352E+00 0. -1.
</event>
<event>
 5   0  0.6524705E-03  0.9016881E+03  0.7818609E-02  0.9423474E-01
       -2   -1    0    0    0  501  0.00000000000E+00  0.00000000000E+00  0.13328282035E+03  0.13328282037E+03  0.25500000920E-02 0.  1.
        2   -1    0    0  501    0  0.00000000000E+00  0.00000000000E+00 -0.15250303844E+04  0.15250303844E+04  0.25500000920E-02 0. -1.
    10030    2    1    2    0    0  0.00000000000E+00  0.00000000000E+00 -0.13917475640E+04  0.16583132047E+04  0.90168808525E+03 0.  0.
        3    1    3    3  502    0  0.14909916623E+03  0.56752144816E+02  0.79635615678E+02  0.17830650239E+03  0.10100000352E+00 0.  1.
       -3    1    3    3    0  502 -0.14909916623E+03 -0.56752144816E+02 -0.14713831797E+04  0.14800067023E+04  0.10100000352E+00 0. -1.
</event>
<event>
 5   0  0.3794006E-03  0.8945453E+03  0.7818609E-02  0.9432426E-01
       -1   -1    0    0    0  501  0.00000000000E+00  0.00000000000E+00  0.33153922263E+03  0.33153922267E+03  0.50400001928E-02 0.  1.
        1   -1    0    0  501    0  0.00000000000E+00  0.00000000000E+00 -0.60340616838E+03  0.60340616841E+03  0.50400001928E-02 0. -1.
    10030    2    1    2    0    0  0.00000000000E+00  0.00000000000E+00 -0.27186694575E+03  0.93494539108E+03  0.89454527449E+03 0.  0.
        5    1    3    3  502    0  0.26694865913E+03  0.35528922008E+03 -0.83272353974E+02  0.45215969684E+03  0.46999998093E+01 0.  1.
       -5    1    3    3    0  502 -0.26694865913E+03 -0.35528922008E+03 -0.18859459178E+03  0.48278569424E+03  0.46999998093E+01 0. -1.
</event>
<event>
 5   0  0.3998066E-03  0.9006737E+03  0.7818609E-02  0.9424740E-01
        1   -1    0    0  501    0  0.00000000000E+00  0.00000000000E+00  0.58698296036E+03  0.58698296038E+03  0.50400001928E-02 0.  1.
       -1   -1    0    0    0  501  0.00000000000E+00  0.00000000000E+00 -0.34550116216E+03  0.34550116219E+03  0.50400001928E-02 0. -1.
    10030    2    1    2    0    0  0.00000000000E+00  0.00000000000E+00  0.24148179820E+03  0.93248412257E+03  0.90067373670E+03 0.  0.
        4    1    3    3  502    0  0.82172645381E+02 -0.35473797757E+03  0.39507157833E+03  0.53728441377E+03  0.12699999809E+01 0.  1.
       -4    1    3    3    0  502 -0.82172645381E+02  0.35473797757E+03 -0.15358978012E+03  0.39519970880E+03  0.12699999809E+01 0. -1.
</event>
<event>
 5   0  0.3794006E-03  0.9051718E+03  0.7818609E-02  0.9419139E-01
        1   -1    0    0  501    0  0.00000000000E+00  0.00000000000E+00  0.31077260714E+03  0.31077260718E+03  0.50400001928E-02 0.  1.
       -1   -1    0    0    0  501  0.00000000000E+00  0.00000000000E+00 -0.65911208687E+03  0.65911208689E+03  0.50400001928E-02 0. -1.
    10030    2    1    2    0    0  0.00000000000E+00  0.00000000000E+00 -0.34833947973E+03  0.96988469407E+03  0.90517176638E+03 0.  0.
        5    1    3    3  502    0 -0.11169716179E+03  0.43695410960E+03 -0.21435773171E+03  0.49937608772E+03  0.46999998093E+01 0.  1.
       -5    1    3    3    0  502  0.11169716179E+03 -0.43695410960E+03 -0.13398174802E+03  0.47050860635E+03  0.46999998093E+01 0. -1.
</event>
<event>
 5   0  0.3969536E-03  0.8826254E+03  0.7818609E-02  0.9447565E-01
        1   -1    0    0  501    0  0.00000000000E+00  0.00000000000E+00  0.84553556480E+03  0.84553556481E+03  0.50400001928E-02 0. -1.
       -1   -1    0    0    0  501  0.00000000000E+00  0.00000000000E+00 -0.23033555453E+03  0.23033555458E+03  0.50400001928E-02 0.  1.
    10030    2    1    2    0    0  0.00000000000E+00  0.00000000000E+00  0.61520001027E+03  0.10758711194E+04  0.88262540917E+03 0.  0.
        1    1    3    3  502    0  0.28761277014E+03 -0.65104734666E+00  0.71560117411E+03  0.77123703868E+03  0.50400001928E-02 0. -1.
       -1    1    3    3    0  502 -0.28761277014E+03  0.65104734666E+00 -0.10040116384E+03  0.30463408072E+03  0.50400001928E-02 0.  1.
</event>
<event>
 5   0  0.6534628E-03  0.8896436E+03  0.7818609E-02  0.9438621E-01
        2   -1    0    0  501    0  0.00000000000E+00  0.00000000000E+00  0.21168537825E+04  0.21168537825E+04  0.25500000920E-02 0. -1.
       -2   -1    0    0    0  501  0.00000000000E+00  0.00000000000E+00 -0.93471937578E+02  0.93471937613E+02  0.25500000920E-02 0.  1.
    10030    2    1    2    0    0  0.00000000000E+00  0.00000000000E+00  0.20233818449E+04  0.22103257201E+04  0.88964357955E+03 0.  0.
        4    1    3    3  502    0 -0.28321079118E+03  0.32856213406E+03  0.12564291599E+04  0.13292017435E+04  0.12699999809E+01 0. -1.
       -4    1    3    3    0  502  0.28321079118E+03 -0.32856213406E+03  0.76695268495E+03  0.88112397654E+03  0.12699999809E+01 0.  1.
</event>
<event>
 5   0  0.6863405E-03  0.9017429E+03  0.7818609E-02  0.9423405E-01
       -2   -1    0    0    0  501  0.00000000000E+00  0.00000000000E+00  0.15088777962E+03  0.15088777964E+03  0.25500000920E-02 0. -1.
        2   -1    0    0  501    0  0.00000000000E+00  0.00000000000E+00 -0.13472599072E+04  0.13472599072E+04  0.25500000920E-02 0.  1.
    10030    2    1    2    0    0  0.00000000000E+00  0.00000000000E+00 -0.11963721276E+04  0.14981476869E+04  0.90174288128E+03 0.  0.
        1    1    3    3  502    0 -0.15634213191E+03 -0.15652363857E+03 -0.12508877478E+04  0.12703002280E+04  0.50400001928E-02 0.  1.
       -1    1    3    3    0  502  0.15634213191E+03  0.15652363857E+03  0.54515620192E+02  0.22784745887E+03  0.50400001928E-02 0. -1.
</event>
<event>
 5   0  0.6609191E-03  0.8996382E+03  0.7818609E-02  0.9426034E-01
        2   -1    0    0  501    0  0.00000000000E+00  0.00000000000E+00  0.21101519367E+04  0.21101519367E+04  0.25500000920E-02 0.  1.
       -2   -1    0    0    0  501  0.00000000000E+00  0.00000000000E+00 -0.95887511259E+02  0.95887511293E+02  0.25500000920E-02 0. -1.
    10030    2    1    2    0    0  0.00000000000E+00  0.00000000000E+00  0.20142644254E+04  0.22060394480E+04  0.89963818866E+03 0.  0.
        2    1    3    3  502    0  0.43699971276E+03  0.51847825996E+02  0.77867122562E+03  0.89441926613E+03  0.25500000920E-02 0. -1.
       -2    1    3    3    0  502 -0.43699971276E+03 -0.51847825996E+02  0.12355931998E+04  0.13116201818E+04  0.25500000920E-02 0.  1.
</event>
<event>
 5   0  0.3943549E-03  0.9048316E+03  0.7818609E-02  0.9419562E-01
        1   -1    0    0  501    0  0.00000000000E+00  0.00000000000E+00  0.61417126037E+03  0.61417126039E+03  0.50400001928E-02 0. -1.
       -1   -1    0    0    0  501  0.00000000000E+00  0.00000000000E+00 -0.33326218924E+03  0.33326218927E+03  0.50400001928E-02 0.  1.
    10030    2    1    2    0    0  0.00000000000E+00  0.00000000000E+00  0.28090907113E+03  0.94743344967E+03  0.90483160605E+03 0.  0.
        3    1    3    3  502    0 -0.35611483078E+03 -0.11712894717E+03  0.40564376144E+03  0.55234394571E+03  0.10100000352E+00 0. -1.
       -3    1    3    3    0  502  0.35611483078E+03  0.11712894717E+03 -0.12473469030E+03  0.39508950395E+03  0.10100000352E+00 0.  1.
</event>
<event>
 5   0  0.6524705E-03  0.9220158E+03  0.7818609E-02  0.9398471E-01
        2   -1    0    0  501    0  0.00000000000E+00  0.00000000000E+00  0.97873023507E+03  0.97873023507E+03  0.25500000920E-02 0.  1.
       -2   -1    0    0    0  501  0.00000000000E+00  0.00000000000E+00 -0.21714696468E+03  0.21714696469E+03  0.25500000920E-02 0. -1.
    10030    2    1    2    0    0  0.00000000000E+00  0.00000000000E+00  0.76158327039E+03  0.11958771998E+04  0.92201583456E+03 0.  0.
        3    1    3    3  502    0  0.18359068925E+03  0.31353381531E+03  0.74883431840E+03  0.83232315908E+03  0.10100000352E+00 0.  1.
       -3    1    3    3    0  502 -0.18359068925E+03 -0.31353381531E+03  0.12748951989E+02  0.36355404069E+03  0.10100000352E+00 0. -1.
</event>
<event>
 5   0  0.6724773E-03  0.8989402E+03  0.7818609E-02  0.9426907E-01
       -2   -1    0    0    0  501  0.00000000000E+00  0.00000000000E+00  0.20620851660E+03  0.20620851662E+03  0.25500000920E-02 0. -1.
        2   -1    0    0  501    0  0.00000000000E+00  0.00000000000E+00 -0.97970424791E+03  0.97970424791E+03  0.25500000920E-02 0.  1.
    10030    2    1    2    0    0  0.00000000000E+00  0.00000000000E+00 -0.77349573131E+03  0.11859127645E+04  0.89894017528E+03 0.  0.
        5    1    3    3  502    0 -0.37649815618E+03  0.17876828980E+03 -0.16484846380E+03  0.44822546677E+03  0.46999998093E+01 0.  1.
       -5    1    3    3    0  502  0.37649815618E+03 -0.17876828980E+03 -0.60864726750E+03  0.73768729776E+03  0.46999998093E+01 0. -1.
</event>
<event>
 5   0  0.6863405E-03  0.9031434E+03  0.7818609E-02  0.9421661E-01
       -2   -1    0    0    0  501  0.00000000000E+00  0.00000000000E+00  0.78570725150E+02  0.78570725192E+02  0.25500000920E-02 0. -1.
        2   -1    0    0  501    0  0.00000000000E+00  0.00000000000E+00 -0.25953306535E+04  0.25953306535E+04  0.25500000920E-02 0.  1.
    10030    2    1    2    0    0  0.00000000000E+00  0.00000000000E+00 -0.25167599284E+04  0.26739013787E+04  0.90314342496E+03 0.  0.
        1    1    3    3  502    0 -0.37130503664E+03 -0.16602599723E+03 -0.18391900123E+04  0.18836273419E+04  0.50400001928E-02 0.  1.
       -1    1    3    3    0  502  0.37130503664E+03  0.16602599723E+03 -0.67756991609E+03  0.79027403678E+03  0.50400001928E-02 0. -1.
</event>
<event>
 5   0  0.3943549E-03  0.8988117E+03  0.7818609E-02  0.9427068E-01
        1   -1    0    0  501    0  0.00000000000E+00  0.00000000000E+00  0.79812107073E+03  0.79812107074E+03  0.50400001928E-02 0.  1.
       -1   -1    0    0    0  501  0.00000000000E+00  0.00000000000E+00 -0.25305136165E+03  0.25305136170E+03  0.50400001928E-02 0. -1.
    10030    2    1    2    0    0  0.00000000000E+00  0.00000000000E+00  0.54506970908E+03  0.10511724324E+04  0.89881171275E+03 0.  0.
        3    1    3    3  502    0  0.29616751521E+03  0.24578575858E+02  0.66679502855E+03  0.73002391998E+03  0.10100000352E+00 0.  1.
       -3    1    3    3    0  502 -0.29616751521E+03 -0.24578575858E+02 -0.12172531947E+03  0.32114851246E+03  0.10100000352E+00 0. -1.
</event>
<event>
 5   0  0.3998066E-03  0.9399495E+03  0.7818609E-02  0.9376976E-01
        1   -1    0    0  501    0  0.00000000000E+00  0.00000000000E+00  0.17207397856E+04  0.17207397857E+04  0.50400001928E-02 0.  1.
       -1   -1    0    0    0  501  0.00000000000E+00  0.00000000000E+00 -0.12836121490E+03  0.12836121500E+03  0.50400001928E-02 0. -1.
    10030    2    1    2    0    0  0.00000000000E+00  0.00000000000E+00  0.15923785707E+04  0.18491010006E+04  0.93994946568E+03 0.  0.
        4    1    3    3  502    0  0.29862070349E+03 -0.20395479892E+03  0.13866964296E+04  0.14330737892E+04  0.12699999809E+01 0.  1.
       -4    1    3    3    0  502 -0.29862070349E+03  0.20395479892E+03  0.20568214110E+03  0.41602721140E+03  0.12699999809E+01 0. -1.
</event>
<event>
 5   0  0.3943549E-03  0.9007944E+03  0.7818609E-02  0.9424589E-01
       -1   -1    0    0    0  501  0.00000000000E+00  0.00000000000E+00  0.44417242783E+03  0.44417242786E+03  0.50400001928E-02 0. -1.
        1   -1    0    0  501    0  0.00000000000E+00  0.00000000000E+00 -0.45670922528E+03  0.45670922531E+03  0.50400001928E-02 0.  1.
    10030    2    1    2    0    0  0.00000000000E+00  0.00000000000E+00 -0.12536797451E+02  0.90088165316E+03  0.90079441701E+03 0.  0.
        3    1    3    3  502    0  0.25203097998E+03 -0.32523839119E+03  0.17693779474E+03  0.44789130309E+03  0.10100000352E+00 0. -1.
       -3    1    3    3    0  502 -0.25203097998E+03  0.32523839119E+03 -0.18947459219E+03  0.45299035007E+03  0.10100000352E+00 0.  1.
</event>
<event>
 5   0  0.6534628E-03  0.9007046E+03  0.7818609E-02  0.9424701E-01
        2   -1    0    0  501    0  0.00000000000E+00  0.00000000000E+00  0.61199684441E+03  0.61199684441E+03  0.25500000920E-02 0. -1.
       -2   -1    0    0    0  501  0.00000000000E+00  0.00000000000E+00 -0.33140235310E+03  0.33140235311E+03  0.25500000920E-02 0.  1.
    10030    2    1    2    0    0  0.00000000000E+00  0.00000000000E+00  0.28059449131E+03  0.94339919752E+03  0.90070460048E+03 0.  0.
        4    1    3    3  502    0  0.53199515218E+02 -0.39063489872E+03 -0.87713553634E+02  0.40388252365E+03  0.12699999809E+01 0.  1.
       -4    1    3    3    0  502 -0.53199515218E+02  0.39063489872E+03  0.36830804494E+03  0.53951667387E+03  0.12699999809E+01 0. -1.
</event>
<event>
 5   0  0.6724773E-03  0.9011574E+03  0.7818609E-02  0.9424136E-01
        2   -1    0    0  501    0  0.00000000000E+00  0.00000000000E+00  0.26385029484E+03  0.26385029486E+03  0.25500000920E-02 0.  1.
       -2   -1    0    0    0  501  0.00000000000E+00  0.00000000000E+00 -0.76945583521E+03  0.76945583521E+03  0.25500000920E-02 0. -1.
    10030    2    1    2    0    0  0.00000000000E+00  0.00000000000E+00 -0.50560554036E+03  0.10333061301E+04  0.90115736472E+03 0.  0.
        5    1    3    3  502    0  0.75276528048E+02  0.43986593872E+03 -0.18165117575E+03  0.48183798042E+03  0.46999998093E+01 0.  1.
       -5    1    3    3    0  502 -0.75276528048E+02 -0.43986593872E+03 -0.32395436462E+03  0.55146814965E+03  0.46999998093E+01 0. -1.
</event>
<event>
 5   0  0.6609191E-03  0.9076368E+03  0.7818609E-02  0.9416085E-01
        2   -1    0    0  501    0  0.00000000000E+00  0.00000000000E+00  0.68122912294E+03  0.68122912295E+03  0.25500000920E-02 0.  1.
       -2   -1    0    0    0  501  0.00000000000E+00  0.00000000000E+00 -0.30232285919E+03  0.30232285920E+03  0.25500000920E-02 0. -1.
    10030    2    1    2    0    0  0.00000000000E+00  0.00000000000E+00  0.37890626375E+03  0.98355198215E+03  0.90763679128E+03 0.  0.
        2    1    3    3  502    0 -0.22019240763E+03 -0.14162585509E+03 -0.21223788131E+03  0.33702744321E+03  0.25500000920E-02 0. -1.
       -2    1    3    3    0  502  0.22019240763E+03  0.14162585509E+03  0.59114414506E+03  0.64652453894E+03  0.25500000920E-02 0.  1.
</event>
<event>
 5   0  0.6524705E-03  0.8979703E+03  0.7818609E-02  0.9428122E-01
        2   -1    0    0  501    0  0.00000000000E+00  0.00000000000E+00  0.64339721406E+03  0.64339721407E+03  0.25500000920E-02 0.  1.
       -2   -1    0    0    0  501  0.00000000000E+00  0.00000000000E+00 -0.31331758573E+03  0.31331758574E+03  0.25500000920E-02 0. -1.
    10030    2    1    2    0    0  0.00000000000E+00  0.00000000000E+00  0.33007962833E+03  0.95671479981E+03  0.89797029301E+03 0.  0.
        3    1    3    3  502    0 -0.40527246629E+03 -0.19148277740E+03  0.19274533575E+03  0.48791618197E+03  0.10100000352E+00 0.  1.
       -3    1    3    3    0  502  0.40527246629E+03  0.19148277740E+03  0.13733429258E+03  0.46879861784E+03  0.10100000352E+00 0. -1.
</event>
<event>
 5   0  0.6609191E-03  0.9004997E+03  0.7818609E-02  0.9424957E-01
        2   -1    0    0  501    0  0.00000000000E+00  0.00000000000E+00  0.41927262102E+03  0.41927262102E+03  0.25500000920E-02 0.  1.
       -2   -1    0    0    0  501  0.00000000000E+00  0.00000000000E+00 -0.48351582553E+03  0.48351582554E+03  0.25500000920E-02 0. -1.
    10030    2    1    2    0    0  0.00000000000E+00  0.00000000000E+00 -0.64243204512E+02  0.90278844656E+03  0.90049974454E+03 0.  0.
        2    1    3    3  502    0  0.25805195213E+03 -0.24029716383E+02  0.33699443002E+03  0.42512760806E+03  0.25500000920E-02 0.  1.
       -2    1    3    3    0  502 -0.25805195213E+03  0.24029716383E+02 -0.40123763453E+03  0.47766083850E+03  0.25500000920E-02 0. -1.
</event>
<event>
 5   0  0.6524705E-03  0.8840538E+03  0.7818609E-02  0.9445737E-01
        2   -1    0    0  501    0  0.00000000000E+00  0.00000000000E+00  0.24466532485E+04  0.24466532485E+04  0.25500000920E-02 0.  1.
       -2   -1    0    0    0  501  0.00000000000E+00  0.00000000000E+00 -0.79859202777E+02  0.79859202817E+02  0.25500000920E-02 0. -1.
    10030    2    1    2    0    0  0.00000000000E+00  0.00000000000E+00  0.23667940457E+04  0.25265124513E+04  0.88405379463E+03 0.  0.
        3    1    3    3  502    0  0.14506871155E+03 -0.15159776196E+03  0.71538113998E+02  0.22168564333E+03  0.10100000352E+00 0. -1.
       -3    1    3    3    0  502 -0.14506871155E+03  0.15159776196E+03  0.22952559317E+04  0.23048268080E+04  0.10100000352E+00 0.  1.
</event>
<event>
 5   0  0.6524705E-03  0.9066149E+03  0.7818609E-02  0.9417350E-01
       -2   -1    0    0    0  501  0.00000000000E+00  0.00000000000E+00  0.21795643090E+03  0.21795643091E+03  0.25500000920E-02 0.  1.
        2   -1    0    0  501    0  0.00000000000E+00  0.00000000000E+00 -0.94279231337E+03  0.94279231337E+03  0.25500000920E-02 0. -1.
    10030    2    1    2    0    0  0.00000000000E+00  0.00000000000E+00 -0.72483588247E+03  0.11607487443E+04  0.90661490768E+03 0.  0.
        3    1    3    3  502    0 -0.41832026816E+03 -0.65534813313E+02 -0.15517768239E+03  0.45096206251E+03  0.10100000352E+00 0.  1.
       -3    1    3    3    0  502  0.41832026816E+03  0.65534813313E+02 -0.56965820007E+03  0.70978668177E+03  0.10100000352E+00 0. -1.
</event>
<event>
 5   0  0.6534628E-03  0.9157364E+03  0.7818609E-02  0.9406121E-01
       -2   -1    0    0    0  501  0.00000000000E+00  0.00000000000E+00  0.25176443419E+03  0.25176443420E+03  0.25500000920E-02 0.  1.
        2   -1    0    0  501    0  0.00000000000E+00  0.00000000000E+00 -0.83269618237E+03  0.83269618237E+03  0.25500000920E-02 0. -1.
    10030    2    1    2    0    0  0.00000000000E+00  0.00000000000E+00 -0.58093174817E+03  0.10844606166E+04  0.91573638830E+03 0.  0.
        4    1    3    3  502    0  0.44132545467E+02  0.40391283272E+03 -0.54041949246E+03  0.67612727999E+03  0.12699999809E+01 0. -1.
       -4    1    3    3    0  502 -0.44132545467E+02 -0.40391283272E+03 -0.40512255711E+02  0.40833333659E+03  0.12699999809E+01 0.  1.
</event>
<event>
 5   0  0.3794006E-03  0.8952394E+03  0.7818609E-02  0.9431552E-01
        1   -1    0    0  501    0  0.00000000000E+00  0.00000000000E+00  0.40229223026E+03  0.40229223029E+03  0.50400001928E-02 0. -1.
       -1   -1    0    0    0  501  0.00000000000E+00  0.00000000000E+00 -0.49805440296E+03  0.49805440299E+03  0.50400001928E-02 0.  1.
    10030    2    1    2    0    0  0.00000000000E+00  0.00000000000E+00 -0.95762172706E+02  0.90034663328E+03  0.89523944637E+03 0.  0.
        5    1    3    3  502    0 -0.12937238057E+03  0.19513147846E+02  0.38260681028E+03  0.40438600009E+03  0.46999998093E+01 0. -1.
       -5    1    3    3    0  502  0.12937238057E+03 -0.19513147846E+02 -0.47836898299E+03  0.49596063319E+03  0.46999998093E+01 0.  1.
</event>
<event>
 5   0  0.3927993E-03  0.9026731E+03  0.7818609E-02  0.9422246E-01
       -1   -1    0    0    0  501  0.00000000000E+00  0.00000000000E+00  0.24479006694E+03  0.24479006699E+03  0.50400001928E-02 0.  1.
        1   -1    0    0  501    0  0.00000000000E+00  0.00000000000E+00 -0.83216066528E+03  0.83216066529E+03  0.50400001928E-02 0. -1.
    10030    2    1    2    0    0  0.00000000000E+00  0.00000000000E+00 -0.58737059834E+03  0.10769507323E+04  0.90267306373E+03 0.  0.
        2    1    3    3  502    0  0.22386724400E+03 -0.90199903153E+02 -0.74869991805E+03  0.78664104442E+03  0.25500000920E-02 0. -1.
       -2    1    3    3    0  502 -0.22386724400E+03  0.90199903153E+02  0.16132931971E+03  0.29030968787E+03  0.25500000920E-02 0.  1.
</event>
<event>
 5   0  0.3927993E-03  0.9001910E+03  0.7818609E-02  0.9425343E-01
        1   -1    0    0  501    0  0.00000000000E+00  0.00000000000E+00  0.88031390802E+03  0.88031390803E+03  0.50400001928E-02 0.  1.
       -1   -1    0    0    0  501  0.00000000000E+00  0.00000000000E+00 -0.23012922491E+03  0.23012922496E+03  0.50400001928E-02 0. -1.
    10030    2    1    2    0    0  0.00000000000E+00  0.00000000000E+00  0.65018468311E+03  0.11104431330E+04  0.90019099610E+03 0.  0.
        2    1    3    3  502    0  0.18186123666E+03  0.32840205626E+03  0.18769489458E+02  0.37586395637E+03  0.25500000920E-02 0. -1.
       -2    1    3    3    0  502 -0.18186123666E+03 -0.32840205626E+03  0.63141519365E+03  0.73457917663E+03  0.25500000920E-02 0.  1.
</event>
<event>
 5   0  0.3943549E-03  0.9004218E+03  0.7818609E-02  0.9425054E-01
       -1   -1    0    0    0  501  0.00000000000E+00  0.00000000000E+00  0.28511559033E+03  0.28511559038E+03  0.50400001928E-02 0.  1.
        1   -1    0    0  501    0  0.00000000000E+00  0.00000000000E+00 -0.71090419441E+03  0.71090419443E+03  0.50400001928E-02 0. -1.
    10030    2    1    2    0    0  0.00000000000E+00  0.00000000000E+00 -0.42578860408E+03  0.99601978480E+03  0.90042183245E+03 0.  0.
        3    1    3    3  502    0  0.30658442707E+03  0.19334416488E+03 -0.50829327918E+03  0.62429003266E+03  0.10100000352E+00 0. -1.
       -3    1    3    3    0  502 -0.30658442707E+03 -0.19334416488E+03  0.82504675102E+02  0.37172975215E+03  0.10100000352E+00 0.  1.
</event>
<event>
 5   0  0.6863405E-03  0.9035055E+03  0.7818609E-02  0.9421210E-01
       -2   -1    0    0    0  501  0.00000000000E+00  0.00000000000E+00  0.73302644944E+03  0.73302644944E+03  0.25500000920E-02 0. -1.
        2   -1    0    0  501    0  0.00000000000E+00  0.00000000000E+00 -0.27840817368E+03  0.27840817369E+03  0.25500000920E-02 0.  1.
    10030    2    1    2    0    0  0.00000000000E+00  0.00000000000E+00  0.45461827576E+03  0.10114346231E+04  0.90350551753E+03 0.  0.
        1    1    3    3  502    0  0.20673807840E+03  0.36549473977E+00  0.67696240017E+03  0.70782685589E+03  0.50400001928E-02 0. -1.
       -1    1    3    3    0  502 -0.20673807840E+03 -0.36549473977E+00 -0.22234412441E+03  0.30360776724E+03  0.50400001928E-02 0.  1.
</event>
<event>
 5   0  0.3943549E-03  0.9014186E+03  0.7818609E-02  0.9423810E-01
        1   -1    0    0  501    0  0.00000000000E+00  0.00000000000E+00  0.20413792401E+03  0.20413792407E+03  0.50400001928E-02 0.  1.
       -1   -1    0    0    0  501  0.00000000000E+00  0.00000000000E+00 -0.99510595218E+03  0.99510595219E+03  0.50400001928E-02 0. -1.
    10030    2    1    2    0    0  0.00000000000E+00  0.00000000000E+00 -0.79096802817E+03  0.11992438763E+04  0.90141857822E+03 0.  0.
        3    1    3    3  502    0 -0.51533719614E+01  0.49649179195E+02 -0.99141726207E+03  0.99267305593E+03  0.10100000352E+00 0. -1.
       -3    1    3    3    0  502  0.51533719614E+01 -0.49649179195E+02  0.20044923390E+03  0.20657082033E+03  0.10100000352E+00 0.  1.
</event>
<event>
 5   0  0.6524705E-03  0.8751590E+03  0.7818609E-02  0.9457178E-01
        2   -1    0    0  501    0  0.00000000000E+00  0.00000000000E+00  0.12662290020E+04  0.12662290020E+04  0.25500000920E-02 0. -1.
       -2   -1    0    0    0  501  0.00000000000E+00  0.00000000000E+00 -0.15121736645E+03  0.15121736647E+03  0.25500000920E-02 0.  1.
    10030    2    1    2    0    0  0.00000000000E+00  0.00000000000E+00  0.11150116355E+04  0.14174463685E+04  0.87515899131E+03 0.  0.
        3    1    3    3  502    0 -0.44998746494E+02  0.35001529898E+03  0.97655327107E+03  0.10383601967E+04  0.10100000352E+00 0. -1.
       -3    1    3    3    0  502  0.44998746494E+02 -0.35001529898E+03  0.13845836446E+03  0.37908617173E+03  0.10100000352E+00 0.  1.
</event>
<event>
 5   0  0.3969536E-03  0.8887825E+03  0.7818609E-02  0.9439714E-01
        1   -1    0    0  501    0  0.00000000000E+00  0.00000000000E+00  0.12286008507E+04  0.12286008507E+04  0.50400001928E-02 0.  1.
       -1   -1    0    0    0  501  0.00000000000E+00  0.00000000000E+00 -0.16073859271E+03  0.16073859279E+03  0.50400001928E-02 0. -1.
    10030    2    1    2    0    0  0.00000000000E+00  0.00000000000E+00  0.10678622580E+04  0.13893394435E+04  0.88878247465E+03 0.  0.
        1    1    3    3  502    0 -0.30613236787E+03  0.22923932249E+03  0.88769639901E+03  0.96657777259E+03  0.50400001928E-02 0.  1.
       -1    1    3    3    0  502  0.30613236787E+03 -0.22923932249E+03  0.18016585902E+03  0.42276167094E+03  0.50400001928E-02 0. -1.
</event>
<event>
 5   0  0.6534628E-03  0.8939820E+03  0.7818609E-02  0.9433136E-01
        2   -1    0    0  501    0  0.00000000000E+00  0.00000000000E+00  0.47306846567E+03  0.47306846567E+03  0.25500000920E-02 0. -1.
       -2   -1    0    0    0  501  0.00000000000E+00  0.00000000000E+00 -0.42235102312E+03  0.42235102313E+03  0.25500000920E-02 0.  1.
    10030    2    1    2    0    0  0.00000000000E+00  0.00000000000E+00  0.50717442543E+02  0.89541948880E+03  0.89398199196E+03 0.  0.
        4    1    3    3  502    0 -0.14506967867E+03  0.27095523823E+03  0.35043781320E+03  0.46612254463E+03  0.12699999809E+01 0. -1.
       -4    1    3    3    0  502  0.14506967867E+03 -0.27095523823E+03 -0.29972037065E+03  0.42929694417E+03  0.12699999809E+01 0.  1.
</event>
<event>
 5   0  0.6534628E-03  0.9108797E+03  0.7818609E-02  0.9412083E-01
       -2   -1    0    0    0  501  0.00000000000E+00  0.00000000000E+00  0.17480316776E+03  0.17480316778E+03  0.25500000920E-02 0. -1.
        2   -1    0    0  501    0  0.00000000000E+00  0.00000000000E+00 -0.11866228743E+04  0.11866228744E+04  0.25500000920E-02 0.  1.
    10030    2    1    2    0    0  0.00000000000E+00  0.00000000000E+00 -0.10118197066E+04  0.13614260421E+04  0.91087965700E+03 0.  0.
        4    1    3    3  502    0 -0.58095421617E+02  0.26902939387E+03 -0.10482598656E+04  0.10837906862E+04  0.12699999809E+01 0.  1.
       -4    1    3    3    0  502  0.58095421617E+02 -0.26902939387E+03  0.36440158994E+02  0.27763535594E+03  0.12699999809E+01 0. -1.
</event>
<event>
 5   0  0.3794006E-03  0.9031277E+03  0.7818609E-02  0.9421680E-01
        1   -1    0    0  501    0  0.00000000000E+00  0.00000000000E+00  0.19085572297E+04  0.19085572297E+04  0.50400001928E-02 0. -1.
       -1   -1    0    0    0  501  0.00000000000E+00  0.00000000000E+00 -0.10683981285E+03  0.10683981297E+03  0.50400001928E-02 0.  1.
    10030    2    1    2    0    0  0.00000000000E+00  0.00000000000E+00  0.18017174168E+04  0.20153970426E+04  0.90312767060E+03 0.  0.
        5    1    3    3  502    0  0.43467940123E+03  0.94401786889E+02  0.72757108870E+03  0.85278347682E+03  0.46999998093E+01 0.  1.
       -5    1    3    3    0  502 -0.43467940123E+03 -0.94401786889E+02  0.10741463281E+04  0.11626135658E+04  0.46999998093E+01 0. -1.
</event>
<event>
 5   0  0.3943549E-03  0.8958599E+03  0.7818609E-02  0.9430772E-01
        1   -1    0    0  501    0  0.00000000000E+00  0.00000000000E+00  0.32406407703E+03  0.32406407707E+03  0.50400001928E-02 0. -1.
       -1   -1    0    0    0  501  0.00000000000E+00  0.00000000000E+00 -0.61914057166E+03  0.61914057168E+03  0.50400001928E-02 0.  1.
    10030    2    1    2    0    0  0.00000000000E+00  0.00000000000E+00 -0.29507649463E+03  0.94320464875E+03  0.89585985050E+03 0.  0.
        3    1    3    3  502    0 -0.26734073978E+03 -0.51017210127E+01  0.23081996030E+03  0.35323499681E+03  0.10100000352E+00 0. -1.
       -3    1    3    3    0  502  0.26734073978E+03  0.51017210127E+01 -0.52589645493E+03  0.58996965194E+03  0.10100000352E+00 0.  1.
</event>
<event>
 5   0  0.3927993E-03  0.9012644E+03  0.7818609E-02  0.9424002E-01
       -1   -1    0    0    0  501  0.00000000000E+00  0.00000000000E+00  0.57972135109E+03  0.57972135111E+03  0.50400001928E-02 0.  1.
        1   -1    0    0  501    0  0.00000000000E+00  0.00000000000E+00 -0.35028789570E+03  0.35028789573E+03  0.50400001928E-02 0. -1.
    10030    2    1    2    0    0  0.00000000000E+00  0.00000000000E+00  0.22943345539E+03  0.93000924685E+03  0.90126438339E+03 0.  0.
        2    1    3    3  502    0  0.11950550786E+03  0.41863483373E+03 -0.53235502583E+01  0.43539066437E+03  0.25500000920E-02 0. -1.
       -2    1    3    3    0  502 -0.11950550786E+03 -0.41863483373E+03  0.23475700565E+03  0.49461858248E+03  0.25500000920E-02 0.  1.
</event>
<event>
 5   0  0.6534628E-03  0.8973177E+03  0.7818609E-02  0.9428941E-01
       -2   -1    0    0    0  501  0.00000000000E+00  0.00000000000E+00  0.16857480732E+03  0.16857480734E+03  0.25500000920E-02 0. -1.
        2   -1    0    0  501    0  0.00000000000E+00  0.00000000000E+00 -0.11940974688E+04  0.11940974688E+04  0.25500000920E-02 0.  1.
    10030    2    1    2    0    0  0.00000000000E+00  0.00000000000E+00 -0.10255226615E+04  0.13626722762E+04  0.89731767116E+03 0.  0.
        4    1    3    3  502    0  0.24114088836E+03  0.27997807993E+03 -0.89920556479E+03  0.97216712243E+03  0.12699999809E+01 0.  1.
       -4    1    3    3    0  502 -0.24114088836E+03 -0.27997807993E+03 -0.12631709671E+03  0.39050515374E+03  0.12699999809E+01 0. -1.
</event>
<event>
 5   0  0.3943549E-03  0.9069016E+03  0.7818609E-02  0.9416995E-01
        1   -1    0    0  501    0  0.00000000000E+00  0.00000000000E+00  0.12336384210E+04  0.12336384210E+04  0.50400001928E-02 0.  1.
       -1   -1    0    0    0  501  0.00000000000E+00  0.00000000000E+00 -0.16667576997E+03  0.16667577005E+03  0.50400001928E-02 0. -1.
    10030    2    1    2    0    0  0.00000000000E+00  0.00000000000E+00  0.10669626510E+04  0.14003141910E+04  0.90690161261E+03 0.  0.
        3    1    3    3  502    0 -0.31696383614E+03 -0.26444537631E+03  0.82325650402E+03  0.92094989662E+03  0.10100000352E+00 0.  1.
       -3    1    3    3    0  502  0.31696383614E+03  0.26444537631E+03  0.24370614698E+03  0.47936429440E+03  0.10100000352E+00 0. -1.
</event>
<event>
 5   0  0.6609191E-03  0.9070509E+03  0.7818609E-02  0.9416810E-01
       -2   -1    0    0    0  501  0.00000000000E+00  0.00000000000E+00  0.25494994271E+03  0.25494994272E+03  0.25500000920E-02 0. -1.
        2   -1    0    0  501    0  0.00000000000E+00  0.00000000000E+00 -0.80676752917E+03  0.80676752917E+03  0.25500000920E-02 0.  1.
    10030    2    1    2    0    0  0.00000000000E+00  0.00000000000E+00 -0.55181758646E+03  0.10617174719E+04  0.90705090342E+03 0.  0.
        2    1    3    3  502    0  0.18599931796E+03  0.40294062073E+03 -0.16655200430E+03  0.47402158206E+03  0.25500000920E-02 0.  1.
       -2    1    3    3    0  502 -0.18599931796E+03 -0.40294062073E+03 -0.38526558216E+03  0.58769588983E+03  0.25500000920E-02 0. -1.
</event>
<event>
 5   0  0.6534628E-03  0.9004168E+03  0.7818609E-02  0.9425060E-01
        2   -1    0    0  501    0  0.00000000000E+00  0.00000000000E+00  0.40516187809E+03  0.40516187810E+03  0.25500000920E-02 0.  1.
       -2   -1    0    0    0  501  0.00000000000E+00  0.00000000000E+00 -0.50026331458E+03  0.50026331458E+03  0.25500000920E-02 0. -1.
    10030    2    1    2    0    0  0.00000000000E+00  0.00000000000E+00 -0.95101436483E+02  0.90542519268E+03  0.90041684587E+03 0.  0.
        4    1    3    3  502    0  0.23120387657E+03  0.78818978588E+02 -0.42783190457E+03  0.49265547332E+03  0.12699999809E+01 0. -1.
       -4    1    3    3    0  502 -0.23120387657E+03 -0.78818978588E+02  0.33273046809E+03  0.41276971936E+03  0.12699999809E+01 0.  1.
</event>
<event>
 5   0  0.3794006E-03  0.9038771E+03  0.7818609E-02  0.9420748E-01
       -1   -1    0    0    0  501  0.00000000000E+00  0.00000000000E+00  0.13001564993E+03  0.13001565002E+03  0.50400001928E-02 0. -1.
        1   -1    0    0  501    0  0.00000000000E+00  0.00000000000E+00 -0.15709529439E+04  0.15709529440E+04  0.50400001928E-02 0.  1.
    10030    2    1    2    0    0  0.00000000000E+00  0.00000000000E+00 -0.14409372940E+04  0.17009685940E+04  0.90387713347E+03 0.  0.
        5    1    3    3  502    0  0.41397119380E+03 -0.83450435641E+02 -0.10232680731E+04  0.11069940216E+04  0.46999998093E+01 0.  1.
       -5    1    3    3    0  502 -0.41397119380E+03  0.83450435641E+02 -0.41766922095E+03  0.59397457237E+03  0.46999998093E+01 0. -1.
</event>
<event>
 5   0  0.2560250E-03  0.8986322E+03  0.7818609E-02  0.9427293E-01
       -4   -1    0    0    0  501  0.00000000000E+00  0.00000000000E+00  0.56054400145E+03  0.56054544014E+03  0.12699999809E+01 0. -1.
        4   -1    0    0  501    0  0.00000000000E+00  0.00000000000E+00 -0.36015597168E+03  0.36015821085E+03  0.12699999809E+01 0.  1.
    10030    2    1    2    0    0  0.00000000000E+00  0.00000000000E+00  0.20038802977E+03  0.92070365099E+03  0.89863221090E+03 0.  0.
        5    1    3    3  502    0 -0.25463075698E+03  0.36771116922E+03  0.56550280412E+02  0.45085291458E+03  0.46999998093E+01 0. -1.
       -5    1    3    3    0  502  0.25463075698E+03 -0.36771116922E+03  0.14383774935E+03  0.46985073641E+03  0.46999998093E+01 0.  1.
</event>
<event>
 5   0  0.6609191E-03  0.8888007E+03  0.7818609E-02  0.9439690E-01
        2   -1    0    0  501    0  0.00000000000E+00  0.00000000000E+00  0.78235796831E+03  0.78235796831E+03  0.25500000920E-02 0. -1.
       -2   -1    0    0    0  501  0.00000000000E+00  0.00000000000E+00 -0.25243135007E+03  0.25243135009E+03  0.25500000920E-02 0.  1.
    10030    2    1    2    0    0  0.00000000000E+00  0.00000000000E+00  0.52992661824E+03  0.10347893184E+04  0.88880071600E+03 0.  0.
        2    1    3    3  502    0  0.10133972653E+03  0.37596939309E+03  0.51431192225E+03  0.64508873660E+03  0.25500000920E-02 0. -1.
       -2    1    3    3    0  502 -0.10133972653E+03 -0.37596939309E+03  0.15614695986E+02  0.38970058180E+03  0.25500000920E-02 0.  1.
</event>
<event>
 5   0  0.6524705E-03  0.8867954E+03  0.7818609E-02  0.9442240E-01
        2   -1    0    0  501    0  0.00000000000E+00  0.00000000000E+00  0.68368025262E+03  0.68368025262E+03  0.25500000920E-02 0. -1.
       -2   -1    0    0    0  501  0.00000000000E+00  0.00000000000E+00 -0.28756353702E+03  0.28756353703E+03  0.25500000920E-02 0.  1.
    10030    2    1    2    0    0  0.00000000000E+00  0.00000000000E+00  0.39611671560E+03  0.97124378966E+03  0.88679538033E+03 0.  0.
        3    1    3    3  502    0  0.20662713697E+03  0.30874946395E+03 -0.67024324157E+02  0.37750930512E+03  0.10100000352E+00 0. -1.
       -3    1    3    3    0  502 -0.20662713697E+03 -0.30874946395E+03  0.46314103975E+03  0.59373448454E+03  0.10100000352E+00 0.  1.
</event>
<event>
 5   0  0.6724773E-03  0.8989587E+03  0.7818609E-02  0.9426884E-01
        2   -1    0    0  501    0  0.00000000000E+00  0.00000000000E+00  0.13972904572E+04  0.13972904572E+04  0.25500000920E-02 0.  1.
       -2   -1    0    0    0  501  0.00000000000E+00  0.00000000000E+00 -0.14458818542E+03  0.14458818544E+03  0.25500000920E-02 0. -1.
    10030    2    1    2    0    0  0.00000000000E+00  0.00000000000E+00  0.12527022717E+04  0.15418786426E+04  0.89895871257E+03 0.  0.
        5    1    3    3  502    0  0.31613770504E+03 -0.27745731212E+03  0.89800055675E+03  0.99164141630E+03  0.46999998093E+01 0.  1.
       -5    1    3    3    0  502 -0.31613770504E+03  0.27745731212E+03  0.35470171498E+03  0.55023722630E+03  0.46999998093E+01 0. -1.
</event>
<event>
 5   0  0.3927993E-03  0.9004476E+03  0.7818609E-02  0.9425022E-01
       -1   -1    0    0    0  501  0.00000000000E+00  0.00000000000E+00  0.79959457946E+03  0.79959457947E+03  0.50400001928E-02 0. -1.
        1   -1    0    0  501    0  0.00000000000E+00  0.00000000000E+00 -0.25350532220E+03  0.25350532225E+03  0.50400001928E-02 0.  1.
    10030    2    1    2    0    0  0.00000000000E+00  0.00000000000E+00  0.54608925725E+03  0.10530999017E+04  0.90044762542E+03 0.  0.
        2    1    3    3  502    0 -0.31211875164E+03 -0.31911567825E+03  0.20436476925E+03  0.49093572914E+03  0.25500000920E-02 0. -1.
       -2    1    3    3    0  502  0.31211875164E+03  0.31911567825E+03  0.34172448801E+03  0.56216417259E+03  0.25500000920E-02 0.  1.
</event>
<event>
 5   0  0.6609191E-03  0.8524837E+03  0.7818609E-02  0.9487009E-01
       -2   -1    0    0    0  501  0.00000000000E+00  0.00000000000E+00  0.97984562564E+02  0.97984562597E+02  0.25500000920E-02 0.  1.
        2   -1    0    0  501    0  0.00000000000E+00  0.00000000000E+00 -0.18541913068E+04  0.18541913068E+04  0.25500000920E-02 0. -1.
    10030    2    1    2    0    0  0.00000000000E+00  0.00000000000E+00 -0.17562067442E+04  0.19521758694E+04  0.85248372217E+03 0.  0.
        2    1    3    3  502    0 -0.25303878707E+03  0.33645397268E+03 -0.72530413558E+03  0.83862744565E+03  0.25500000920E-02 0. -1.
       -2    1    3    3    0  502  0.25303878707E+03 -0.33645397268E+03 -0.10309026087E+04  0.11135484238E+04  0.25500000920E-02 0.  1.
</event>
<event>
 5   0  0.3927993E-03  0.9015247E+03  0.7818609E-02  0.9423677E-01
        1   -1    0    0  501    0  0.00000000000E+00  0.00000000000E+00  0.62715016386E+03  0.62715016388E+03  0.50400001928E-02 0. -1.
       -1   -1    0    0    0  501  0.00000000000E+00  0.00000000000E+00 -0.32398413270E+03  0.32398413274E+03  0.50400001928E-02 0.  1.
    10030    2    1    2    0    0  0.00000000000E+00  0.00000000000E+00  0.30316603116E+03  0.95113429662E+03  0.90152471278E+03 0.  0.
        2    1    3    3  502    0 -0.38131216580E+03  0.17244887347E+03  0.32827783950E+03  0.53188713244E+03  0.25500000920E-02 0. -1.
       -2    1    3    3    0  502  0.38131216580E+03 -0.17244887347E+03 -0.25111808333E+02  0.41924716418E+03  0.25500000920E-02 0.  1.
</event>
<event>
 5   0  0.6724773E-03  0.8588352E+03  0.7818609E-02  0.9478555E-01
        2   -1    0    0  501    0  0.00000000000E+00  0.00000000000E+00  0.50803981071E+03  0.50803981071E+03  0.25500000920E-02 0.  1.
       -2   -1    0    0    0  501  0.00000000000E+00  0.00000000000E+00 -0.36296267342E+03  0.36296267343E+03  0.25500000920E-02 0. -1.
    10030    2    1    2    0    0  0.00000000000E+00  0.00000000000E+00  0.14507713728E+03  0.87100248415E+03  0.85883522962E+03 0.  0.
        5    1    3    3  502    0 -0.64094437949E+02 -0.33573971618E+03  0.33612087433E+03  0.47940440773E+03  0.46999998093E+01 0.  1.
       -5    1    3    3    0  502  0.64094437949E+02  0.33573971618E+03 -0.19104373704E+03  0.39159807642E+03  0.46999998093E+01 0. -1.
</event>
<event>
 5   0  0.3969536E-03  0.8862849E+03  0.7818609E-02  0.9442890E-01
        1   -1    0    0  501    0  0.00000000000E+00  0.00000000000E+00  0.41872818642E+03  0.41872818645E+03  0.50400001928E-02 0.  1.
       -1   -1    0    0    0  501  0.00000000000E+00  0.00000000000E+00 -0.46898016929E+03  0.46898016931E+03  0.50400001928E-02 0. -1.
    10030    2    1    2    0    0  0.00000000000E+00  0.00000000000E+00 -0.50251982870E+02  0.88770835576E+03  0.88628486566E+03 0.  0.
        1    1    3    3  502    0 -0.13532505676E+03 -0.26686792139E+03 -0.35252077377E+03  0.46238755868E+03  0.50400001928E-02 0. -1.
       -1    1    3    3    0  502  0.13532505676E+03  0.26686792139E+03  0.30226879090E+03  0.42532079708E+03  0.50400001928E-02 0.  1.
</event>
<event>
 5   0  0.3927993E-03  0.9090138E+03  0.7818609E-02  0.9414383E-01
        1   -1    0    0  501    0  0.00000000000E+00  0.00000000000E+00  0.14988547830E+04  0.14988547830E+04  0.50400001928E-02 0. -1.
       -1   -1    0    0    0  501  0.00000000000E+00  0.00000000000E+00 -0.13782291408E+03  0.13782291417E+03  0.50400001928E-02 0.  1.
    10030    2    1    2    0    0  0.00000000000E+00  0.00000000000E+00  0.13610318689E+04  0.16366776972E+04  0.90901382621E+03 0.  0.
        2    1    3    3  502    0  0.79454462598E+02 -0.24818644123E+03  0.10046080794E+02  0.26078812278E+03  0.25500000920E-02 0.  1.
       -2    1    3    3    0  502 -0.79454462598E+02  0.24818644123E+03  0.13509857881E+04  0.13758895744E+04  0.25500000920E-02 0. -1.
</event>
<event>
 5   0  0.3969536E-03  0.9038428E+03  0.7818609E-02  0.9420791E-01
       -1   -1    0    0    0  501  0.00000000000E+00  0.00000000000E+00  0.29486216955E+03  0.29486216960E+03  0.50400001928E-02 0. -1.
        1   -1    0    0  501    0  0.00000000000E+00  0.00000000000E+00 -0.69263863662E+03  0.69263863664E+03  0.50400001928E-02 0.  1.
    10030    2    1    2    0    0  0.00000000000E+00  0.00000000000E+00 -0.39777646707E+03  0.98750080623E+03  0.90384275433E+03 0.  0.
        1    1    3    3  502    0  0.31901265577E+03  0.28854778657E+03 -0.47483036688E+02  0.43276268147E+03  0.50400001928E-02 0. -1.
       -1    1    3    3    0  502 -0.31901265577E+03 -0.28854778657E+03 -0.35029343038E+03  0.55473812476E+03  0.50400001928E-02 0.  1.
</event>
<event>
 5   0  0.6724773E-03  0.9010864E+03  0.7818609E-02  0.9424224E-01
        2   -1    0    0  501    0  0.00000000000E+00  0.00000000000E+00  0.11940216074E+04  0.11940216074E+04  0.25500000920E-02 0.  1.
       -2   -1    0    0    0  501  0.00000000000E+00  0.00000000000E+00 -0.17000462322E+03  0.17000462324E+03  0.25500000920E-02 0. -1.
    10030    2    1    2    0    0  0.00000000000E+00  0.00000000000E+00  0.10240169842E+04  0.13640262306E+04  0.90108644091E+03 0.  0.
        5    1    3    3  502    0  0.35217581497E+03  0.12669303869E+03  0.89162121151E+03  0.96700020968E+03  0.46999998093E+01 0.  1.
       -5    1    3    3    0  502 -0.35217581497E+03 -0.12669303869E+03  0.13239577266E+03  0.39702602096E+03  0.46999998093E+01 0. -1.
</event>
<event>
 5   0  0.3794006E-03  0.9026325E+03  0.7818609E-02  0.9422297E-01
        1   -1    0    0  501    0  0.00000000000E+00  0.00000000000E+00  0.28303479507E+03  0.28303479512E+03  0.50400001928E-02 0. -1.
       -1   -1    0    0    0  501  0.00000000000E+00  0.00000000000E+00 -0.71965135486E+03  0.71965135488E+03  0.50400001928E-02 0.  1.
    10030    2    1    2    0    0  0.00000000000E+00  0.00000000000E+00 -0.43661655979E+03  0.10026861500E+04  0.90263253603E+03 0.  0.
        5    1    3    3  502    0 -0.42744961540E+03  0.60022427711E+02 -0.36462163666E+03  0.56505477031E+03  0.46999998093E+01 0. -1.
       -5    1    3    3    0  502  0.42744961540E+03 -0.60022427711E+02 -0.71994923127E+02  0.43763137968E+03  0.46999998093E+01 0.  1.
</event>
<event>
 5   0  0.3943549E-03  0.8986476E+03  0.7818609E-02  0.9427274E-01
       -1   -1    0    0    0  501  0.00000000000E+00  0.00000000000E+00  0.44785672871E+03  0.44785672874E+03  0.50400001928E-02 0. -1.
        1   -1    0    0  501    0  0.00000000000E+00  0.00000000000E+00 -0.45079569938E+03  0.45079569941E+03  0.50400001928E-02 0.  1.
    10030    2    1    2    0    0  0.00000000000E+00  0.00000000000E+00 -0.29389706687E+01  0.89865242814E+03  0.89864762230E+03 0.  0.
        3    1    3    3  502    0  0.21422096944E+03 -0.20863353206E+02 -0.39589012083E+03  0.45061613512E+03  0.10100000352E+00 0.  1.
       -3    1    3    3    0  502 -0.21422096944E+03  0.20863353206E+02  0.39295115016E+03  0.44803629303E+03  0.10100000352E+00 0. -1.
</event>
<event>
 5   0  0.6863405E-03  0.9025363E+03  0.7818609E-02  0.9422417E-01
        2   -1    0    0  501    0  0.00000000000E+00  0.00000000000E+00  0.38420197927E+03  0.38420197928E+03  0.25500000920E-02 0. -1.
       -2   -1    0    0    0  501  0.00000000000E+00  0.00000000000E+00 -0.53004132695E+03  0.53004132696E+03  0.25500000920E-02 0.  1.
    10030    2    1    2    0    0  0.00000000000E+00  0.00000000000E+00 -0.14583934768E+03  0.91424330624E+03  0.90253626391E+03 0.  0.
        1    1    3    3  502    0  0.22894413112E+03 -0.53200594649E+01  0.32096754392E+03  0.39428908491E+03  0.50400001928E-02 0. -1.
       -1    1    3    3    0  502 -0.22894413112E+03  0.53200594649E+01 -0.46680689160E+03  0.51995422133E+03  0.50400001928E-02 0.  1.
</event>
<event>
 5   0  0.3943549E-03  0.9037768E+03  0.7818609E-02  0.9420872E-01
       -1   -1    0    0    0  501  0.00000000000E+00  0.00000000000E+00  0.12691956297E+04  0.12691956297E+04  0.50400001928E-02 0. -1.
        1   -1    0    0  501    0  0.00000000000E+00  0.00000000000E+00 -0.16089178032E+03  0.16089178040E+03  0.50400001928E-02 0.  1.
    10030    2    1    2    0    0  0.00000000000E+00  0.00000000000E+00  0.11083038494E+04  0.14300874101E+04  0.90377684081E+03 0.  0.
        3    1    3    3  502    0  0.57308346749E+02  0.13557280152E+01  0.12634189526E+04  0.12647187611E+04  0.10100000352E+00 0. -1.
       -3    1    3    3    0  502 -0.57308346749E+02 -0.13557280152E+01 -0.15511510327E+03  0.16536864899E+03  0.10100000352E+00 0.  1.
</event>
<event>
 5   0  0.6524705E-03  0.9019586E+03  0.7818609E-02  0.9423136E-01
       -2   -1    0    0    0  501  0.00000000000E+00  0.00000000000E+00  0.31298488920E+03  0.31298488921E+03  0.25500000920E-02 0. -1.
        2   -1    0    0  501    0  0.00000000000E+00  0.00000000000E+00 -0.64981523000E+03  0.64981523001E+03  0.25500000920E-02 0.  1.
    10030    2    1    2    0    0  0.00000000000E+00  0.00000000000E+00 -0.33683034080E+03  0.96280011922E+03  0.90195864156E+03 0.  0.
        3    1    3    3  502    0  0.13584280894E+03 -0.13693891301E+03 -0.60356088535E+03  0.63363340123E+03  0.10100000352E+00 0.  1.
       -3    1    3    3    0  502 -0.13584280894E+03  0.13693891301E+03  0.26673054455E+03  0.32916671799E+03  0.10100000352E+00 0. -1.
</event>
<event>
 5   0  0.3969536E-03  0.9057167E+03  0.7818609E-02  0.9418463E-01
       -1   -1    0    0    0  501  0.00000000000E+00  0.00000000000E+00  0.31006394468E+03  0.31006394472E+03  0.50400001928E-02 0. -1.
        1   -1    0    0  501    0  0.00000000000E+00  0.00000000000E+00 -0.66141423037E+03  0.66141423039E+03  0.50400001928E-02 0.  1.
    10030    2    1    2    0    0  0.00000000000E+00  0.00000000000E+00 -0.35135028569E+03  0.97147817511E+03  0.90571674460E+03 0.  0.
        1    1    3    3  502    0 -0.17741610302E+03  0.13013808674E+03  0.24887718931E+03  0.33219309237E+03  0.50400001928E-02 0. -1.
       -1    1    3    3    0  502  0.17741610302E+03 -0.13013808674E+03 -0.60022747501E+03  0.63928508274E+03  0.50400001928E-02 0.  1.
</event>
<event>
 5   0  0.3969536E-03  0.9072519E+03  0.7818609E-02  0.9416561E-01
       -1   -1    0    0    0  501  0.00000000000E+00  0.00000000000E+00  0.76462279939E+03  0.76462279941E+03  0.50400001928E-02 0. -1.
        1   -1    0    0  501    0  0.00000000000E+00  0.00000000000E+00 -0.26912158635E+03  0.26912158640E+03  0.50400001928E-02 0.  1.
    10030    2    1    2    0    0  0.00000000000E+00  0.00000000000E+00  0.49550121304E+03  0.10337443858E+04  0.90725189614E+03 0.  0.
        1    1    3    3  502    0 -0.34157107334E+03 -0.16355955589E+03 -0.36772373752E+02  0.38049275153E+03  0.50400001928E-02 0.  1.
       -1    1    3    3    0  502  0.34157107334E+03  0.16355955589E+03  0.53227358679E+03  0.65325163428E+03  0.50400001928E-02 0. -1.
</event>
<event>
 5   0  0.6863405E-03  0.8980586E+03  0.7818609E-02  0.9428012E-01
        2   -1    0    0  501    0  0.00000000000E+00  0.00000000000E+00  0.50953425849E+03  0.50953425850E+03  0.25500000920E-02 0.  1.
       -2   -1    0    0    0  501  0.00000000000E+00  0.00000000000E+00 -0.39570904157E+03  0.39570904158E+03  0.25500000920E-02 0. -1.
    10030    2    1    2    0    0  0.00000000000E+00  0.00000000000E+00  0.11382521692E+03  0.90524330008E+03  0.89805860183E+03 0.  0.
        1    1    3    3  502    0  0.35913956893E+03  0.56239165431E+02 -0.20879296902E+03  0.41921185293E+03  0.50400001928E-02 0. -1.
       -1    1    3    3    0  502 -0.35913956893E+03 -0.56239165431E+02  0.32261818594E+03  0.48603144715E+03  0.50400001928E-02 0.  1.
</event>
<event>
 5   0  0.3943549E-03  0.8807003E+03  0.7818609E-02  0.9450034E-01
        1   -1    0    0  501    0  0.00000000000E+00  0.00000000000E+00  0.10213269799E+04  0.10213269799E+04  0.50400001928E-02 0.  1.
       -1   -1    0    0    0  501  0.00000000000E+00  0.00000000000E+00 -0.18985914130E+03  0.18985914137E+03  0.50400001928E-02 0. -1.
    10030    2    1    2    0    0  0.00000000000E+00  0.00000000000E+00  0.83146783857E+03  0.12111861212E+04  0.88070032004E+03 0.  0.
        3    1    3    3  502    0  0.28912688053E+03 -0.37909242766E+02  0.86951917898E+03  0.91711235764E+03  0.10100000352E+00 0.  1.
       -3    1    3    3    0  502 -0.28912688053E+03  0.37909242766E+02 -0.38051340409E+02  0.29407376360E+03  0.10100000352E+00 0. -1.
</event>
<event>
 5   0  0.3969536E-03  0.8863190E+03  0.7818609E-02  0.9442847E-01
        1   -1    0    0  501    0  0.00000000000E+00  0.00000000000E+00  0.65981228951E+03  0.65981228953E+03  0.50400001928E-02 0.  1.
       -1   -1    0    0    0  501  0.00000000000E+00  0.00000000000E+00 -0.29764576601E+03  0.29764576605E+03  0.50400001928E-02 0. -1.
    10030    2    1    2    0    0  0.00000000000E+00  0.00000000000E+00  0.36216652350E+03  0.95745805558E+03  0.88631898177E+03 0.  0.
        1    1    3    3  502    0 -0.18124112995E+03 -0.39467580559E+03  0.27632425565E+03  0.51475473091E+03  0.50400001928E-02 0. -1.
       -1    1    3    3    0  502  0.18124112995E+03  0.39467580559E+03  0.85842267846E+02  0.44270332467E+03  0.50400001928E-02 0.  1.
</event>
<event>
 5   0  0.6524705E-03  0.8840498E+03  0.7818609E-02  0.9445743E-01
       -2   -1    0    0    0  501  0.00000000000E+00  0.00000000000E+00  0.17361188057E+03  0.17361188059E+03  0.25500000920E-02 0.  1.
        2   -1    0    0  501    0  0.00000000000E+00  0.00000000000E+00 -0.11254184328E+04  0.11254184328E+04  0.25500000920E-02 0. -1.
    10030    2    1    2    0    0  0.00000000000E+00  0.00000000000E+00 -0.95180655220E+03  0.12990303134E+04  0.88404979623E+03 0.  0.
        3    1    3    3  502    0  0.19027583292E+03 -0.22263966675E+03 -0.96239221276E+03  0.10059682377E+04  0.10100000352E+00 0. -1.
       -3    1    3    3    0  502 -0.19027583292E+03  0.22263966675E+03  0.10585660557E+02  0.29306207570E+03  0.10100000352E+00 0.  1.
</event>
<event>
 5   0  0.6724773E-03  0.8840514E+03  0.7818609E-02  0.9445740E-01
        2   -1    0    0  501    0  0.00000000000E+00  0.00000000000E+00  0.32493398011E+03  0.32493398012E+03  0.25500000920E-02 0. -1.
       -2   -1    0    0    0  501  0.00000000000E+00  0.00000000000E+00 -0.60131208507E+03  0.60131208507E+03  0.25500000920E-02 0.  1.
    10030    2    1    2    0    0  0.00000000000E+00  0.00000000000E+00 -0.27637810496E+03  0.92624606519E+03  0.88405142180E+03 0.  0.
        5    1    3    3  502    0  0.40641877246E+03  0.90468167411E+02 -0.29360621942E+03  0.50949721295E+03  0.46999998093E+01 0.  1.
       -5    1    3    3    0  502 -0.40641877246E+03 -0.90468167411E+02  0.17228114464E+02  0.41674885224E+03  0.46999998093E+01 0. -1.
</event>
<event>
 5   0  0.6609191E-03  0.8977382E+03  0.7818609E-02  0.9428413E-01
        2   -1    0    0  501    0  0.00000000000E+00  0.00000000000E+00  0.42427721510E+03  0.42427721511E+03  0.25500000920E-02 0. -1.
       -2   -1    0    0    0  501  0.00000000000E+00  0.00000000000E+00 -0.47488633894E+03  0.47488633895E+03  0.25500000920E-02 0.  1.
    10030    2    1    2    0    0  0.00000000000E+00  0.00000000000E+00 -0.50609123843E+02  0.89916355405E+03  0.89773816535E+03 0.  0.
        2    1    3    3  502    0 -0.31243649985E+03 -0.27665578993E+03 -0.19088025929E+03  0.45890115050E+03  0.25500000920E-02 0.  1.
       -2    1    3    3    0  502  0.31243649985E+03  0.27665578993E+03  0.14027113545E+03  0.44026240355E+03  0.25500000920E-02 0. -1.
</event>
<event>
 5   0  0.6609191E-03  0.9055463E+03  0.7818609E-02  0.9418675E-01
       -2   -1    0    0    0  501  0.00000000000E+00  0.00000000000E+00  0.10111029780E+03  0.10111029784E+03  0.25500000920E-02 0.  1.
        2   -1    0    0  501    0  0.00000000000E+00  0.00000000000E+00 -0.20275235143E+04  0.20275235143E+04  0.25500000920E-02 0. -1.
    10030    2    1    2    0    0  0.00000000000E+00  0.00000000000E+00 -0.19264132165E+04  0.21286338121E+04  0.90554625806E+03 0.  0.
        2    1    3    3  502    0 -0.40818893798E+03 -0.79964673197E+02 -0.13836464589E+04  0.14448148952E+04  0.25500000920E-02 0. -1.
       -2    1    3    3    0  502  0.40818893798E+03  0.79964673197E+02 -0.54276675758E+03  0.68381891696E+03  0.25500000920E-02 0.  1.
</event>
<event>
 5   0  0.6524705E-03  0.9027805E+03  0.7818609E-02  0.9422112E-01
        2   -1    0    0  501    0  0.00000000000E+00  0.00000000000E+00  0.51458278567E+03  0.51458278567E+03  0.25500000920E-02 0.  1.
       -2   -1    0    0    0  501  0.00000000000E+00  0.00000000000E+00 -0.39595801315E+03  0.39595801316E+03  0.25500000920E-02 0. -1.
    10030    2    1    2    0    0  0.00000000000E+00  0.00000000000E+00  0.11862477252E+03  0.91054079884E+03  0.90278054348E+03 0.  0.
        3    1    3    3  502    0  0.14884201339E+03 -0.84147814522E+02 -0.36203256116E+03  0.40037780306E+03  0.10100000352E+00 0. -1.
       -3    1    3    3    0  502 -0.14884201339E+03  0.84147814522E+02  0.48065733368E+03  0.51016299578E+03  0.10100000352E+00 0.  1.
</event>
<event>
 5   0  0.3927993E-03  0.9137209E+03  0.7818609E-02  0.9408590E-01
       -1   -1    0    0    0  501  0.00000000000E+00  0.00000000000E+00  0.36710542366E+03  0.36710542370E+03  0.50400001928E-02 0. -1.
        1   -1    0    0  501    0  0.00000000000E+00  0.00000000000E+00 -0.56856001230E+03  0.56856001232E+03  0.50400001928E-02 0.  1.
    10030    2    1    2    0    0  0.00000000000E+00  0.00000000000E+00 -0.20145458864E+03  0.93566543602E+03  0.91372088565E+03 0.  0.
        2    1    3    3  502    0  0.16969341251E+03  0.31939526530E+03 -0.38655872035E+03  0.52937400203E+03  0.25500000920E-02 0.  1.
       -2    1    3    3    0  502 -0.16969341251E+03 -0.31939526530E+03  0.18510413171E+03  0.40629143398E+03  0.25500000920E-02 0. -1.
</event>
<event>
 5   0  0.6863405E-03  0.9092734E+03  0.7818609E-02  0.9414063E-01
        2   -1    0    0  501    0  0.00000000000E+00  0.00000000000E+00  0.85145785294E+03  0.85145785294E+03  0.25500000920E-02 0.  1.
       -2   -1    0    0    0  501  0.00000000000E+00  0.00000000000E+00 -0.24275368744E+03  0.24275368745E+03  0.25500000920E-02 0. -1.
    10030    2    1    2    0    0  0.00000000000E+00  0.00000000000E+00  0.60870416550E+03  0.10942115404E+04  0.90927340995E+03 0.  0.
        1    1    3    3  502    0  0.21166703930E+03  0.36607301489E+03  0.10341046418E+03  0.43532299719E+03  0.50400001928E-02 0. -1.
       -1    1    3    3    0  502 -0.21166703930E+03 -0.36607301489E+03  0.50529370132E+03  0.65888854321E+03  0.50400001928E-02 0.  1.
</event>
<event>
 5   0  0.3943549E-03  0.9027203E+03  0.7818609E-02  0.9422187E-01
       -1   -1    0    0    0  501  0.00000000000E+00  0.00000000000E+00  0.40524754760E+03  0.40524754763E+03  0.50400001928E-02 0.  1.
        1   -1    0    0  501    0  0.00000000000E+00  0.00000000000E+00 -0.50271983961E+03  0.50271983964E+03  0.50400001928E-02 0. -1.
    10030    2    1    2    0    0  0.00000000000E+00  0.00000000000E+00 -0.97472292015E+02  0.90796738727E+03  0.90272029369E+03 0.  0.
        3    1    3    3  502    0  0.27986589928E+03  0.25831532734E+03 -0.29237176859E+03  0.48013851250E+03  0.10100000352E+00 0. -1.
       -3    1    3    3    0  502 -0.27986589928E+03 -0.25831532734E+03  0.19489947657E+03  0.42782887477E+03  0.10100000352E+00 0.  1.
</event>
<event>
 5   0  0.3943549E-03  0.9005049E+03  0.7818609E-02  0.9424951E-01
        1   -1    0    0  501    0  0.00000000000E+00  0.00000000000E+00  0.62224425257E+03  0.62224425259E+03  0.50400001928E-02 0.  1.
       -1   -1    0    0    0  501  0.00000000000E+00  0.00000000000E+00 -0.32580012279E+03  0.32580012283E+03  0.50400001928E-02 0. -1.
    10030    2    1    2    0    0  0.00000000000E+00  0.00000000000E+00  0.29644412977E+03  0.94804437542E+03  0.90050486711E+03 0.  0.
        3    1    3    3  502    0  0.21222199319E+03 -0.13672957610E+03 -0.24427893953E+03  0.35129099315E+03  0.10100000352E+00 0. -1.
       -3    1    3    3    0  502 -0.21222199319E+03  0.13672957610E+03  0.54072306930E+03  0.59675338227E+03  0.10100000352E+00 0.  1.
</event>
<event>
 5   0  0.3998066E-03  0.8986305E+03  0.7818609E-02  0.9427295E-01
       -1   -1    0    0    0  501  0.00000000000E+00  0.00000000000E+00  0.11076646853E+03  0.11076646864E+03  0.50400001928E-02 0. -1.
        1   -1    0    0  501    0  0.00000000000E+00  0.00000000000E+00 -0.18226112756E+04  0.18226112756E+04  0.50400001928E-02 0.  1.
    10030    2    1    2    0    0  0.00000000000E+00  0.00000000000E+00 -0.17118448071E+04  0.19333777443E+04  0.89863054614E+03 0.  0.
        4    1    3    3  502    0 -0.86172829421E+02 -0.34119843085E+03 -0.14569514939E+04  0.14988500239E+04  0.12699999809E+01 0.  1.
       -4    1    3    3    0  502  0.86172829421E+02  0.34119843085E+03 -0.25489331323E+03  0.43452772038E+03  0.12699999809E+01 0. -1.
</event>
<event>
 5   0  0.6534628E-03  0.8957835E+03  0.7818609E-02  0.9430868E-01
       -2   -1    0    0    0  501  0.00000000000E+00  0.00000000000E+00  0.12340013894E+03  0.12340013897E+03  0.25500000920E-02 0. -1.
        2   -1    0    0  501    0  0.00000000000E+00  0.00000000000E+00 -0.16256628239E+04  0.16256628239E+04  0.25500000920E-02 0.  1.
    10030    2    1    2    0    0  0.00000000000E+00  0.00000000000E+00 -0.15022626850E+04  0.17490629629E+04  0.89578349698E+03 0.  0.
        4    1    3    3  502    0 -0.33098206002E+03 -0.86849618438E+02 -0.13153929923E+04  0.13591733949E+04  0.12699999809E+01 0.  1.
       -4    1    3    3    0  502  0.33098206002E+03  0.86849618438E+02 -0.18686969265E+03  0.38988956797E+03  0.12699999809E+01 0. -1.
</event>
<event>
 5   0  0.3943549E-03  0.9115585E+03  0.7818609E-02  0.9411247E-01
        1   -1    0    0  501    0  0.00000000000E+00  0.00000000000E+00  0.42672561405E+03  0.42672561408E+03  0.50400001928E-02 0. -1.
       -1   -1    0    0    0  501  0.00000000000E+00  0.00000000000E+00 -0.48681104950E+03  0.48681104952E+03  0.50400001928E-02 0.  1.
    10030    2    1    2    0    0  0.00000000000E+00  0.00000000000E+00 -0.60085435446E+02  0.91353666360E+03  0.91155854238E+03 0.  0.
        3    1    3    3  502    0  0.78416593955E+02  0.88149667352E+01 -0.47991311949E+03  0.48635735659E+03  0.10100000352E+00 0.  1.
       -3    1    3    3    0  502 -0.78416593955E+02 -0.88149667352E+01  0.41982768405E+03  0.42717930701E+03  0.10100000352E+00 0. -1.
</event>
<event>
 5   0  0.6724773E-03  0.9113437E+03  0.7818609E-02  0.9411511E-01
       -2   -1    0    0    0  501  0.00000000000E+00  0.00000000000E+00  0.10615582754E+03  0.10615582757E+03  0.25500000920E-02 0.  1.
        2   -1    0    0  501    0  0.00000000000E+00  0.00000000000E+00 -0.19559626318E+04  0.19559626318E+04  0.25500000920E-02 0. -1.
    10030    2    1    2    0    0  0.00000000000E+00  0.00000000000E+00 -0.18498068043E+04  0.20621184594E+04  0.91134369333E+03 0.  0.
        5    1    3    3  502    0  0.10236643848E+03 -0.37711741761E+03 -0.39464203228E+03  0.55539252609E+03  0.46999998093E+01 0.  1.
       -5    1    3    3    0  502 -0.10236643848E+03  0.37711741761E+03 -0.14551647720E+04  0.15067259333E+04  0.46999998093E+01 0. -1.
</event>
<event>
 5   0  0.3943549E-03  0.9049763E+03  0.7818609E-02  0.9419382E-01
       -1   -1    0    0    0  501  0.00000000000E+00  0.00000000000E+00  0.55187020167E+03  0.55187020169E+03  0.50400001928E-02 0.  1.
        1   -1    0    0  501    0  0.00000000000E+00  0.00000000000E+00 -0.37100303100E+03  0.37100303103E+03  0.50400001928E-02 0. -1.
    10030    2    1    2    0    0  0.00000000000E+00  0.00000000000E+00  0.18086717067E+03  0.92287323272E+03  0.90497628159E+03 0.  0.
        3    1    3    3  502    0  0.28401800124E+03 -0.35187420523E+03  0.10699752621E+03  0.46468286191E+03  0.10100000352E+00 0.  1.
       -3    1    3    3    0  502 -0.28401800124E+03  0.35187420523E+03  0.73869644467E+02  0.45819037082E+03  0.10100000352E+00 0. -1.
</event>
<event>
 5   0  0.6863405E-03  0.9029458E+03  0.7818609E-02  0.9421907E-01
       -2   -1    0    0    0  501  0.00000000000E+00  0.00000000000E+00  0.12625165135E+04  0.12625165135E+04  0.25500000920E-02 0. -1.
        2   -1    0    0  501    0  0.00000000000E+00  0.00000000000E+00 -0.16144561814E+03  0.16144561816E+03  0.25500000920E-02 0.  1.
    10030    2    1    2    0    0  0.00000000000E+00  0.00000000000E+00  0.11010708954E+04  0.14239621317E+04  0.90294575463E+03 0.  0.
        1    1    3    3  502    0 -0.15839811698E+03 -0.31520406273E+03  0.10620732655E+03  0.36840678721E+03  0.50400001928E-02 0.  1.
       -1    1    3    3    0  502  0.15839811698E+03  0.31520406273E+03  0.99486356881E+03  0.10555553445E+04  0.50400001928E-02 0. -1.
</event>
<event>
 5   0  0.3943549E-03  0.9062581E+03  0.7818609E-02  0.9417792E-01
        1   -1    0    0  501    0  0.00000000000E+00  0.00000000000E+00  0.51875745457E+03  0.51875745459E+03  0.50400001928E-02 0. -1.
       -1   -1    0    0    0  501  0.00000000000E+00  0.00000000000E+00 -0.39580338269E+03  0.39580338273E+03  0.50400001928E-02 0.  1.
    10030    2    1    2    0    0  0.00000000000E+00  0.00000000000E+00  0.12295407188E+03  0.91456083732E+03  0.90625814279E+03 0.  0.
        3    1    3    3  502    0  0.35228506325E+03 -0.21023459609E+03  0.25565238771E+03  0.48338546185E+03  0.10100000352E+00 0.  1.
       -3    1    3    3    0  502 -0.35228506325E+03  0.21023459609E+03 -0.13269831583E+03  0.43117537547E+03  0.10100000352E+00 0. -1.
</event>
<event>
 5   0  0.6724773E-03  0.9086020E+03  0.7818609E-02  0.9414892E-01
       -2   -1    0    0    0  501  0.00000000000E+00  0.00000000000E+00  0.23899394872E+03  0.23899394873E+03  0.25500000920E-02 0. -1.
        2   -1    0    0  501    0  0.00000000000E+00  0.00000000000E+00 -0.86357581412E+03  0.86357581413E+03  0.25500000920E-02 0.  1.
    10030    2    1    2    0    0  0.00000000000E+00  0.00000000000E+00 -0.62458186541E+03  0.11025697629E+04  0.90860198953E+03 0.  0.
        5    1    3    3  502    0 -0.21764833395E+03 -0.34897427280E+03 -0.54638070584E+03  0.68389166252E+03  0.46999998093E+01 0.  1.
       -5    1    3    3    0  502  0.21764833395E+03  0.34897427280E+03 -0.78201159569E+02  0.41867810034E+03  0.46999998093E+01 0. -1.
</event>
<event>
 5   0  0.6524705E-03  0.9054138E+03  0.7818609E-02  0.9418839E-01
        2   -1    0    0  501    0  0.00000000000E+00  0.00000000000E+00  0.36841926991E+03  0.36841926992E+03  0.25500000920E-02 0. -1.
       -2   -1    0    0    0  501  0.00000000000E+00  0.00000000000E+00 -0.55627800025E+03  0.55627800026E+03  0.25500000920E-02 0.  1.
    10030    2    1    2    0    0  0.00000000000E+00  0.00000000000E+00 -0.18785873034E+03  0.92469727018E+03  0.90541379430E+03 0.  0.
        3    1    3    3  502    0 -0.40395444318E+03 -0.17475383202E+03 -0.20213602033E+03  0.48433157535E+03  0.10100000352E+00 0.  1.
       -3    1    3    3    0  502  0.40395444318E+03  0.17475383202E+03  0.14277289987E+02  0.44036569483E+03  0.10100000352E+00 0. -1.
</event>
<event>
 5   0  0.6524705E-03  0.9050869E+03  0.7818609E-02  0.9419245E-01
        2   -1    0    0  501    0  0.00000000000E+00  0.00000000000E+00  0.93427194376E+03  0.93427194376E+03  0.25500000920E-02 0.  1.
       -2   -1    0    0    0  501  0.00000000000E+00  0.00000000000E+00 -0.21920340322E+03  0.21920340323E+03  0.25500000920E-02 0. -1.
    10030    2    1    2    0    0  0.00000000000E+00  0.00000000000E+00  0.71506854054E+03  0.11534753470E+04  0.90508693420E+03 0.  0.
        3    1    3    3  502    0 -0.79932190875E+02 -0.14966708953E+02 -0.20981511299E+03  0.22502344179E+03  0.10100000352E+00 0. -1.
       -3    1    3    3    0  502  0.79932190875E+02  0.14966708953E+02  0.92488365353E+03  0.92845190521E+03  0.10100000352E+00 0.  1.
</event>
<event>
 5   0  0.3969536E-03  0.9075464E+03  0.7818609E-02  0.9416197E-01
       -1   -1    0    0    0  501  0.00000000000E+00  0.00000000000E+00  0.19512038640E+03  0.19512038646E+03  0.50400001928E-02 0.  1.
        1   -1    0    0  501    0  0.00000000000E+00  0.00000000000E+00 -0.10552977286E+04  0.10552977286E+04  0.50400001928E-02 0. -1.
    10030    2    1    2    0    0  0.00000000000E+00  0.00000000000E+00 -0.86017734223E+03  0.12504181151E+04  0.90754636382E+03 0.  0.
        1    1    3    3  502    0 -0.18513463889E+02 -0.38991955767E+03 -0.74886453087E+03  0.84449872434E+03  0.50400001928E-02 0. -1.
       -1    1    3    3    0  502  0.18513463889E+02  0.38991955767E+03 -0.11131281136E+03  0.40591939076E+03  0.50400001928E-02 0.  1.
</event>
<event>
 5   0  0.3998066E-03  0.8992092E+03  0.7818609E-02  0.9426571E-01
       -1   -1    0    0    0  501  0.00000000000E+00  0.00000000000E+00  0.21275706371E+03  0.21275706377E+03  0.50400001928E-02 0. -1.
        1   -1    0    0  501    0  0.00000000000E+00  0.00000000000E+00 -0.95011788654E+03  0.95011788655E+03  0.50400001928E-02 0.  1.
    10030    2    1    2    0    0  0.00000000000E+00  0.00000000000E+00 -0.73736082283E+03  0.11628749503E+04  0.89920918981E+03 0.  0.
        4    1    3    3  502    0 -0.18366905473E+03  0.88318623304E+01  0.16190279375E+03  0.24500296117E+03  0.12699999809E+01 0. -1.
       -4    1    3    3    0  502  0.18366905473E+03 -0.88318623304E+01 -0.89926361658E+03  0.91787198915E+03  0.12699999809E+01 0.  1.
</event>
<event>
 5   0  0.3969536E-03  0.8959949E+03  0.7818609E-02  0.9430602E-01
       -1   -1    0    0    0  501  0.00000000000E+00  0.00000000000E+00  0.38808358248E+03  0.38808358252E+03  0.50400001928E-02 0.  1.
        1   -1    0    0  501    0  0.00000000000E+00  0.00000000000E+00 -0.51716100716E+03  0.51716100719E+03  0.50400001928E-02 0. -1.
    10030    2    1    2    0    0  0.00000000000E+00  0.00000000000E+00 -0.12907742468E+03  0.90524458970E+03  0.89599485804E+03 0.  0.
        1    1    3    3  502    0 -0.55534843437E+02 -0.15080719545E+03 -0.48703606829E+03  0.51286553879E+03  0.50400001928E-02 0. -1.
       -1    1    3    3    0  502  0.55534843437E+02  0.15080719545E+03  0.35795864361E+03  0.39237905092E+03  0.50400001928E-02 0.  1.
</event>
<event>
 5   0  0.2560250E-03  0.8908730E+03  0.7818609E-02  0.9437063E-01
       -3   -1    0    0    0  501  0.00000000000E+00  0.00000000000E+00  0.56648275357E+03  0.56648276258E+03  0.10100000352E+00 0.  1.
        3   -1    0    0  501    0  0.00000000000E+00  0.00000000000E+00 -0.35025546037E+03  0.35025547494E+03  0.10100000352E+00 0. -1.
    10030    2    1    2    0    0  0.00000000000E+00  0.00000000000E+00  0.21622729320E+03  0.91673823751E+03  0.89087302900E+03 0.  0.
        2    1    3    3  502    0 -0.19673900443E+03  0.38087032377E+02  0.51747870197E+03  0.55492437764E+03  0.25500000920E-02 0.  1.
       -2    1    3    3    0  502  0.19673900443E+03 -0.38087032377E+02 -0.30125140877E+03  0.36181385987E+03  0.25500000920E-02 0. -1.
</event>
<event>
 5   0  0.3943549E-03  0.9018156E+03  0.7818609E-02  0.9423315E-01
        1   -1    0    0  501    0  0.00000000000E+00  0.00000000000E+00  0.57338464337E+03  0.57338464339E+03  0.50400001928E-02 0.  1.
       -1   -1    0    0    0  501  0.00000000000E+00  0.00000000000E+00 -0.35459239210E+03  0.35459239214E+03  0.50400001928E-02 0. -1.
    10030    2    1    2    0    0  0.00000000000E+00  0.00000000000E+00  0.21879225126E+03  0.92797703553E+03  0.90181557386E+03 0.  0.
        3    1    3    3  502    0  0.36148576066E+03  0.15577956768E+03 -0.11693595498E+03  0.41062544567E+03  0.10100000352E+00 0. -1.
       -3    1    3    3    0  502 -0.36148576066E+03 -0.15577956768E+03  0.33572820624E+03  0.51735158986E+03  0.10100000352E+00 0.  1.
</event>
<event>
 5   0  0.3998066E-03  0.8861656E+03  0.7818609E-02  0.9443042E-01
       -1   -1    0    0    0  501  0.00000000000E+00  0.00000000000E+00  0.82532886610E+03  0.82532886611E+03  0.50400001928E-02 0. -1.
        1   -1    0    0  501    0  0.00000000000E+00  0.00000000000E+00 -0.23787170090E+03  0.23787170095E+03  0.50400001928E-02 0.  1.
    10030    2    1    2    0    0  0.00000000000E+00  0.00000000000E+00  0.58745716520E+03  0.10632005671E+04  0.88616563060E+03 0.  0.
        4    1    3    3  502    0  0.29477941911E+03 -0.29639052479E+03  0.11748589108E+03  0.43421975613E+03  0.12699999809E+01 0.  1.
       -4    1    3    3    0  502 -0.29477941911E+03  0.29639052479E+03  0.46997127412E+03  0.62898081093E+03  0.12699999809E+01 0. -1.
</event>
<event>
 5   0  0.3927993E-03  0.9018357E+03  0.7818609E-02  0.9423290E-01
        1   -1    0    0  501    0  0.00000000000E+00  0.00000000000E+00  0.68727457711E+03  0.68727457713E+03  0.50400001928E-02 0. -1.
       -1   -1    0    0    0  501  0.00000000000E+00  0.00000000000E+00 -0.29584526143E+03  0.29584526147E+03  0.50400001928E-02 0.  1.
    10030    2    1    2    0    0  0.00000000000E+00  0.00000000000E+00  0.39142931568E+03  0.98311983860E+03  0.90183574329E+03 0.  0.
        2    1    3    3  502    0  0.10870715251E+03 -0.11438268217E+03  0.65619217558E+03  0.67489911416E+03  0.25500000920E-02 0. -1.
       -2    1    3    3    0  502 -0.10870715251E+03  0.11438268217E+03 -0.26476285990E+03  0.30822072445E+03  0.25500000920E-02 0.  1.
</event>
<event>
 5   0  0.6609191E-03  0.9069972E+03  0.7818609E-02  0.9416877E-01
        2   -1    0    0  501    0  0.00000000000E+00  0.00000000000E+00  0.16143154464E+04  0.16143154464E+04  0.25500000920E-02 0. -1.
       -2   -1    0    0    0  501  0.00000000000E+00  0.00000000000E+00 -0.12739825052E+03  0.12739825054E+03  0.25500000920E-02 0.  1.
    10030    2    1    2    0    0  0.00000000000E+00  0.00000000000E+00  0.14869171959E+04  0.17417136969E+04  0.90699716356E+03 0.  0.
        2    1    3    3  502    0 -0.29377136861E+03 -0.40245724589E+01  0.80067582158E+02  0.30451376310E+03  0.25500000920E-02 0.  1.
       -2    1    3    3    0  502  0.29377136861E+03  0.40245724589E+01  0.14068496137E+04  0.14371999338E+04  0.25500000920E-02 0. -1.
</event>
<event>
 5   0  0.3794006E-03  0.9019040E+03  0.7818609E-02  0.9423204E-01
       -1   -1    0    0    0  501  0.00000000000E+00  0.00000000000E+00  0.19780500557E+03  0.19780500563E+03  0.50400001928E-02 0. -1.
        1   -1    0    0  501    0  0.00000000000E+00  0.00000000000E+00 -0.10280716228E+04  0.10280716228E+04  0.50400001928E-02 0.  1.
    10030    2    1    2    0    0  0.00000000000E+00  0.00000000000E+00 -0.83026661720E+03  0.12258766284E+04  0.90190401510E+03 0.  0.
        5    1    3    3  502    0  0.13696759163E+03  0.41057650858E+03 -0.58707430840E+03  0.72939120102E+03  0.46999998093E+01 0. -1.
       -5    1    3    3    0  502 -0.13696759163E+03 -0.41057650858E+03 -0.24319230880E+03  0.49648542739E+03  0.46999998093E+01 0.  1.
</event>
<event>
 5   0  0.3943549E-03  0.9001931E+03  0.7818609E-02  0.9425340E-01
       -1   -1    0    0    0  501  0.00000000000E+00  0.00000000000E+00  0.29849043608E+03  0.29849043612E+03  0.50400001928E-02 0.  1.
        1   -1    0    0  501    0  0.00000000000E+00  0.00000000000E+00 -0.67870478585E+03  0.67870478587E+03  0.50400001928E-02 0. -1.
    10030    2    1    2    0    0  0.00000000000E+00  0.00000000000E+00 -0.38021434978E+03  0.97719522199E+03  0.90019306268E+03 0.  0.
        3    1    3    3  502    0  0.25603382590E+03 -0.26960646099E+03  0.85256189059E+02  0.38145719522E+03  0.10100000352E+00 0.  1.
       -3    1    3    3    0  502 -0.25603382590E+03  0.26960646099E+03 -0.46547053884E+03  0.59573802677E+03  0.10100000352E+00 0. -1.
</event>
<event>
 5   0  0.6609191E-03  0.8982800E+03  0.7818609E-02  0.9427734E-01
        2   -1    0    0  501    0  0.00000000000E+00  0.00000000000E+00  0.11402779774E+04  0.11402779774E+04  0.25500000920E-02 0. -1.
       -2   -1    0    0    0  501  0.00000000000E+00  0.00000000000E+00 -0.17691015116E+03  0.17691015118E+03  0.25500000920E-02 0.  1.
    10030    2    1    2    0    0  0.00000000000E+00  0.00000000000E+00  0.96336782621E+03  0.13171881286E+04  0.89828002173E+03 0.  0.
        2    1    3    3  502    0  0.38213174845E+03  0.21755406530E+03  0.61585489056E+03  0.75672431621E+03  0.25500000920E-02 0. -1.
       -2    1    3    3    0  502 -0.38213174845E+03 -0.21755406530E+03  0.34751293564E+03  0.56046381235E+03  0.25500000920E-02 0.  1.
</event>
<event>
 5   0  0.3927993E-03  0.9054767E+03  0.7818609E-02  0.9418761E-01
        1   -1    0    0  501    0  0.00000000000E+00  0.00000000000E+00  0.19264583218E+03  0.19264583225E+03  0.50400001928E-02 0. -1.
       -1   -1    0    0    0  501  0.00000000000E+00  0.00000000000E+00 -0.10639836018E+04  0.10639836019E+04  0.50400001928E-02 0.  1.
    10030    2    1    2    0    0  0.00000000000E+00  0.00000000000E+00 -0.87133776966E+03  0.12566294341E+04  0.90547668431E+03 0.  0.
        2    1    3    3  502    0  0.15915315390E+03 -0.23088521539E+03 -0.92894557210E+03  0.97034920777E+03  0.25500000920E-02 0.  1.
       -2    1    3    3    0  502 -0.15915315390E+03  0.23088521539E+03  0.57607802440E+02  0.28628022634E+03  0.25500000920E-02 0. -1.
</event>
<event>
 5   0  0.3794006E-03  0.9043253E+03  0.7818609E-02  0.9420191E-01
        1   -1    0    0  501    0  0.00000000000E+00  0.00000000000E+00  0.31703188029E+03  0.31703188033E+03  0.50400001928E-02 0. -1.
       -1   -1    0    0    0  501  0.00000000000E+00  0.00000000000E+00 -0.64489122811E+03  0.64489122813E+03  0.50400001928E-02 0.  1.
    10030    2    1    2    0    0  0.00000000000E+00  0.00000000000E+00 -0.32785934782E+03  0.96192310846E+03  0.90432533672E+03 0.  0.
        5    1    3    3  502    0  0.32789702289E+03  0.50217401519E+02  0.16286905827E+03  0.36957633200E+03  0.46999998093E+01 0. -1.
       -5    1    3    3    0  502 -0.32789702289E+03 -0.50217401519E+02 -0.49072840609E+03  0.59234677646E+03  0.46999998093E+01 0.  1.
</event>
<event>
 5   0  0.6863405E-03  0.8637647E+03  0.7818609E-02  0.9472046E-01
        2   -1    0    0  501    0  0.00000000000E+00  0.00000000000E+00  0.16723850406E+04  0.16723850406E+04  0.25500000920E-02 0. -1.
       -2   -1    0    0    0  501  0.00000000000E+00  0.00000000000E+00 -0.11153076100E+03  0.11153076103E+03  0.25500000920E-02 0.  1.
    10030    2    1    2    0    0  0.00000000000E+00  0.00000000000E+00  0.15608542795E+04  0.17839158016E+04  0.86376472790E+03 0.  0.
        1    1    3    3  502    0  0.33087152636E+03  0.17416189473E+03  0.12268049716E+04  0.12825204758E+04  0.50400001928E-02 0. -1.
       -1    1    3    3    0  502 -0.33087152636E+03 -0.17416189473E+03  0.33404930797E+03  0.50139532579E+03  0.50400001928E-02 0.  1.
</event>
<event>
 5   0  0.6609191E-03  0.9039207E+03  0.7818609E-02  0.9420694E-01
        2   -1    0    0  501    0  0.00000000000E+00  0.00000000000E+00  0.11745708959E+04  0.11745708960E+04  0.25500000920E-02 0. -1.
       -2   -1    0    0    0  501  0.00000000000E+00  0.00000000000E+00 -0.17390874104E+03  0.17390874106E+03  0.25500000920E-02 0.  1.
    10030    2    1    2    0    0  0.00000000000E+00  0.00000000000E+00  0.10006621549E+04  0.13484796370E+04  0.90392067305E+03 0.  0.
        2    1    3    3  502    0 -0.79589703956E+02 -0.38088612710E+03  0.84331607055E+03  0.92875764204E+03  0.25500000920E-02 0.  1.
       -2    1    3    3    0  502  0.79589703956E+02  0.38088612710E+03  0.15734608435E+03  0.41972199497E+03  0.25500000920E-02 0. -1.
</event>
<event>
 5   0  0.6534628E-03  0.9171337E+03  0.7818609E-02  0.9404413E-01
        2   -1    0    0  501    0  0.00000000000E+00  0.00000000000E+00  0.25370872130E+03  0.25370872131E+03  0.25500000920E-02 0.  1.
       -2   -1    0    0    0  501  0.00000000000E+00  0.00000000000E+00 -0.82883858219E+03  0.82883858220E+03  0.25500000920E-02 0. -1.
    10030    2    1    2    0    0  0.00000000000E+00  0.00000000000E+00 -0.57512986090E+03  0.10825473035E+04  0.91713374567E+03 0.  0.
        4    1    3    3  502    0  0.13548514458E+03 -0.64238774893E+02 -0.79908300576E+03  0.81303020091E+03  0.12699999809E+01 0. -1.
       -4    1    3    3    0  502 -0.13548514458E+03  0.64238774893E+02  0.22395314486E+03  0.26951710260E+03  0.12699999809E+01 0.  1.
</event>
<event>
 5   0  0.6724773E-03  0.8826984E+03  0.7818609E-02  0.9447471E-01
       -2   -1    0    0    0  501  0.00000000000E+00  0.00000000000E+00  0.25465221155E+03  0.25465221156E+03  0.25500000920E-02 0. -1.
        2   -1    0    0  501    0  0.00000000000E+00  0.00000000000E+00 -0.76492222214E+03  0.76492222215E+03  0.25500000920E-02 0.  1.
    10030    2    1    2    0    0  0.00000000000E+00  0.00000000000E+00 -0.51027001060E+03  0.10195744337E+04  0.88269844350E+03 0.  0.
        5    1    3    3  502    0  0.22780863227E+03  0.22199514944E+02 -0.69097510730E+03  0.72791364893E+03  0.46999998093E+01 0.  1.
       -5    1    3    3    0  502 -0.22780863227E+03 -0.22199514944E+02  0.18070509670E+03  0.29166078477E+03  0.46999998093E+01 0. -1.
</event>
<event>
 5   0  0.6534628E-03  0.9071325E+03  0.7818609E-02  0.9416709E-01
        2   -1    0    0  501    0  0.00000000000E+00  0.00000000000E+00  0.13717451441E+04  0.13717451441E+04  0.25500000920E-02 0.  1.
       -2   -1    0    0    0  501  0.00000000000E+00  0.00000000000E+00 -0.14997126686E+03  0.14997126688E+03  0.25500000920E-02 0. -1.
    10030    2    1    2    0    0  0.00000000000E+00  0.00000000000E+00  0.12217738772E+04  0.15217164110E+04  0.90713253074E+03 0.  0.
        4    1    3    3  502    0  0.25713073344E+03  0.35172730947E+03  0.39941237634E+03  0.59106697893E+03  0.12699999809E+01 0. -1.
       -4    1    3    3    0  502 -0.25713073344E+03 -0.35172730947E+03  0.82236150089E+03  0.93064943203E+03  0.12699999809E+01 0.  1.
</event>
<event>
 5   0  0.6863405E-03  0.9030763E+03  0.7818609E-02  0.9421744E-01
       -2   -1    0    0    0  501  0.00000000000E+00  0.00000000000E+00  0.19098508016E+03  0.19098508017E+03  0.25500000920E-02 0.  1.
        2   -1    0    0  501    0  0.00000000000E+00  0.00000000000E+00 -0.10675529230E+04  0.10675529230E+04  0.25500000920E-02 0. -1.
    10030    2    1    2    0    0  0.00000000000E+00  0.00000000000E+00 -0.87656784282E+03  0.12585380032E+04  0.90307625498E+03 0.  0.
        1    1    3    3  502    0 -0.24410899195E+03 -0.11298654587E+03  0.67141209261E+02  0.27724195480E+03  0.50400001928E-02 0.  1.
       -1    1    3    3    0  502  0.24410899195E+03  0.11298654587E+03 -0.94370905208E+03  0.98129604835E+03  0.50400001928E-02 0. -1.
</event>
<event>
 5   0  0.3927993E-03  0.9016984E+03  0.7818609E-02  0.9423461E-01
       -1   -1    0    0    0  501  0.00000000000E+00  0.00000000000E+00  0.53313580337E+03  0.53313580340E+03  0.50400001928E-02 0. -1.
        1   -1    0    0  501    0  0.00000000000E+00  0.00000000000E+00 -0.38126309229E+03  0.38126309232E+03  0.50400001928E-02 0.  1.
    10030    2    1    2    0    0  0.00000000000E+00  0.00000000000E+00  0.15187271109E+03  0.91439889572E+03  0.90169840863E+03 0.  0.
        2    1    3    3  502    0  0.96231830173E+02 -0.35445119878E+03 -0.18922078618E+03  0.41315944063E+03  0.25500000920E-02 0.  1.
       -2    1    3    3    0  502 -0.96231830173E+02  0.35445119878E+03  0.34109349726E+03  0.50123945509E+03  0.25500000920E-02 0. -1.
</event>
<event>
 5   0  0.6609191E-03  0.8977801E+03  0.7818609E-02  0.9428361E-01
       -2   -1    0    0    0  501  0.00000000000E+00  0.00000000000E+00  0.74537849526E+02  0.74537849570E+02  0.25500000920E-02 0.  1.
        2   -1    0    0  501    0  0.00000000000E+00  0.00000000000E+00 -0.27033551458E+04  0.27033551458E+04  0.25500000920E-02 0. -1.
    10030    2    1    2    0    0  0.00000000000E+00  0.00000000000E+00 -0.26288172963E+04  0.27778929954E+04  0.89778010479E+03 0.  0.
        2    1    3    3  502    0 -0.26862079636E+03 -0.11552028988E+03 -0.23682492394E+04  0.23862327065E+04  0.25500000920E-02 0. -1.
       -2    1    3    3    0  502  0.26862079636E+03  0.11552028988E+03 -0.26056805686E+03  0.39166028887E+03  0.25500000920E-02 0.  1.
</event>
<event>
 5   0  0.6524705E-03  0.8986296E+03  0.7818609E-02  0.9427296E-01
       -2   -1    0    0    0  501  0.00000000000E+00  0.00000000000E+00  0.41766713679E+03  0.41766713680E+03  0.25500000920E-02 0. -1.
        2   -1    0    0  501    0  0.00000000000E+00  0.00000000000E+00 -0.48336047744E+03  0.48336047745E+03  0.25500000920E-02 0.  1.
    10030    2    1    2    0    0  0.00000000000E+00  0.00000000000E+00 -0.65693340656E+02  0.90102761425E+03  0.89862959368E+03 0.  0.
        3    1    3    3  502    0 -0.28736137954E+03  0.79276007785E+02 -0.36993203279E+03  0.47509048291E+03  0.10100000352E+00 0. -1.
       -3    1    3    3    0  502  0.28736137954E+03 -0.79276007785E+02  0.30423869213E+03  0.42593713134E+03  0.10100000352E+00 0.  1.
</event>
<event>
 5   0  0.2560250E-03  0.9002704E+03  0.7818609E-02  0.9425243E-01
       -4   -1    0    0    0  501  0.00000000000E+00  0.00000000000E+00  0.87977446578E+03  0.87977538244E+03  0.12699999809E+01 0. -1.
        4   -1    0    0  501    0  0.00000000000E+00  0.00000000000E+00 -0.23030817749E+03  0.23031167907E+03  0.12699999809E+01 0.  1.
    10030    2    1    2    0    0  0.00000000000E+00  0.00000000000E+00  0.64946628830E+03  0.11100870615E+04  0.90027041743E+03 0.  0.
        4    1    3    3  502    0 -0.47808411588E+02  0.40047119239E+02  0.87442147488E+03  0.87664356760E+03  0.12699999809E+01 0. -1.
       -4    1    3    3    0  502  0.47808411588E+02 -0.40047119239E+02 -0.22495518659E+03  0.23344349391E+03  0.12699999809E+01 0.  1.
</event>
<event>
 5   0  0.6863405E-03  0.8657340E+03  0.7818609E-02  0.9469459E-01
       -2   -1    0    0    0  501  0.00000000000E+00  0.00000000000E+00  0.34940776355E+03  0.34940776356E+03  0.25500000920E-02 0.  1.
        2   -1    0    0  501    0  0.00000000000E+00  0.00000000000E+00 -0.53626121342E+03  0.53626121343E+03  0.25500000920E-02 0. -1.
    10030    2    1    2    0    0  0.00000000000E+00  0.00000000000E+00 -0.18685344987E+03  0.88566897699E+03  0.86573398054E+03 0.  0.
        1    1    3    3  502    0 -0.15598192596E+03 -0.74619027283E+02 -0.49939624300E+03  0.52848364971E+03  0.50400001928E-02 0. -1.
       -1    1    3    3    0  502  0.15598192596E+03  0.74619027283E+02  0.31254279313E+03  0.35718532728E+03  0.50400001928E-02 0.  1.
</event>
<event>
 5   0  0.3969536E-03  0.8887336E+03  0.7818609E-02  0.9439776E-01
        1   -1    0    0  501    0  0.00000000000E+00  0.00000000000E+00  0.44507254940E+03  0.44507254943E+03  0.50400001928E-02 0.  1.
       -1   -1    0    0    0  501  0.00000000000E+00  0.00000000000E+00 -0.44366214647E+03  0.44366214650E+03  0.50400001928E-02 0. -1.
    10030    2    1    2    0    0  0.00000000000E+00  0.00000000000E+00  0.14104029316E+01  0.88873469592E+03  0.88873357678E+03 0.  0.
        1    1    3    3  502    0  0.24244449628E+03  0.43524021023E+02 -0.36914410963E+03  0.44378040503E+03  0.50400001928E-02 0. -1.
       -1    1    3    3    0  502 -0.24244449628E+03 -0.43524021023E+02  0.37055451257E+03  0.44495429090E+03  0.50400001928E-02 0.  1.
</event>
<event>
 5   0  0.6609191E-03  0.9091822E+03  0.7818609E-02  0.9414175E-01
       -2   -1    0    0    0  501  0.00000000000E+00  0.00000000000E+00  0.21324254795E+03  0.21324254797E+03  0.25500000920E-02 0.  1.
        2   -1    0    0  501    0  0.00000000000E+00  0.00000000000E+00 -0.96909876512E+03  0.96909876513E+03  0.25500000920E-02 0. -1.
    10030    2    1    2    0    0  0.00000000000E+00  0.00000000000E+00 -0.75585621717E+03  0.11823413131E+04  0.90918224775E+03 0.  0.
        2    1    3    3  502    0 -0.24994742286E+03 -0.37815594709E+03 -0.33330455552E+03  0.56264336951E+03  0.25500000920E-02 0.  1.
       -2    1    3    3    0  502  0.24994742286E+03  0.37815594709E+03 -0.42255166165E+03  0.61969794358E+03  0.25500000920E-02 0. -1.
</event>
<event>
 5   0  0.3794006E-03  0.8949825E+03  0.7818609E-02  0.9431875E-01
       -1   -1    0    0    0  501  0.00000000000E+00  0.00000000000E+00  0.25846187880E+03  0.25846187885E+03  0.50400001928E-02 0.  1.
        1   -1    0    0  501    0  0.00000000000E+00  0.00000000000E+00 -0.77476967524E+03  0.77476967526E+03  0.50400001928E-02 0. -1.
    10030    2    1    2    0    0  0.00000000000E+00  0.00000000000E+00 -0.51630779644E+03  0.10332315541E+04  0.89498251589E+03 0.  0.
        5    1    3    3  502    0 -0.27746342807E+03  0.51695669549E+02 -0.65901972006E+03  0.71692919985E+03  0.46999998093E+01 0. -1.
       -5    1    3    3    0  502  0.27746342807E+03 -0.51695669549E+02  0.14271192363E+03  0.31630235426E+03  0.46999998093E+01 0.  1.
</event>
<event>
 5   0  0.6724773E-03  0.8988042E+03  0.7818609E-02  0.9427077E-01
        2   -1    0    0  501    0  0.00000000000E+00  0.00000000000E+00  0.15908233500E+04  0.15908233500E+04  0.25500000920E-02 0.  1.
       -2   -1    0    0    0  501  0.00000000000E+00  0.00000000000E+00 -0.12695454570E+03  0.12695454573E+03  0.25500000920E-02 0. -1.
    10030    2    1    2    0    0  0.00000000000E+00  0.00000000000E+00  0.14638688043E+04  0.17177778957E+04  0.89880421830E+03 0.  0.
        5    1    3    3  502    0 -0.37151625485E+03 -0.22005975573E+03  0.96979428261E+03  0.10615901583E+04  0.46999998093E+01 0. -1.
       -5    1    3    3    0  502  0.37151625485E+03  0.22005975573E+03  0.49407452164E+03  0.65618773734E+03  0.46999998093E+01 0.  1.
</event>
<event>
 5   0  0.3998066E-03  0.9021354E+03  0.7818609E-02  0.9422916E-01
       -1   -1    0    0    0  501  0.00000000000E+00  0.00000000000E+00  0.78330705852E+03  0.78330705854E+03  0.50400001928E-02 0. -1.
        1   -1    0    0  501    0  0.00000000000E+00  0.00000000000E+00 -0.25974749885E+03  0.25974749890E+03  0.50400001928E-02 0.  1.
    10030    2    1    2    0    0  0.00000000000E+00  0.00000000000E+00  0.52355955967E+03  0.10430545574E+04  0.90213535418E+03 0.  0.
        4    1    3    3  502    0  0.19421571711E+03 -0.34383086492E+03  0.97346933714E+01  0.39501365242E+03  0.12699999809E+01 0.  1.
       -4    1    3    3    0  502 -0.19421571711E+03  0.34383086492E+03  0.51382486630E+03  0.64804090501E+03  0.12699999809E+01 0. -1.
</event>
<event>
 5   0  0.6534628E-03  0.8940057E+03  0.7818609E-02  0.9433106E-01
        2   -1    0    0  501    0  0.00000000000E+00  0.00000000000E+00  0.62240395873E+03  0.62240395874E+03  0.25500000920E-02 0. -1.
       -2   -1    0    0    0  501  0.00000000000E+00  0.00000000000E+00 -0.32103193260E+03  0.32103193261E+03  0.25500000920E-02 0.  1.
    10030    2    1    2    0    0  0.00000000000E+00  0.00000000000E+00  0.30137202614E+03  0.94343589134E+03  0.89400569514E+03 0.  0.
        4    1    3    3  502    0  0.26799868762E+03  0.35045957017E+03  0.74846462723E+02  0.44749169017E+03  0.12699999809E+01 0. -1.
       -4    1    3    3    0  502 -0.26799868762E+03 -0.35045957017E+03  0.22652556341E+03  0.49594420117E+03  0.12699999809E+01 0.  1.
</event>
<event>
 5   0  0.3969536E-03  0.9122501E+03  0.7818609E-02  0.9410396E-01
        1   -1    0    0  501    0  0.00000000000E+00  0.00000000000E+00  0.54106983825E+03  0.54106983827E+03  0.50400001928E-02 0. -1.
       -1   -1    0    0    0  501  0.00000000000E+00  0.00000000000E+00 -0.38451613678E+03  0.38451613682E+03  0.50400001928E-02 0.  1.
    10030    2    1    2    0    0  0.00000000000E+00  0.00000000000E+00  0.15655370146E+03  0.92558597509E+03  0.91225014982E+03 0.  0.
        1    1    3    3  502    0  0.44554339330E+03  0.64645737702E+02  0.39800412918E+01  0.45022641800E+03  0.50400001928E-02 0. -1.
       -1    1    3    3    0  502 -0.44554339330E+03 -0.64645737702E+02  0.15257366017E+03  0.47535955709E+03  0.50400001928E-02 0.  1.
</event>
<event>
 5   0  0.6863405E-03  0.8985044E+03  0.7818609E-02  0.9427453E-01
        2   -1    0    0  501    0  0.00000000000E+00  0.00000000000E+00  0.86296241879E+03  0.86296241879E+03  0.25500000920E-02 0. -1.
       -2   -1    0    0    0  501  0.00000000000E+00  0.00000000000E+00 -0.23387755406E+03  0.23387755407E+03  0.25500000920E-02 0.  1.
    10030    2    1    2    0    0  0.00000000000E+00  0.00000000000E+00  0.62908486473E+03  0.10968399729E+04  0.89850440124E+03 0.  0.
        1    1    3    3  502    0 -0.23541233456E+03 -0.24172563568E+03 -0.47540746480E+02  0.34074972165E+03  0.50400001928E-02 0.  1.
       -1    1    3    3    0  502  0.23541233456E+03  0.24172563568E+03  0.67662561121E+03  0.75609025121E+03  0.50400001928E-02 0. -1.
</event>
<event>
 5   0  0.3998066E-03  0.9023943E+03  0.7818609E-02  0.9422593E-01
       -1   -1    0    0    0  501  0.00000000000E+00  0.00000000000E+00  0.33703011530E+03  0.33703011534E+03  0.50400001928E-02 0. -1.
        1   -1    0    0  501    0  0.00000000000E+00  0.00000000000E+00 -0.60403766011E+03  0.60403766014E+03  0.50400001928E-02 0.  1.
    10030    2    1    2    0    0  0.00000000000E+00  0.00000000000E+00 -0.26700754482E+03  0.94106777547E+03  0.90239433123E+03 0.  0.
        4    1    3    3  502    0 -0.36844734174E+03 -0.12507154985E+03 -0.37172500341E+03  0.53812398876E+03  0.12699999809E+01 0. -1.
       -4    1    3    3    0  502  0.36844734174E+03  0.12507154985E+03  0.10471745859E+03  0.40294378671E+03  0.12699999809E+01 0.  1.
</event>
<event>
 5   0  0.2560250E-03  0.8947342E+03  0.7818609E-02  0.9432188E-01
        3   -1    0    0  501    0  0.00000000000E+00  0.00000000000E+00  0.24379447888E+03  0.24379449980E+03  0.10100000352E+00 0. -1.
       -3   -1    0    0    0  501  0.00000000000E+00  0.00000000000E+00 -0.82092626975E+03  0.82092627596E+03  0.10100000352E+00 0.  1.
    10030    2    1    2    0    0  0.00000000000E+00  0.00000000000E+00 -0.57713179087E+03  0.10647207758E+04  0.89473416517E+03 0.  0.
        3    1    3    3  502    0 -0.15450350901E+03 -0.12473735709E+03 -0.76560996533E+03  0.79094207864E+03  0.10100000352E+00 0.  1.
       -3    1    3    3    0  502  0.15450350901E+03  0.12473735709E+03  0.18847817446E+03  0.27377869713E+03  0.10100000352E+00 0. -1.
</event>
<event>
 5   0  0.6524705E-03  0.9051306E+03  0.7818609E-02  0.9419191E-01
       -2   -1    0    0    0  501  0.00000000000E+00  0.00000000000E+00  0.17637407418E+03  0.17637407420E+03  0.25500000920E-02 0. -1.
        2   -1    0    0  501    0  0.00000000000E+00  0.00000000000E+00 -0.11612553472E+04  0.11612553472E+04  0.25500000920E-02 0.  1.
    10030    2    1    2    0    0  0.00000000000E+00  0.00000000000E+00 -0.98488127301E+03  0.13376294214E+04  0.90513056906E+03 0.  0.
        3    1    3    3  502    0  0.22643490745E+02  0.39754463415E+03 -0.17458388255E+03  0.43478041131E+03  0.10100000352E+00 0. -1.
       -3    1    3    3    0  502 -0.22643490745E+02 -0.39754463415E+03 -0.81029739047E+03  0.90284901009E+03  0.10100000352E+00 0.  1.
</event>
<event>
 5   0  0.3943549E-03  0.8926580E+03  0.7818609E-02  0.9434806E-01
        1   -1    0    0  501    0  0.00000000000E+00  0.00000000000E+00  0.10577357320E+04  0.10577357321E+04  0.50400001928E-02 0.  1.
       -1   -1    0    0    0  501  0.00000000000E+00  0.00000000000E+00 -0.18833588235E+03  0.18833588242E+03  0.50400001928E-02 0. -1.
    10030    2    1    2    0    0  0.00000000000E+00  0.00000000000E+00  0.86939984969E+03  0.12460716145E+04  0.89265803629E+03 0.  0.
        3    1    3    3  502    0 -0.18414510085E+03 -0.22123247065E+03 -0.41460112247E+02  0.29081295595E+03  0.10100000352E+00 0. -1.
       -3    1    3    3    0  502  0.18414510085E+03  0.22123247065E+03  0.91085996194E+03  0.95525865853E+03  0.10100000352E+00 0.  1.
</event>
<event>
 5   0  0.6863405E-03  0.9059033E+03  0.7818609E-02  0.9418232E-01
        2   -1    0    0  501    0  0.00000000000E+00  0.00000000000E+00  0.10415403935E+04  0.10415403936E+04  0.25500000920E-02 0.  1.
       -2   -1    0    0    0  501  0.00000000000E+00  0.00000000000E+00 -0.19698246748E+03  0.19698246749E+03  0.25500000920E-02 0. -1.
    10030    2    1    2    0    0  0.00000000000E+00  0.00000000000E+00  0.84455792607E+03  0.12385228610E+04  0.90590329883E+03 0.  0.
        1    1    3    3  502    0  0.24892763658E+03 -0.75818773314E+02  0.92914980675E+03  0.96490041872E+03  0.50400001928E-02 0.  1.
       -1    1    3    3    0  502 -0.24892763658E+03  0.75818773314E+02 -0.84591880676E+02  0.27362244232E+03  0.50400001928E-02 0. -1.
</event>
<event>
 5   0  0.3998066E-03  0.8985082E+03  0.7818609E-02  0.9427448E-01
        1   -1    0    0  501    0  0.00000000000E+00  0.00000000000E+00  0.82144440874E+03  0.82144440876E+03  0.50400001928E-02 0.  1.
       -1   -1    0    0    0  501  0.00000000000E+00  0.00000000000E+00 -0.24570045668E+03  0.24570045673E+03  0.50400001928E-02 0. -1.
    10030    2    1    2    0    0  0.00000000000E+00  0.00000000000E+00  0.57574395206E+03  0.10671448655E+04  0.89850824460E+03 0.  0.
        4    1    3    3  502    0 -0.10455549281E+03  0.21380402758E+03  0.74041529048E+03  0.77772773421E+03  0.12699999809E+01 0.  1.
       -4    1    3    3    0  502  0.10455549281E+03 -0.21380402758E+03 -0.16467133842E+03  0.28941713128E+03  0.12699999809E+01 0. -1.
</event>
<event>
 5   0  0.6524705E-03  0.9695940E+03  0.7818609E-02  0.9342537E-01
        2   -1    0    0  501    0  0.00000000000E+00  0.00000000000E+00  0.62218670694E+03  0.62218670695E+03  0.25500000920E-02 0.  1.
       -2   -1    0    0    0  501  0.00000000000E+00  0.00000000000E+00 -0.37774532313E+03  0.37774532314E+03  0.25500000920E-02 0. -1.
    10030    2    1    2    0    0  0.00000000000E+00  0.00000000000E+00  0.24444138381E+03  0.99993203009E+03  0.96959397414E+03 0.  0.
        3    1    3    3  502    0  0.43700101457E+03 -0.18563824393E+03  0.22324845098E+03  0.52466305893E+03  0.10100000352E+00 0. -1.
       -3    1    3    3    0  502 -0.43700101457E+03  0.18563824393E+03  0.21192932833E+02  0.47526897116E+03  0.10100000352E+00 0.  1.
</event>
<event>
 5   0  0.3998066E-03  0.9101539E+03  0.7818609E-02  0.9412977E-01
       -1   -1    0    0    0  501  0.00000000000E+00  0.00000000000E+00  0.61931594388E+03  0.61931594390E+03  0.50400001928E-02 0. -1.
        1   -1    0    0  501    0  0.00000000000E+00  0.00000000000E+00 -0.33439317704E+03  0.33439317708E+03  0.50400001928E-02 0.  1.
    10030    2    1    2    0    0  0.00000000000E+00  0.00000000000E+00  0.28492276684E+03  0.95370912098E+03  0.91015389049E+03 0.  0.
        4    1    3    3  502    0  0.22657601924E+03 -0.34250802365E+03 -0.62995593908E+02  0.41547382169E+03  0.12699999809E+01 0.  1.
       -4    1    3    3    0  502 -0.22657601924E+03  0.34250802365E+03  0.34791836075E+03  0.53823529929E+03  0.12699999809E+01 0. -1.
</event>
<event>
 5   0  0.2560250E-03  0.9012836E+03  0.7818609E-02  0.9423978E-01
       -3   -1    0    0    0  501  0.00000000000E+00  0.00000000000E+00  0.14647396855E+04  0.14647396890E+04  0.10100000352E+00 0.  1.
        3   -1    0    0  501    0  0.00000000000E+00  0.00000000000E+00 -0.13864442308E+03  0.13864445987E+03  0.10100000352E+00 0. -1.
    10030    2    1    2    0    0  0.00000000000E+00  0.00000000000E+00  0.13260952624E+04  0.16033841489E+04  0.90128357569E+03 0.  0.
        2    1    3    3  502    0 -0.21357761647E+03 -0.11637704939E+03  0.13379410652E+04  0.13598695930E+04  0.25500000920E-02 0.  1.
       -2    1    3    3    0  502  0.21357761647E+03  0.11637704939E+03 -0.11845802796E+02  0.24351455589E+03  0.25500000920E-02 0. -1.
</event>
<event>
 5   0  0.3998066E-03  0.9237686E+03  0.7818609E-02  0.9396348E-01
       -1   -1    0    0    0  501  0.00000000000E+00  0.00000000000E+00  0.44137567434E+03  0.44137567437E+03  0.50400001928E-02 0. -1.
        1   -1    0    0  501    0  0.00000000000E+00  0.00000000000E+00 -0.48334587458E+03  0.48334587461E+03  0.50400001928E-02 0.  1.
    10030    2    1    2    0    0  0.00000000000E+00  0.00000000000E+00 -0.41970200243E+02  0.92472154898E+03  0.92376861034E+03 0.  0.
        4    1    3    3  502    0 -0.36501572374E+03  0.28222837005E+03 -0.42129555767E+02  0.46332045477E+03  0.12699999809E+01 0. -1.
       -4    1    3    3    0  502  0.36501572374E+03 -0.28222837005E+03  0.15935552337E+00  0.46140109421E+03  0.12699999809E+01 0.  1.
</event>
<event>
 5   0  0.3794006E-03  0.9050178E+03  0.7818609E-02  0.9419331E-01
        1   -1    0    0  501    0  0.00000000000E+00  0.00000000000E+00  0.23566951913E+04  0.23566951913E+04  0.50400001928E-02 0. -1.
       -1   -1    0    0    0  501  0.00000000000E+00  0.00000000000E+00 -0.86886205222E+02  0.86886205368E+02  0.50400001928E-02 0.  1.
    10030    2    1    2    0    0  0.00000000000E+00  0.00000000000E+00  0.22698089861E+04  0.24435813967E+04  0.90501779479E+03 0.  0.
        5    1    3    3  502    0 -0.45219032532E+03  0.10524725371E+02  0.11685578356E+04  0.12530508231E+04  0.46999998093E+01 0.  1.
       -5    1    3    3    0  502  0.45219032532E+03 -0.10524725371E+02  0.11012511504E+04  0.11905305735E+04  0.46999998093E+01 0. -1.
</event>
<event>
 5   0  0.6609191E-03  0.9001978E+03  0.7818609E-02  0.9425334E-01
       -2   -1    0    0    0  501  0.00000000000E+00  0.00000000000E+00  0.15493746778E+03  0.15493746780E+03  0.25500000920E-02 0.  1.
        2   -1    0    0  501    0  0.00000000000E+00  0.00000000000E+00 -0.13075535210E+04  0.13075535210E+04  0.25500000920E-02 0. -1.
    10030    2    1    2    0    0  0.00000000000E+00  0.00000000000E+00 -0.11526160532E+04  0.14624909888E+04  0.90019782615E+03 0.  0.
        2    1    3    3  502    0 -0.28891360633E+03  0.33692215721E+03 -0.45471622528E+03  0.63541675889E+03  0.25500000920E-02 0. -1.
       -2    1    3    3    0  502  0.28891360633E+03 -0.33692215721E+03 -0.69789982797E+03  0.82707422994E+03  0.25500000920E-02 0.  1.
</event>
<event>
 5   0  0.6534628E-03  0.8974867E+03  0.7818609E-02  0.9428729E-01
       -2   -1    0    0    0  501  0.00000000000E+00  0.00000000000E+00  0.22703084790E+03  0.22703084791E+03  0.25500000920E-02 0. -1.
        2   -1    0    0  501    0  0.00000000000E+00  0.00000000000E+00 -0.88697452375E+03  0.88697452376E+03  0.25500000920E-02 0.  1.
    10030    2    1    2    0    0  0.00000000000E+00  0.00000000000E+00 -0.65994367585E+03  0.11140053717E+04  0.89748666442E+03 0.  0.
        4    1    3    3  502    0  0.31061618901E+03 -0.15987921485E+03 -0.67956652819E+03  0.76410474370E+03  0.12699999809E+01 0.  1.
       -4    1    3    3    0  502 -0.31061618901E+03  0.15987921485E+03  0.19622852333E+02  0.34990062797E+03  0.12699999809E+01 0. -1.
</event>
<event>
 5   0  0.6724773E-03  0.8909143E+03  0.7818609E-02  0.9437011E-01
       -2   -1    0    0    0  501  0.00000000000E+00  0.00000000000E+00  0.14434574095E+03  0.14434574097E+03  0.25500000920E-02 0. -1.
        2   -1    0    0  501    0  0.00000000000E+00  0.00000000000E+00 -0.13746998540E+04  0.13746998540E+04  0.25500000920E-02 0.  1.
    10030    2    1    2    0    0  0.00000000000E+00  0.00000000000E+00 -0.12303541131E+04  0.15190455950E+04  0.89091429224E+03 0.  0.
        5    1    3    3  502    0  0.20946443699E+03 -0.17662484735E+03 -0.16374220543E+02  0.27452120530E+03  0.46999998093E+01 0. -1.
       -5    1    3    3    0  502 -0.20946443699E+03  0.17662484735E+03 -0.12139798925E+04  0.12445243897E+04  0.46999998093E+01 0.  1.
</event>
<event>
 5   0  0.2560250E-03  0.9254805E+03  0.7818609E-02  0.9394278E-01
        4   -1    0    0  501    0  0.00000000000E+00  0.00000000000E+00  0.67165922749E+03  0.67166042817E+03  0.12699999809E+01 0. -1.
       -4   -1    0    0    0  501  0.00000000000E+00  0.00000000000E+00 -0.31880256733E+03  0.31880509694E+03  0.12699999809E+01 0.  1.
    10030    2    1    2    0    0  0.00000000000E+00  0.00000000000E+00  0.35285666016E+03  0.99046552511E+03  0.92548048807E+03 0.  0.
        2    1    3    3  502    0 -0.26076831841E+03  0.36904914524E+03  0.69775648574E+02  0.45723738761E+03  0.25500000920E-02 0.  1.
       -2    1    3    3    0  502  0.26076831841E+03 -0.36904914524E+03  0.28308101158E+03  0.53322813749E+03  0.25500000920E-02 0. -1.
</event>
<event>
 5   0  0.3998066E-03  0.8980195E+03  0.7818609E-02  0.9428060E-01
        1   -1    0    0  501    0  0.00000000000E+00  0.00000000000E+00  0.88364689213E+03  0.88364689215E+03  0.50400001928E-02 0. -1.
       -1   -1    0    0    0  501  0.00000000000E+00  0.00000000000E+00 -0.22815648853E+03  0.22815648859E+03  0.50400001928E-02 0.  1.
    10030    2    1    2    0    0  0.00000000000E+00  0.00000000000E+00  0.65549040360E+03  0.11118033807E+04  0.89801953665E+03 0.  0.
        4    1    3    3  502    0  0.40511512573E+02  0.71823245088E+02  0.87418968124E+03  0.87807116617E+03  0.12699999809E+01 0. -1.
       -4    1    3    3    0  502 -0.40511512573E+02 -0.71823245088E+02 -0.21869927763E+03  0.23373221456E+03  0.12699999809E+01 0.  1.
</event>
<event>
 5   0  0.3969536E-03  0.9049193E+03  0.7818609E-02  0.9419453E-01
       -1   -1    0    0    0  501  0.00000000000E+00  0.00000000000E+00  0.28746485166E+03  0.28746485170E+03  0.50400001928E-02 0.  1.
        1   -1    0    0  501    0  0.00000000000E+00  0.00000000000E+00 -0.71215570100E+03  0.71215570102E+03  0.50400001928E-02 0. -1.
    10030    2    1    2    0    0  0.00000000000E+00  0.00000000000E+00 -0.42469084934E+03  0.99962055272E+03  0.90491929580E+03 0.  0.
        1    1    3    3  502    0 -0.17934286905E+03 -0.17767685881E+03 -0.62712232137E+03  0.67602909466E+03  0.50400001928E-02 0. -1.
       -1    1    3    3    0  502  0.17934286905E+03  0.17767685881E+03  0.20243147203E+03  0.32359145806E+03  0.50400001928E-02 0.  1.
</event>
<event>
 5   0  0.6524705E-03  0.9072168E+03  0.7818609E-02  0.9416605E-01
       -2   -1    0    0    0  501  0.00000000000E+00  0.00000000000E+00  0.20093682284E+03  0.20093682286E+03  0.25500000920E-02 0. -1.
        2   -1    0    0  501    0  0.00000000000E+00  0.00000000000E+00 -0.10240062577E+04  0.10240062577E+04  0.25500000920E-02 0.  1.
    10030    2    1    2    0    0  0.00000000000E+00  0.00000000000E+00 -0.82306943490E+03  0.12249430806E+04  0.90721676354E+03 0.  0.
        3    1    3    3  502    0 -0.18131942224E+03 -0.13452367215E+03  0.11968277566E+03  0.25553341903E+03  0.10100000352E+00 0. -1.
       -3    1    3    3    0  502  0.18131942224E+03  0.13452367215E+03 -0.94275221055E+03  0.96940966157E+03  0.10100000352E+00 0.  1.
</event>
<event>
 5   0  0.6863405E-03  0.8765268E+03  0.7818609E-02  0.9455409E-01
        2   -1    0    0  501    0  0.00000000000E+00  0.00000000000E+00  0.60485434360E+03  0.60485434360E+03  0.25500000920E-02 0. -1.
       -2   -1    0    0    0  501  0.00000000000E+00  0.00000000000E+00 -0.31755544674E+03  0.31755544675E+03  0.25500000920E-02 0.  1.
    10030    2    1    2    0    0  0.00000000000E+00  0.00000000000E+00  0.28729889686E+03  0.92240979036E+03  0.87652676241E+03 0.  0.
        1    1    3    3  502    0 -0.27111235045E+03  0.23657096834E+03  0.40696128603E+03  0.54321746840E+03  0.50400001928E-02 0. -1.
       -1    1    3    3    0  502  0.27111235045E+03 -0.23657096834E+03 -0.11966238917E+03  0.37919232196E+03  0.50400001928E-02 0.  1.
</event>
<event>
 5   0  0.2560250E-03  0.9217694E+03  0.7818609E-02  0.9398770E-01
       -3   -1    0    0    0  501  0.00000000000E+00  0.00000000000E+00  0.57855452951E+03  0.57855453833E+03  0.10100000352E+00 0. -1.
        3   -1    0    0  501    0  0.00000000000E+00  0.00000000000E+00 -0.36714725716E+03  0.36714727105E+03  0.10100000352E+00 0.  1.
    10030    2    1    2    0    0  0.00000000000E+00  0.00000000000E+00  0.21140727235E+03  0.94570180938E+03  0.92176942749E+03 0.  0.
        3    1    3    3  502    0  0.26618002010E+03  0.34179620198E+03 -0.55664029272E+02  0.43677790825E+03  0.10100000352E+00 0.  1.
       -3    1    3    3    0  502 -0.26618002010E+03 -0.34179620198E+03  0.26707130162E+03  0.50892390112E+03  0.10100000352E+00 0. -1.
</event>
<event>
 5   0  0.6724773E-03  0.9016745E+03  0.7818609E-02  0.9423491E-01
       -2   -1    0    0    0  501  0.00000000000E+00  0.00000000000E+00  0.38840336374E+03  0.38840336374E+03  0.25500000920E-02 0.  1.
        2   -1    0    0  501    0  0.00000000000E+00  0.00000000000E+00 -0.52330711055E+03  0.52330711055E+03  0.25500000920E-02 0. -1.
    10030    2    1    2    0    0  0.00000000000E+00  0.00000000000E+00 -0.13490374681E+03  0.91171047430E+03  0.90167453554E+03 0.  0.
        5    1    3    3  502    0 -0.32616261581E+03 -0.75747368367E+02 -0.37265991285E+03  0.50101618379E+03  0.46999998093E+01 0. -1.
       -5    1    3    3    0  502  0.32616261581E+03  0.75747368367E+02  0.23775616604E+03  0.41069429051E+03  0.46999998093E+01 0.  1.
</event>
<event>
 5   0  0.3943549E-03  0.9040155E+03  0.7818609E-02  0.9420576E-01
        1   -1    0    0  501    0  0.00000000000E+00  0.00000000000E+00  0.11243248758E+04  0.11243248758E+04  0.50400001928E-02 0.  1.
       -1   -1    0    0    0  501  0.00000000000E+00  0.00000000000E+00 -0.18171882094E+03  0.18171882101E+03  0.50400001928E-02 0. -1.
    10030    2    1    2    0    0  0.00000000000E+00  0.00000000000E+00  0.94260605485E+03  0.13060436968E+04  0.90401546632E+03 0.  0.
        3    1    3    3  502    0 -0.32453105276E+03 -0.30089062412E+03  0.60414923175E+03  0.74890044486E+03  0.10100000352E+00 0.  1.
       -3    1    3    3    0  502  0.32453105276E+03  0.30089062412E+03  0.33845682311E+03  0.55714325195E+03  0.10100000352E+00 0. -1.
</event>
<event>
 5   0  0.2560250E-03  0.9006826E+03  0.7818609E-02  0.9424729E-01
        3   -1    0    0  501    0  0.00000000000E+00  0.00000000000E+00  0.59975997853E+03  0.59975998704E+03  0.10100000352E+00 0. -1.
       -3   -1    0    0    0  501  0.00000000000E+00  0.00000000000E+00 -0.33814737623E+03  0.33814739132E+03  0.10100000352E+00 0.  1.
    10030    2    1    2    0    0  0.00000000000E+00  0.00000000000E+00  0.26161260230E+03  0.93790737835E+03  0.90068257266E+03 0.  0.
        5    1    3    3  502    0  0.16843318409E+03 -0.34347584853E+03 -0.11658298090E+03  0.39994884355E+03  0.46999998093E+01 0.  1.
       -5    1    3    3    0  502 -0.16843318409E+03  0.34347584853E+03  0.37819558319E+03  0.53795853480E+03  0.46999998093E+01 0. -1.
</event>
<event>
 5   0  0.6609191E-03  0.9047000E+03  0.7818609E-02  0.9419725E-01
       -2   -1    0    0    0  501  0.00000000000E+00  0.00000000000E+00  0.12669061905E+03  0.12669061908E+03  0.25500000920E-02 0.  1.
        2   -1    0    0  501    0  0.00000000000E+00  0.00000000000E+00 -0.16151197785E+04  0.16151197785E+04  0.25500000920E-02 0. -1.
    10030    2    1    2    0    0  0.00000000000E+00  0.00000000000E+00 -0.14884291595E+04  0.17418103976E+04  0.90470000465E+03 0.  0.
        2    1    3    3  502    0 -0.70388912011E+02 -0.41352499500E+03 -0.10701691987E+04  0.11494431844E+04  0.25500000920E-02 0. -1.
       -2    1    3    3    0  502  0.70388912011E+02  0.41352499500E+03 -0.41825996079E+03  0.59236721316E+03  0.25500000920E-02 0.  1.
</event>
<event>
 5   0  0.3969536E-03  0.9007744E+03  0.7818609E-02  0.9424614E-01
       -1   -1    0    0    0  501  0.00000000000E+00  0.00000000000E+00  0.29802368242E+03  0.29802368246E+03  0.50400001928E-02 0. -1.
        1   -1    0    0  501    0  0.00000000000E+00  0.00000000000E+00 -0.68064605896E+03  0.68064605897E+03  0.50400001928E-02 0.  1.
    10030    2    1    2    0    0  0.00000000000E+00  0.00000000000E+00 -0.38262237654E+03  0.97866974143E+03  0.90077443334E+03 0.  0.
        1    1    3    3  502    0  0.24724252981E+03  0.71241040230E+02 -0.59293196597E+03  0.64635320890E+03  0.50400001928E-02 0.  1.
       -1    1    3    3    0  502 -0.24724252981E+03 -0.71241040230E+02  0.21030958943E+03  0.33231653253E+03  0.50400001928E-02 0. -1.
</event>
<event>
 5   0  0.6524705E-03  0.8713131E+03  0.7818609E-02  0.9462169E-01
        2   -1    0    0  501    0  0.00000000000E+00  0.00000000000E+00  0.69144603961E+03  0.69144603961E+03  0.25500000920E-02 0. -1.
       -2   -1    0    0    0  501  0.00000000000E+00  0.00000000000E+00 -0.27449232154E+03  0.27449232156E+03  0.25500000920E-02 0.  1.
    10030    2    1    2    0    0  0.00000000000E+00  0.00000000000E+00  0.41695371807E+03  0.96593836117E+03  0.87131309790E+03 0.  0.
        3    1    3    3  502    0  0.20149372616E+03 -0.36185150904E+03  0.58670550435E+02  0.41830429111E+03  0.10100000352E+00 0.  1.
       -3    1    3    3    0  502 -0.20149372616E+03  0.36185150904E+03  0.35828316763E+03  0.54763407005E+03  0.10100000352E+00 0. -1.
</event>
<event>
 5   0  0.6609191E-03  0.9020806E+03  0.7818609E-02  0.9422984E-01
       -2   -1    0    0    0  501  0.00000000000E+00  0.00000000000E+00  0.19178345137E+03  0.19178345139E+03  0.25500000920E-02 0.  1.
        2   -1    0    0  501    0  0.00000000000E+00  0.00000000000E+00 -0.10607660482E+04  0.10607660482E+04  0.25500000920E-02 0. -1.
    10030    2    1    2    0    0  0.00000000000E+00  0.00000000000E+00 -0.86898259679E+03  0.12525494996E+04  0.90208064790E+03 0.  0.
        2    1    3    3  502    0 -0.30410159948E+03 -0.31630418539E+03 -0.28945161235E+03  0.52565041272E+03  0.25500000920E-02 0. -1.
       -2    1    3    3    0  502  0.30410159948E+03  0.31630418539E+03 -0.57953098445E+03  0.72689908683E+03  0.25500000920E-02 0.  1.
</event>
<event>
 5   0  0.3969536E-03  0.9068809E+03  0.7818609E-02  0.9417021E-01
        1   -1    0    0  501    0  0.00000000000E+00  0.00000000000E+00  0.49074453615E+03  0.49074453617E+03  0.50400001928E-02 0.  1.
       -1   -1    0    0    0  501  0.00000000000E+00  0.00000000000E+00 -0.41897203316E+03  0.41897203319E+03  0.50400001928E-02 0. -1.
    10030    2    1    2    0    0  0.00000000000E+00  0.00000000000E+00  0.71772502990E+02  0.90971656936E+03  0.90688088765E+03 0.  0.
        1    1    3    3  502    0  0.10493522916E+03  0.21095392062E+03  0.42451897770E+03  0.48551964058E+03  0.50400001928E-02 0.  1.
       -1    1    3    3    0  502 -0.10493522916E+03 -0.21095392062E+03 -0.35274647471E+03  0.42419692878E+03  0.50400001928E-02 0. -1.
</event>
<event>
 5   0  0.6724773E-03  0.8814686E+03  0.7818609E-02  0.9449048E-01
       -2   -1    0    0    0  501  0.00000000000E+00  0.00000000000E+00  0.13305736719E+03  0.13305736722E+03  0.25500000920E-02 0.  1.
        2   -1    0    0  501    0  0.00000000000E+00  0.00000000000E+00 -0.14598719216E+04  0.14598719216E+04  0.25500000920E-02 0. -1.
    10030    2    1    2    0    0  0.00000000000E+00  0.00000000000E+00 -0.13268145544E+04  0.15929292888E+04  0.88146857993E+03 0.  0.
        5    1    3    3  502    0 -0.24552846982E+03  0.23111805258E+03 -0.15059950573E+03  0.36932652876E+03  0.46999998093E+01 0.  1.
       -5    1    3    3    0  502  0.24552846982E+03 -0.23111805258E+03 -0.11762150487E+04  0.12236027601E+04  0.46999998093E+01 0. -1.
</event>
<event>
 5   0  0.6609191E-03  0.8845647E+03  0.7818609E-02  0.9445085E-01
        2   -1    0    0  501    0  0.00000000000E+00  0.00000000000E+00  0.18591553287E+04  0.18591553287E+04  0.25500000920E-02 0. -1.
       -2   -1    0    0    0  501  0.00000000000E+00  0.00000000000E+00 -0.10521643022E+03  0.10521643025E+03  0.25500000920E-02 0.  1.
    10030    2    1    2    0    0  0.00000000000E+00  0.00000000000E+00  0.17539388985E+04  0.19643717590E+04  0.88456472220E+03 0.  0.
        2    1    3    3  502    0  0.26024917679E+03  0.27424501320E+03  0.36729708525E+03  0.52711204703E+03  0.25500000920E-02 0.  1.
       -2    1    3    3    0  502 -0.26024917679E+03 -0.27424501320E+03  0.13866418133E+04  0.14372597120E+04  0.25500000920E-02 0. -1.
</event>
<event>
 5   0  0.2560250E-03  0.9073747E+03  0.7818609E-02  0.9416409E-01
       -4   -1    0    0    0  501  0.00000000000E+00  0.00000000000E+00  0.63027700234E+03  0.63027828186E+03  0.12699999809E+01 0.  1.
        4   -1    0    0  501    0  0.00000000000E+00  0.00000000000E+00 -0.32657136196E+03  0.32657383140E+03  0.12699999809E+01 0. -1.
    10030    2    1    2    0    0  0.00000000000E+00  0.00000000000E+00  0.30370564038E+03  0.95685211325E+03  0.90737470245E+03 0.  0.
        2    1    3    3  502    0  0.40513953119E+03 -0.56527835259E+02  0.35876288594E+03  0.54409948009E+03  0.25500000920E-02 0.  1.
       -2    1    3    3    0  502 -0.40513953119E+03  0.56527835259E+02 -0.55057245565E+02  0.41275263317E+03  0.25500000920E-02 0. -1.
</event>
<event>
 5   0  0.3969536E-03  0.9045466E+03  0.7818609E-02  0.9419916E-01
       -1   -1    0    0    0  501  0.00000000000E+00  0.00000000000E+00  0.69165726630E+03  0.69165726632E+03  0.50400001928E-02 0. -1.
        1   -1    0    0  501    0  0.00000000000E+00  0.00000000000E+00 -0.29574058700E+03  0.29574058704E+03  0.50400001928E-02 0.  1.
    10030    2    1    2    0    0  0.00000000000E+00  0.00000000000E+00  0.39591667930E+03  0.98739785336E+03  0.90454657363E+03 0.  0.
        1    1    3    3  502    0  0.23113333917E+03  0.13368941876E+03 -0.20051938911E+03  0.33392140781E+03  0.50400001928E-02 0.  1.
       -1    1    3    3    0  502 -0.23113333917E+03 -0.13368941876E+03  0.59643606840E+03  0.65347644554E+03  0.50400001928E-02 0. -1.
</event>
<event>
 5   0  0.6534628E-03  0.8984472E+03  0.7818609E-02  0.9427525E-01
        2   -1    0    0  501    0  0.00000000000E+00  0.00000000000E+00  0.33682458671E+03  0.33682458672E+03  0.25500000920E-02 0.  1.
       -2   -1    0    0    0  501  0.00000000000E+00  0.00000000000E+00 -0.59913040787E+03  0.59913040788E+03  0.25500000920E-02 0. -1.
    10030    2    1    2    0    0  0.00000000000E+00  0.00000000000E+00 -0.26230582116E+03  0.93595499460E+03  0.89844722054E+03 0.  0.
        4    1    3    3  502    0 -0.10145325689E+03  0.13699461861E+03  0.30181807261E+03  0.34663532814E+03  0.12699999809E+01 0.  1.
       -4    1    3    3    0  502  0.10145325689E+03 -0.13699461861E+03 -0.56412389377E+03  0.58931966646E+03  0.12699999809E+01 0. -1.
</event>
<event>
 5   0  0.6524705E-03  0.8984274E+03  0.7818609E-02  0.9427549E-01
        2   -1    0    0  501    0  0.00000000000E+00  0.00000000000E+00  0.13277977709E+04  0.13277977709E+04  0.25500000920E-02 0. -1.
       -2   -1    0    0    0  501  0.00000000000E+00  0.00000000000E+00 -0.15197566645E+03  0.15197566647E+03  0.25500000920E-02 0.  1.
    10030    2    1    2    0    0  0.00000000000E+00  0.00000000000E+00  0.11758221045E+04  0.14797734374E+04  0.89842740645E+03 0.  0.
        3    1    3    3  502    0 -0.30148126236E+03  0.15522316547E+03  0.10731900615E+04  0.11254874948E+04  0.10100000352E+00 0. -1.
       -3    1    3    3    0  502  0.30148126236E+03 -0.15522316547E+03  0.10263204291E+03  0.35428594254E+03  0.10100000352E+00 0.  1.
</event>
<event>
 5   0  0.2560250E-03  0.8987035E+03  0.7818609E-02  0.9427204E-01
        4   -1    0    0  501    0  0.00000000000E+00  0.00000000000E+00  0.20092863967E+03  0.20093265324E+03  0.12699999809E+01 0. -1.
       -4   -1    0    0    0  501  0.00000000000E+00  0.00000000000E+00 -0.10049045155E+04  0.10049053180E+04  0.12699999809E+01 0.  1.
    10030    2    1    2    0    0  0.00000000000E+00  0.00000000000E+00 -0.80397587580E+03  0.12058379712E+04  0.89870351282E+03 0.  0.
        2    1    3    3  502    0  0.15202619005E+02  0.13191517952E+03  0.17400431966E+03  0.21888407315E+03  0.25500000920E-02 0. -1.
       -2    1    3    3    0  502 -0.15202619005E+02 -0.13191517952E+03 -0.97798019545E+03  0.98695389807E+03  0.25500000920E-02 0.  1.
</event>
<event>
 5   0  0.6524705E-03  0.9035704E+03  0.7818609E-02  0.9421129E-01
       -2   -1    0    0    0  501  0.00000000000E+00  0.00000000000E+00  0.26578511700E+03  0.26578511701E+03  0.25500000920E-02 0. -1.
        2   -1    0    0  501    0  0.00000000000E+00  0.00000000000E+00 -0.76795067826E+03  0.76795067826E+03  0.25500000920E-02 0.  1.
    10030    2    1    2    0    0  0.00000000000E+00  0.00000000000E+00 -0.50216556126E+03  0.10337357953E+04  0.90357038658E+03 0.  0.
        3    1    3    3  502    0  0.27222797954E+03  0.13359853908E+03  0.13205362138E+03  0.33074886487E+03  0.10100000352E+00 0. -1.
       -3    1    3    3    0  502 -0.27222797954E+03 -0.13359853908E+03 -0.63421918264E+03  0.70298693040E+03  0.10100000352E+00 0.  1.
</event>
<event>
 5   0  0.3943549E-03  0.8775578E+03  0.7818609E-02  0.9454078E-01
       -1   -1    0    0    0  501  0.00000000000E+00  0.00000000000E+00  0.42960808004E+03  0.42960808007E+03  0.50400001928E-02 0. -1.
        1   -1    0    0  501    0  0.00000000000E+00  0.00000000000E+00 -0.44814544305E+03  0.44814544307E+03  0.50400001928E-02 0.  1.
    10030    2    1    2    0    0  0.00000000000E+00  0.00000000000E+00 -0.18537363006E+02  0.87775352314E+03  0.87755775512E+03 0.  0.
        3    1    3    3  502    0  0.48703518645E+02 -0.37827693546E+03 -0.22625351989E+03  0.44345928572E+03  0.10100000352E+00 0.  1.
       -3    1    3    3    0  502 -0.48703518645E+02  0.37827693546E+03  0.20771615688E+03  0.43429423742E+03  0.10100000352E+00 0. -1.
</event>
<event>
 5   0  0.3943549E-03  0.9037282E+03  0.7818609E-02  0.9420933E-01
       -1   -1    0    0    0  501  0.00000000000E+00  0.00000000000E+00  0.38123561683E+03  0.38123561686E+03  0.50400001928E-02 0.  1.
        1   -1    0    0  501    0  0.00000000000E+00  0.00000000000E+00 -0.53557730210E+03  0.53557730213E+03  0.50400001928E-02 0. -1.
    10030    2    1    2    0    0  0.00000000000E+00  0.00000000000E+00 -0.15434168528E+03  0.91681291898E+03  0.90372815194E+03 0.  0.
        3    1    3    3  502    0  0.34772402632E+03  0.24944297016E+02  0.21447530270E+03  0.40930903008E+03  0.10100000352E+00 0.  1.
       -3    1    3    3    0  502 -0.34772402632E+03 -0.24944297016E+02 -0.36881698798E+03  0.50750388891E+03  0.10100000352E+00 0. -1.
</event>
<event>
 5   0  0.6534628E-03  0.9135400E+03  0.7818609E-02  0.9408812E-01
       -2   -1    0    0    0  501  0.00000000000E+00  0.00000000000E+00  0.96119337750E+02  0.96119337784E+02  0.25500000920E-02 0.  1.
        2   -1    0    0  501    0  0.00000000000E+00  0.00000000000E+00 -0.21706230306E+04  0.21706230306E+04  0.25500000920E-02 0. -1.
    10030    2    1    2    0    0  0.00000000000E+00  0.00000000000E+00 -0.20745036928E+04  0.22667423683E+04  0.91354003359E+03 0.  0.
        4    1    3    3  502    0 -0.31493884579E+03 -0.32072912291E+03 -0.83592304109E+03  0.94911674223E+03  0.12699999809E+01 0.  1.
       -4    1    3    3    0  502  0.31493884579E+03  0.32072912291E+03 -0.12385806517E+04  0.13176256261E+04  0.12699999809E+01 0. -1.
</event>
<event>
 5   0  0.3794006E-03  0.9026222E+03  0.7818609E-02  0.9422309E-01
        1   -1    0    0  501    0  0.00000000000E+00  0.00000000000E+00  0.37136482273E+03  0.37136482276E+03  0.50400001928E-02 0.  1.
       -1   -1    0    0    0  501  0.00000000000E+00  0.00000000000E+00 -0.54846801663E+03  0.54846801665E+03  0.50400001928E-02 0. -1.
    10030    2    1    2    0    0  0.00000000000E+00  0.00000000000E+00 -0.17710319390E+03  0.91983283942E+03  0.90262224168E+03 0.  0.
        5    1    3    3  502    0 -0.34099466829E+01 -0.10042224501E+03 -0.53689881703E+03  0.54624050083E+03  0.46999998093E+01 0. -1.
       -5    1    3    3    0  502  0.34099466829E+01  0.10042224501E+03  0.35979562312E+03  0.37359233858E+03  0.46999998093E+01 0.  1.
</event>
<event>
 5   0  0.2560250E-03  0.9029784E+03  0.7818609E-02  0.9421866E-01
       -3   -1    0    0    0  501  0.00000000000E+00  0.00000000000E+00  0.26101090649E+03  0.26101092603E+03  0.10100000352E+00 0.  1.
        3   -1    0    0  501    0  0.00000000000E+00  0.00000000000E+00 -0.78097307212E+03  0.78097307865E+03  0.10100000352E+00 0. -1.
    10030    2    1    2    0    0  0.00000000000E+00  0.00000000000E+00 -0.51996216562E+03  0.10419840047E+04  0.90297841189E+03 0.  0.
        1    1    3    3  502    0 -0.44635132617E+03  0.15575961147E+02 -0.18369530323E+03  0.48292450900E+03  0.50400001928E-02 0. -1.
       -1    1    3    3    0  502  0.44635132617E+03 -0.15575961147E+02 -0.33626686239E+03  0.55905949568E+03  0.50400001928E-02 0.  1.
</event>
<event>
 5   0  0.3943549E-03  0.9102251E+03  0.7818609E-02  0.9412889E-01
        1   -1    0    0  501    0  0.00000000000E+00  0.00000000000E+00  0.14691273340E+03  0.14691273349E+03  0.50400001928E-02 0.  1.
       -1   -1    0    0    0  501  0.00000000000E+00  0.00000000000E+00 -0.14098671095E+04  0.14098671095E+04  0.50400001928E-02 0. -1.
    10030    2    1    2    0    0  0.00000000000E+00  0.00000000000E+00 -0.12629543761E+04  0.15567798430E+04  0.91022509496E+03 0.  0.
        3    1    3    3  502    0  0.82232377225E+02  0.10621928708E+02 -0.13968398896E+04  0.13992986374E+04  0.10100000352E+00 0. -1.
       -3    1    3    3    0  502 -0.82232377225E+02 -0.10621928708E+02  0.13388551343E+03  0.15748120568E+03  0.10100000352E+00 0.  1.
</event>
<event>
 5   0  0.2560250E-03  0.9045735E+03  0.7818609E-02  0.9419882E-01
       -3   -1    0    0    0  501  0.00000000000E+00  0.00000000000E+00  0.15276102321E+04  0.15276102354E+04  0.10100000352E+00 0. -1.
        3   -1    0    0  501    0  0.00000000000E+00  0.00000000000E+00 -0.13391063072E+03  0.13391066881E+03  0.10100000352E+00 0.  1.
    10030    2    1    2    0    0  0.00000000000E+00  0.00000000000E+00  0.13936996014E+04  0.16615209043E+04  0.90457345549E+03 0.  0.
        4    1    3    3  502    0  0.13960028112E+03 -0.18048747966E+03 -0.20438290617E+02  0.22909235131E+03  0.12699999809E+01 0.  1.
       -4    1    3    3    0  502 -0.13960028112E+03  0.18048747966E+03  0.14141378920E+04  0.14324285529E+04  0.12699999809E+01 0. -1.
</event>
<event>
 5   0  0.3943549E-03  0.8992227E+03  0.7818609E-02  0.9426554E-01
       -1   -1    0    0    0  501  0.00000000000E+00  0.00000000000E+00  0.58931328078E+03  0.58931328080E+03  0.50400001928E-02 0. -1.
        1   -1    0    0  501    0  0.00000000000E+00  0.00000000000E+00 -0.34302702174E+03  0.34302702177E+03  0.50400001928E-02 0.  1.
    10030    2    1    2    0    0  0.00000000000E+00  0.00000000000E+00  0.24628625905E+03  0.93234030258E+03  0.89922273015E+03 0.  0.
        3    1    3    3  502    0  0.33383507513E+03  0.78699542975E+02 -0.17827094622E+03  0.38654885321E+03  0.10100000352E+00 0. -1.
       -3    1    3    3    0  502 -0.33383507513E+03 -0.78699542975E+02  0.42455720527E+03  0.54579144936E+03  0.10100000352E+00 0.  1.
</event>
<event>
 5   0  0.6863405E-03  0.8814460E+03  0.7818609E-02  0.9449077E-01
       -2   -1    0    0    0  501  0.00000000000E+00  0.00000000000E+00  0.12739164348E+03  0.12739164350E+03  0.25500000920E-02 0. -1.
        2   -1    0    0  501    0  0.00000000000E+00  0.00000000000E+00 -0.15247214039E+04  0.15247214039E+04  0.25500000920E-02 0.  1.
    10030    2    1    2    0    0  0.00000000000E+00  0.00000000000E+00 -0.13973297604E+04  0.16521130474E+04  0.88144600630E+03 0.  0.
        1    1    3    3  502    0  0.27164115922E+03 -0.29933283371E+03 -0.36946820043E+03  0.54762744259E+03  0.50400001928E-02 0. -1.
       -1    1    3    3    0  502 -0.27164115922E+03  0.29933283371E+03 -0.10278615599E+04  0.11044856048E+04  0.50400001928E-02 0.  1.
</event>
<event>
 5   0  0.3927993E-03  0.9060145E+03  0.7818609E-02  0.9418094E-01
        1   -1    0    0  501    0  0.00000000000E+00  0.00000000000E+00  0.61095726584E+03  0.61095726586E+03  0.50400001928E-02 0.  1.
       -1   -1    0    0    0  501  0.00000000000E+00  0.00000000000E+00 -0.33589182406E+03  0.33589182410E+03  0.50400001928E-02 0. -1.
    10030    2    1    2    0    0  0.00000000000E+00  0.00000000000E+00  0.27506544178E+03  0.94684908996E+03  0.90601446009E+03 0.  0.
        2    1    3    3  502    0  0.34748782975E+03  0.16938064250E+03 -0.10928534055E+03  0.40172239114E+03  0.25500000920E-02 0. -1.
       -2    1    3    3    0  502 -0.34748782975E+03 -0.16938064250E+03  0.38435078234E+03  0.54512669882E+03  0.25500000920E-02 0.  1.
</event>
<event>
 5   0  0.3943549E-03  0.8936661E+03  0.7818609E-02  0.9433534E-01
       -1   -1    0    0    0  501  0.00000000000E+00  0.00000000000E+00  0.55177953658E+03  0.55177953660E+03  0.50400001928E-02 0.  1.
        1   -1    0    0  501    0  0.00000000000E+00  0.00000000000E+00 -0.36184703540E+03  0.36184703543E+03  0.50400001928E-02 0. -1.
    10030    2    1    2    0    0  0.00000000000E+00  0.00000000000E+00  0.18993250118E+03  0.91362657203E+03  0.89366613347E+03 0.  0.
        3    1    3    3  502    0 -0.96018842121E+02  0.41165402855E+03  0.24305012794E+03  0.48759822821E+03  0.10100000352E+00 0.  1.
       -3    1    3    3    0  502  0.96018842121E+02 -0.41165402855E+03 -0.53117626761E+02  0.42602834382E+03  0.10100000352E+00 0. -1.
</event>
<event>
 5   0  0.3927993E-03  0.8904948E+03  0.7818609E-02  0.9437542E-01
       -1   -1    0    0    0  501  0.00000000000E+00  0.00000000000E+00  0.78103785658E+02  0.78103785821E+02  0.50400001928E-02 0. -1.
        1   -1    0    0  501    0  0.00000000000E+00  0.00000000000E+00 -0.25382281200E+04  0.25382281200E+04  0.50400001928E-02 0.  1.
    10030    2    1    2    0    0  0.00000000000E+00  0.00000000000E+00 -0.24601243343E+04  0.26163319058E+04  0.89049475069E+03 0.  0.
        2    1    3    3  502    0 -0.78819846144E+02 -0.30627420972E+03 -0.30922928998E+03  0.44231121790E+03  0.25500000920E-02 0. -1.
       -2    1    3    3    0  502  0.78819846144E+02  0.30627420972E+03 -0.21508950443E+04  0.21740206879E+04  0.25500000920E-02 0.  1.
</event>
<event>
 5   0  0.3943549E-03  0.9104139E+03  0.7818609E-02  0.9412656E-01
        1   -1    0    0  501    0  0.00000000000E+00  0.00000000000E+00  0.43451371492E+03  0.43451371495E+03  0.50400001928E-02 0.  1.
       -1   -1    0    0    0  501  0.00000000000E+00  0.00000000000E+00 -0.47688569252E+03  0.47688569254E+03  0.50400001928E-02 0. -1.
    10030    2    1    2    0    0  0.00000000000E+00  0.00000000000E+00 -0.42371977594E+02  0.91139940750E+03  0.91041391438E+03 0.  0.
        3    1    3    3  502    0 -0.99009529727E+02  0.78002789911E+02  0.41669581482E+03  0.43534208905E+03  0.10100000352E+00 0.  1.
       -3    1    3    3    0  502  0.99009529727E+02 -0.78002789911E+02 -0.45906779241E+03  0.47605731844E+03  0.10100000352E+00 0. -1.
</event>
<event>
 5   0  0.6724773E-03  0.8969893E+03  0.7818609E-02  0.9429353E-01
        2   -1    0    0  501    0  0.00000000000E+00  0.00000000000E+00  0.23108338783E+04  0.23108338783E+04  0.25500000920E-02 0.  1.
       -2   -1    0    0    0  501  0.00000000000E+00  0.00000000000E+00 -0.87045398771E+02  0.87045398808E+02  0.25500000920E-02 0. -1.
    10030    2    1    2    0    0  0.00000000000E+00  0.00000000000E+00  0.22237884795E+04  0.23978792771E+04  0.89698931203E+03 0.  0.
        5    1    3    3  502    0  0.22974699661E+03 -0.38262321517E+02  0.87380124271E+02  0.24880728248E+03  0.46999998093E+01 0. -1.
       -5    1    3    3    0  502 -0.22974699661E+03  0.38262321517E+02  0.21364083552E+04  0.21490719946E+04  0.46999998093E+01 0.  1.
</event>
<event>
 5   0  0.6863405E-03  0.8901026E+03  0.7818609E-02  0.9438039E-01
        2   -1    0    0  501    0  0.00000000000E+00  0.00000000000E+00  0.19634743945E+04  0.19634743945E+04  0.25500000920E-02 0.  1.
       -2   -1    0    0    0  501  0.00000000000E+00  0.00000000000E+00 -0.10087763901E+03  0.10087763904E+03  0.25500000920E-02 0. -1.
    10030    2    1    2    0    0  0.00000000000E+00  0.00000000000E+00  0.18625967555E+04  0.20643520335E+04  0.89010260353E+03 0.  0.
        1    1    3    3  502    0 -0.31309364410E+03 -0.22642141594E+03  0.14435088369E+04  0.14943266209E+04  0.50400001928E-02 0. -1.
       -1    1    3    3    0  502  0.31309364410E+03  0.22642141594E+03  0.41908791859E+03  0.57002541268E+03  0.50400001928E-02 0.  1.
</event>
<event>
 5   0  0.3969536E-03  0.8977718E+03  0.7818609E-02  0.9428371E-01
        1   -1    0    0  501    0  0.00000000000E+00  0.00000000000E+00  0.52465802380E+03  0.52465802382E+03  0.50400001928E-02 0.  1.
       -1   -1    0    0    0  501  0.00000000000E+00  0.00000000000E+00 -0.38405697403E+03  0.38405697406E+03  0.50400001928E-02 0. -1.
    10030    2    1    2    0    0  0.00000000000E+00  0.00000000000E+00  0.14060104977E+03  0.90871499788E+03  0.89777184862E+03 0.  0.
        1    1    3    3  502    0 -0.30176460304E+03 -0.42960622558E+02  0.40384887254E+03  0.50596581171E+03  0.50400001928E-02 0.  1.
       -1    1    3    3    0  502  0.30176460304E+03  0.42960622558E+02 -0.26324782277E+03  0.40274918617E+03  0.50400001928E-02 0. -1.
</event>
<event>
 5   0  0.6609191E-03  0.9032919E+03  0.7818609E-02  0.9421476E-01
       -2   -1    0    0    0  501  0.00000000000E+00  0.00000000000E+00  0.14503452960E+03  0.14503452962E+03  0.25500000920E-02 0.  1.
        2   -1    0    0  501    0  0.00000000000E+00  0.00000000000E+00 -0.14064518586E+04  0.14064518586E+04  0.25500000920E-02 0. -1.
    10030    2    1    2    0    0  0.00000000000E+00  0.00000000000E+00 -0.12614173290E+04  0.15514863882E+04  0.90329194337E+03 0.  0.
        2    1    3    3  502    0  0.37744337127E+03  0.16309845328E+02 -0.20561063139E+03  0.43012235622E+03  0.25500000920E-02 0.  1.
       -2    1    3    3    0  502 -0.37744337127E+03 -0.16309845328E+02 -0.10558066976E+04  0.11213640320E+04  0.25500000920E-02 0. -1.
</event>
<event>
 5   0  0.6724773E-03  0.8955246E+03  0.7818609E-02  0.9431193E-01
       -2   -1    0    0    0  501  0.00000000000E+00  0.00000000000E+00  0.46285220108E+03  0.46285220109E+03  0.25500000920E-02 0. -1.
        2   -1    0    0  501    0  0.00000000000E+00  0.00000000000E+00 -0.43316432273E+03  0.43316432274E+03  0.25500000920E-02 0.  1.
    10030    2    1    2    0    0  0.00000000000E+00  0.00000000000E+00  0.29687878351E+02  0.89601652382E+03  0.89552456183E+03 0.  0.
        5    1    3    3  502    0 -0.27286354194E+03 -0.34634577095E+03  0.92726694861E+02  0.45058876541E+03  0.46999998093E+01 0. -1.
       -5    1    3    3    0  502  0.27286354194E+03  0.34634577095E+03 -0.63038816510E+02  0.44542775841E+03  0.46999998093E+01 0.  1.
</event>
<event>
 5   0  0.3927993E-03  0.8943956E+03  0.7818609E-02  0.9432614E-01
       -1   -1    0    0    0  501  0.00000000000E+00  0.00000000000E+00  0.32903297608E+03  0.32903297612E+03  0.50400001928E-02 0.  1.
        1   -1    0    0  501    0  0.00000000000E+00  0.00000000000E+00 -0.60779883102E+03  0.60779883104E+03  0.50400001928E-02 0. -1.
    10030    2    1    2    0    0  0.00000000000E+00  0.00000000000E+00 -0.27876585494E+03  0.93683180717E+03  0.89439556855E+03 0.  0.
        2    1    3    3  502    0  0.16017215293E+03 -0.34133225963E+03  0.11249053054E+03  0.39346785067E+03  0.25500000920E-02 0.  1.
       -2    1    3    3    0  502 -0.16017215293E+03  0.34133225963E+03 -0.39125638548E+03  0.54336395650E+03  0.25500000920E-02 0. -1.
</event>
<event>
 5   0  0.6609191E-03  0.9126580E+03  0.7818609E-02  0.9409895E-01
       -2   -1    0    0    0  501  0.00000000000E+00  0.00000000000E+00  0.17741734844E+03  0.17741734846E+03  0.25500000920E-02 0.  1.
        2   -1    0    0  501    0  0.00000000000E+00  0.00000000000E+00 -0.11737078748E+04  0.11737078748E+04  0.25500000920E-02 0. -1.
    10030    2    1    2    0    0  0.00000000000E+00  0.00000000000E+00 -0.99629052632E+03  0.13511252232E+04  0.91265796221E+03 0.  0.
        2    1    3    3  502    0 -0.11010255804E+03  0.44194937504E+03 -0.53986908688E+03  0.70632885709E+03  0.25500000920E-02 0.  1.
       -2    1    3    3    0  502  0.11010255804E+03 -0.44194937504E+03 -0.45642143944E+03  0.64479636613E+03  0.25500000920E-02 0. -1.
</event>
<event>
 5   0  0.6524705E-03  0.8976446E+03  0.7818609E-02  0.9428531E-01
        2   -1    0    0  501    0  0.00000000000E+00  0.00000000000E+00  0.20949253390E+03  0.20949253392E+03  0.25500000920E-02 0.  1.
       -2   -1    0    0    0  501  0.00000000000E+00  0.00000000000E+00 -0.96156869446E+03  0.96156869446E+03  0.25500000920E-02 0. -1.
    10030    2    1    2    0    0  0.00000000000E+00  0.00000000000E+00 -0.75207616055E+03  0.11710612284E+04  0.89764461194E+03 0.  0.
        3    1    3    3  502    0  0.24168966281E+03 -0.36515142338E+03 -0.24760354746E+03  0.50304769358E+03  0.10100000352E+00 0.  1.
       -3    1    3    3    0  502 -0.24168966281E+03  0.36515142338E+03 -0.50447261310E+03  0.66801353480E+03  0.10100000352E+00 0. -1.
</event>
<event>
 5   0  0.2560250E-03  0.9043412E+03  0.7818609E-02  0.9420171E-01
       -3   -1    0    0    0  501  0.00000000000E+00  0.00000000000E+00  0.10087038287E+04  0.10087038337E+04  0.10100000352E+00 0.  1.
        3   -1    0    0  501    0  0.00000000000E+00  0.00000000000E+00 -0.20269404010E+03  0.20269406526E+03  0.10100000352E+00 0. -1.
    10030    2    1    2    0    0  0.00000000000E+00  0.00000000000E+00  0.80600978857E+03  0.12113978990E+04  0.90434124665E+03 0.  0.
        2    1    3    3  502    0 -0.33613293490E+03  0.10287158584E+03  0.78398549264E+03  0.85918633938E+03  0.25500000920E-02 0.  1.
       -2    1    3    3    0  502  0.33613293490E+03 -0.10287158584E+03  0.22024295929E+02  0.35221155960E+03  0.25500000920E-02 0. -1.
</event>
<event>
 5   0  0.3794006E-03  0.9019284E+03  0.7818609E-02  0.9423174E-01
       -1   -1    0    0    0  501  0.00000000000E+00  0.00000000000E+00  0.34665856346E+03  0.34665856350E+03  0.50400001928E-02 0.  1.
        1   -1    0    0  501    0  0.00000000000E+00  0.00000000000E+00 -0.58665421180E+03  0.58665421182E+03  0.50400001928E-02 0. -1.
    10030    2    1    2    0    0  0.00000000000E+00  0.00000000000E+00 -0.23999564834E+03  0.93331277532E+03  0.90192839259E+03 0.  0.
        5    1    3    3  502    0 -0.35611423422E+03 -0.19946635544E+03  0.78355351505E+02  0.41565108670E+03  0.46999998093E+01 0.  1.
       -5    1    3    3    0  502  0.35611423422E+03  0.19946635544E+03 -0.31835099984E+03  0.51766168862E+03  0.46999998093E+01 0. -1.
</event>
<event>
 5   0  0.6863405E-03  0.8993342E+03  0.7818609E-02  0.9426414E-01
        2   -1    0    0  501    0  0.00000000000E+00  0.00000000000E+00  0.12309254555E+04  0.12309254555E+04  0.25500000920E-02 0. -1.
       -2   -1    0    0    0  501  0.00000000000E+00  0.00000000000E+00 -0.16426706949E+03  0.16426706951E+03  0.25500000920E-02 0.  1.
    10030    2    1    2    0    0  0.00000000000E+00  0.00000000000E+00  0.10666583860E+04  0.13951925250E+04  0.89933423677E+03 0.  0.
        1    1    3    3  502    0  0.13711060609E+03 -0.40348067899E+03  0.75601599738E+03  0.86784570341E+03  0.50400001928E-02 0.  1.
       -1    1    3    3    0  502 -0.13711060609E+03  0.40348067899E+03  0.31064238863E+03  0.52734682161E+03  0.50400001928E-02 0. -1.
</event>
<event>
 5   0  0.3998066E-03  0.9140124E+03  0.7818609E-02  0.9408233E-01
       -1   -1    0    0    0  501  0.00000000000E+00  0.00000000000E+00  0.53216196374E+03  0.53216196377E+03  0.50400001928E-02 0.  1.
        1   -1    0    0  501    0  0.00000000000E+00  0.00000000000E+00 -0.39246449860E+03  0.39246449863E+03  0.50400001928E-02 0. -1.
    10030    2    1    2    0    0  0.00000000000E+00  0.00000000000E+00  0.13969746515E+03  0.92462646240E+03  0.91401242508E+03 0.  0.
        4    1    3    3  502    0  0.11954072795E+03 -0.32755106941E+03  0.36870000467E+03  0.50746526488E+03  0.12699999809E+01 0.  1.
       -4    1    3    3    0  502 -0.11954072795E+03  0.32755106941E+03 -0.22900253953E+03  0.41716119752E+03  0.12699999809E+01 0. -1.
</event>
<event>
 5   0  0.3927993E-03  0.8977765E+03  0.7818609E-02  0.9428365E-01
       -1   -1    0    0    0  501  0.00000000000E+00  0.00000000000E+00  0.98775428819E+03  0.98775428820E+03  0.50400001928E-02 0.  1.
        1   -1    0    0  501    0  0.00000000000E+00  0.00000000000E+00 -0.20399875665E+03  0.20399875671E+03  0.50400001928E-02 0. -1.
    10030    2    1    2    0    0  0.00000000000E+00  0.00000000000E+00  0.78375553154E+03  0.11917530449E+04  0.89777646819E+03 0.  0.
        2    1    3    3  502    0  0.76908705769E+02 -0.33623351640E+03  0.77323424712E+03  0.84667533771E+03  0.25500000920E-02 0.  1.
       -2    1    3    3    0  502 -0.76908705769E+02  0.33623351640E+03  0.10521284418E+02  0.34507770720E+03  0.25500000920E-02 0. -1.
</event>
<event>
 5   0  0.6534628E-03  0.8963237E+03  0.7818609E-02  0.9430189E-01
        2   -1    0    0  501    0  0.00000000000E+00  0.00000000000E+00  0.28499043602E+03  0.28499043603E+03  0.25500000920E-02 0. -1.
       -2   -1    0    0    0  501  0.00000000000E+00  0.00000000000E+00 -0.70475720767E+03  0.70475720767E+03  0.25500000920E-02 0.  1.
    10030    2    1    2    0    0  0.00000000000E+00  0.00000000000E+00 -0.41976677165E+03  0.98974764370E+03  0.89632374488E+03 0.  0.
        4    1    3    3  502    0  0.23949415869E+03  0.33676634779E+03 -0.18375294657E+02  0.41365237749E+03  0.12699999809E+01 0. -1.
       -4    1    3    3    0  502 -0.23949415869E+03 -0.33676634779E+03 -0.40139147699E+03  0.57609526621E+03  0.12699999809E+01 0.  1.
</event>
<event>
 5   0  0.6609191E-03  0.9222064E+03  0.7818609E-02  0.9398240E-01
        2   -1    0    0  501    0  0.00000000000E+00  0.00000000000E+00  0.76794903091E+03  0.76794903091E+03  0.25500000920E-02 0. -1.
       -2   -1    0    0    0  501  0.00000000000E+00  0.00000000000E+00 -0.27686235976E+03  0.27686235977E+03  0.25500000920E-02 0.  1.
    10030    2    1    2    0    0  0.00000000000E+00  0.00000000000E+00  0.49108667115E+03  0.10448113907E+04  0.92220644300E+03 0.  0.
        2    1    3    3  502    0 -0.22359511606E+02 -0.43753115909E+03  0.40847802279E+03  0.59898894651E+03  0.25500000920E-02 0. -1.
       -2    1    3    3    0  502  0.22359511606E+02  0.43753115909E+03  0.82608648368E+02  0.44582244417E+03  0.25500000920E-02 0.  1.
</event>
<event>
 5   0  0.6724773E-03  0.8953000E+03  0.7818609E-02  0.9431476E-01
       -2   -1    0    0    0  501  0.00000000000E+00  0.00000000000E+00  0.97478858755E+03  0.97478858755E+03  0.25500000920E-02 0.  1.
        2   -1    0    0  501    0  0.00000000000E+00  0.00000000000E+00 -0.20557329889E+03  0.20557329891E+03  0.25500000920E-02 0. -1.
    10030    2    1    2    0    0  0.00000000000E+00  0.00000000000E+00  0.76921528866E+03  0.11803618865E+04  0.89529996242E+03 0.  0.
        5    1    3    3  502    0 -0.41060369241E+03 -0.90697922807E+02  0.58691588615E+03  0.72202067341E+03  0.46999998093E+01 0. -1.
       -5    1    3    3    0  502  0.41060369241E+03  0.90697922807E+02  0.18229940251E+03  0.45834121305E+03  0.46999998093E+01 0.  1.
</event>
<event>
 5   0  0.2560250E-03  0.9026197E+03  0.7818609E-02  0.9422313E-01
        4   -1    0    0  501    0  0.00000000000E+00  0.00000000000E+00  0.91763965683E+03  0.91764053567E+03  0.12699999809E+01 0.  1.
       -4   -1    0    0    0  501  0.00000000000E+00  0.00000000000E+00 -0.22195857269E+03  0.22196220599E+03  0.12699999809E+01 0. -1.
    10030    2    1    2    0    0  0.00000000000E+00  0.00000000000E+00  0.69568108415E+03  0.11396027417E+04  0.90261965299E+03 0.  0.
        3    1    3    3  502    0 -0.12816083276E+03 -0.38258756170E+03  0.60311968906E+03  0.72563889845E+03  0.10100000352E+00 0.  1.
       -3    1    3    3    0  502  0.12816083276E+03  0.38258756170E+03  0.92561395089E+02  0.41396384320E+03  0.10100000352E+00 0. -1.
</event>
<event>
 5   0  0.6534628E-03  0.9109071E+03  0.7818609E-02  0.9412049E-01
        2   -1    0    0  501    0  0.00000000000E+00  0.00000000000E+00  0.84813979178E+03  0.84813979179E+03  0.25500000920E-02 0.  1.
       -2   -1    0    0    0  501  0.00000000000E+00  0.00000000000E+00 -0.24457988511E+03  0.24457988513E+03  0.25500000920E-02 0. -1.
    10030    2    1    2    0    0  0.00000000000E+00  0.00000000000E+00  0.60355990667E+03  0.10927196769E+04  0.91090709262E+03 0.  0.
        4    1    3    3  502    0 -0.92206678883E+02 -0.44400361765E+03  0.25095567271E+03  0.51828722412E+03  0.12699999809E+01 0.  1.
       -4    1    3    3    0  502  0.92206678883E+02  0.44400361765E+03  0.35260423396E+03  0.57443245280E+03  0.12699999809E+01 0. -1.
</event>
<event>
 5   0  0.6524705E-03  0.9188740E+03  0.7818609E-02  0.9402291E-01
        2   -1    0    0  501    0  0.00000000000E+00  0.00000000000E+00  0.66540261456E+03  0.66540261457E+03  0.25500000920E-02 0.  1.
       -2   -1    0    0    0  501  0.00000000000E+00  0.00000000000E+00 -0.31722498794E+03  0.31722498795E+03  0.25500000920E-02 0. -1.
    10030    2    1    2    0    0  0.00000000000E+00  0.00000000000E+00  0.34817762662E+03  0.98262760252E+03  0.91887395520E+03 0.  0.
        3    1    3    3  502    0  0.80604588368E+02 -0.41165702299E+03  0.37450522530E+03  0.56232799879E+03  0.10100000352E+00 0.  1.
       -3    1    3    3    0  502 -0.80604588368E+02  0.41165702299E+03 -0.26327598682E+02  0.42029960373E+03  0.10100000352E+00 0. -1.
</event>
<event>
 5   0  0.3943549E-03  0.8964793E+03  0.7818609E-02  0.9429993E-01
       -1   -1    0    0    0  501  0.00000000000E+00  0.00000000000E+00  0.12021318289E+03  0.12021318300E+03  0.50400001928E-02 0.  1.
        1   -1    0    0  501    0  0.00000000000E+00  0.00000000000E+00 -0.16713538883E+04  0.16713538883E+04  0.50400001928E-02 0. -1.
    10030    2    1    2    0    0  0.00000000000E+00  0.00000000000E+00 -0.15511407054E+04  0.17915670713E+04  0.89647927081E+03 0.  0.
        3    1    3    3  502    0 -0.24138651975E+03 -0.37152432670E+03 -0.63972023488E+03  0.77816435690E+03  0.10100000352E+00 0.  1.
       -3    1    3    3    0  502  0.24138651975E+03  0.37152432670E+03 -0.91142047053E+03  0.10134027144E+04  0.10100000352E+00 0. -1.
</event>
<event>
 5   0  0.6524705E-03  0.8993756E+03  0.7818609E-02  0.9426362E-01
       -2   -1    0    0    0  501  0.00000000000E+00  0.00000000000E+00  0.31923848761E+03  0.31923848762E+03  0.25500000920E-02 0. -1.
        2   -1    0    0  501    0  0.00000000000E+00  0.00000000000E+00 -0.63344219799E+03  0.63344219800E+03  0.25500000920E-02 0.  1.
    10030    2    1    2    0    0  0.00000000000E+00  0.00000000000E+00 -0.31420371038E+03  0.95268068562E+03  0.89937562627E+03 0.  0.
        3    1    3    3  502    0 -0.23743265535E+03  0.37177419845E+03 -0.64582132515E+02  0.44582640400E+03  0.10100000352E+00 0. -1.
       -3    1    3    3    0  502  0.23743265535E+03 -0.37177419845E+03 -0.24962157787E+03  0.50685428162E+03  0.10100000352E+00 0.  1.
</event>
<event>
 5   0  0.3927993E-03  0.8965330E+03  0.7818609E-02  0.9429926E-01
       -1   -1    0    0    0  501  0.00000000000E+00  0.00000000000E+00  0.18542103310E+03  0.18542103317E+03  0.50400001928E-02 0. -1.
        1   -1    0    0  501    0  0.00000000000E+00  0.00000000000E+00 -0.10837112305E+04  0.10837112305E+04  0.50400001928E-02 0.  1.
    10030    2    1    2    0    0  0.00000000000E+00  0.00000000000E+00 -0.89829019737E+03  0.12691322636E+04  0.89653300214E+03 0.  0.
        2    1    3    3  502    0 -0.12201405946E+03 -0.41744575327E+03 -0.60288258948E+03  0.74338133171E+03  0.25500000920E-02 0. -1.
       -2    1    3    3    0  502  0.12201405946E+03  0.41744575327E+03 -0.29540760789E+03  0.52575093194E+03  0.25500000920E-02 0.  1.
</event>
<event>
 5   0  0.3969536E-03  0.8969572E+03  0.7818609E-02  0.9429393E-01
        1   -1    0    0  501    0  0.00000000000E+00  0.00000000000E+00  0.19923886328E+04  0.19923886328E+04  0.50400001928E-02 0. -1.
       -1   -1    0    0    0  501  0.00000000000E+00  0.00000000000E+00 -0.10095072438E+03  0.10095072451E+03  0.50400001928E-02 0.  1.
    10030    2    1    2    0    0  0.00000000000E+00  0.00000000000E+00  0.18914379084E+04  0.20933393573E+04  0.89695724731E+03 0.  0.
        1    1    3    3  502    0 -0.19932136325E+03 -0.37011567632E+03  0.13104115925E+04  0.13761879092E+04  0.50400001928E-02 0. -1.
       -1    1    3    3    0  502  0.19932136325E+03  0.37011567632E+03  0.58102631598E+03  0.71715144816E+03  0.50400001928E-02 0.  1.
</event>
<event>
 5   0  0.6534628E-03  0.9048846E+03  0.7818609E-02  0.9419496E-01
       -2   -1    0    0    0  501  0.00000000000E+00  0.00000000000E+00  0.16687865010E+03  0.16687865012E+03  0.25500000920E-02 0. -1.
        2   -1    0    0  501    0  0.00000000000E+00  0.00000000000E+00 -0.12266640842E+04  0.12266640842E+04  0.25500000920E-02 0.  1.
    10030    2    1    2    0    0  0.00000000000E+00  0.00000000000E+00 -0.10597854341E+04  0.13935427344E+04  0.90488462584E+03 0.  0.
        4    1    3    3  502    0  0.36267598305E+02 -0.42487287553E+03 -0.76278840189E+03  0.87388789785E+03  0.12699999809E+01 0. -1.
       -4    1    3    3    0  502 -0.36267598305E+02  0.42487287553E+03 -0.29699703226E+03  0.51965483652E+03  0.12699999809E+01 0.  1.
</event>
<event>
 5   0  0.6534628E-03  0.9035943E+03  0.7818609E-02  0.9421099E-01
        2   -1    0    0  501    0  0.00000000000E+00  0.00000000000E+00  0.60393364185E+03  0.60393364185E+03  0.25500000920E-02 0.  1.
       -2   -1    0    0    0  501  0.00000000000E+00  0.00000000000E+00 -0.33798528890E+03  0.33798528891E+03  0.25500000920E-02 0. -1.
    10030    2    1    2    0    0  0.00000000000E+00  0.00000000000E+00  0.26594835295E+03  0.94191893076E+03  0.90359434797E+03 0.  0.
        4    1    3    3  502    0  0.12496082268E+03  0.64228001853E+02  0.58057957070E+03  0.59733968079E+03  0.12699999809E+01 0.  1.
       -4    1    3    3    0  502 -0.12496082268E+03 -0.64228001853E+02 -0.31463121775E+03  0.34457924997E+03  0.12699999809E+01 0. -1.
</event>
<event>
 5   0  0.6534628E-03  0.9057103E+03  0.7818609E-02  0.9418471E-01
       -2   -1    0    0    0  501  0.00000000000E+00  0.00000000000E+00  0.22457073682E+03  0.22457073683E+03  0.25500000920E-02 0. -1.
        2   -1    0    0  501    0  0.00000000000E+00  0.00000000000E+00 -0.91319904124E+03  0.91319904125E+03  0.25500000920E-02 0.  1.
    10030    2    1    2    0    0  0.00000000000E+00  0.00000000000E+00 -0.68862830442E+03  0.11377697781E+04  0.90571028826E+03 0.  0.
        4    1    3    3  502    0 -0.12509991300E+03 -0.41558059343E+03 -0.50674540819E+03  0.66719542826E+03  0.12699999809E+01 0. -1.
       -4    1    3    3    0  502  0.12509991300E+03  0.41558059343E+03 -0.18188289624E+03  0.47057434982E+03  0.12699999809E+01 0.  1.
</event>
<event>
 5   0  0.2560250E-03  0.9043815E+03  0.7818609E-02  0.9420121E-01
       -3   -1    0    0    0  501  0.00000000000E+00  0.00000000000E+00  0.56889226762E+03  0.56889227659E+03  0.10100000352E+00 0. -1.
        3   -1    0    0  501    0  0.00000000000E+00  0.00000000000E+00 -0.35942911605E+03  0.35942913024E+03  0.10100000352E+00 0.  1.
    10030    2    1    2    0    0  0.00000000000E+00  0.00000000000E+00  0.20946315158E+03  0.92832140683E+03  0.90438145851E+03 0.  0.
        3    1    3    3  502    0 -0.28015829689E+03  0.34863792192E+02  0.46731319868E+03  0.54597233554E+03  0.10100000352E+00 0. -1.
       -3    1    3    3    0  502  0.28015829689E+03 -0.34863792192E+02 -0.25785004710E+03  0.38234907128E+03  0.10100000352E+00 0.  1.
</event>
<event>
 5   0  0.3969536E-03  0.9070355E+03  0.7818609E-02  0.9416829E-01
       -1   -1    0    0    0  501  0.00000000000E+00  0.00000000000E+00  0.72955243828E+02  0.72955244002E+02  0.50400001928E-02 0. -1.
        1   -1    0    0  501    0  0.00000000000E+00  0.00000000000E+00 -0.28192401700E+04  0.28192401700E+04  0.50400001928E-02 0.  1.
    10030    2    1    2    0    0  0.00000000000E+00  0.00000000000E+00 -0.27462849262E+04  0.28921954140E+04  0.90703551038E+03 0.  0.
        1    1    3    3  502    0  0.63359360395E+02  0.25072598534E+03 -0.18519087453E+03  0.31807795948E+03  0.50400001928E-02 0. -1.
       -1    1    3    3    0  502 -0.63359360395E+02 -0.25072598534E+03 -0.25610940517E+04  0.25741174545E+04  0.50400001928E-02 0.  1.
</event>
<event>
 5   0  0.2560250E-03  0.9000843E+03  0.7818609E-02  0.9425476E-01
        3   -1    0    0  501    0  0.00000000000E+00  0.00000000000E+00  0.79669432336E+03  0.79669432976E+03  0.10100000352E+00 0.  1.
       -3   -1    0    0    0  501  0.00000000000E+00  0.00000000000E+00 -0.25422285197E+03  0.25422287203E+03  0.10100000352E+00 0. -1.
    10030    2    1    2    0    0  0.00000000000E+00  0.00000000000E+00  0.54247147139E+03  0.10509172018E+04  0.90008425592E+03 0.  0.
        3    1    3    3  502    0 -0.22171542148E+03 -0.38027473236E+03  0.38058540661E+03  0.58190365363E+03  0.10100000352E+00 0.  1.
       -3    1    3    3    0  502  0.22171542148E+03  0.38027473236E+03  0.16188606478E+03  0.46901354816E+03  0.10100000352E+00 0. -1.
</event>
<event>
 5   0  0.6524705E-03  0.9516703E+03  0.7818609E-02  0.9363200E-01
       -2   -1    0    0    0  501  0.00000000000E+00  0.00000000000E+00  0.12219945067E+03  0.12219945070E+03  0.25500000920E-02 0. -1.
        2   -1    0    0  501    0  0.00000000000E+00  0.00000000000E+00 -0.18528648637E+04  0.18528648637E+04  0.25500000920E-02 0.  1.
    10030    2    1    2    0    0  0.00000000000E+00  0.00000000000E+00 -0.17306654131E+04  0.19750643144E+04  0.95167025495E+03 0.  0.
        3    1    3    3  502    0  0.78837148439E+02 -0.40630661610E+03 -0.13525741424E+04  0.14144812417E+04  0.10100000352E+00 0.  1.
       -3    1    3    3    0  502 -0.78837148439E+02  0.40630661610E+03 -0.37809127065E+03  0.56058307271E+03  0.10100000352E+00 0. -1.
</event>
<event>
 5   0  0.6524705E-03  0.8961983E+03  0.7818609E-02  0.9430346E-01
        2   -1    0    0  501    0  0.00000000000E+00  0.00000000000E+00  0.92863902383E+03  0.92863902384E+03  0.25500000920E-02 0.  1.
       -2   -1    0    0    0  501  0.00000000000E+00  0.00000000000E+00 -0.21622269419E+03  0.21622269420E+03  0.25500000920E-02 0. -1.
    10030    2    1    2    0    0  0.00000000000E+00  0.00000000000E+00  0.71241632965E+03  0.11448617180E+04  0.89619826304E+03 0.  0.
        3    1    3    3  502    0  0.41804582379E+03  0.13561445068E+03  0.24455429755E+03  0.50295169218E+03  0.10100000352E+00 0. -1.
       -3    1    3    3    0  502 -0.41804582379E+03 -0.13561445068E+03  0.46786203210E+03  0.64191002586E+03  0.10100000352E+00 0.  1.
</event>
<event>
 5   0  0.2560250E-03  0.9024287E+03  0.7818609E-02  0.9422550E-01
       -4   -1    0    0    0  501  0.00000000000E+00  0.00000000000E+00  0.19681487830E+03  0.19681897576E+03  0.12699999809E+01 0. -1.
        4   -1    0    0  501    0  0.00000000000E+00  0.00000000000E+00 -0.10344309284E+04  0.10344317080E+04  0.12699999809E+01 0.  1.
    10030    2    1    2    0    0  0.00000000000E+00  0.00000000000E+00 -0.83761605010E+03  0.12312506838E+04  0.90242872234E+03 0.  0.
        5    1    3    3  502    0  0.86453981292E+02  0.44113560002E+03 -0.36601182458E+03  0.57970824923E+03  0.46999998093E+01 0.  1.
       -5    1    3    3    0  502 -0.86453981292E+02 -0.44113560002E+03 -0.47160422552E+03  0.65154243455E+03  0.46999998093E+01 0. -1.
</event>
<event>
 5   0  0.3969536E-03  0.9016832E+03  0.7818609E-02  0.9423480E-01
       -1   -1    0    0    0  501  0.00000000000E+00  0.00000000000E+00  0.23840160334E+03  0.23840160339E+03  0.50400001928E-02 0.  1.
        1   -1    0    0  501    0  0.00000000000E+00  0.00000000000E+00 -0.85258714995E+03  0.85258714997E+03  0.50400001928E-02 0. -1.
    10030    2    1    2    0    0  0.00000000000E+00  0.00000000000E+00 -0.61418554662E+03  0.10909887534E+04  0.90168318953E+03 0.  0.
        1    1    3    3  502    0  0.20569463375E+03 -0.41345067512E+02  0.17573280210E+03  0.27368177638E+03  0.50400001928E-02 0.  1.
       -1    1    3    3    0  502 -0.20569463375E+03  0.41345067512E+02 -0.78991834872E+03  0.81730697698E+03  0.50400001928E-02 0. -1.
</event>
<event>
 5   0  0.3927993E-03  0.9016113E+03  0.7818609E-02  0.9423569E-01
       -1   -1    0    0    0  501  0.00000000000E+00  0.00000000000E+00  0.47838057974E+03  0.47838057976E+03  0.50400001928E-02 0. -1.
        1   -1    0    0  501    0  0.00000000000E+00  0.00000000000E+00 -0.42482020756E+03  0.42482020759E+03  0.50400001928E-02 0.  1.
    10030    2    1    2    0    0  0.00000000000E+00  0.00000000000E+00  0.53560372176E+02  0.90320078735E+03  0.90161130694E+03 0.  0.
        2    1    3    3  502    0 -0.11583745131E+03  0.28467195029E+03 -0.30360314709E+03  0.43200845517E+03  0.25500000920E-02 0.  1.
       -2    1    3    3    0  502  0.11583745131E+03 -0.28467195029E+03  0.35716351927E+03  0.47119233218E+03  0.25500000920E-02 0. -1.
</event>
<event>
 5   0  0.6524705E-03  0.8969805E+03  0.7818609E-02  0.9429364E-01
        2   -1    0    0  501    0  0.00000000000E+00  0.00000000000E+00  0.10276590183E+04  0.10276590183E+04  0.25500000920E-02 0.  1.
       -2   -1    0    0    0  501  0.00000000000E+00  0.00000000000E+00 -0.19572981735E+03  0.19572981737E+03  0.25500000920E-02 0. -1.
    10030    2    1    2    0    0  0.00000000000E+00  0.00000000000E+00  0.83192920099E+03  0.12233888357E+04  0.89698051700E+03 0.  0.
        3    1    3    3  502    0  0.25664465110E+02 -0.14880473969E+03 -0.16001659219E+03  0.22001553422E+03  0.10100000352E+00 0. -1.
       -3    1    3    3    0  502 -0.25664465110E+02  0.14880473969E+03  0.99194579318E+03  0.10033733015E+04  0.10100000352E+00 0.  1.
</event>
<event>
 5   0  0.3927993E-03  0.9398956E+03  0.7818609E-02  0.9377040E-01
       -1   -1    0    0    0  501  0.00000000000E+00  0.00000000000E+00  0.46364722379E+03  0.46364722382E+03  0.50400001928E-02 0.  1.
        1   -1    0    0  501    0  0.00000000000E+00  0.00000000000E+00 -0.47633403618E+03  0.47633403621E+03  0.50400001928E-02 0. -1.
    10030    2    1    2    0    0  0.00000000000E+00  0.00000000000E+00 -0.12686812394E+02  0.93998126003E+03  0.93989563995E+03 0.  0.
        2    1    3    3  502    0 -0.35784030673E+03 -0.22559577233E+03 -0.21107604023E+03  0.47275388140E+03  0.25500000920E-02 0. -1.
       -2    1    3    3    0  502  0.35784030673E+03  0.22559577233E+03  0.19838922783E+03  0.46722737863E+03  0.25500000920E-02 0.  1.
</event>
<event>
 5   0  0.6534628E-03  0.8898654E+03  0.7818609E-02  0.9438340E-01
       -2   -1    0    0    0  501  0.00000000000E+00  0.00000000000E+00  0.98701799680E+03  0.98701799681E+03  0.25500000920E-02 0.  1.
        2   -1    0    0  501    0  0.00000000000E+00  0.00000000000E+00 -0.20056890810E+03  0.20056890812E+03  0.25500000920E-02 0. -1.
    10030    2    1    2    0    0  0.00000000000E+00  0.00000000000E+00  0.78644908870E+03  0.11875869049E+04  0.88986543232E+03 0.  0.
        4    1    3    3  502    0  0.22860322995E+03  0.14159016603E+03  0.86630302408E+03  0.90707759001E+03  0.12699999809E+01 0.  1.
       -4    1    3    3    0  502 -0.22860322995E+03 -0.14159016603E+03 -0.79853935384E+02  0.28050931492E+03  0.12699999809E+01 0. -1.
</event>
<event>
 5   0  0.3943549E-03  0.8998534E+03  0.7818609E-02  0.9425765E-01
        1   -1    0    0  501    0  0.00000000000E+00  0.00000000000E+00  0.40889126972E+03  0.40889126975E+03  0.50400001928E-02 0.  1.
       -1   -1    0    0    0  501  0.00000000000E+00  0.00000000000E+00 -0.49508032586E+03  0.49508032589E+03  0.50400001928E-02 0. -1.
    10030    2    1    2    0    0  0.00000000000E+00  0.00000000000E+00 -0.86189056144E+02  0.90397159564E+03  0.89985337268E+03 0.  0.
        3    1    3    3  502    0 -0.36526510146E+03  0.26253501496E+03 -0.33522834608E+02  0.45107318593E+03  0.10100000352E+00 0. -1.
       -3    1    3    3    0  502  0.36526510146E+03 -0.26253501496E+03 -0.52666221537E+02  0.45289840971E+03  0.10100000352E+00 0.  1.
</event>
<event>
 5   0  0.3969536E-03  0.9003581E+03  0.7818609E-02  0.9425134E-01
       -1   -1    0    0    0  501  0.00000000000E+00  0.00000000000E+00  0.23073414629E+03  0.23073414634E+03  0.50400001928E-02 0. -1.
        1   -1    0    0  501    0  0.00000000000E+00  0.00000000000E+00 -0.87833204546E+03  0.87833204547E+03  0.50400001928E-02 0.  1.
    10030    2    1    2    0    0  0.00000000000E+00  0.00000000000E+00 -0.64759789917E+03  0.11090661918E+04  0.90035813920E+03 0.  0.
        1    1    3    3  502    0 -0.18226284371E+03 -0.40929951922E+03 -0.37770862334E+03  0.58601164221E+03  0.50400001928E-02 0.  1.
       -1    1    3    3    0  502  0.18226284371E+03  0.40929951922E+03 -0.26988927583E+03  0.52305454961E+03  0.50400001928E-02 0. -1.
</event>
<event>
 5   0  0.6534628E-03  0.8952653E+03  0.7818609E-02  0.9431519E-01
       -2   -1    0    0    0  501  0.00000000000E+00  0.00000000000E+00  0.55860762354E+03  0.55860762355E+03  0.25500000920E-02 0.  1.
        2   -1    0    0  501    0  0.00000000000E+00  0.00000000000E+00 -0.35870435544E+03  0.35870435545E+03  0.25500000920E-02 0. -1.
    10030    2    1    2    0    0  0.00000000000E+00  0.00000000000E+00  0.19990326810E+03  0.91731197900E+03  0.89526529600E+03 0.  0.
        4    1    3    3  502    0 -0.40319685955E+03 -0.17636238847E+03  0.18383323638E+03  0.47693570984E+03  0.12699999809E+01 0.  1.
       -4    1    3    3    0  502  0.40319685955E+03  0.17636238847E+03  0.16070031723E+02  0.44037626916E+03  0.12699999809E+01 0. -1.
</event>
<event>
 5   0  0.6724773E-03  0.8922371E+03  0.7818609E-02  0.9435338E-01
       -2   -1    0    0    0  501  0.00000000000E+00  0.00000000000E+00  0.32599781503E+03  0.32599781504E+03  0.25500000920E-02 0.  1.
        2   -1    0    0  501    0  0.00000000000E+00  0.00000000000E+00 -0.61050028225E+03  0.61050028226E+03  0.25500000920E-02 0. -1.
    10030    2    1    2    0    0  0.00000000000E+00  0.00000000000E+00 -0.28450246722E+03  0.93649809730E+03  0.89223709427E+03 0.  0.
        5    1    3    3  502    0  0.13562151383E+02  0.44435149084E+02  0.32342565620E+03  0.32677922136E+03  0.46999998093E+01 0.  1.
       -5    1    3    3    0  502 -0.13562151383E+02 -0.44435149084E+02 -0.60792812343E+03  0.60971887594E+03  0.46999998093E+01 0. -1.
</event>
<event>
 5   0  0.3927993E-03  0.8988454E+03  0.7818609E-02  0.9427026E-01
        1   -1    0    0  501    0  0.00000000000E+00  0.00000000000E+00  0.77713797268E+03  0.77713797269E+03  0.50400001928E-02 0.  1.
       -1   -1    0    0    0  501  0.00000000000E+00  0.00000000000E+00 -0.25990336214E+03  0.25990336219E+03  0.50400001928E-02 0. -1.
    10030    2    1    2    0    0  0.00000000000E+00  0.00000000000E+00  0.51723461054E+03  0.10370413349E+04  0.89884541937E+03 0.  0.
        2    1    3    3  502    0 -0.53289122819E+01 -0.27046659850E+03 -0.15544845135E+03  0.31200128084E+03  0.25500000920E-02 0. -1.
       -2    1    3    3    0  502  0.53289122819E+01  0.27046659850E+03  0.67268306188E+03  0.72504005404E+03  0.25500000920E-02 0.  1.
</event>
<event>
 5   0  0.3927993E-03  0.8990528E+03  0.7818609E-02  0.9426766E-01
       -1   -1    0    0    0  501  0.00000000000E+00  0.00000000000E+00  0.19260127710E+03  0.19260127716E+03  0.50400001928E-02 0.  1.
        1   -1    0    0  501    0  0.00000000000E+00  0.00000000000E+00 -0.10491828940E+04  0.10491828940E+04  0.50400001928E-02 0. -1.
    10030    2    1    2    0    0  0.00000000000E+00  0.00000000000E+00 -0.85658161688E+03  0.12417841712E+04  0.89905275782E+03 0.  0.
        2    1    3    3  502    0  0.30181756537E+03  0.35913800835E+02 -0.88574235135E+03  0.93644175304E+03  0.25500000920E-02 0. -1.
       -2    1    3    3    0  502 -0.30181756537E+03 -0.35913800835E+02  0.29160734470E+02  0.30534241811E+03  0.25500000920E-02 0.  1.
</event>
<event>
 5   0  0.3969536E-03  0.8878031E+03  0.7818609E-02  0.9440958E-01
       -1   -1    0    0    0  501  0.00000000000E+00  0.00000000000E+00  0.18585426588E+04  0.18585426588E+04  0.50400001928E-02 0. -1.
        1   -1    0    0  501    0  0.00000000000E+00  0.00000000000E+00 -0.10602317555E+03  0.10602317567E+03  0.50400001928E-02 0.  1.
    10030    2    1    2    0    0  0.00000000000E+00  0.00000000000E+00  0.17525194833E+04  0.19645658345E+04  0.88780311942E+03 0.  0.
        1    1    3    3  502    0  0.35543742656E+03 -0.13583655956E+02  0.14639272421E+04  0.15065202455E+04  0.50400001928E-02 0. -1.
       -1    1    3    3    0  502 -0.35543742656E+03  0.13583655956E+02  0.28859224115E+03  0.45804558898E+03  0.50400001928E-02 0.  1.
</event>
<event>
 5   0  0.3794006E-03  0.8970657E+03  0.7818609E-02  0.9429257E-01
       -1   -1    0    0    0  501  0.00000000000E+00  0.00000000000E+00  0.25431172769E+03  0.25431172774E+03  0.50400001928E-02 0. -1.
        1   -1    0    0  501    0  0.00000000000E+00  0.00000000000E+00 -0.79108309761E+03  0.79108309763E+03  0.50400001928E-02 0.  1.
    10030    2    1    2    0    0  0.00000000000E+00  0.00000000000E+00 -0.53677136992E+03  0.10453948254E+04  0.89706568174E+03 0.  0.
        5    1    3    3  502    0 -0.41357717279E+03  0.72537815374E+02 -0.84674715880E+02  0.42836866134E+03  0.46999998093E+01 0. -1.
       -5    1    3    3    0  502  0.41357717279E+03 -0.72537815374E+02 -0.45209665404E+03  0.61702616403E+03  0.46999998093E+01 0.  1.
</event>
<event>
 5   0  0.3943549E-03  0.8899773E+03  0.7818609E-02  0.9438198E-01
       -1   -1    0    0    0  501  0.00000000000E+00  0.00000000000E+00  0.57165318312E+03  0.57165318314E+03  0.50400001928E-02 0.  1.
        1   -1    0    0  501    0  0.00000000000E+00  0.00000000000E+00 -0.34638993213E+03  0.34638993216E+03  0.50400001928E-02 0. -1.
    10030    2    1    2    0    0  0.00000000000E+00  0.00000000000E+00  0.22526325099E+03  0.91804311531E+03  0.88997731955E+03 0.  0.
        3    1    3    3  502    0 -0.41176756368E+03  0.29520947123E+02  0.28397485529E+03  0.50106460807E+03  0.10100000352E+00 0.  1.
       -3    1    3    3    0  502  0.41176756368E+03 -0.29520947123E+02 -0.58711604293E+02  0.41697850724E+03  0.10100000352E+00 0. -1.
</event>
<event>
 5   0  0.6863405E-03  0.8970509E+03  0.7818609E-02  0.9429275E-01
        2   -1    0    0  501    0  0.00000000000E+00  0.00000000000E+00  0.16876095617E+04  0.16876095617E+04  0.25500000920E-02 0.  1.
       -2   -1    0    0    0  501  0.00000000000E+00  0.00000000000E+00 -0.11920712295E+03  0.11920712297E+03  0.25500000920E-02 0. -1.
    10030    2    1    2    0    0  0.00000000000E+00  0.00000000000E+00  0.15684024388E+04  0.18068166847E+04  0.89705090276E+03 0.  0.
        1    1    3    3  502    0 -0.31534851795E+03  0.20783739666E+03  0.12715065260E+04  0.13264124234E+04  0.50400001928E-02 0.  1.
       -1    1    3    3    0  502  0.31534851795E+03 -0.20783739666E+03  0.29689591273E+03  0.48040426127E+03  0.50400001928E-02 0. -1.
</event>
<event>
 5   0  0.3794006E-03  0.8979229E+03  0.7818609E-02  0.9428182E-01
        1   -1    0    0  501    0  0.00000000000E+00  0.00000000000E+00  0.68527018932E+03  0.68527018934E+03  0.50400001928E-02 0.  1.
       -1   -1    0    0    0  501  0.00000000000E+00  0.00000000000E+00 -0.29414149139E+03  0.29414149143E+03  0.50400001928E-02 0. -1.
    10030    2    1    2    0    0  0.00000000000E+00  0.00000000000E+00  0.39112869793E+03  0.97941168077E+03  0.89792292658E+03 0.  0.
        5    1    3    3  502    0  0.14341039130E+03 -0.19420515579E+03  0.60841398833E+03  0.65457761500E+03  0.46999998093E+01 0.  1.
       -5    1    3    3    0  502 -0.14341039130E+03  0.19420515579E+03 -0.21728529040E+03  0.32483406577E+03  0.46999998093E+01 0. -1.
</event>
<event>
 5   0  0.3969536E-03  0.9022530E+03  0.7818609E-02  0.9422769E-01
       -1   -1    0    0    0  501  0.00000000000E+00  0.00000000000E+00  0.65324161237E+03  0.65324161239E+03  0.50400001928E-02 0. -1.
        1   -1    0    0  501    0  0.00000000000E+00  0.00000000000E+00 -0.31154644826E+03  0.31154644830E+03  0.50400001928E-02 0.  1.
    10030    2    1    2    0    0  0.00000000000E+00  0.00000000000E+00  0.34169516411E+03  0.96478806069E+03  0.90225296722E+03 0.  0.
        1    1    3    3  502    0 -0.18201682818E+03  0.25196045200E+03 -0.17877083378E+03  0.35857106150E+03  0.50400001928E-02 0.  1.
       -1    1    3    3    0  502  0.18201682818E+03 -0.25196045200E+03  0.52046599789E+03  0.60621699918E+03  0.50400001928E-02 0. -1.
</event>
<event>
 5   0  0.3969536E-03  0.9017213E+03  0.7818609E-02  0.9423432E-01
       -1   -1    0    0    0  501  0.00000000000E+00  0.00000000000E+00  0.12234939923E+03  0.12234939933E+03  0.50400001928E-02 0. -1.
        1   -1    0    0  501    0  0.00000000000E+00  0.00000000000E+00 -0.16614331167E+04  0.16614331167E+04  0.50400001928E-02 0.  1.
    10030    2    1    2    0    0  0.00000000000E+00  0.00000000000E+00 -0.15390837175E+04  0.17837825160E+04  0.90172134007E+03 0.  0.
        1    1    3    3  502    0 -0.35998463303E+03  0.16366352624E+03 -0.34113242801E+03  0.52225091605E+03  0.50400001928E-02 0. -1.
       -1    1    3    3    0  502  0.35998463303E+03 -0.16366352624E+03 -0.11979512894E+04  0.12615316000E+04  0.50400001928E-02 0.  1.
</event>
<event>
 5   0  0.3998066E-03  0.9035957E+03  0.7818609E-02  0.9421098E-01
        1   -1    0    0  501    0  0.00000000000E+00  0.00000000000E+00  0.81941163118E+03  0.81941163119E+03  0.50400001928E-02 0. -1.
       -1   -1    0    0    0  501  0.00000000000E+00  0.00000000000E+00 -0.24910713024E+03  0.24910713029E+03  0.50400001928E-02 0.  1.
    10030    2    1    2    0    0  0.00000000000E+00  0.00000000000E+00  0.57030450094E+03  0.10685187615E+04  0.90359566171E+03 0.  0.
        4    1    3    3  502    0  0.22014127314E+02  0.19980598939E+03 -0.19331154781E+03  0.27888711446E+03  0.12699999809E+01 0.  1.
       -4    1    3    3    0  502 -0.22014127314E+02 -0.19980598939E+03  0.76361604874E+03  0.78963164703E+03  0.12699999809E+01 0. -1.
</event>
<event>
 5   0  0.3943549E-03  0.9055940E+03  0.7818609E-02  0.9418616E-01
        1   -1    0    0  501    0  0.00000000000E+00  0.00000000000E+00  0.83550263095E+03  0.83550263097E+03  0.50400001928E-02 0.  1.
       -1   -1    0    0    0  501  0.00000000000E+00  0.00000000000E+00 -0.24539135000E+03  0.24539135005E+03  0.50400001928E-02 0. -1.
    10030    2    1    2    0    0  0.00000000000E+00  0.00000000000E+00  0.59011128095E+03  0.10808939810E+04  0.90559398977E+03 0.  0.
        3    1    3    3  502    0  0.58199022646E+02 -0.32444690178E+03  0.66558739353E+03  0.74273784537E+03  0.10100000352E+00 0.  1.
       -3    1    3    3    0  502 -0.58199022646E+02  0.32444690178E+03 -0.75476112579E+02  0.33815613566E+03  0.10100000352E+00 0. -1.
</event>
<event>
 5   0  0.6863405E-03  0.8947644E+03  0.7818609E-02  0.9432150E-01
        2   -1    0    0  501    0  0.00000000000E+00  0.00000000000E+00  0.70612993517E+03  0.70612993517E+03  0.25500000920E-02 0. -1.
       -2   -1    0    0    0  501  0.00000000000E+00  0.00000000000E+00 -0.28344756551E+03  0.28344756552E+03  0.25500000920E-02 0.  1.
    10030    2    1    2    0    0  0.00000000000E+00  0.00000000000E+00  0.42268236966E+03  0.98957750070E+03  0.89476435125E+03 0.  0.
        1    1    3    3  502    0  0.33314011959E+03  0.27243340847E+03  0.34656092235E+03  0.55254572142E+03  0.50400001928E-02 0. -1.
       -1    1    3    3    0  502 -0.33314011959E+03 -0.27243340847E+03  0.76121447310E+02  0.43703177928E+03  0.50400001928E-02 0.  1.
</event>
<event>
 5   0  0.6524705E-03  0.9027438E+03  0.7818609E-02  0.9422158E-01
       -2   -1    0    0    0  501  0.00000000000E+00  0.00000000000E+00  0.42088967753E+03  0.42088967754E+03  0.25500000920E-02 0. -1.
        2   -1    0    0  501    0  0.00000000000E+00  0.00000000000E+00 -0.48406175723E+03  0.48406175724E+03  0.25500000920E-02 0.  1.
    10030    2    1    2    0    0  0.00000000000E+00  0.00000000000E+00 -0.63172079699E+02  0.90495143478E+03  0.90274381065E+03 0.  0.
        3    1    3    3  502    0  0.43473719224E+03 -0.91864647947E+02  0.47987212285E+02  0.44692093552E+03  0.10100000352E+00 0. -1.
       -3    1    3    3    0  502 -0.43473719224E+03  0.91864647947E+02 -0.11115929198E+03  0.45803049926E+03  0.10100000352E+00 0.  1.
</event>
<event>
 5   0  0.3943549E-03  0.9016665E+03  0.7818609E-02  0.9423501E-01
        1   -1    0    0  501    0  0.00000000000E+00  0.00000000000E+00  0.27500676343E+03  0.27500676347E+03  0.50400001928E-02 0. -1.
       -1   -1    0    0    0  501  0.00000000000E+00  0.00000000000E+00 -0.73907492190E+03  0.73907492192E+03  0.50400001928E-02 0.  1.
    10030    2    1    2    0    0  0.00000000000E+00  0.00000000000E+00 -0.46406815848E+03  0.10140816854E+04  0.90166646214E+03 0.  0.
        3    1    3    3  502    0 -0.29149941838E+03 -0.16108025639E+03 -0.57377953604E+03  0.66343177953E+03  0.10100000352E+00 0.  1.
       -3    1    3    3    0  502  0.29149941838E+03  0.16108025639E+03  0.10971137756E+03  0.35064990586E+03  0.10100000352E+00 0. -1.
</event>
<event>
 5   0  0.2560250E-03  0.8998972E+03  0.7818609E-02  0.9425710E-01
       -4   -1    0    0    0  501  0.00000000000E+00  0.00000000000E+00  0.48898441749E+03  0.48898606673E+03  0.12699999809E+01 0. -1.
        4   -1    0    0  501    0  0.00000000000E+00  0.00000000000E+00 -0.41402571292E+03  0.41402766074E+03  0.12699999809E+01 0.  1.
    10030    2    1    2    0    0  0.00000000000E+00  0.00000000000E+00  0.74958704577E+02  0.90301372746E+03  0.89989720779E+03 0.  0.
        4    1    3    3  502    0  0.36218371202E+03  0.26101941456E+03  0.93744538719E+02  0.45617740789E+03  0.12699999809E+01 0.  1.
       -4    1    3    3    0  502 -0.36218371202E+03 -0.26101941456E+03 -0.18785834141E+02  0.44683631958E+03  0.12699999809E+01 0. -1.
</event>
<event>
 5   0  0.3998066E-03  0.8746315E+03  0.7818609E-02  0.9457861E-01
        1   -1    0    0  501    0  0.00000000000E+00  0.00000000000E+00  0.36099189173E+03  0.36099189177E+03  0.50400001928E-02 0. -1.
       -1   -1    0    0    0  501  0.00000000000E+00  0.00000000000E+00 -0.52977664167E+03  0.52977664170E+03  0.50400001928E-02 0.  1.
    10030    2    1    2    0    0  0.00000000000E+00  0.00000000000E+00 -0.16878474994E+03  0.89076853347E+03  0.87463151578E+03 0.  0.
        4    1    3    3  502    0  0.36723800037E+03  0.23654892073E+03 -0.10537141776E+03  0.44935942117E+03  0.12699999809E+01 0. -1.
       -4    1    3    3    0  502 -0.36723800037E+03 -0.23654892073E+03 -0.63413332178E+02  0.44140911229E+03  0.12699999809E+01 0.  1.
</event>
<event>
 5   0  0.3927993E-03  0.9255587E+03  0.7818609E-02  0.9394184E-01
        1   -1    0    0  501    0  0.00000000000E+00  0.00000000000E+00  0.52341673210E+03  0.52341673213E+03  0.50400001928E-02 0. -1.
       -1   -1    0    0    0  501  0.00000000000E+00  0.00000000000E+00 -0.40916671493E+03  0.40916671496E+03  0.50400001928E-02 0.  1.
    10030    2    1    2    0    0  0.00000000000E+00  0.00000000000E+00  0.11425001717E+03  0.93258344709E+03  0.92555865258E+03 0.  0.
        2    1    3    3  502    0  0.29815218648E+03  0.19647173744E+03 -0.23950510408E+03  0.42995181684E+03  0.25500000920E-02 0.  1.
       -2    1    3    3    0  502 -0.29815218648E+03 -0.19647173744E+03  0.35375512125E+03  0.50263163025E+03  0.25500000920E-02 0. -1.
</event>
<event>
 5   0  0.3969536E-03  0.8977499E+03  0.7818609E-02  0.9428399E-01
       -1   -1    0    0    0  501  0.00000000000E+00  0.00000000000E+00  0.15783747225E+03  0.15783747233E+03  0.50400001928E-02 0. -1.
        1   -1    0    0  501    0  0.00000000000E+00  0.00000000000E+00 -0.12765582189E+04  0.12765582189E+04  0.50400001928E-02 0.  1.
    10030    2    1    2    0    0  0.00000000000E+00  0.00000000000E+00 -0.11187207466E+04  0.14343956912E+04  0.89774990394E+03 0.  0.
        1    1    3    3  502    0  0.18200250837E+02 -0.44611545582E+03 -0.63324694797E+03  0.77482381623E+03  0.50400001928E-02 0.  1.
       -1    1    3    3    0  502 -0.18200250837E+02  0.44611545582E+03 -0.48547379863E+03  0.65957187496E+03  0.50400001928E-02 0. -1.
</event>
<event>
 5   0  0.3794006E-03  0.9079545E+03  0.7818609E-02  0.9415692E-01
       -1   -1    0    0    0  501  0.00000000000E+00  0.00000000000E+00  0.28659400588E+03  0.28659400593E+03  0.50400001928E-02 0. -1.
        1   -1    0    0  501    0  0.00000000000E+00  0.00000000000E+00 -0.71911956144E+03  0.71911956146E+03  0.50400001928E-02 0.  1.
    10030    2    1    2    0    0  0.00000000000E+00  0.00000000000E+00 -0.43252555556E+03  0.10057135674E+04  0.90795452718E+03 0.  0.
        5    1    3    3  502    0 -0.23051430360E+03  0.21092724127E+03 -0.58103118841E+03  0.65973212532E+03  0.46999998093E+01 0.  1.
       -5    1    3    3    0  502  0.23051430360E+03 -0.21092724127E+03  0.14850563285E+03  0.34598144207E+03  0.46999998093E+01 0. -1.
</event>
<event>
 5   0  0.6724773E-03  0.9083580E+03  0.7818609E-02  0.9415193E-01
        2   -1    0    0  501    0  0.00000000000E+00  0.00000000000E+00  0.49645977372E+03  0.49645977372E+03  0.25500000920E-02 0.  1.
       -2   -1    0    0    0  501  0.00000000000E+00  0.00000000000E+00 -0.41549901791E+03  0.41549901792E+03  0.25500000920E-02 0. -1.
    10030    2    1    2    0    0  0.00000000000E+00  0.00000000000E+00  0.80960755807E+02  0.91195879164E+03  0.90835796560E+03 0.  0.
        5    1    3    3  502    0  0.17074685235E+03  0.21866342400E+03 -0.32051177439E+03  0.42393167858E+03  0.46999998093E+01 0. -1.
       -5    1    3    3    0  502 -0.17074685235E+03 -0.21866342400E+03  0.40147253020E+03  0.48802711306E+03  0.46999998093E+01 0.  1.
</event>
<event>
 5   0  0.6534628E-03  0.9496154E+03  0.7818609E-02  0.9365600E-01
        2   -1    0    0  501    0  0.00000000000E+00  0.00000000000E+00  0.10118728421E+04  0.10118728422E+04  0.25500000920E-02 0.  1.
       -2   -1    0    0    0  501  0.00000000000E+00  0.00000000000E+00 -0.22279711782E+03  0.22279711783E+03  0.25500000920E-02 0. -1.
    10030    2    1    2    0    0  0.00000000000E+00  0.00000000000E+00  0.78907572433E+03  0.12346699600E+04  0.94961540181E+03 0.  0.
        4    1    3    3  502    0  0.12122318686E+03 -0.32514459285E+03 -0.26821778804E+02  0.34804466381E+03  0.12699999809E+01 0. -1.
       -4    1    3    3    0  502 -0.12122318686E+03  0.32514459285E+03  0.81589750314E+03  0.88662529617E+03  0.12699999809E+01 0.  1.
</event>
<event>
 5   0  0.3794006E-03  0.9005648E+03  0.7818609E-02  0.9424876E-01
       -1   -1    0    0    0  501  0.00000000000E+00  0.00000000000E+00  0.19064336601E+03  0.19064336607E+03  0.50400001928E-02 0. -1.
        1   -1    0    0  501    0  0.00000000000E+00  0.00000000000E+00 -0.10635262159E+04  0.10635262159E+04  0.50400001928E-02 0.  1.
    10030    2    1    2    0    0  0.00000000000E+00  0.00000000000E+00 -0.87288284988E+03  0.12541695820E+04  0.90056475099E+03 0.  0.
        5    1    3    3  502    0  0.23172780996E+03  0.38001295576E+03 -0.34173621686E+03  0.56117141442E+03  0.46999998093E+01 0. -1.
       -5    1    3    3    0  502 -0.23172780996E+03 -0.38001295576E+03 -0.53114663302E+03  0.69299816754E+03  0.46999998093E+01 0.  1.
</event>
<event>
 5   0  0.2560250E-03  0.9559163E+03  0.7818609E-02  0.9358262E-01
       -3   -1    0    0    0  501  0.00000000000E+00  0.00000000000E+00  0.74475064818E+03  0.74475065503E+03  0.10100000352E+00 0.  1.
        3   -1    0    0  501    0  0.00000000000E+00  0.00000000000E+00 -0.30673886193E+03  0.30673887856E+03  0.10100000352E+00 0. -1.
    10030    2    1    2    0    0  0.00000000000E+00  0.00000000000E+00  0.43801178626E+03  0.10514895336E+04  0.95591626952E+03 0.  0.
        4    1    3    3  502    0 -0.40103200317E+03 -0.18819928979E+03  0.21631434004E+02  0.44352584151E+03  0.12699999809E+01 0. -1.
       -4    1    3    3    0  502  0.40103200317E+03  0.18819928979E+03  0.41638035225E+03  0.60796369208E+03  0.12699999809E+01 0.  1.
</event>
<event>
 5   0  0.6524705E-03  0.9637836E+03  0.7818609E-02  0.9349183E-01
       -2   -1    0    0    0  501  0.00000000000E+00  0.00000000000E+00  0.71236971313E+03  0.71236971314E+03  0.25500000920E-02 0. -1.
        2   -1    0    0  501    0  0.00000000000E+00  0.00000000000E+00 -0.32598198428E+03  0.32598198429E+03  0.25500000920E-02 0.  1.
    10030    2    1    2    0    0  0.00000000000E+00  0.00000000000E+00  0.38638772885E+03  0.10383516974E+04  0.96378357038E+03 0.  0.
        3    1    3    3  502    0 -0.32767861413E+03 -0.72205913679E+02 -0.17944653507E+03  0.38051023282E+03  0.10100000352E+00 0.  1.
       -3    1    3    3    0  502  0.32767861413E+03  0.72205913679E+02  0.56583426392E+03  0.65784146461E+03  0.10100000352E+00 0. -1.
</event>
<event>
 5   0  0.6534628E-03  0.8435010E+03  0.7818609E-02  0.9499101E-01
       -2   -1    0    0    0  501  0.00000000000E+00  0.00000000000E+00  0.25231548668E+03  0.25231548670E+03  0.25500000920E-02 0.  1.
        2   -1    0    0  501    0  0.00000000000E+00  0.00000000000E+00 -0.70496460486E+03  0.70496460487E+03  0.25500000920E-02 0. -1.
    10030    2    1    2    0    0  0.00000000000E+00  0.00000000000E+00 -0.45264911818E+03  0.95728009156E+03  0.84350100742E+03 0.  0.
        4    1    3    3  502    0 -0.16597617347E+03  0.18327912853E+03 -0.61407240976E+03  0.66198630382E+03  0.12699999809E+01 0. -1.
       -4    1    3    3    0  502  0.16597617347E+03 -0.18327912853E+03  0.16142329158E+03  0.29529378774E+03  0.12699999809E+01 0.  1.
</event>
<event>
 5   0  0.6534628E-03  0.9053626E+03  0.7818609E-02  0.9418903E-01
        2   -1    0    0  501    0  0.00000000000E+00  0.00000000000E+00  0.35524068135E+03  0.35524068136E+03  0.25500000920E-02 0.  1.
       -2   -1    0    0    0  501  0.00000000000E+00  0.00000000000E+00 -0.57684931572E+03  0.57684931573E+03  0.25500000920E-02 0. -1.
    10030    2    1    2    0    0  0.00000000000E+00  0.00000000000E+00 -0.22160863437E+03  0.93208999709E+03  0.90536256596E+03 0.  0.
        4    1    3    3  502    0  0.15602817468E+03 -0.29642864943E+03  0.20265742274E+03  0.39151804478E+03  0.12699999809E+01 0.  1.
       -4    1    3    3    0  502 -0.15602817468E+03  0.29642864943E+03 -0.42426605712E+03  0.54057195231E+03  0.12699999809E+01 0. -1.
</event>
<event>
 5   0  0.3998066E-03  0.8957661E+03  0.7818609E-02  0.9430890E-01
        1   -1    0    0  501    0  0.00000000000E+00  0.00000000000E+00  0.65199000347E+03  0.65199000349E+03  0.50400001928E-02 0. -1.
       -1   -1    0    0    0  501  0.00000000000E+00  0.00000000000E+00 -0.30767221955E+03  0.30767221959E+03  0.50400001928E-02 0.  1.
    10030    2    1    2    0    0  0.00000000000E+00  0.00000000000E+00  0.34431778392E+03  0.95966222308E+03  0.89576606660E+03 0.  0.
        4    1    3    3  502    0  0.99030468811E+02 -0.26486741217E+03 -0.19994304518E+03  0.34632443460E+03  0.12699999809E+01 0.  1.
       -4    1    3    3    0  502 -0.99030468811E+02  0.26486741217E+03  0.54426082910E+03  0.61333778848E+03  0.12699999809E+01 0. -1.
</event>
<event>
 5   0  0.3943549E-03  0.9020939E+03  0.7818609E-02  0.9422968E-01
        1   -1    0    0  501    0  0.00000000000E+00  0.00000000000E+00  0.18955624905E+04  0.18955624905E+04  0.50400001928E-02 0.  1.
       -1   -1    0    0    0  501  0.00000000000E+00  0.00000000000E+00 -0.10732611573E+03  0.10732611585E+03  0.50400001928E-02 0. -1.
    10030    2    1    2    0    0  0.00000000000E+00  0.00000000000E+00  0.17882363748E+04  0.20028886063E+04  0.90209391828E+03 0.  0.
        3    1    3    3  502    0 -0.18513423588E+02 -0.38680410842E+03  0.38064985018E+03  0.54300504951E+03  0.10100000352E+00 0. -1.
       -3    1    3    3    0  502  0.18513423588E+02  0.38680410842E+03  0.14075865246E+04  0.14598835568E+04  0.10100000352E+00 0.  1.
</event>
<event>
 5   0  0.3943549E-03  0.8921445E+03  0.7818609E-02  0.9435455E-01
        1   -1    0    0  501    0  0.00000000000E+00  0.00000000000E+00  0.38942343500E+03  0.38942343503E+03  0.50400001928E-02 0.  1.
       -1   -1    0    0    0  501  0.00000000000E+00  0.00000000000E+00 -0.51096167968E+03  0.51096167970E+03  0.50400001928E-02 0. -1.
    10030    2    1    2    0    0  0.00000000000E+00  0.00000000000E+00 -0.12153824468E+03  0.90038511473E+03  0.89214450058E+03 0.  0.
        3    1    3    3  502    0  0.38065737007E+03  0.17426253547E+03  0.94643450265E+02  0.42921423268E+03  0.10100000352E+00 0.  1.
       -3    1    3    3    0  502 -0.38065737007E+03 -0.17426253547E+03 -0.21618169495E+03  0.47117088205E+03  0.10100000352E+00 0. -1.
</event>
<event>
 5   0  0.6534628E-03  0.9292280E+03  0.7818609E-02  0.9389765E-01
       -2   -1    0    0    0  501  0.00000000000E+00  0.00000000000E+00  0.20625348142E+03  0.20625348144E+03  0.25500000920E-02 0. -1.
        2   -1    0    0  501    0  0.00000000000E+00  0.00000000000E+00 -0.10466061409E+04  0.10466061409E+04  0.25500000920E-02 0.  1.
    10030    2    1    2    0    0  0.00000000000E+00  0.00000000000E+00 -0.84035265946E+03  0.12528596223E+04  0.92922798117E+03 0.  0.
        4    1    3    3  502    0 -0.28135272909E+03  0.35437169579E+03 -0.56239202303E+03  0.72182065460E+03  0.12699999809E+01 0.  1.
       -4    1    3    3    0  502  0.28135272909E+03 -0.35437169579E+03 -0.27796063643E+03  0.53103896773E+03  0.12699999809E+01 0. -1.
</event>
<event>
 5   0  0.3998066E-03  0.9009383E+03  0.7818609E-02  0.9424409E-01
       -1   -1    0    0    0  501  0.00000000000E+00  0.00000000000E+00  0.24502461735E+03  0.24502461740E+03  0.50400001928E-02 0.  1.
        1   -1    0    0  501    0  0.00000000000E+00  0.00000000000E+00 -0.82817170617E+03  0.82817170619E+03  0.50400001928E-02 0. -1.
    10030    2    1    2    0    0  0.00000000000E+00  0.00000000000E+00 -0.58314708882E+03  0.10731963236E+04  0.90093830075E+03 0.  0.
        4    1    3    3  502    0  0.24229661190E+03  0.59022375119E+02 -0.73843899788E+03  0.77941327638E+03  0.12699999809E+01 0. -1.
       -4    1    3    3    0  502 -0.24229661190E+03 -0.59022375119E+02  0.15529190906E+03  0.29378304720E+03  0.12699999809E+01 0.  1.
</event>
<event>
 5   0  0.6524705E-03  0.8972022E+03  0.7818609E-02  0.9429086E-01
       -2   -1    0    0    0  501  0.00000000000E+00  0.00000000000E+00  0.14995927047E+03  0.14995927049E+03  0.25500000920E-02 0.  1.
        2   -1    0    0  501    0  0.00000000000E+00  0.00000000000E+00 -0.13419841247E+04  0.13419841247E+04  0.25500000920E-02 0. -1.
    10030    2    1    2    0    0  0.00000000000E+00  0.00000000000E+00 -0.11920248542E+04  0.14919433952E+04  0.89720222992E+03 0.  0.
        3    1    3    3  502    0  0.26587032733E+03  0.35648008273E+03 -0.49794638183E+03  0.66761941982E+03  0.10100000352E+00 0. -1.
       -3    1    3    3    0  502 -0.26587032733E+03 -0.35648008273E+03 -0.69407847239E+03  0.82432397537E+03  0.10100000352E+00 0.  1.
</event>
<event>
 5   0  0.3794006E-03  0.8921323E+03  0.7818609E-02  0.9435470E-01
       -1   -1    0    0    0  501  0.00000000000E+00  0.00000000000E+00  0.90523440277E+03  0.90523440279E+03  0.50400001928E-02 0.  1.
        1   -1    0    0  501    0  0.00000000000E+00  0.00000000000E+00 -0.21980497726E+03  0.21980497732E+03  0.50400001928E-02 0. -1.
    10030    2    1    2    0    0  0.00000000000E+00  0.00000000000E+00  0.68542942551E+03  0.11250393801E+04  0.89213233852E+03 0.  0.
        5    1    3    3  502    0 -0.18459434185E+03  0.72520305126E+01  0.85469158864E+03  0.87444122997E+03  0.46999998093E+01 0.  1.
       -5    1    3    3    0  502  0.18459434185E+03 -0.72520305126E+01 -0.16926216312E+03  0.25059815014E+03  0.46999998093E+01 0. -1.
</event>
<event>
 5   0  0.6524705E-03  0.9011713E+03  0.7818609E-02  0.9424118E-01
        2   -1    0    0  501    0  0.00000000000E+00  0.00000000000E+00  0.75573797305E+03  0.75573797305E+03  0.25500000920E-02 0.  1.
       -2   -1    0    0    0  501  0.00000000000E+00  0.00000000000E+00 -0.26864793661E+03  0.26864793662E+03  0.25500000920E-02 0. -1.
    10030    2    1    2    0    0  0.00000000000E+00  0.00000000000E+00  0.48709003644E+03  0.10243859097E+04  0.90117134239E+03 0.  0.
        3    1    3    3  502    0 -0.93021713616E+02  0.23174734462E+03  0.66988219990E+03  0.71491401084E+03  0.10100000352E+00 0.  1.
       -3    1    3    3    0  502  0.93021713616E+02 -0.23174734462E+03 -0.18279216347E+03  0.30947189884E+03  0.10100000352E+00 0. -1.
</event>
<event>
 5   0  0.6863405E-03  0.8987657E+03  0.7818609E-02  0.9427126E-01
        2   -1    0    0  501    0  0.00000000000E+00  0.00000000000E+00  0.10726590552E+04  0.10726590552E+04  0.25500000920E-02 0.  1.
       -2   -1    0    0    0  501  0.00000000000E+00  0.00000000000E+00 -0.18826574291E+03  0.18826574293E+03  0.25500000920E-02 0. -1.
    10030    2    1    2    0    0  0.00000000000E+00  0.00000000000E+00  0.88439331231E+03  0.12609247982E+04  0.89876571794E+03 0.  0.
        1    1    3    3  502    0  0.65817366735E+02 -0.35126485984E+03  0.82442315576E+03  0.89855020299E+03  0.50400001928E-02 0.  1.
       -1    1    3    3    0  502 -0.65817366735E+02  0.35126485984E+03  0.59970156559E+02  0.36237459517E+03  0.50400001928E-02 0. -1.
</event>
<event>
 5   0  0.3794006E-03  0.8993001E+03  0.7818609E-02  0.9426457E-01
       -1   -1    0    0    0  501  0.00000000000E+00  0.00000000000E+00  0.12082280558E+03  0.12082280569E+03  0.50400001928E-02 0. -1.
        1   -1    0    0  501    0  0.00000000000E+00  0.00000000000E+00 -0.16734023611E+04  0.16734023611E+04  0.50400001928E-02 0.  1.
    10030    2    1    2    0    0  0.00000000000E+00  0.00000000000E+00 -0.15525795555E+04  0.17942251668E+04  0.89930010173E+03 0.  0.
        5    1    3    3  502    0 -0.67282944392E+02  0.34875836815E+03 -0.13263238894E+04  0.13730682953E+04  0.46999998093E+01 0.  1.
       -5    1    3    3    0  502  0.67282944392E+02 -0.34875836815E+03 -0.22625566611E+03  0.42115687149E+03  0.46999998093E+01 0. -1.
</event>
<event>
 5   0  0.3927993E-03  0.8999617E+03  0.7818609E-02  0.9425629E-01
       -1   -1    0    0    0  501  0.00000000000E+00  0.00000000000E+00  0.78689465735E+03  0.78689465737E+03  0.50400001928E-02 0.  1.
        1   -1    0    0  501    0  0.00000000000E+00  0.00000000000E+00 -0.25731876537E+03  0.25731876542E+03  0.50400001928E-02 0. -1.
    10030    2    1    2    0    0  0.00000000000E+00  0.00000000000E+00  0.52957589198E+03  0.10442134228E+04  0.89996169195E+03 0.  0.
        2    1    3    3  502    0 -0.17842816121E+03  0.21625488674E+03 -0.14359331519E+03  0.31499496016E+03  0.25500000920E-02 0. -1.
       -2    1    3    3    0  502  0.17842816121E+03 -0.21625488674E+03  0.67316920717E+03  0.72921846263E+03  0.25500000920E-02 0.  1.
</event>
<event>
 5   0  0.6609191E-03  0.9033127E+03  0.7818609E-02  0.9421450E-01
       -2   -1    0    0    0  501  0.00000000000E+00  0.00000000000E+00  0.95441121017E+03  0.95441121017E+03  0.25500000920E-02 0. -1.
        2   -1    0    0  501    0  0.00000000000E+00  0.00000000000E+00 -0.21373749225E+03  0.21373749227E+03  0.25500000920E-02 0.  1.
    10030    2    1    2    0    0  0.00000000000E+00  0.00000000000E+00  0.74067371792E+03  0.11681487024E+04  0.90331270034E+03 0.  0.
        2    1    3    3  502    0  0.11751113372E+03  0.17799238942E+03  0.88518502583E+03  0.91051781268E+03  0.25500000920E-02 0. -1.
       -2    1    3    3    0  502 -0.11751113372E+03 -0.17799238942E+03 -0.14451130792E+03  0.25763088976E+03  0.25500000920E-02 0.  1.
</event>
<event>
 5   0  0.6609191E-03  0.8973549E+03  0.7818609E-02  0.9428894E-01
       -2   -1    0    0    0  501  0.00000000000E+00  0.00000000000E+00  0.19967073491E+03  0.19967073492E+03  0.25500000920E-02 0. -1.
        2   -1    0    0  501    0  0.00000000000E+00  0.00000000000E+00 -0.10082172352E+04  0.10082172352E+04  0.25500000920E-02 0.  1.
    10030    2    1    2    0    0  0.00000000000E+00  0.00000000000E+00 -0.80854650032E+03  0.12078879702E+04  0.89735494943E+03 0.  0.
        2    1    3    3  502    0  0.12167589933E+02 -0.36445860485E+03 -0.52406075308E+02  0.36840809116E+03  0.25500000920E-02 0. -1.
       -2    1    3    3    0  502 -0.12167589933E+02  0.36445860485E+03 -0.75614042501E+03  0.83947987900E+03  0.25500000920E-02 0.  1.
</event>
<event>
 5   0  0.3943549E-03  0.8956151E+03  0.7818609E-02  0.9431079E-01
        1   -1    0    0  501    0  0.00000000000E+00  0.00000000000E+00  0.64579884504E+03  0.64579884506E+03  0.50400001928E-02 0.  1.
       -1   -1    0    0    0  501  0.00000000000E+00  0.00000000000E+00 -0.31051715769E+03  0.31051715774E+03  0.50400001928E-02 0. -1.
    10030    2    1    2    0    0  0.00000000000E+00  0.00000000000E+00  0.33528168734E+03  0.95631600279E+03  0.89561514465E+03 0.  0.
        3    1    3    3  502    0  0.72469718661E+02  0.33340243212E+02  0.63815102337E+03  0.64311754040E+03  0.10100000352E+00 0.  1.
       -3    1    3    3    0  502 -0.72469718661E+02 -0.33340243212E+02 -0.30286933603E+03  0.31319846239E+03  0.10100000352E+00 0. -1.
</event>
<event>
 5   0  0.3927993E-03  0.9019401E+03  0.7818609E-02  0.9423159E-01
       -1   -1    0    0    0  501  0.00000000000E+00  0.00000000000E+00  0.42921592108E+03  0.42921592111E+03  0.50400001928E-02 0.  1.
        1   -1    0    0  501    0  0.00000000000E+00  0.00000000000E+00 -0.47382678457E+03  0.47382678460E+03  0.50400001928E-02 0. -1.
    10030    2    1    2    0    0  0.00000000000E+00  0.00000000000E+00 -0.44610863494E+02  0.90304270571E+03  0.90194013060E+03 0.  0.
        2    1    3    3  502    0 -0.67226499526E+02 -0.49624874054E+02  0.42139764570E+03  0.42960214871E+03  0.25500000920E-02 0.  1.
       -2    1    3    3    0  502  0.67226499526E+02  0.49624874054E+02 -0.46600850920E+03  0.47344055700E+03  0.25500000920E-02 0. -1.
</event>
<event>
 5   0  0.6863405E-03  0.9027219E+03  0.7818609E-02  0.9422185E-01
       -2   -1    0    0    0  501  0.00000000000E+00  0.00000000000E+00  0.34574349606E+03  0.34574349607E+03  0.25500000920E-02 0.  1.
        2   -1    0    0  501    0  0.00000000000E+00  0.00000000000E+00 -0.58924236592E+03  0.58924236593E+03  0.25500000920E-02 0. -1.
    10030    2    1    2    0    0  0.00000000000E+00  0.00000000000E+00 -0.24349886987E+03  0.93498586200E+03  0.90272191870E+03 0.  0.
        1    1    3    3  502    0 -0.22671552207E+03 -0.23924177827E+02  0.28173030564E+03  0.36241448560E+03  0.50400001928E-02 0.  1.
       -1    1    3    3    0  502  0.22671552207E+03  0.23924177827E+02 -0.52522917551E+03  0.57257137639E+03  0.50400001928E-02 0. -1.
</event>
<event>
 5   0  0.3998066E-03  0.8966341E+03  0.7818609E-02  0.9429799E-01
       -1   -1    0    0    0  501  0.00000000000E+00  0.00000000000E+00  0.68149908957E+03  0.68149908959E+03  0.50400001928E-02 0.  1.
        1   -1    0    0  501    0  0.00000000000E+00  0.00000000000E+00 -0.29492065592E+03  0.29492065596E+03  0.50400001928E-02 0. -1.
    10030    2    1    2    0    0  0.00000000000E+00  0.00000000000E+00  0.38657843366E+03  0.97641974556E+03  0.89663405810E+03 0.  0.
        4    1    3    3  502    0  0.34681821484E+03  0.71430469908E+01  0.50255412101E+03  0.61065223713E+03  0.12699999809E+01 0.  1.
       -4    1    3    3    0  502 -0.34681821484E+03 -0.71430469908E+01 -0.11597568735E+03  0.36576750843E+03  0.12699999809E+01 0. -1.
</event>
<event>
 5   0  0.6863405E-03  0.8928662E+03  0.7818609E-02  0.9434543E-01
       -2   -1    0    0    0  501  0.00000000000E+00  0.00000000000E+00  0.97393441315E+03  0.97393441315E+03  0.25500000920E-02 0.  1.
        2   -1    0    0  501    0  0.00000000000E+00  0.00000000000E+00 -0.20463646110E+03  0.20463646111E+03  0.25500000920E-02 0. -1.
    10030    2    1    2    0    0  0.00000000000E+00  0.00000000000E+00  0.76929795205E+03  0.11785708743E+04  0.89286615270E+03 0.  0.
        1    1    3    3  502    0  0.62810186235E+02 -0.43708946187E+03  0.29798935829E+03  0.53271941476E+03  0.50400001928E-02 0. -1.
       -1    1    3    3    0  502 -0.62810186235E+02  0.43708946187E+03  0.47130859375E+03  0.64585145951E+03  0.50400001928E-02 0.  1.
</event>
<event>
 5   0  0.3969536E-03  0.9077428E+03  0.7818609E-02  0.9415954E-01
        1   -1    0    0  501    0  0.00000000000E+00  0.00000000000E+00  0.38453225462E+03  0.38453225465E+03  0.50400001928E-02 0.  1.
       -1   -1    0    0    0  501  0.00000000000E+00  0.00000000000E+00 -0.53571387098E+03  0.53571387100E+03  0.50400001928E-02 0. -1.
    10030    2    1    2    0    0  0.00000000000E+00  0.00000000000E+00 -0.15118161636E+03  0.92024612565E+03  0.90774283288E+03 0.  0.
        1    1    3    3  502    0 -0.48554453241E+02  0.44573631046E+03 -0.14699440007E+03  0.47185352290E+03  0.50400001928E-02 0. -1.
       -1    1    3    3    0  502  0.48554453241E+02 -0.44573631046E+03 -0.41872162856E+01  0.44839260275E+03  0.50400001928E-02 0.  1.
</event>
<event>
 5   0  0.6534628E-03  0.8770592E+03  0.7818609E-02  0.9454722E-01
        2   -1    0    0  501    0  0.00000000000E+00  0.00000000000E+00  0.63533360535E+03  0.63533360536E+03  0.25500000920E-02 0.  1.
       -2   -1    0    0    0  501  0.00000000000E+00  0.00000000000E+00 -0.30268854209E+03  0.30268854211E+03  0.25500000920E-02 0. -1.
    10030    2    1    2    0    0  0.00000000000E+00  0.00000000000E+00  0.33264506326E+03  0.93802214746E+03  0.87705918331E+03 0.  0.
        4    1    3    3  502    0  0.43163967311E+03  0.76883948416E+02  0.17604511743E+03  0.47245893493E+03  0.12699999809E+01 0.  1.
       -4    1    3    3    0  502 -0.43163967311E+03 -0.76883948416E+02  0.15659994583E+03  0.46556321253E+03  0.12699999809E+01 0. -1.
</event>
<event>
 5   0  0.2560250E-03  0.9031418E+03  0.7818609E-02  0.9421663E-01
        3   -1    0    0  501    0  0.00000000000E+00  0.00000000000E+00  0.18615692691E+03  0.18615695431E+03  0.10100000352E+00 0. -1.
       -3   -1    0    0    0  501  0.00000000000E+00  0.00000000000E+00 -0.10953996984E+04  0.10953997030E+04  0.10100000352E+00 0.  1.
    10030    2    1    2    0    0  0.00000000000E+00  0.00000000000E+00 -0.90924277145E+03  0.12815566573E+04  0.90314176544E+03 0.  0.
        2    1    3    3  502    0  0.12117638606E+03  0.26365659925E+03 -0.94559838270E+03  0.98911820337E+03  0.25500000920E-02 0.  1.
       -2    1    3    3    0  502 -0.12117638606E+03 -0.26365659925E+03  0.36355611254E+02  0.29243845394E+03  0.25500000920E-02 0. -1.
</event>
<event>
 5   0  0.6524705E-03  0.8887701E+03  0.7818609E-02  0.9439729E-01
        2   -1    0    0  501    0  0.00000000000E+00  0.00000000000E+00  0.14203409491E+04  0.14203409491E+04  0.25500000920E-02 0. -1.
       -2   -1    0    0    0  501  0.00000000000E+00  0.00000000000E+00 -0.13903567985E+03  0.13903567987E+03  0.25500000920E-02 0.  1.
    10030    2    1    2    0    0  0.00000000000E+00  0.00000000000E+00  0.12813052693E+04  0.15593766290E+04  0.88877009287E+03 0.  0.
        3    1    3    3  502    0 -0.28113515768E+03 -0.32885807271E+03  0.46264358668E+03  0.63342221888E+03  0.10100000352E+00 0.  1.
       -3    1    3    3    0  502  0.28113515768E+03  0.32885807271E+03  0.81866168258E+03  0.92595441010E+03  0.10100000352E+00 0. -1.
</event>
<event>
 5   0  0.6609191E-03  0.8997973E+03  0.7818609E-02  0.9425835E-01
        2   -1    0    0  501    0  0.00000000000E+00  0.00000000000E+00  0.16918216641E+04  0.16918216641E+04  0.25500000920E-02 0.  1.
       -2   -1    0    0    0  501  0.00000000000E+00  0.00000000000E+00 -0.11963956415E+03  0.11963956418E+03  0.25500000920E-02 0. -1.
    10030    2    1    2    0    0  0.00000000000E+00  0.00000000000E+00  0.15721821000E+04  0.18114612283E+04  0.89979732506E+03 0.  0.
        2    1    3    3  502    0  0.98457223550E+00 -0.27728335258E+03  0.72837586676E+02  0.28669206658E+03  0.25500000920E-02 0. -1.
       -2    1    3    3    0  502 -0.98457223550E+00  0.27728335258E+03  0.14993445133E+04  0.15247691617E+04  0.25500000920E-02 0.  1.
</event>
<event>
 5   0  0.6863405E-03  0.9096475E+03  0.7818609E-02  0.9413601E-01
       -2   -1    0    0    0  501  0.00000000000E+00  0.00000000000E+00  0.20922060072E+03  0.20922060074E+03  0.25500000920E-02 0.  1.
        2   -1    0    0  501    0  0.00000000000E+00  0.00000000000E+00 -0.98873934124E+03  0.98873934125E+03  0.25500000920E-02 0. -1.
    10030    2    1    2    0    0  0.00000000000E+00  0.00000000000E+00 -0.77951874052E+03  0.11979599420E+04  0.90964748984E+03 0.  0.
        1    1    3    3  502    0 -0.14780714418E+03 -0.29591976301E+03 -0.80086958456E+03  0.86649151728E+03  0.50400001928E-02 0. -1.
       -1    1    3    3    0  502  0.14780714418E+03  0.29591976301E+03  0.21350844037E+02  0.33146842471E+03  0.50400001928E-02 0.  1.
</event>
<event>
 5   0  0.3927993E-03  0.9005960E+03  0.7818609E-02  0.9424837E-01
        1   -1    0    0  501    0  0.00000000000E+00  0.00000000000E+00  0.87142798646E+03  0.87142798647E+03  0.50400001928E-02 0.  1.
       -1   -1    0    0    0  501  0.00000000000E+00  0.00000000000E+00 -0.23268506826E+03  0.23268506832E+03  0.50400001928E-02 0. -1.
    10030    2    1    2    0    0  0.00000000000E+00  0.00000000000E+00  0.63874291819E+03  0.11041130548E+04  0.90059598167E+03 0.  0.
        2    1    3    3  502    0  0.41227226855E+03 -0.17803431969E+03  0.27864310213E+03  0.52849467431E+03  0.25500000920E-02 0.  1.
       -2    1    3    3    0  502 -0.41227226855E+03  0.17803431969E+03  0.36009981607E+03  0.57561838048E+03  0.25500000920E-02 0. -1.
</event>
<event>
 5   0  0.6609191E-03  0.8610435E+03  0.7818609E-02  0.9475633E-01
       -2   -1    0    0    0  501  0.00000000000E+00  0.00000000000E+00  0.37097165662E+03  0.37097165663E+03  0.25500000920E-02 0.  1.
        2   -1    0    0  501    0  0.00000000000E+00  0.00000000000E+00 -0.49963114541E+03  0.49963114541E+03  0.25500000920E-02 0. -1.
    10030    2    1    2    0    0  0.00000000000E+00  0.00000000000E+00 -0.12865948878E+03  0.87060280205E+03  0.86104353832E+03 0.  0.
        2    1    3    3  502    0 -0.11242295071E+03  0.21978473666E+03  0.29229659730E+03  0.38259842017E+03  0.25500000920E-02 0.  1.
       -2    1    3    3    0  502  0.11242295071E+03 -0.21978473666E+03 -0.42095608608E+03  0.48800438188E+03  0.25500000920E-02 0. -1.
</event>
<event>
 5   0  0.3943549E-03  0.9023003E+03  0.7818609E-02  0.9422711E-01
       -1   -1    0    0    0  501  0.00000000000E+00  0.00000000000E+00  0.24235888453E+03  0.24235888458E+03  0.50400001928E-02 0. -1.
        1   -1    0    0  501    0  0.00000000000E+00  0.00000000000E+00 -0.83981428947E+03  0.83981428948E+03  0.50400001928E-02 0.  1.
    10030    2    1    2    0    0  0.00000000000E+00  0.00000000000E+00 -0.59745540494E+03  0.10821731741E+04  0.90230029246E+03 0.  0.
        3    1    3    3  502    0 -0.32978467478E+03  0.12895043162E+03  0.36554875462E+02  0.35598091895E+03  0.10100000352E+00 0. -1.
       -3    1    3    3    0  502  0.32978467478E+03 -0.12895043162E+03 -0.63401028040E+03  0.72619225512E+03  0.10100000352E+00 0.  1.
</event>
<event>
 5   0  0.3998066E-03  0.9510417E+03  0.7818609E-02  0.9363934E-01
       -1   -1    0    0    0  501  0.00000000000E+00  0.00000000000E+00  0.36420590392E+03  0.36420590396E+03  0.50400001928E-02 0. -1.
        1   -1    0    0  501    0  0.00000000000E+00  0.00000000000E+00 -0.62085783053E+03  0.62085783055E+03  0.50400001928E-02 0.  1.
    10030    2    1    2    0    0  0.00000000000E+00  0.00000000000E+00 -0.25665192661E+03  0.98506373451E+03  0.95104171812E+03 0.  0.
        4    1    3    3  502    0 -0.30028333186E+03 -0.39121811271E+02  0.25142010125E+03  0.39359150870E+03  0.12699999809E+01 0. -1.
       -4    1    3    3    0  502  0.30028333186E+03  0.39121811271E+02 -0.50807202786E+03  0.59147222581E+03  0.12699999809E+01 0.  1.
</event>
<event>
 5   0  0.3927993E-03  0.8971980E+03  0.7818609E-02  0.9429091E-01
        1   -1    0    0  501    0  0.00000000000E+00  0.00000000000E+00  0.50626705832E+03  0.50626705835E+03  0.50400001928E-02 0.  1.
       -1   -1    0    0    0  501  0.00000000000E+00  0.00000000000E+00 -0.39749982018E+03  0.39749982022E+03  0.50400001928E-02 0. -1.
    10030    2    1    2    0    0  0.00000000000E+00  0.00000000000E+00  0.10876723814E+03  0.90376687856E+03  0.89719800417E+03 0.  0.
        2    1    3    3  502    0  0.36193496852E+03 -0.12717068415E+03  0.28861947531E+03  0.48007343801E+03  0.25500000920E-02 0.  1.
       -2    1    3    3    0  502 -0.36193496852E+03  0.12717068415E+03 -0.17985223717E+03  0.42369344055E+03  0.25500000920E-02 0. -1.
</event>
<event>
 5   0  0.3794006E-03  0.8964391E+03  0.7818609E-02  0.9430044E-01
       -1   -1    0    0    0  501  0.00000000000E+00  0.00000000000E+00  0.10052175094E+03  0.10052175106E+03  0.50400001928E-02 0.  1.
        1   -1    0    0  501    0  0.00000000000E+00  0.00000000000E+00 -0.19985801850E+04  0.19985801850E+04  0.50400001928E-02 0. -1.
    10030    2    1    2    0    0  0.00000000000E+00  0.00000000000E+00 -0.18980584341E+04  0.20991019361E+04  0.89643913285E+03 0.  0.
        5    1    3    3  502    0  0.10465392565E+03  0.83093415821E+02 -0.19507900562E+04  0.19553672017E+04  0.46999998093E+01 0. -1.
       -5    1    3    3    0  502 -0.10465392565E+03 -0.83093415821E+02  0.52731622145E+02  0.14373473442E+03  0.46999998093E+01 0.  1.
</event>
<event>
 5   0  0.6524705E-03  0.8985482E+03  0.7818609E-02  0.9427398E-01
       -2   -1    0    0    0  501  0.00000000000E+00  0.00000000000E+00  0.39511682368E+03  0.39511682369E+03  0.25500000920E-02 0.  1.
        2   -1    0    0  501    0  0.00000000000E+00  0.00000000000E+00 -0.51085455598E+03  0.51085455599E+03  0.25500000920E-02 0. -1.
    10030    2    1    2    0    0  0.00000000000E+00  0.00000000000E+00 -0.11573773230E+03  0.90597137968E+03  0.89854822805E+03 0.  0.
        3    1    3    3  502    0 -0.28723987116E+03  0.23374993447E+03 -0.31433502798E+03  0.48574921046E+03  0.10100000352E+00 0. -1.
       -3    1    3    3    0  502  0.28723987116E+03 -0.23374993447E+03  0.19859729568E+03  0.42022216922E+03  0.10100000352E+00 0.  1.
</event>
<event>
 5   0  0.6534628E-03  0.9029366E+03  0.7818609E-02  0.9421918E-01
       -2   -1    0    0    0  501  0.00000000000E+00  0.00000000000E+00  0.12781421059E+03  0.12781421061E+03  0.25500000920E-02 0. -1.
        2   -1    0    0  501    0  0.00000000000E+00  0.00000000000E+00 -0.15946867703E+04  0.15946867703E+04  0.25500000920E-02 0.  1.
    10030    2    1    2    0    0  0.00000000000E+00  0.00000000000E+00 -0.14668725597E+04  0.17225009809E+04  0.90293661063E+03 0.  0.
        4    1    3    3  502    0  0.60278808107E+02 -0.66362152469E+02  0.11065890283E+03  0.14242357832E+03  0.12699999809E+01 0. -1.
       -4    1    3    3    0  502 -0.60278808107E+02  0.66362152469E+02 -0.15775314625E+04  0.15800774026E+04  0.12699999809E+01 0.  1.
</event>
<event>
 5   0  0.6724773E-03  0.8987304E+03  0.7818609E-02  0.9427170E-01
       -2   -1    0    0    0  501  0.00000000000E+00  0.00000000000E+00  0.48914099235E+03  0.48914099236E+03  0.25500000920E-02 0. -1.
        2   -1    0    0  501    0  0.00000000000E+00  0.00000000000E+00 -0.41282387373E+03  0.41282387373E+03  0.25500000920E-02 0.  1.
    10030    2    1    2    0    0  0.00000000000E+00  0.00000000000E+00  0.76317118628E+02  0.90196486609E+03  0.89873039176E+03 0.  0.
        5    1    3    3  502    0  0.12938619365E+03 -0.20069399376E+03 -0.34385307168E+03  0.41865963639E+03  0.46999998093E+01 0.  1.
       -5    1    3    3    0  502 -0.12938619365E+03  0.20069399376E+03  0.42017019031E+03  0.48330522971E+03  0.46999998093E+01 0. -1.
</event>
<event>
 5   0  0.3927993E-03  0.9045355E+03  0.7818609E-02  0.9419930E-01
       -1   -1    0    0    0  501  0.00000000000E+00  0.00000000000E+00  0.21875221216E+03  0.21875221222E+03  0.50400001928E-02 0.  1.
        1   -1    0    0  501    0  0.00000000000E+00  0.00000000000E+00 -0.93505843886E+03  0.93505843887E+03  0.50400001928E-02 0. -1.
    10030    2    1    2    0    0  0.00000000000E+00  0.00000000000E+00 -0.71630622670E+03  0.11538106511E+04  0.90453546539E+03 0.  0.
        2    1    3    3  502    0  0.26909128837E+02  0.26141233281E+02  0.21676396645E+03  0.21998655061E+03  0.25500000920E-02 0.  1.
       -2    1    3    3    0  502 -0.26909128837E+02 -0.26141233281E+02 -0.93307019315E+03  0.93382410048E+03  0.25500000920E-02 0. -1.
</event>
<event>
 5   0  0.2560250E-03  0.9031627E+03  0.7818609E-02  0.9421636E-01
       -4   -1    0    0    0  501  0.00000000000E+00  0.00000000000E+00  0.74810752181E+03  0.74810859980E+03  0.12699999809E+01 0. -1.
        4   -1    0    0  501    0  0.00000000000E+00  0.00000000000E+00 -0.27258605024E+03  0.27258900874E+03  0.12699999809E+01 0.  1.
    10030    2    1    2    0    0  0.00000000000E+00  0.00000000000E+00  0.47552147157E+03  0.10206976085E+04  0.90316274179E+03 0.  0.
        5    1    3    3  502    0  0.43338178024E+03  0.69597768695E+02  0.11794474745E+03  0.45452906431E+03  0.46999998093E+01 0.  1.
       -5    1    3    3    0  502 -0.43338178024E+03 -0.69597768695E+02  0.35757672412E+03  0.56616854423E+03  0.46999998093E+01 0. -1.
</event>
<event>
 5   0  0.2560250E-03  0.9000105E+03  0.7818609E-02  0.9425568E-01
        3   -1    0    0  501    0  0.00000000000E+00  0.00000000000E+00  0.17467756738E+03  0.17467759658E+03  0.10100000352E+00 0.  1.
       -3   -1    0    0    0  501  0.00000000000E+00  0.00000000000E+00 -0.11593057390E+04  0.11593057434E+04  0.10100000352E+00 0. -1.
    10030    2    1    2    0    0  0.00000000000E+00  0.00000000000E+00 -0.98462817161E+03  0.13339833400E+04  0.90001050828E+03 0.  0.
        4    1    3    3  502    0 -0.23862879300E+03 -0.30450977009E+03 -0.15162647170E+03  0.41552629369E+03  0.12699999809E+01 0.  1.
       -4    1    3    3    0  502  0.23862879300E+03  0.30450977009E+03 -0.83300169990E+03  0.91845704628E+03  0.12699999809E+01 0. -1.
</event>
<event>
 5   0  0.2560250E-03  0.9171321E+03  0.7818609E-02  0.9404415E-01
        3   -1    0    0  501    0  0.00000000000E+00  0.00000000000E+00  0.32017819143E+03  0.32017820736E+03  0.10100000352E+00 0.  1.
       -3   -1    0    0    0  501  0.00000000000E+00  0.00000000000E+00 -0.65676802274E+03  0.65676803050E+03  0.10100000352E+00 0. -1.
    10030    2    1    2    0    0  0.00000000000E+00  0.00000000000E+00 -0.33658983131E+03  0.97694623786E+03  0.91713207180E+03 0.  0.
        4    1    3    3  502    0  0.28476131096E+03 -0.19884438843E+03  0.15065422970E+03  0.37858473933E+03  0.12699999809E+01 0.  1.
       -4    1    3    3    0  502 -0.28476131096E+03  0.19884438843E+03 -0.48724406101E+03  0.59836149853E+03  0.12699999809E+01 0. -1.
</event>
<event>
 5   0  0.3998066E-03  0.9020877E+03  0.7818609E-02  0.9422975E-01
        1   -1    0    0  501    0  0.00000000000E+00  0.00000000000E+00  0.48991276586E+03  0.48991276589E+03  0.50400001928E-02 0.  1.
       -1   -1    0    0    0  501  0.00000000000E+00  0.00000000000E+00 -0.41525875636E+03  0.41525875639E+03  0.50400001928E-02 0. -1.
    10030    2    1    2    0    0  0.00000000000E+00  0.00000000000E+00  0.74654009498E+02  0.90517152228E+03  0.90208772501E+03 0.  0.
        4    1    3    3  502    0  0.28602296700E+03  0.24380026226E+03  0.28756124950E+03  0.47322382721E+03  0.12699999809E+01 0.  1.
       -4    1    3    3    0  502 -0.28602296700E+03 -0.24380026226E+03 -0.21290724000E+03  0.43194769507E+03  0.12699999809E+01 0. -1.
</event>
<event>
 5   0  0.3969536E-03  0.9013149E+03  0.7818609E-02  0.9423939E-01
        1   -1    0    0  501    0  0.00000000000E+00  0.00000000000E+00  0.26894996939E+03  0.26894996944E+03  0.50400001928E-02 0.  1.
       -1   -1    0    0    0  501  0.00000000000E+00  0.00000000000E+00 -0.75512978197E+03  0.75512978199E+03  0.50400001928E-02 0. -1.
    10030    2    1    2    0    0  0.00000000000E+00  0.00000000000E+00 -0.48617981258E+03  0.10240797514E+04  0.90131488788E+03 0.  0.
        1    1    3    3  502    0 -0.43371077645E+03  0.12148656563E+03 -0.22592948366E+03  0.50389299941E+03  0.50400001928E-02 0.  1.
       -1    1    3    3    0  502  0.43371077645E+03 -0.12148656563E+03 -0.26025032892E+03  0.52018675201E+03  0.50400001928E-02 0. -1.
</event>
<event>
 5   0  0.6534628E-03  0.9027641E+03  0.7818609E-02  0.9422133E-01
        2   -1    0    0  501    0  0.00000000000E+00  0.00000000000E+00  0.10956486302E+04  0.10956486302E+04  0.25500000920E-02 0. -1.
       -2   -1    0    0    0  501  0.00000000000E+00  0.00000000000E+00 -0.18595904561E+03  0.18595904563E+03  0.25500000920E-02 0.  1.
    10030    2    1    2    0    0  0.00000000000E+00  0.00000000000E+00  0.90968958457E+03  0.12816076758E+04  0.90276414108E+03 0.  0.
        4    1    3    3  502    0  0.36607886019E+03  0.69191375503E+02  0.81662675809E+03  0.89759793519E+03  0.12699999809E+01 0. -1.
       -4    1    3    3    0  502 -0.36607886019E+03 -0.69191375503E+02  0.93062826482E+02  0.38400974063E+03  0.12699999809E+01 0.  1.
</event>
<event>
 5   0  0.6724773E-03  0.9275485E+03  0.7818609E-02  0.9391785E-01
       -2   -1    0    0    0  501  0.00000000000E+00  0.00000000000E+00  0.21186411464E+03  0.21186411466E+03  0.25500000920E-02 0.  1.
        2   -1    0    0  501    0  0.00000000000E+00  0.00000000000E+00 -0.10152098973E+04  0.10152098973E+04  0.25500000920E-02 0. -1.
    10030    2    1    2    0    0  0.00000000000E+00  0.00000000000E+00 -0.80334578266E+03  0.12270740120E+04  0.92754848084E+03 0.  0.
        5    1    3    3  502    0  0.45860442421E+03  0.43307797838E+02 -0.33079005012E+03  0.56713114049E+03  0.46999998093E+01 0.  1.
       -5    1    3    3    0  502 -0.45860442421E+03 -0.43307797838E+02 -0.47255573254E+03  0.65994287148E+03  0.46999998093E+01 0. -1.
</event>
<event>
 5   0  0.3794006E-03  0.9021679E+03  0.7818609E-02  0.9422875E-01
       -1   -1    0    0    0  501  0.00000000000E+00  0.00000000000E+00  0.29008271925E+03  0.29008271929E+03  0.50400001928E-02 0. -1.
        1   -1    0    0  501    0  0.00000000000E+00  0.00000000000E+00 -0.70144388504E+03  0.70144388506E+03  0.50400001928E-02 0.  1.
    10030    2    1    2    0    0  0.00000000000E+00  0.00000000000E+00 -0.41136116579E+03  0.99152660435E+03  0.90216794357E+03 0.  0.
        5    1    3    3  502    0 -0.15232808686E+03  0.18987563743E+03 -0.62302699351E+03  0.66891055335E+03  0.46999998093E+01 0.  1.
       -5    1    3    3    0  502  0.15232808686E+03 -0.18987563743E+03  0.21166582772E+03  0.32261605100E+03  0.46999998093E+01 0. -1.
</event>
<event>
 5   0  0.6863405E-03  0.9003216E+03  0.7818609E-02  0.9425180E-01
        2   -1    0    0  501    0  0.00000000000E+00  0.00000000000E+00  0.34375657220E+03  0.34375657221E+03  0.25500000920E-02 0. -1.
       -2   -1    0    0    0  501  0.00000000000E+00  0.00000000000E+00 -0.58950069760E+03  0.58950069760E+03  0.25500000920E-02 0.  1.
    10030    2    1    2    0    0  0.00000000000E+00  0.00000000000E+00 -0.24574412539E+03  0.93325726981E+03  0.90032158504E+03 0.  0.
        1    1    3    3  502    0  0.24342761599E+03  0.66881397523E+02 -0.50921918945E+03  0.56836107229E+03  0.50400001928E-02 0.  1.
       -1    1    3    3    0  502 -0.24342761599E+03 -0.66881397523E+02  0.26347506406E+03  0.36489619752E+03  0.50400001928E-02 0. -1.
</event>
<event>
 5   0  0.6609191E-03  0.9075667E+03  0.7818609E-02  0.9416172E-01
       -2   -1    0    0    0  501  0.00000000000E+00  0.00000000000E+00  0.10648871258E+03  0.10648871261E+03  0.25500000920E-02 0.  1.
        2   -1    0    0  501    0  0.00000000000E+00  0.00000000000E+00 -0.19337198308E+04  0.19337198308E+04  0.25500000920E-02 0. -1.
    10030    2    1    2    0    0  0.00000000000E+00  0.00000000000E+00 -0.18272311182E+04  0.20402085434E+04  0.90756671448E+03 0.  0.
        2    1    3    3  502    0 -0.11219901282E+03  0.33892507073E+03 -0.15432979882E+04  0.15840541349E+04  0.25500000920E-02 0. -1.
       -2    1    3    3    0  502  0.11219901282E+03 -0.33892507073E+03 -0.28393313003E+03  0.45615440849E+03  0.25500000920E-02 0.  1.
</event>
<event>
 5   0  0.6609191E-03  0.9392669E+03  0.7818609E-02  0.9377785E-01
       -2   -1    0    0    0  501  0.00000000000E+00  0.00000000000E+00  0.28090252748E+03  0.28090252749E+03  0.25500000920E-02 0. -1.
        2   -1    0    0  501    0  0.00000000000E+00  0.00000000000E+00 -0.78516760588E+03  0.78516760588E+03  0.25500000920E-02 0.  1.
    10030    2    1    2    0    0  0.00000000000E+00  0.00000000000E+00 -0.50426507840E+03  0.10660701334E+04  0.93926687367E+03 0.  0.
        2    1    3    3  502    0  0.29399785813E+03  0.32927626593E+03 -0.70185020133E+02  0.44697151693E+03  0.25500000920E-02 0. -1.
       -2    1    3    3    0  502 -0.29399785813E+03 -0.32927626593E+03 -0.43408005827E+03  0.61909861644E+03  0.25500000920E-02 0.  1.
</event>
<event>
 5   0  0.3998066E-03  0.9008157E+03  0.7818609E-02  0.9424562E-01
       -1   -1    0    0    0  501  0.00000000000E+00  0.00000000000E+00  0.23093400114E+03  0.23093400120E+03  0.50400001928E-02 0. -1.
        1   -1    0    0  501    0  0.00000000000E+00  0.00000000000E+00 -0.87846406106E+03  0.87846406108E+03  0.50400001928E-02 0.  1.
    10030    2    1    2    0    0  0.00000000000E+00  0.00000000000E+00 -0.64753005992E+03  0.11093980623E+04  0.90081567597E+03 0.  0.
        4    1    3    3  502    0 -0.40917092004E+03 -0.17674398980E+03 -0.40363858770E+03  0.60131938445E+03  0.12699999809E+01 0.  1.
       -4    1    3    3    0  502  0.40917092004E+03  0.17674398980E+03 -0.24389147222E+03  0.50807867782E+03  0.12699999809E+01 0. -1.
</event>
<event>
 5   0  0.3969536E-03  0.8971517E+03  0.7818609E-02  0.9429149E-01
        1   -1    0    0  501    0  0.00000000000E+00  0.00000000000E+00  0.54935370424E+03  0.54935370426E+03  0.50400001928E-02 0. -1.
       -1   -1    0    0    0  501  0.00000000000E+00  0.00000000000E+00 -0.36628549913E+03  0.36628549916E+03  0.50400001928E-02 0.  1.
    10030    2    1    2    0    0  0.00000000000E+00  0.00000000000E+00  0.18306820511E+03  0.91563920342E+03  0.89715170575E+03 0.  0.
        1    1    3    3  502    0  0.19536539252E+03 -0.67603349929E+02  0.49783620978E+03  0.53905356070E+03  0.50400001928E-02 0. -1.
       -1    1    3    3    0  502 -0.19536539252E+03  0.67603349929E+02 -0.31476800466E+03  0.37658564272E+03  0.50400001928E-02 0.  1.
</event>
<event>
 5   0  0.6724773E-03  0.8971954E+03  0.7818609E-02  0.9429094E-01
       -2   -1    0    0    0  501  0.00000000000E+00  0.00000000000E+00  0.55197725076E+03  0.55197725077E+03  0.25500000920E-02 0. -1.
        2   -1    0    0  501    0  0.00000000000E+00  0.00000000000E+00 -0.36458007523E+03  0.36458007524E+03  0.25500000920E-02 0.  1.
    10030    2    1    2    0    0  0.00000000000E+00  0.00000000000E+00  0.18739717553E+03  0.91655732601E+03  0.89719542491E+03 0.  0.
        5    1    3    3  502    0 -0.23940583360E+03 -0.37544351797E+02  0.47932740380E+03  0.53712343232E+03  0.46999998093E+01 0. -1.
       -5    1    3    3    0  502  0.23940583360E+03  0.37544351797E+02 -0.29193022827E+03  0.37943389370E+03  0.46999998093E+01 0.  1.
</event>
<event>
 5   0  0.3794006E-03  0.8945678E+03  0.7818609E-02  0.9432398E-01
       -1   -1    0    0    0  501  0.00000000000E+00  0.00000000000E+00  0.72490456342E+03  0.72490456344E+03  0.50400001928E-02 0.  1.
        1   -1    0    0  501    0  0.00000000000E+00  0.00000000000E+00 -0.27598514192E+03  0.27598514197E+03  0.50400001928E-02 0. -1.
    10030    2    1    2    0    0  0.00000000000E+00  0.00000000000E+00  0.44891942150E+03  0.10008897054E+04  0.89456780368E+03 0.  0.
        5    1    3    3  502    0 -0.12223718825E+03 -0.32839068607E+03 -0.86529904296E+02  0.36095967534E+03  0.46999998093E+01 0. -1.
       -5    1    3    3    0  502  0.12223718825E+03  0.32839068607E+03  0.53544932580E+03  0.63993003007E+03  0.46999998093E+01 0.  1.
</event>
<event>
 5   0  0.6609191E-03  0.8985070E+03  0.7818609E-02  0.9427450E-01
        2   -1    0    0  501    0  0.00000000000E+00  0.00000000000E+00  0.12479640770E+04  0.12479640770E+04  0.25500000920E-02 0.  1.
       -2   -1    0    0    0  501  0.00000000000E+00  0.00000000000E+00 -0.16172638205E+03  0.16172638207E+03  0.25500000920E-02 0. -1.
    10030    2    1    2    0    0  0.00000000000E+00  0.00000000000E+00  0.10862376949E+04  0.14096904590E+04  0.89850701747E+03 0.  0.
        2    1    3    3  502    0  0.11028638989E+03 -0.26779984294E+03  0.10819456394E+04  0.11200384861E+04  0.25500000920E-02 0.  1.
       -2    1    3    3    0  502 -0.11028638989E+03  0.26779984294E+03  0.42920554829E+01  0.28965197293E+03  0.25500000920E-02 0. -1.
</event>
<event>
 5   0  0.6534628E-03  0.8995695E+03  0.7818609E-02  0.9426120E-01
       -2   -1    0    0    0  501  0.00000000000E+00  0.00000000000E+00  0.21855407474E+03  0.21855407475E+03  0.25500000920E-02 0. -1.
        2   -1    0    0  501    0  0.00000000000E+00  0.00000000000E+00 -0.92565795385E+03  0.92565795386E+03  0.25500000920E-02 0.  1.
    10030    2    1    2    0    0  0.00000000000E+00  0.00000000000E+00 -0.70710387912E+03  0.11442120286E+04  0.89956949179E+03 0.  0.
        4    1    3    3  502    0 -0.38856918915E+02 -0.26865850232E+03 -0.80971671291E+03  0.85400820786E+03  0.12699999809E+01 0.  1.
       -4    1    3    3    0  502  0.38856918915E+02  0.26865850232E+03  0.10261283380E+03  0.29020382075E+03  0.12699999809E+01 0. -1.
</event>
<event>
 5   0  0.3998066E-03  0.9018127E+03  0.7818609E-02  0.9423318E-01
       -1   -1    0    0    0  501  0.00000000000E+00  0.00000000000E+00  0.29160748903E+03  0.29160748908E+03  0.50400001928E-02 0.  1.
        1   -1    0    0  501    0  0.00000000000E+00  0.00000000000E+00 -0.69722673475E+03  0.69722673476E+03  0.50400001928E-02 0. -1.
    10030    2    1    2    0    0  0.00000000000E+00  0.00000000000E+00 -0.40561924571E+03  0.98883422384E+03  0.90181270214E+03 0.  0.
        4    1    3    3  502    0  0.40946264278E+03  0.11219216960E+03 -0.36271424844E+02  0.42610323622E+03  0.12699999809E+01 0.  1.
       -4    1    3    3    0  502 -0.40946264278E+03 -0.11219216960E+03 -0.36934782087E+03  0.56273098763E+03  0.12699999809E+01 0. -1.
</event>
<event>
 5   0  0.6724773E-03  0.8945344E+03  0.7818609E-02  0.9432440E-01
        2   -1    0    0  501    0  0.00000000000E+00  0.00000000000E+00  0.62727636526E+03  0.62727636527E+03  0.25500000920E-02 0.  1.
       -2   -1    0    0    0  501  0.00000000000E+00  0.00000000000E+00 -0.31891517860E+03  0.31891517861E+03  0.25500000920E-02 0. -1.
    10030    2    1    2    0    0  0.00000000000E+00  0.00000000000E+00  0.30836118666E+03  0.94619154388E+03  0.89453441312E+03 0.  0.
        5    1    3    3  502    0 -0.28635164598E+03  0.14602247810E+03  0.48311461730E+03  0.58029445345E+03  0.46999998093E+01 0.  1.
       -5    1    3    3    0  502  0.28635164598E+03 -0.14602247810E+03 -0.17475343064E+03  0.36589709042E+03  0.46999998093E+01 0. -1.
</event>
<event>
 5   0  0.6524705E-03  0.9015884E+03  0.7818609E-02  0.9423598E-01
       -2   -1    0    0    0  501  0.00000000000E+00  0.00000000000E+00  0.19835666139E+03  0.19835666141E+03  0.25500000920E-02 0. -1.
        2   -1    0    0  501    0  0.00000000000E+00  0.00000000000E+00 -0.10244950442E+04  0.10244950442E+04  0.25500000920E-02 0.  1.
    10030    2    1    2    0    0  0.00000000000E+00  0.00000000000E+00 -0.82613838282E+03  0.12228517056E+04  0.90158841295E+03 0.  0.
        3    1    3    3  502    0  0.13836772004E+03 -0.35375369192E+03 -0.74231989600E+03  0.83386218207E+03  0.10100000352E+00 0.  1.
       -3    1    3    3    0  502 -0.13836772004E+03  0.35375369192E+03 -0.83818486819E+02  0.38898952354E+03  0.10100000352E+00 0. -1.
</event>
<event>
 5   0  0.6534628E-03  0.9061963E+03  0.7818609E-02  0.9417869E-01
        2   -1    0    0  501    0  0.00000000000E+00  0.00000000000E+00  0.13826392933E+04  0.13826392933E+04  0.25500000920E-02 0.  1.
       -2   -1    0    0    0  501  0.00000000000E+00  0.00000000000E+00 -0.14848265320E+03  0.14848265322E+03  0.25500000920E-02 0. -1.
    10030    2    1    2    0    0  0.00000000000E+00  0.00000000000E+00  0.12341566401E+04  0.15311219466E+04  0.90619633790E+03 0.  0.
        4    1    3    3  502    0 -0.12118073148E+03  0.28115795440E+03  0.52732669552E+02  0.31067171153E+03  0.12699999809E+01 0. -1.
       -4    1    3    3    0  502  0.12118073148E+03 -0.28115795440E+03  0.11814239706E+04  0.12204502350E+04  0.12699999809E+01 0.  1.
</event>
<event>
 5   0  0.3927993E-03  0.8931763E+03  0.7818609E-02  0.9434152E-01
       -1   -1    0    0    0  501  0.00000000000E+00  0.00000000000E+00  0.29908324760E+03  0.29908324764E+03  0.50400001928E-02 0.  1.
        1   -1    0    0  501    0  0.00000000000E+00  0.00000000000E+00 -0.66684108371E+03  0.66684108373E+03  0.50400001928E-02 0. -1.
    10030    2    1    2    0    0  0.00000000000E+00  0.00000000000E+00 -0.36775783611E+03  0.96592433138E+03  0.89317634761E+03 0.  0.
        2    1    3    3  502    0  0.11415133093E+03 -0.40562669105E+03 -0.34383631305E+03  0.54386298736E+03  0.25500000920E-02 0. -1.
       -2    1    3    3    0  502 -0.11415133093E+03  0.40562669105E+03 -0.23921523066E+02  0.42206134402E+03  0.25500000920E-02 0.  1.
</event>
<event>
 5   0  0.6724773E-03  0.8981304E+03  0.7818609E-02  0.9427922E-01
        2   -1    0    0  501    0  0.00000000000E+00  0.00000000000E+00  0.28007943761E+03  0.28007943762E+03  0.25500000920E-02 0.  1.
       -2   -1    0    0    0  501  0.00000000000E+00  0.00000000000E+00 -0.72000838016E+03  0.72000838017E+03  0.25500000920E-02 0. -1.
    10030    2    1    2    0    0  0.00000000000E+00  0.00000000000E+00 -0.43992894255E+03  0.10000878178E+04  0.89813037406E+03 0.  0.
        5    1    3    3  502    0 -0.42581745296E+03 -0.11721469412E+03 -0.12965472753E+03  0.46031752751E+03  0.46999998093E+01 0.  1.
       -5    1    3    3    0  502  0.42581745296E+03  0.11721469412E+03 -0.31027421502E+03  0.53977029028E+03  0.46999998093E+01 0. -1.
</event>
<event>
 5   0  0.3794006E-03  0.8530298E+03  0.7818609E-02  0.9486279E-01
       -1   -1    0    0    0  501  0.00000000000E+00  0.00000000000E+00  0.29204180370E+03  0.29204180374E+03  0.50400001928E-02 0. -1.
        1   -1    0    0  501    0  0.00000000000E+00  0.00000000000E+00 -0.62290731018E+03  0.62290731020E+03  0.50400001928E-02 0.  1.
    10030    2    1    2    0    0  0.00000000000E+00  0.00000000000E+00 -0.33086550649E+03  0.91494911394E+03  0.85302983402E+03 0.  0.
        5    1    3    3  502    0  0.24985320652E+03 -0.10668440519E+03  0.18719364862E+03  0.32995717783E+03  0.46999998093E+01 0. -1.
       -5    1    3    3    0  502 -0.24985320652E+03  0.10668440519E+03 -0.51805915511E+03  0.58499193611E+03  0.46999998093E+01 0.  1.
</event>
<event>
 5   0  0.6534628E-03  0.8976283E+03  0.7818609E-02  0.9428551E-01
       -2   -1    0    0    0  501  0.00000000000E+00  0.00000000000E+00  0.25020841764E+03  0.25020841765E+03  0.25500000920E-02 0.  1.
        2   -1    0    0  501    0  0.00000000000E+00  0.00000000000E+00 -0.80506546608E+03  0.80506546608E+03  0.25500000920E-02 0. -1.
    10030    2    1    2    0    0  0.00000000000E+00  0.00000000000E+00 -0.55485704844E+03  0.10552738837E+04  0.89762833371E+03 0.  0.
        4    1    3    3  502    0 -0.55954582105E+01 -0.41049404371E+03 -0.64202919418E+02  0.41552412305E+03  0.12699999809E+01 0. -1.
       -4    1    3    3    0  502  0.55954582105E+01  0.41049404371E+03 -0.49065412902E+03  0.63974976069E+03  0.12699999809E+01 0.  1.
</event>
<event>
 5   0  0.3969536E-03  0.8821419E+03  0.7818609E-02  0.9448184E-01
       -1   -1    0    0    0  501  0.00000000000E+00  0.00000000000E+00  0.16709729936E+03  0.16709729943E+03  0.50400001928E-02 0. -1.
        1   -1    0    0  501    0  0.00000000000E+00  0.00000000000E+00 -0.11642531921E+04  0.11642531921E+04  0.50400001928E-02 0.  1.
    10030    2    1    2    0    0  0.00000000000E+00  0.00000000000E+00 -0.99715589272E+03  0.13313504915E+04  0.88214185758E+03 0.  0.
        1    1    3    3  502    0  0.42093992984E+03 -0.73439181072E+02 -0.33352761136E+03  0.54205572169E+03  0.50400001928E-02 0. -1.
       -1    1    3    3    0  502 -0.42093992984E+03  0.73439181072E+02 -0.66362828136E+03  0.78929476983E+03  0.50400001928E-02 0.  1.
</event>
<event>
 5   0  0.6724773E-03  0.8956265E+03  0.7818609E-02  0.9431065E-01
       -2   -1    0    0    0  501  0.00000000000E+00  0.00000000000E+00  0.48474192633E+03  0.48474192634E+03  0.25500000920E-02 0. -1.
        2   -1    0    0  501    0  0.00000000000E+00  0.00000000000E+00 -0.41369785003E+03  0.41369785004E+03  0.25500000920E-02 0.  1.
    10030    2    1    2    0    0  0.00000000000E+00  0.00000000000E+00  0.71044076301E+02  0.89843977638E+03  0.89562646846E+03 0.  0.
        5    1    3    3  502    0  0.32561295902E+03  0.19428382805E+03  0.27448154452E+03  0.46811559812E+03  0.46999998093E+01 0. -1.
       -5    1    3    3    0  502 -0.32561295902E+03 -0.19428382805E+03 -0.20343746822E+03  0.43032417826E+03  0.46999998093E+01 0.  1.
</event>
<event>
 5   0  0.3794006E-03  0.9048016E+03  0.7818609E-02  0.9419599E-01
       -1   -1    0    0    0  501  0.00000000000E+00  0.00000000000E+00  0.49633648592E+03  0.49633648595E+03  0.50400001928E-02 0. -1.
        1   -1    0    0  501    0  0.00000000000E+00  0.00000000000E+00 -0.41235429566E+03  0.41235429569E+03  0.50400001928E-02 0.  1.
    10030    2    1    2    0    0  0.00000000000E+00  0.00000000000E+00  0.83982190258E+02  0.90869078164E+03  0.90480159613E+03 0.  0.
        5    1    3    3  502    0  0.27739097865E+03  0.35396807759E+03  0.91245118412E+02  0.45889750122E+03  0.46999998093E+01 0. -1.
       -5    1    3    3    0  502 -0.27739097865E+03 -0.35396807759E+03 -0.72629281546E+01  0.44979328042E+03  0.46999998093E+01 0.  1.
</event>
<event>
 5   0  0.3794006E-03  0.8942242E+03  0.7818609E-02  0.9432830E-01
        1   -1    0    0  501    0  0.00000000000E+00  0.00000000000E+00  0.57167574602E+03  0.57167574604E+03  0.50400001928E-02 0.  1.
       -1   -1    0    0    0  501  0.00000000000E+00  0.00000000000E+00 -0.34968991880E+03  0.34968991884E+03  0.50400001928E-02 0. -1.
    10030    2    1    2    0    0  0.00000000000E+00  0.00000000000E+00  0.22198582722E+03  0.92136566488E+03  0.89422423415E+03 0.  0.
        5    1    3    3  502    0 -0.72912261801E+01 -0.30582530220E+03  0.44693327487E+03  0.54162138033E+03  0.46999998093E+01 0.  1.
       -5    1    3    3    0  502  0.72912261801E+01  0.30582530220E+03 -0.22494744766E+03  0.37974428455E+03  0.46999998093E+01 0. -1.
</event>
<event>
 5   0  0.6724773E-03  0.8997561E+03  0.7818609E-02  0.9425886E-01
        2   -1    0    0  501    0  0.00000000000E+00  0.00000000000E+00  0.12371952858E+04  0.12371952858E+04  0.25500000920E-02 0. -1.
       -2   -1    0    0    0  501  0.00000000000E+00  0.00000000000E+00 -0.16358795946E+03  0.16358795948E+03  0.25500000920E-02 0.  1.
    10030    2    1    2    0    0  0.00000000000E+00  0.00000000000E+00  0.10736073263E+04  0.14007832453E+04  0.89975608310E+03 0.  0.
        5    1    3    3  502    0  0.41755022694E+03  0.16139274346E+03  0.46766222209E+03  0.64739929999E+03  0.46999998093E+01 0.  1.
       -5    1    3    3    0  502 -0.41755022694E+03 -0.16139274346E+03  0.60594510424E+03  0.75338394528E+03  0.46999998093E+01 0. -1.
</event>
<event>
 5   0  0.3998066E-03  0.8909390E+03  0.7818609E-02  0.9436979E-01
       -1   -1    0    0    0  501  0.00000000000E+00  0.00000000000E+00  0.53582832769E+03  0.53582832771E+03  0.50400001928E-02 0. -1.
        1   -1    0    0  501    0  0.00000000000E+00  0.00000000000E+00 -0.37034825449E+03  0.37034825453E+03  0.50400001928E-02 0.  1.
    10030    2    1    2    0    0  0.00000000000E+00  0.00000000000E+00  0.16548007319E+03  0.90617658224E+03  0.89093902349E+03 0.  0.
        4    1    3    3  502    0 -0.37978603085E+03  0.18152862978E+03 -0.65531787164E+02  0.42601185510E+03  0.12699999809E+01 0.  1.
       -4    1    3    3    0  502  0.37978603085E+03 -0.18152862978E+03  0.23101186036E+03  0.48016472714E+03  0.12699999809E+01 0. -1.
</event>
<event>
 5   0  0.3998066E-03  0.8941488E+03  0.7818609E-02  0.9432925E-01
       -1   -1    0    0    0  501  0.00000000000E+00  0.00000000000E+00  0.18445810122E+03  0.18445810129E+03  0.50400001928E-02 0.  1.
        1   -1    0    0  501    0  0.00000000000E+00  0.00000000000E+00 -0.10835821545E+04  0.10835821545E+04  0.50400001928E-02 0. -1.
    10030    2    1    2    0    0  0.00000000000E+00  0.00000000000E+00 -0.89912405329E+03  0.12680402558E+04  0.89414877238E+03 0.  0.
        4    1    3    3  502    0 -0.25927121996E+03 -0.93490978209E+02 -0.94876771877E+03  0.98798984083E+03  0.12699999809E+01 0. -1.
       -4    1    3    3    0  502  0.25927121996E+03  0.93490978209E+02  0.49643665479E+02  0.28005041498E+03  0.12699999809E+01 0.  1.
</event>
<event>
 5   0  0.3794006E-03  0.8952036E+03  0.7818609E-02  0.9431597E-01
       -1   -1    0    0    0  501  0.00000000000E+00  0.00000000000E+00  0.39679892240E+03  0.39679892243E+03  0.50400001928E-02 0.  1.
        1   -1    0    0  501    0  0.00000000000E+00  0.00000000000E+00 -0.50490905420E+03  0.50490905423E+03  0.50400001928E-02 0. -1.
    10030    2    1    2    0    0  0.00000000000E+00  0.00000000000E+00 -0.10811013181E+03  0.90170797666E+03  0.89520359392E+03 0.  0.
        5    1    3    3  502    0  0.27011618666E+02  0.29695796283E+03 -0.39026406824E+03  0.49116371221E+03  0.46999998093E+01 0. -1.
       -5    1    3    3    0  502 -0.27011618666E+02 -0.29695796283E+03  0.28215393643E+03  0.41054426445E+03  0.46999998093E+01 0.  1.
</event>
<event>
 5   0  0.3998066E-03  0.8980067E+03  0.7818609E-02  0.9428077E-01
        1   -1    0    0  501    0  0.00000000000E+00  0.00000000000E+00  0.25011329035E+03  0.25011329040E+03  0.50400001928E-02 0. -1.
       -1   -1    0    0    0  501  0.00000000000E+00  0.00000000000E+00 -0.80605081710E+03  0.80605081711E+03  0.50400001928E-02 0.  1.
    10030    2    1    2    0    0  0.00000000000E+00  0.00000000000E+00 -0.55593752675E+03  0.10561641075E+04  0.89800673068E+03 0.  0.
        4    1    3    3  502    0 -0.58140928673E+02 -0.82451431552E+02  0.23660753997E+03  0.25722236882E+03  0.12699999809E+01 0. -1.
       -4    1    3    3    0  502  0.58140928673E+02  0.82451431552E+02 -0.79254506672E+03  0.79894173869E+03  0.12699999809E+01 0.  1.
</event>
<event>
 5   0  0.3998066E-03  0.8981750E+03  0.7818609E-02  0.9427866E-01
        1   -1    0    0  501    0  0.00000000000E+00  0.00000000000E+00  0.91486268584E+03  0.91486268585E+03  0.50400001928E-02 0.  1.
       -1   -1    0    0    0  501  0.00000000000E+00  0.00000000000E+00 -0.22044792210E+03  0.22044792216E+03  0.50400001928E-02 0. -1.
    10030    2    1    2    0    0  0.00000000000E+00  0.00000000000E+00  0.69441476374E+03  0.11353106080E+04  0.89817498994E+03 0.  0.
        4    1    3    3  502    0  0.13329168544E+03 -0.42779299648E+03  0.30919329379E+03  0.54440391904E+03  0.12699999809E+01 0. -1.
       -4    1    3    3    0  502 -0.13329168544E+03  0.42779299648E+03  0.38522146996E+03  0.59090668896E+03  0.12699999809E+01 0.  1.
</event>
<event>
 5   0  0.3998066E-03  0.9010186E+03  0.7818609E-02  0.9424309E-01
        1   -1    0    0  501    0  0.00000000000E+00  0.00000000000E+00  0.15277584454E+04  0.15277584454E+04  0.50400001928E-02 0.  1.
       -1   -1    0    0    0  501  0.00000000000E+00  0.00000000000E+00 -0.13284732680E+03  0.13284732690E+03  0.50400001928E-02 0. -1.
    10030    2    1    2    0    0  0.00000000000E+00  0.00000000000E+00  0.13949111186E+04  0.16606057723E+04  0.90101859150E+03 0.  0.
        4    1    3    3  502    0  0.43286978027E+03  0.11961576017E+03  0.63170204039E+03  0.77506984039E+03  0.12699999809E+01 0.  1.
       -4    1    3    3    0  502 -0.43286978027E+03 -0.11961576017E+03  0.76320907822E+03  0.88553593192E+03  0.12699999809E+01 0. -1.
</event>
<event>
 5   0  0.3969536E-03  0.8920887E+03  0.7818609E-02  0.9435525E-01
        1   -1    0    0  501    0  0.00000000000E+00  0.00000000000E+00  0.13301082150E+03  0.13301082160E+03  0.50400001928E-02 0.  1.
       -1   -1    0    0    0  501  0.00000000000E+00  0.00000000000E+00 -0.14957847612E+04  0.14957847612E+04  0.50400001928E-02 0. -1.
    10030    2    1    2    0    0  0.00000000000E+00  0.00000000000E+00 -0.13627739397E+04  0.16287955828E+04  0.89208869506E+03 0.  0.
        1    1    3    3  502    0 -0.78208453537E+02 -0.43913437198E+03 -0.68144689591E+03  0.81444793009E+03  0.50400001928E-02 0.  1.
       -1    1    3    3    0  502  0.78208453537E+02  0.43913437198E+03 -0.68132704377E+03  0.81434765270E+03  0.50400001928E-02 0. -1.
</event>
<event>
 5   0  0.6609191E-03  0.8905872E+03  0.7818609E-02  0.9437425E-01
       -2   -1    0    0    0  501  0.00000000000E+00  0.00000000000E+00  0.63207868029E+03  0.63207868030E+03  0.25500000920E-02 0. -1.
        2   -1    0    0  501    0  0.00000000000E+00  0.00000000000E+00 -0.31370525529E+03  0.31370525530E+03  0.25500000920E-02 0.  1.
    10030    2    1    2    0    0  0.00000000000E+00  0.00000000000E+00  0.31837342501E+03  0.94578393559E+03  0.89058723047E+03 0.  0.
        2    1    3    3  502    0  0.22257840397E+03 -0.28201853561E+03  0.43857128103E+03  0.56693947551E+03  0.25500000920E-02 0. -1.
       -2    1    3    3    0  502 -0.22257840397E+03  0.28201853561E+03 -0.12019785602E+03  0.37884446009E+03  0.25500000920E-02 0.  1.
</event>
<event>
 5   0  0.3969536E-03  0.8999538E+03  0.7818609E-02  0.9425639E-01
       -1   -1    0    0    0  501  0.00000000000E+00  0.00000000000E+00  0.42983352967E+03  0.42983352970E+03  0.50400001928E-02 0. -1.
        1   -1    0    0  501    0  0.00000000000E+00  0.00000000000E+00 -0.47106422294E+03  0.47106422297E+03  0.50400001928E-02 0.  1.
    10030    2    1    2    0    0  0.00000000000E+00  0.00000000000E+00 -0.41230693271E+02  0.90089775267E+03  0.89995377142E+03 0.  0.
        1    1    3    3  502    0 -0.28386343708E+03 -0.28936281983E+03  0.17496078109E+03  0.44149809440E+03  0.50400001928E-02 0.  1.
       -1    1    3    3    0  502  0.28386343708E+03  0.28936281983E+03 -0.21619147436E+03  0.45939965827E+03  0.50400001928E-02 0. -1.
</event>
<event>
 5   0  0.3998066E-03  0.9065117E+03  0.7818609E-02  0.9417478E-01
       -1   -1    0    0    0  501  0.00000000000E+00  0.00000000000E+00  0.11679991227E+03  0.11679991238E+03  0.50400001928E-02 0. -1.
        1   -1    0    0  501    0  0.00000000000E+00  0.00000000000E+00 -0.17589130135E+04  0.17589130135E+04  0.50400001928E-02 0.  1.
    10030    2    1    2    0    0  0.00000000000E+00  0.00000000000E+00 -0.16421131013E+04  0.18757129259E+04  0.90651174460E+03 0.  0.
        4    1    3    3  502    0 -0.13385877663E+03  0.14480143422E+03  0.23385802918E+02  0.19858030141E+03  0.12699999809E+01 0. -1.
       -4    1    3    3    0  502  0.13385877663E+03 -0.14480143422E+03 -0.16654989042E+04  0.16771326245E+04  0.12699999809E+01 0.  1.
</event>
<event>
 5   0  0.6724773E-03  0.8966837E+03  0.7818609E-02  0.9429737E-01
        2   -1    0    0  501    0  0.00000000000E+00  0.00000000000E+00  0.15015385667E+04  0.15015385667E+04  0.25500000920E-02 0.  1.
       -2   -1    0    0    0  501  0.00000000000E+00  0.00000000000E+00 -0.13386961986E+03  0.13386961988E+03  0.25500000920E-02 0. -1.
    10030    2    1    2    0    0  0.00000000000E+00  0.00000000000E+00  0.13676689469E+04  0.16354081866E+04  0.89668366139E+03 0.  0.
        5    1    3    3  502    0 -0.38433643069E+03 -0.17614412138E+03  0.41180042789E+03  0.59020583346E+03  0.46999998093E+01 0. -1.
       -5    1    3    3    0  502  0.38433643069E+03  0.17614412138E+03  0.95586851899E+03  0.10452023532E+04  0.46999998093E+01 0.  1.
</event>
<event>
 5   0  0.2560250E-03  0.8902106E+03  0.7818609E-02  0.9437902E-01
       -4   -1    0    0    0  501  0.00000000000E+00  0.00000000000E+00  0.34626869983E+03  0.34627102879E+03  0.12699999809E+01 0.  1.
        4   -1    0    0  501    0  0.00000000000E+00  0.00000000000E+00 -0.57214823406E+03  0.57214964357E+03  0.12699999809E+01 0. -1.
    10030    2    1    2    0    0  0.00000000000E+00  0.00000000000E+00 -0.22587953424E+03  0.91842067236E+03  0.89021063094E+03 0.  0.
        1    1    3    3  502    0  0.12954762204E+03 -0.40222098475E+02  0.32442628579E+03  0.35164302711E+03  0.50400001928E-02 0.  1.
       -1    1    3    3    0  502 -0.12954762204E+03  0.40222098475E+02 -0.55030582002E+03  0.56677764525E+03  0.50400001928E-02 0. -1.
</event>
<event>
 5   0  0.3943549E-03  0.9051638E+03  0.7818609E-02  0.9419149E-01
       -1   -1    0    0    0  501  0.00000000000E+00  0.00000000000E+00  0.11694690056E+03  0.11694690067E+03  0.50400001928E-02 0. -1.
        1   -1    0    0  501    0  0.00000000000E+00  0.00000000000E+00 -0.17514819897E+04  0.17514819897E+04  0.50400001928E-02 0.  1.
    10030    2    1    2    0    0  0.00000000000E+00  0.00000000000E+00 -0.16345350891E+04  0.18684288904E+04  0.90516383091E+03 0.  0.
        3    1    3    3  502    0  0.12040073605E+03  0.43309449996E+03 -0.92577392982E+03  0.10291377762E+04  0.10100000352E+00 0.  1.
       -3    1    3    3    0  502 -0.12040073605E+03 -0.43309449996E+03 -0.70876115931E+03  0.83929111415E+03  0.10100000352E+00 0. -1.
</event>
<event>
 5   0  0.3998066E-03  0.8900818E+03  0.7818609E-02  0.9438065E-01
       -1   -1    0    0    0  501  0.00000000000E+00  0.00000000000E+00  0.71275902624E+02  0.71275902803E+02  0.50400001928E-02 0.  1.
        1   -1    0    0  501    0  0.00000000000E+00  0.00000000000E+00 -0.27787988700E+04  0.27787988700E+04  0.50400001928E-02 0. -1.
    10030    2    1    2    0    0  0.00000000000E+00  0.00000000000E+00 -0.27075229674E+04  0.28500747728E+04  0.89008178935E+03 0.  0.
        4    1    3    3  502    0  0.36399739249E+03  0.13943643001E+02 -0.53507096648E+03  0.64729520236E+03  0.12699999809E+01 0.  1.
       -4    1    3    3    0  502 -0.36399739249E+03 -0.13943643001E+02 -0.21724520009E+04  0.22027795705E+04  0.12699999809E+01 0. -1.
</event>
<event>
 5   0  0.3998066E-03  0.9019125E+03  0.7818609E-02  0.9423194E-01
        1   -1    0    0  501    0  0.00000000000E+00  0.00000000000E+00  0.55130565585E+03  0.55130565587E+03  0.50400001928E-02 0.  1.
       -1   -1    0    0    0  501  0.00000000000E+00  0.00000000000E+00 -0.36887258678E+03  0.36887258682E+03  0.50400001928E-02 0. -1.
    10030    2    1    2    0    0  0.00000000000E+00  0.00000000000E+00  0.18243306906E+03  0.92017824269E+03  0.90191250886E+03 0.  0.
        4    1    3    3  502    0 -0.98614229538E+01  0.76851985578E+02 -0.36202867013E+03  0.37022945081E+03  0.12699999809E+01 0. -1.
       -4    1    3    3    0  502  0.98614229538E+01 -0.76851985578E+02  0.54446173919E+03  0.54994879188E+03  0.12699999809E+01 0.  1.
</event>
<event>
 5   0  0.6534628E-03  0.8972151E+03  0.7818609E-02  0.9429069E-01
       -2   -1    0    0    0  501  0.00000000000E+00  0.00000000000E+00  0.53843832427E+03  0.53843832427E+03  0.25500000920E-02 0.  1.
        2   -1    0    0  501    0  0.00000000000E+00  0.00000000000E+00 -0.37376380306E+03  0.37376380307E+03  0.25500000920E-02 0. -1.
    10030    2    1    2    0    0  0.00000000000E+00  0.00000000000E+00  0.16467452120E+03  0.91220212735E+03  0.89721514878E+03 0.  0.
        4    1    3    3  502    0 -0.13482432145E+03  0.26753136995E+02  0.51649936108E+03  0.53447781141E+03  0.12699999809E+01 0.  1.
       -4    1    3    3    0  502  0.13482432145E+03 -0.26753136995E+02 -0.35182483988E+03  0.37772431594E+03  0.12699999809E+01 0. -1.
</event>
<event>
 5   0  0.2560250E-03  0.9028094E+03  0.7818609E-02  0.9422076E-01
        3   -1    0    0  501    0  0.00000000000E+00  0.00000000000E+00  0.64539929804E+03  0.64539930594E+03  0.10100000352E+00 0.  1.
       -3   -1    0    0    0  501  0.00000000000E+00  0.00000000000E+00 -0.31572109762E+03  0.31572111378E+03  0.10100000352E+00 0. -1.
    10030    2    1    2    0    0  0.00000000000E+00  0.00000000000E+00  0.32967820041E+03  0.96112041972E+03  0.90280936270E+03 0.  0.
        4    1    3    3  502    0 -0.33855113161E+03 -0.27252124071E+03  0.29470090565E+03  0.52510468675E+03  0.12699999809E+01 0.  1.
       -4    1    3    3    0  502  0.33855113161E+03  0.27252124071E+03  0.34977294764E+02  0.43601573297E+03  0.12699999809E+01 0. -1.
</event>
<event>
 5   0  0.3943549E-03  0.9502089E+03  0.7818609E-02  0.9364906E-01
        1   -1    0    0  501    0  0.00000000000E+00  0.00000000000E+00  0.15469286805E+04  0.15469286805E+04  0.50400001928E-02 0.  1.
       -1   -1    0    0    0  501  0.00000000000E+00  0.00000000000E+00 -0.14591767152E+03  0.14591767161E+03  0.50400001928E-02 0. -1.
    10030    2    1    2    0    0  0.00000000000E+00  0.00000000000E+00  0.14010110089E+04  0.16928463521E+04  0.95020888471E+03 0.  0.
        3    1    3    3  502    0  0.35239560370E+03  0.13041691876E+03  0.18252720912E+03  0.41774086044E+03  0.10100000352E+00 0. -1.
       -3    1    3    3    0  502 -0.35239560370E+03 -0.13041691876E+03  0.12184837998E+04  0.12751054916E+04  0.10100000352E+00 0.  1.
</event>
<event>
 5   0  0.6609191E-03  0.8977023E+03  0.7818609E-02  0.9428458E-01
       -2   -1    0    0    0  501  0.00000000000E+00  0.00000000000E+00  0.21675314066E+03  0.21675314068E+03  0.25500000920E-02 0.  1.
        2   -1    0    0  501    0  0.00000000000E+00  0.00000000000E+00 -0.92947827335E+03  0.92947827336E+03  0.25500000920E-02 0. -1.
    10030    2    1    2    0    0  0.00000000000E+00  0.00000000000E+00 -0.71272513269E+03  0.11462314140E+04  0.89770225562E+03 0.  0.
        2    1    3    3  502    0 -0.65228988677E+02 -0.43380666520E+03 -0.47765858347E+03  0.64853740532E+03  0.25500000920E-02 0.  1.
       -2    1    3    3    0  502  0.65228988677E+02  0.43380666520E+03 -0.23506654922E+03  0.49769400871E+03  0.25500000920E-02 0. -1.
</event>
<event>
 5   0  0.6724773E-03  0.8971109E+03  0.7818609E-02  0.9429200E-01
        2   -1    0    0  501    0  0.00000000000E+00  0.00000000000E+00  0.61240507531E+03  0.61240507531E+03  0.25500000920E-02 0.  1.
       -2   -1    0    0    0  501  0.00000000000E+00  0.00000000000E+00 -0.32854396562E+03  0.32854396563E+03  0.25500000920E-02 0. -1.
    10030    2    1    2    0    0  0.00000000000E+00  0.00000000000E+00  0.28386110968E+03  0.94094904095E+03  0.89711090065E+03 0.  0.
        5    1    3    3  502    0 -0.31941159440E+02  0.34315826515E+03  0.44301549236E+03  0.56130441747E+03  0.46999998093E+01 0.  1.
       -5    1    3    3    0  502  0.31941159440E+02 -0.34315826515E+03 -0.15915438267E+03  0.37964462347E+03  0.46999998093E+01 0. -1.
</event>
<event>
 5   0  0.6524705E-03  0.8886920E+03  0.7818609E-02  0.9439828E-01
        2   -1    0    0  501    0  0.00000000000E+00  0.00000000000E+00  0.16213449703E+04  0.16213449703E+04  0.25500000920E-02 0. -1.
       -2   -1    0    0    0  501  0.00000000000E+00  0.00000000000E+00 -0.12177752789E+03  0.12177752791E+03  0.25500000920E-02 0.  1.
    10030    2    1    2    0    0  0.00000000000E+00  0.00000000000E+00  0.14995674424E+04  0.17431224982E+04  0.88869203296E+03 0.  0.
        3    1    3    3  502    0 -0.39458231190E+03 -0.70749080398E+02  0.37380576311E+03  0.54811622123E+03  0.10100000352E+00 0.  1.
       -3    1    3    3    0  502  0.39458231190E+03  0.70749080398E+02  0.11257616793E+04  0.11950062770E+04  0.10100000352E+00 0. -1.
</event>
<event>
 5   0  0.3927993E-03  0.9061132E+03  0.7818609E-02  0.9417972E-01
        1   -1    0    0  501    0  0.00000000000E+00  0.00000000000E+00  0.74810596414E+03  0.74810596416E+03  0.50400001928E-02 0.  1.
       -1   -1    0    0    0  501  0.00000000000E+00  0.00000000000E+00 -0.27437329837E+03  0.27437329842E+03  0.50400001928E-02 0. -1.
    10030    2    1    2    0    0  0.00000000000E+00  0.00000000000E+00  0.47373266577E+03  0.10224792626E+04  0.90611324004E+03 0.  0.
        2    1    3    3  502    0  0.15829744932E+03 -0.24101647749E+03 -0.15745790590E+03  0.32854226063E+03  0.25500000920E-02 0. -1.
       -2    1    3    3    0  502 -0.15829744932E+03  0.24101647749E+03  0.63119057168E+03  0.69393700194E+03  0.25500000920E-02 0.  1.
</event>
<event>
 5   0  0.6524705E-03  0.8982284E+03  0.7818609E-02  0.9427799E-01
       -2   -1    0    0    0  501  0.00000000000E+00  0.00000000000E+00  0.21437292071E+03  0.21437292072E+03  0.25500000920E-02 0. -1.
        2   -1    0    0  501    0  0.00000000000E+00  0.00000000000E+00 -0.94090041463E+03  0.94090041464E+03  0.25500000920E-02 0.  1.
    10030    2    1    2    0    0  0.00000000000E+00  0.00000000000E+00 -0.72652749392E+03  0.11552733354E+04  0.89822841191E+03 0.  0.
        3    1    3    3  502    0 -0.34348663696E+02  0.20319427052E+03  0.14997370761E+03  0.25487225319E+03  0.10100000352E+00 0. -1.
       -3    1    3    3    0  502  0.34348663696E+02 -0.20319427052E+03 -0.87650120154E+03  0.90040108217E+03  0.10100000352E+00 0.  1.
</event>
<event>
 5   0  0.3794006E-03  0.8998052E+03  0.7818609E-02  0.9425825E-01
       -1   -1    0    0    0  501  0.00000000000E+00  0.00000000000E+00  0.37976999939E+03  0.37976999942E+03  0.50400001928E-02 0.  1.
        1   -1    0    0  501    0  0.00000000000E+00  0.00000000000E+00 -0.53298667805E+03  0.53298667807E+03  0.50400001928E-02 0. -1.
    10030    2    1    2    0    0  0.00000000000E+00  0.00000000000E+00 -0.15321667866E+03  0.91275667750E+03  0.89980520208E+03 0.  0.
        5    1    3    3  502    0 -0.11516845094E+03  0.27726993411E+03  0.26324815815E+03  0.39932952711E+03  0.46999998093E+01 0.  1.
       -5    1    3    3    0  502  0.11516845094E+03 -0.27726993411E+03 -0.41646483681E+03  0.51342715038E+03  0.46999998093E+01 0. -1.
</event>
<event>
 5   0  0.3943549E-03  0.9002741E+03  0.7818609E-02  0.9425239E-01
       -1   -1    0    0    0  501  0.00000000000E+00  0.00000000000E+00  0.49286748719E+03  0.49286748722E+03  0.50400001928E-02 0. -1.
        1   -1    0    0  501    0  0.00000000000E+00  0.00000000000E+00 -0.41111122124E+03  0.41111122127E+03  0.50400001928E-02 0.  1.
    10030    2    1    2    0    0  0.00000000000E+00  0.00000000000E+00  0.81756265952E+02  0.90397870849E+03  0.90027407959E+03 0.  0.
        3    1    3    3  502    0  0.35564711455E+03 -0.60648040139E+02  0.31117031724E+03  0.47643470843E+03  0.10100000352E+00 0. -1.
       -3    1    3    3    0  502 -0.35564711455E+03  0.60648040139E+02 -0.22941405129E+03  0.42754400006E+03  0.10100000352E+00 0.  1.
</event>
<event>
 5   0  0.3998066E-03  0.8871503E+03  0.7818609E-02  0.9441788E-01
        1   -1    0    0  501    0  0.00000000000E+00  0.00000000000E+00  0.17154797940E+04  0.17154797940E+04  0.50400001928E-02 0. -1.
       -1   -1    0    0    0  501  0.00000000000E+00  0.00000000000E+00 -0.11469614736E+03  0.11469614747E+03  0.50400001928E-02 0.  1.
    10030    2    1    2    0    0  0.00000000000E+00  0.00000000000E+00  0.16007836466E+04  0.18301759415E+04  0.88715032175E+03 0.  0.
        4    1    3    3  502    0  0.24754890970E+03  0.15326857625E+03  0.14907535421E+04  0.15189204902E+04  0.12699999809E+01 0. -1.
       -4    1    3    3    0  502 -0.24754890970E+03 -0.15326857625E+03  0.11003010448E+03  0.31125545128E+03  0.12699999809E+01 0.  1.
</event>
<event>
 5   0  0.6534628E-03  0.9194017E+03  0.7818609E-02  0.9401648E-01
        2   -1    0    0  501    0  0.00000000000E+00  0.00000000000E+00  0.98551598376E+03  0.98551598376E+03  0.25500000920E-02 0.  1.
       -2   -1    0    0    0  501  0.00000000000E+00  0.00000000000E+00 -0.21443070435E+03  0.21443070436E+03  0.25500000920E-02 0. -1.
    10030    2    1    2    0    0  0.00000000000E+00  0.00000000000E+00  0.77108527941E+03  0.11999466881E+04  0.91940173276E+03 0.  0.
        4    1    3    3  502    0 -0.27719407889E+03  0.34386651342E+03  0.21920766789E+03  0.49308655526E+03  0.12699999809E+01 0.  1.
       -4    1    3    3    0  502  0.27719407889E+03 -0.34386651342E+03  0.55187761152E+03  0.70686013286E+03  0.12699999809E+01 0. -1.
</event>
<event>
 5   0  0.3998066E-03  0.9015241E+03  0.7818609E-02  0.9423678E-01
       -1   -1    0    0    0  501  0.00000000000E+00  0.00000000000E+00  0.32836162412E+03  0.32836162416E+03  0.50400001928E-02 0. -1.
        1   -1    0    0  501    0  0.00000000000E+00  0.00000000000E+00 -0.61878863769E+03  0.61878863771E+03  0.50400001928E-02 0.  1.
    10030    2    1    2    0    0  0.00000000000E+00  0.00000000000E+00 -0.29042701357E+03  0.94715026187E+03  0.90152413632E+03 0.  0.
        4    1    3    3  502    0 -0.32596707464E+03  0.73883004406E+02 -0.46296284607E+03  0.57100739209E+03  0.12699999809E+01 0.  1.
       -4    1    3    3    0  502  0.32596707464E+03 -0.73883004406E+02  0.17253583250E+03  0.37614286978E+03  0.12699999809E+01 0. -1.
</event>
<event>
 5   0  0.2560250E-03  0.8950012E+03  0.7818609E-02  0.9431852E-01
       -4   -1    0    0    0  501  0.00000000000E+00  0.00000000000E+00  0.49536343988E+03  0.49536506787E+03  0.12699999809E+01 0.  1.
        4   -1    0    0  501    0  0.00000000000E+00  0.00000000000E+00 -0.40425908519E+03  0.40426108007E+03  0.12699999809E+01 0. -1.
    10030    2    1    2    0    0  0.00000000000E+00  0.00000000000E+00  0.91104354685E+02  0.89962614795E+03  0.89500123052E+03 0.  0.
        4    1    3    3  502    0 -0.41901240945E+03 -0.19085570615E+02 -0.11120088049E+03  0.43393882864E+03  0.12699999809E+01 0. -1.
       -4    1    3    3    0  502  0.41901240945E+03  0.19085570615E+02  0.20230523518E+03  0.46568731930E+03  0.12699999809E+01 0.  1.
</event>
<event>
 5   0  0.3943549E-03  0.8968716E+03  0.7818609E-02  0.9429501E-01
        1   -1    0    0  501    0  0.00000000000E+00  0.00000000000E+00  0.47247434246E+03  0.47247434249E+03  0.50400001928E-02 0.  1.
       -1   -1    0    0    0  501  0.00000000000E+00  0.00000000000E+00 -0.42562029239E+03  0.42562029242E+03  0.50400001928E-02 0. -1.
    10030    2    1    2    0    0  0.00000000000E+00  0.00000000000E+00  0.46854050073E+02  0.89809463490E+03  0.89687160242E+03 0.  0.
        3    1    3    3  502    0  0.12071980528E+03 -0.37310305514E+03 -0.19439085631E+03  0.43768364872E+03  0.10100000352E+00 0. -1.
       -3    1    3    3    0  502 -0.12071980528E+03  0.37310305514E+03  0.24124490638E+03  0.46041098618E+03  0.10100000352E+00 0.  1.
</event>
<event>
 5   0  0.6609191E-03  0.9004201E+03  0.7818609E-02  0.9425056E-01
       -2   -1    0    0    0  501  0.00000000000E+00  0.00000000000E+00  0.53384648403E+03  0.53384648403E+03  0.25500000920E-02 0.  1.
        2   -1    0    0  501    0  0.00000000000E+00  0.00000000000E+00 -0.37967676662E+03  0.37967676663E+03  0.25500000920E-02 0. -1.
    10030    2    1    2    0    0  0.00000000000E+00  0.00000000000E+00  0.15416971741E+03  0.91352325066E+03  0.90042013956E+03 0.  0.
        2    1    3    3  502    0  0.13908903110E+03 -0.41541225876E+03  0.18240302029E+03  0.47453552566E+03  0.25500000920E-02 0. -1.
       -2    1    3    3    0  502 -0.13908903110E+03  0.41541225876E+03 -0.28233302885E+02  0.43898772500E+03  0.25500000920E-02 0.  1.
</event>
<event>
 5   0  0.6534628E-03  0.8559082E+03  0.7818609E-02  0.9482441E-01
       -2   -1    0    0    0  501  0.00000000000E+00  0.00000000000E+00  0.24196340852E+03  0.24196340854E+03  0.25500000920E-02 0. -1.
        2   -1    0    0  501    0  0.00000000000E+00  0.00000000000E+00 -0.75691083981E+03  0.75691083982E+03  0.25500000920E-02 0.  1.
    10030    2    1    2    0    0  0.00000000000E+00  0.00000000000E+00 -0.51494743129E+03  0.99887424835E+03  0.85590823517E+03 0.  0.
        4    1    3    3  502    0 -0.24644566640E+03  0.11362889871E+03 -0.64364766928E+03  0.69852052810E+03  0.12699999809E+01 0.  1.
       -4    1    3    3    0  502  0.24644566640E+03 -0.11362889871E+03  0.12870023799E+03  0.30035372025E+03  0.12699999809E+01 0. -1.
</event>
<event>
 5   0  0.6609191E-03  0.8999501E+03  0.7818609E-02  0.9425644E-01
        2   -1    0    0  501    0  0.00000000000E+00  0.00000000000E+00  0.43346939584E+03  0.43346939585E+03  0.25500000920E-02 0.  1.
       -2   -1    0    0    0  501  0.00000000000E+00  0.00000000000E+00 -0.46710921223E+03  0.46710921223E+03  0.25500000920E-02 0. -1.
    10030    2    1    2    0    0  0.00000000000E+00  0.00000000000E+00 -0.33639816384E+02  0.90057860808E+03  0.89995010533E+03 0.  0.
        2    1    3    3  502    0  0.45263615119E+02 -0.37364070218E+03  0.22997223263E+03  0.44107073919E+03  0.25500000920E-02 0.  1.
       -2    1    3    3    0  502 -0.45263615119E+02  0.37364070218E+03 -0.26361204902E+03  0.45950786889E+03  0.25500000920E-02 0. -1.
</event>
<event>
 5   0  0.3998066E-03  0.8977976E+03  0.7818609E-02  0.9428339E-01
       -1   -1    0    0    0  501  0.00000000000E+00  0.00000000000E+00  0.14435595346E+03  0.14435595355E+03  0.50400001928E-02 0.  1.
        1   -1    0    0  501    0  0.00000000000E+00  0.00000000000E+00 -0.13959254780E+04  0.13959254780E+04  0.50400001928E-02 0. -1.
    10030    2    1    2    0    0  0.00000000000E+00  0.00000000000E+00 -0.12515695245E+04  0.15402814315E+04  0.89779764625E+03 0.  0.
        4    1    3    3  502    0  0.43259987987E+03  0.52730464486E+02 -0.44112307180E+03  0.62009219905E+03  0.12699999809E+01 0.  1.
       -4    1    3    3    0  502 -0.43259987987E+03 -0.52730464486E+02 -0.81044645269E+03  0.92018923246E+03  0.12699999809E+01 0. -1.
</event>
<event>
 5   0  0.6724773E-03  0.8986313E+03  0.7818609E-02  0.9427294E-01
        2   -1    0    0  501    0  0.00000000000E+00  0.00000000000E+00  0.66507091132E+03  0.66507091132E+03  0.25500000920E-02 0. -1.
       -2   -1    0    0    0  501  0.00000000000E+00  0.00000000000E+00 -0.30355340867E+03  0.30355340868E+03  0.25500000920E-02 0.  1.
    10030    2    1    2    0    0  0.00000000000E+00  0.00000000000E+00  0.36151750265E+03  0.96862432000E+03  0.89863127509E+03 0.  0.
        5    1    3    3  502    0 -0.26043762197E+03  0.47107265139E+02  0.57210146276E+03  0.63037213062E+03  0.46999998093E+01 0. -1.
       -5    1    3    3    0  502  0.26043762197E+03 -0.47107265139E+02 -0.21058396011E+03  0.33825218938E+03  0.46999998093E+01 0.  1.
</event>
<event>
 5   0  0.3927993E-03  0.9272625E+03  0.7818609E-02  0.9392129E-01
        1   -1    0    0  501    0  0.00000000000E+00  0.00000000000E+00  0.55644583579E+03  0.55644583581E+03  0.50400001928E-02 0.  1.
       -1   -1    0    0    0  501  0.00000000000E+00  0.00000000000E+00 -0.38629800028E+03  0.38629800031E+03  0.50400001928E-02 0. -1.
    10030    2    1    2    0    0  0.00000000000E+00  0.00000000000E+00  0.17014783551E+03  0.94274383612E+03  0.92726245186E+03 0.  0.
        2    1    3    3  502    0  0.45779722482E+02  0.25268932264E+03 -0.30738414068E+03  0.40054049322E+03  0.25500000920E-02 0. -1.
       -2    1    3    3    0  502 -0.45779722482E+02 -0.25268932264E+03  0.47753197618E+03  0.54220334290E+03  0.25500000920E-02 0.  1.
</event>
<event>
 5   0  0.3969536E-03  0.9012251E+03  0.7818609E-02  0.9424051E-01
       -1   -1    0    0    0  501  0.00000000000E+00  0.00000000000E+00  0.17327813280E+03  0.17327813288E+03  0.50400001928E-02 0.  1.
        1   -1    0    0  501    0  0.00000000000E+00  0.00000000000E+00 -0.11718252578E+04  0.11718252578E+04  0.50400001928E-02 0. -1.
    10030    2    1    2    0    0  0.00000000000E+00  0.00000000000E+00 -0.99854712500E+03  0.13451033907E+04  0.90122514989E+03 0.  0.
        1    1    3    3  502    0 -0.29831089780E+02 -0.23221023398E+03  0.75379028980E+02  0.24595423297E+03  0.50400001928E-02 0.  1.
       -1    1    3    3    0  502  0.29831089780E+02  0.23221023398E+03 -0.10739261540E+04  0.10991491577E+04  0.50400001928E-02 0. -1.
</event>
<event>
 5   0  0.3794006E-03  0.8964160E+03  0.7818609E-02  0.9430073E-01
       -1   -1    0    0    0  501  0.00000000000E+00  0.00000000000E+00  0.54056206926E+03  0.54056206928E+03  0.50400001928E-02 0.  1.
        1   -1    0    0  501    0  0.00000000000E+00  0.00000000000E+00 -0.37163246198E+03  0.37163246201E+03  0.50400001928E-02 0. -1.
    10030    2    1    2    0    0  0.00000000000E+00  0.00000000000E+00  0.16892960728E+03  0.91219453130E+03  0.89641600316E+03 0.  0.
        5    1    3    3  502    0 -0.72318907195E+02 -0.21830201396E+03 -0.30699131507E+03  0.38360337741E+03  0.46999998093E+01 0. -1.
       -5    1    3    3    0  502  0.72318907195E+02  0.21830201396E+03  0.47592092235E+03  0.52859115388E+03  0.46999998093E+01 0.  1.
</event>
<event>
 5   0  0.3998066E-03  0.8945228E+03  0.7818609E-02  0.9432454E-01
        1   -1    0    0  501    0  0.00000000000E+00  0.00000000000E+00  0.34766025846E+03  0.34766025849E+03  0.50400001928E-02 0. -1.
       -1   -1    0    0    0  501  0.00000000000E+00  0.00000000000E+00 -0.57539729953E+03  0.57539729955E+03  0.50400001928E-02 0.  1.
    10030    2    1    2    0    0  0.00000000000E+00  0.00000000000E+00 -0.22773704107E+03  0.92305755804E+03  0.89452283123E+03 0.  0.
        4    1    3    3  502    0  0.41322979777E+02 -0.42292160293E+03  0.30120791229E+02  0.42600369229E+03  0.12699999809E+01 0. -1.
       -4    1    3    3    0  502 -0.41322979777E+02  0.42292160293E+03 -0.25785783230E+03  0.49705386575E+03  0.12699999809E+01 0.  1.
</event>
<event>
 5   0  0.6863405E-03  0.9029436E+03  0.7818609E-02  0.9421909E-01
       -2   -1    0    0    0  501  0.00000000000E+00  0.00000000000E+00  0.21762339462E+03  0.21762339463E+03  0.25500000920E-02 0. -1.
        2   -1    0    0  501    0  0.00000000000E+00  0.00000000000E+00 -0.93660322880E+03  0.93660322880E+03  0.25500000920E-02 0.  1.
    10030    2    1    2    0    0  0.00000000000E+00  0.00000000000E+00 -0.71897983418E+03  0.11542266234E+04  0.90294357315E+03 0.  0.
        1    1    3    3  502    0  0.49519986435E+02  0.41236518783E+03 -0.58574960643E+03  0.71805283834E+03  0.50400001928E-02 0.  1.
       -1    1    3    3    0  502 -0.49519986435E+02 -0.41236518783E+03 -0.13323022775E+03  0.43617378509E+03  0.50400001928E-02 0. -1.
</event>
<event>
 5   0  0.3969536E-03  0.8643539E+03  0.7818609E-02  0.9471272E-01
        1   -1    0    0  501    0  0.00000000000E+00  0.00000000000E+00  0.35093160074E+03  0.35093160078E+03  0.50400001928E-02 0. -1.
       -1   -1    0    0    0  501  0.00000000000E+00  0.00000000000E+00 -0.53223163217E+03  0.53223163219E+03  0.50400001928E-02 0.  1.
    10030    2    1    2    0    0  0.00000000000E+00  0.00000000000E+00 -0.18130003142E+03  0.88316323297E+03  0.86435385964E+03 0.  0.
        1    1    3    3  502    0 -0.14889953117E+03  0.40505305704E+03 -0.66953762282E+02  0.43671713467E+03  0.50400001928E-02 0.  1.
       -1    1    3    3    0  502  0.14889953117E+03 -0.40505305704E+03 -0.11434626914E+03  0.44644609831E+03  0.50400001928E-02 0. -1.
</event>
<event>
 5   0  0.6524705E-03  0.9326871E+03  0.7818609E-02  0.9385619E-01
        2   -1    0    0  501    0  0.00000000000E+00  0.00000000000E+00  0.90406480951E+03  0.90406480951E+03  0.25500000920E-02 0.  1.
       -2   -1    0    0    0  501  0.00000000000E+00  0.00000000000E+00 -0.24055386797E+03  0.24055386798E+03  0.25500000920E-02 0. -1.
    10030    2    1    2    0    0  0.00000000000E+00  0.00000000000E+00  0.66351094154E+03  0.11446186775E+04  0.93268705755E+03 0.  0.
        3    1    3    3  502    0  0.31534847269E+03  0.19174612652E+03  0.68160134427E+03  0.77510750157E+03  0.10100000352E+00 0.  1.
       -3    1    3    3    0  502 -0.31534847269E+03 -0.19174612652E+03 -0.18090402733E+02  0.36951117593E+03  0.10100000352E+00 0. -1.
</event>
<event>
 5   0  0.6863405E-03  0.8962250E+03  0.7818609E-02  0.9430313E-01
        2   -1    0    0  501    0  0.00000000000E+00  0.00000000000E+00  0.18030727449E+04  0.18030727449E+04  0.25500000920E-02 0. -1.
       -2   -1    0    0    0  501  0.00000000000E+00  0.00000000000E+00 -0.11136811707E+03  0.11136811710E+03  0.25500000920E-02 0.  1.
    10030    2    1    2    0    0  0.00000000000E+00  0.00000000000E+00  0.16917046278E+04  0.19144408620E+04  0.89622500871E+03 0.  0.
        1    1    3    3  502    0 -0.44475095199E+03 -0.20627231660E+01  0.96279668182E+03  0.10605588690E+04  0.50400001928E-02 0.  1.
       -1    1    3    3    0  502  0.44475095199E+03  0.20627231660E+01  0.72890794598E+03  0.85388199294E+03  0.50400001928E-02 0. -1.
</event>
<event>
 5   0  0.6863405E-03  0.9004496E+03  0.7818609E-02  0.9425020E-01
       -2   -1    0    0    0  501  0.00000000000E+00  0.00000000000E+00  0.57050493884E+03  0.57050493884E+03  0.25500000920E-02 0.  1.
        2   -1    0    0  501    0  0.00000000000E+00  0.00000000000E+00 -0.35530342886E+03  0.35530342887E+03  0.25500000920E-02 0. -1.
    10030    2    1    2    0    0  0.00000000000E+00  0.00000000000E+00  0.21520150997E+03  0.92580836771E+03  0.90044957873E+03 0.  0.
        1    1    3    3  502    0 -0.20916109340E+03 -0.10377917092E+03  0.50338835703E+03  0.55490388116E+03  0.50400001928E-02 0.  1.
       -1    1    3    3    0  502  0.20916109340E+03  0.10377917092E+03 -0.28818684705E+03  0.37090448656E+03  0.50400001928E-02 0. -1.
</event>
<event>
 5   0  0.6724773E-03  0.9022409E+03  0.7818609E-02  0.9422785E-01
        2   -1    0    0  501    0  0.00000000000E+00  0.00000000000E+00  0.22303404128E+04  0.22303404128E+04  0.25500000920E-02 0. -1.
       -2   -1    0    0    0  501  0.00000000000E+00  0.00000000000E+00 -0.91246005802E+02  0.91246005837E+02  0.25500000920E-02 0.  1.
    10030    2    1    2    0    0  0.00000000000E+00  0.00000000000E+00  0.21390944070E+04  0.23215864186E+04  0.90224088643E+03 0.  0.
        5    1    3    3  502    0 -0.38075397154E+02  0.45114494649E+02 -0.81200387508E+02  0.10050197225E+03  0.46999998093E+01 0.  1.
       -5    1    3    3    0  502  0.38075397154E+02 -0.45114494649E+02  0.22202947945E+04  0.22210844463E+04  0.46999998093E+01 0. -1.
</event>
<event>
 5   0  0.3794006E-03  0.9811303E+03  0.7818609E-02  0.9329486E-01
       -1   -1    0    0    0  501  0.00000000000E+00  0.00000000000E+00  0.17943986712E+03  0.17943986719E+03  0.50400001928E-02 0.  1.
        1   -1    0    0  501    0  0.00000000000E+00  0.00000000000E+00 -0.13411410002E+04  0.13411410003E+04  0.50400001928E-02 0. -1.
    10030    2    1    2    0    0  0.00000000000E+00  0.00000000000E+00 -0.11617011331E+04  0.15205808674E+04  0.98113029295E+03 0.  0.
        5    1    3    3  502    0 -0.43903231352E+02 -0.45880285131E+03 -0.32056971728E+03  0.56143974185E+03  0.46999998093E+01 0.  1.
       -5    1    3    3    0  502  0.43903231352E+02  0.45880285131E+03 -0.84113141584E+03  0.95914112559E+03  0.46999998093E+01 0. -1.
</event>
<event>
 5   0  0.6524705E-03  0.9034194E+03  0.7818609E-02  0.9421317E-01
        2   -1    0    0  501    0  0.00000000000E+00  0.00000000000E+00  0.79847082896E+03  0.79847082896E+03  0.25500000920E-02 0. -1.
       -2   -1    0    0    0  501  0.00000000000E+00  0.00000000000E+00 -0.25554051384E+03  0.25554051385E+03  0.25500000920E-02 0.  1.
    10030    2    1    2    0    0  0.00000000000E+00  0.00000000000E+00  0.54293031512E+03  0.10540113428E+04  0.90341938418E+03 0.  0.
        3    1    3    3  502    0 -0.40228827744E+02  0.33637205987E+02 -0.25197729036E+03  0.25737596094E+03  0.10100000352E+00 0.  1.
       -3    1    3    3    0  502  0.40228827744E+02 -0.33637205987E+02  0.79490760548E+03  0.79663538188E+03  0.10100000352E+00 0. -1.
</event>
<event>
 5   0  0.3927993E-03  0.8985872E+03  0.7818609E-02  0.9427349E-01
        1   -1    0    0  501    0  0.00000000000E+00  0.00000000000E+00  0.31983029363E+03  0.31983029367E+03  0.50400001928E-02 0. -1.
       -1   -1    0    0    0  501  0.00000000000E+00  0.00000000000E+00 -0.63116208593E+03  0.63116208595E+03  0.50400001928E-02 0.  1.
    10030    2    1    2    0    0  0.00000000000E+00  0.00000000000E+00 -0.31133179230E+03  0.95099237962E+03  0.89858723627E+03 0.  0.
        2    1    3    3  502    0  0.97299523265E+02  0.34511760896E+03  0.13084641149E+03  0.38169902364E+03  0.25500000920E-02 0. -1.
       -2    1    3    3    0  502 -0.97299523265E+02 -0.34511760896E+03 -0.44217820379E+03  0.56929335597E+03  0.25500000920E-02 0.  1.
</event>
<event>
 5   0  0.3969536E-03  0.8981558E+03  0.7818609E-02  0.9427890E-01
       -1   -1    0    0    0  501  0.00000000000E+00  0.00000000000E+00  0.20481044474E+03  0.20481044480E+03  0.50400001928E-02 0. -1.
        1   -1    0    0  501    0  0.00000000000E+00  0.00000000000E+00 -0.98467127235E+03  0.98467127236E+03  0.50400001928E-02 0.  1.
    10030    2    1    2    0    0  0.00000000000E+00  0.00000000000E+00 -0.77986082762E+03  0.11894817172E+04  0.89815580219E+03 0.  0.
        1    1    3    3  502    0 -0.35056814844E+03  0.21973150779E+03 -0.15867499485E+03  0.44312268756E+03  0.50400001928E-02 0. -1.
       -1    1    3    3    0  502  0.35056814844E+03 -0.21973150779E+03 -0.62118583276E+03  0.74635902960E+03  0.50400001928E-02 0.  1.
</event>
<event>
 5   0  0.3943549E-03  0.8981448E+03  0.7818609E-02  0.9427903E-01
        1   -1    0    0  501    0  0.00000000000E+00  0.00000000000E+00  0.71705366174E+03  0.71705366176E+03  0.50400001928E-02 0. -1.
       -1   -1    0    0    0  501  0.00000000000E+00  0.00000000000E+00 -0.28124257315E+03  0.28124257320E+03  0.50400001928E-02 0.  1.
    10030    2    1    2    0    0  0.00000000000E+00  0.00000000000E+00  0.43581108859E+03  0.99829623496E+03  0.89814479222E+03 0.  0.
        3    1    3    3  502    0  0.24375610255E+03 -0.10404048742E+03 -0.18504460424E+03  0.32323826554E+03  0.10100000352E+00 0.  1.
       -3    1    3    3    0  502 -0.24375610255E+03  0.10404048742E+03  0.62085569282E+03  0.67505796941E+03  0.10100000352E+00 0. -1.
</event>
<event>
 5   0  0.3943549E-03  0.9007339E+03  0.7818609E-02  0.9424665E-01
        1   -1    0    0  501    0  0.00000000000E+00  0.00000000000E+00  0.27823825612E+03  0.27823825616E+03  0.50400001928E-02 0.  1.
       -1   -1    0    0    0  501  0.00000000000E+00  0.00000000000E+00 -0.72898090399E+03  0.72898090401E+03  0.50400001928E-02 0. -1.
    10030    2    1    2    0    0  0.00000000000E+00  0.00000000000E+00 -0.45074264788E+03  0.10072191602E+04  0.90073386858E+03 0.  0.
        3    1    3    3  502    0 -0.12235801928E+03  0.35243625747E+03  0.56738611646E+02  0.37736200222E+03  0.10100000352E+00 0.  1.
       -3    1    3    3    0  502  0.12235801928E+03 -0.35243625747E+03 -0.50748125952E+03  0.62985715796E+03  0.10100000352E+00 0. -1.
</event>
<event>
 5   0  0.6609191E-03  0.9212028E+03  0.7818609E-02  0.9399458E-01
        2   -1    0    0  501    0  0.00000000000E+00  0.00000000000E+00  0.11010449922E+04  0.11010449922E+04  0.25500000920E-02 0.  1.
       -2   -1    0    0    0  501  0.00000000000E+00  0.00000000000E+00 -0.19268391477E+03  0.19268391478E+03  0.25500000920E-02 0. -1.
    10030    2    1    2    0    0  0.00000000000E+00  0.00000000000E+00  0.90836107745E+03  0.12937289070E+04  0.92120282121E+03 0.  0.
        2    1    3    3  502    0 -0.12470817210E+03  0.16567733238E+02  0.10764494210E+04  0.10837757951E+04  0.25500000920E-02 0.  1.
       -2    1    3    3    0  502  0.12470817210E+03 -0.16567733238E+02 -0.16808834355E+03  0.20995311195E+03  0.25500000920E-02 0. -1.
</event>
<event>
 5   0  0.3794006E-03  0.8986984E+03  0.7818609E-02  0.9427210E-01
        1   -1    0    0  501    0  0.00000000000E+00  0.00000000000E+00  0.67122639132E+03  0.67122639134E+03  0.50400001928E-02 0.  1.
       -1   -1    0    0    0  501  0.00000000000E+00  0.00000000000E+00 -0.30081457792E+03  0.30081457796E+03  0.50400001928E-02 0. -1.
    10030    2    1    2    0    0  0.00000000000E+00  0.00000000000E+00  0.37041181341E+03  0.97204096930E+03  0.89869835568E+03 0.  0.
        5    1    3    3  502    0  0.16470464167E+03  0.13854589961E+03 -0.24140657745E+03  0.32345295009E+03  0.46999998093E+01 0. -1.
       -5    1    3    3    0  502 -0.16470464167E+03 -0.13854589961E+03  0.61181839085E+03  0.64858801922E+03  0.46999998093E+01 0.  1.
</event>
<event>
 5   0  0.6724773E-03  0.8978151E+03  0.7818609E-02  0.9428317E-01
        2   -1    0    0  501    0  0.00000000000E+00  0.00000000000E+00  0.60323214538E+03  0.60323214539E+03  0.25500000920E-02 0. -1.
       -2   -1    0    0    0  501  0.00000000000E+00  0.00000000000E+00 -0.33406374589E+03  0.33406374590E+03  0.25500000920E-02 0.  1.
    10030    2    1    2    0    0  0.00000000000E+00  0.00000000000E+00  0.26916839949E+03  0.93729589129E+03  0.89781510376E+03 0.  0.
        5    1    3    3  502    0  0.41578351014E+03  0.79970512173E+02  0.29021934030E+03  0.51334254217E+03  0.46999998093E+01 0. -1.
       -5    1    3    3    0  502 -0.41578351014E+03 -0.79970512173E+02 -0.21050940814E+02  0.42395334912E+03  0.46999998093E+01 0.  1.
</event>
<event>
 5   0  0.3927993E-03  0.8812377E+03  0.7818609E-02  0.9449344E-01
       -1   -1    0    0    0  501  0.00000000000E+00  0.00000000000E+00  0.32328586085E+03  0.32328586089E+03  0.50400001928E-02 0.  1.
        1   -1    0    0  501    0  0.00000000000E+00  0.00000000000E+00 -0.60053649646E+03  0.60053649649E+03  0.50400001928E-02 0. -1.
    10030    2    1    2    0    0  0.00000000000E+00  0.00000000000E+00 -0.27725063562E+03  0.92382235737E+03  0.88123767114E+03 0.  0.
        2    1    3    3  502    0  0.16731945093E+03 -0.21008238785E+03  0.22756025135E+03  0.35201431270E+03  0.25500000920E-02 0.  1.
       -2    1    3    3    0  502 -0.16731945093E+03  0.21008238785E+03 -0.50481088696E+03  0.57180804467E+03  0.25500000920E-02 0. -1.
</event>
<event>
 5   0  0.2560250E-03  0.8785529E+03  0.7818609E-02  0.9452796E-01
       -4   -1    0    0    0  501  0.00000000000E+00  0.00000000000E+00  0.11943541905E+04  0.11943548658E+04  0.12699999809E+01 0.  1.
        4   -1    0    0  501    0  0.00000000000E+00  0.00000000000E+00 -0.16156007811E+03  0.16156506968E+03  0.12699999809E+01 0. -1.
    10030    2    1    2    0    0  0.00000000000E+00  0.00000000000E+00  0.10327941124E+04  0.13559199354E+04  0.87855289690E+03 0.  0.
        1    1    3    3  502    0 -0.60692123998E+01  0.27985393111E+03  0.10388834676E+04  0.10759339744E+04  0.50400001928E-02 0.  1.
       -1    1    3    3    0  502  0.60692123998E+01 -0.27985393111E+03 -0.60893551389E+01  0.27998596102E+03  0.50400001928E-02 0. -1.
</event>
<event>
 5   0  0.3969536E-03  0.8998822E+03  0.7818609E-02  0.9425729E-01
        1   -1    0    0  501    0  0.00000000000E+00  0.00000000000E+00  0.11357113243E+04  0.11357113244E+04  0.50400001928E-02 0. -1.
       -1   -1    0    0    0  501  0.00000000000E+00  0.00000000000E+00 -0.17825568567E+03  0.17825568574E+03  0.50400001928E-02 0.  1.
    10030    2    1    2    0    0  0.00000000000E+00  0.00000000000E+00  0.95745563868E+03  0.13139670101E+04  0.89988221651E+03 0.  0.
        1    1    3    3  502    0 -0.73736954563E+02  0.41399781456E+03  0.24503160976E+03  0.48669479013E+03  0.50400001928E-02 0.  1.
       -1    1    3    3    0  502  0.73736954563E+02 -0.41399781456E+03  0.71242402892E+03  0.82727221997E+03  0.50400001928E-02 0. -1.
</event>
<event>
 5   0  0.3927993E-03  0.9071869E+03  0.7818609E-02  0.9416642E-01
        1   -1    0    0  501    0  0.00000000000E+00  0.00000000000E+00  0.43084011498E+03  0.43084011501E+03  0.50400001928E-02 0.  1.
       -1   -1    0    0    0  501  0.00000000000E+00  0.00000000000E+00 -0.47754845308E+03  0.47754845311E+03  0.50400001928E-02 0. -1.
    10030    2    1    2    0    0  0.00000000000E+00  0.00000000000E+00 -0.46708338100E+02  0.90838856812E+03  0.90718692773E+03 0.  0.
        2    1    3    3  502    0  0.17980691721E+03  0.33632300004E+03  0.22253849342E+03  0.44155075461E+03  0.25500000920E-02 0.  1.
       -2    1    3    3    0  502 -0.17980691721E+03 -0.33632300004E+03 -0.26924683152E+03  0.46683781351E+03  0.25500000920E-02 0. -1.
</event>
<event>
 5   0  0.6863405E-03  0.8952407E+03  0.7818609E-02  0.9431550E-01
       -2   -1    0    0    0  501  0.00000000000E+00  0.00000000000E+00  0.55633743669E+03  0.55633743669E+03  0.25500000920E-02 0.  1.
        2   -1    0    0  501    0  0.00000000000E+00  0.00000000000E+00 -0.36014831341E+03  0.36014831342E+03  0.25500000920E-02 0. -1.
    10030    2    1    2    0    0  0.00000000000E+00  0.00000000000E+00  0.19618912327E+03  0.91648575011E+03  0.89524072632E+03 0.  0.
        1    1    3    3  502    0  0.33814181666E+03 -0.28099040911E+03  0.18416405569E+03  0.47666749167E+03  0.50400001928E-02 0.  1.
       -1    1    3    3    0  502 -0.33814181666E+03  0.28099040911E+03  0.12025067584E+02  0.43981825844E+03  0.50400001928E-02 0. -1.
</event>
<event>
 5   0  0.6863405E-03  0.9004591E+03  0.7818609E-02  0.9425008E-01
       -2   -1    0    0    0  501  0.00000000000E+00  0.00000000000E+00  0.18605005798E+03  0.18605005800E+03  0.25500000920E-02 0.  1.
        2   -1    0    0  501    0  0.00000000000E+00  0.00000000000E+00 -0.10895274020E+04  0.10895274020E+04  0.25500000920E-02 0. -1.
    10030    2    1    2    0    0  0.00000000000E+00  0.00000000000E+00 -0.90347734405E+03  0.12755774600E+04  0.90045907476E+03 0.  0.
        1    1    3    3  502    0 -0.36881014450E+03 -0.15492867308E+03 -0.74440274284E+03  0.84507944005E+03  0.50400001928E-02 0. -1.
       -1    1    3    3    0  502  0.36881014450E+03  0.15492867308E+03 -0.15907460121E+03  0.43049801998E+03  0.50400001928E-02 0.  1.
</event>
<event>
 5   0  0.2560250E-03  0.8967297E+03  0.7818609E-02  0.9429679E-01
        3   -1    0    0  501    0  0.00000000000E+00  0.00000000000E+00  0.46419170233E+03  0.46419171332E+03  0.10100000352E+00 0.  1.
       -3   -1    0    0    0  501  0.00000000000E+00  0.00000000000E+00 -0.43307764167E+03  0.43307765345E+03  0.10100000352E+00 0. -1.
    10030    2    1    2    0    0  0.00000000000E+00  0.00000000000E+00  0.31114060660E+02  0.89726936677E+03  0.89672974289E+03 0.  0.
        4    1    3    3  502    0  0.39951008928E+03  0.55889059551E+02  0.21137238475E+03  0.45542485258E+03  0.12699999809E+01 0.  1.
       -4    1    3    3    0  502 -0.39951008928E+03 -0.55889059551E+02 -0.18025832409E+03  0.44184451419E+03  0.12699999809E+01 0. -1.
</event>
<event>
 5   0  0.3998066E-03  0.8997346E+03  0.7818609E-02  0.9425913E-01
        1   -1    0    0  501    0  0.00000000000E+00  0.00000000000E+00  0.21303160664E+03  0.21303160670E+03  0.50400001928E-02 0.  1.
       -1   -1    0    0    0  501  0.00000000000E+00  0.00000000000E+00 -0.95000262005E+03  0.95000262007E+03  0.50400001928E-02 0. -1.
    10030    2    1    2    0    0  0.00000000000E+00  0.00000000000E+00 -0.73697101342E+03  0.11630342268E+04  0.89973459310E+03 0.  0.
        4    1    3    3  502    0  0.20048799762E+03 -0.25807704510E+03  0.31147246415E+02  0.32828487973E+03  0.12699999809E+01 0.  1.
       -4    1    3    3    0  502 -0.20048799762E+03  0.25807704510E+03 -0.76811825983E+03  0.83474934704E+03  0.12699999809E+01 0. -1.
</event>
<event>
 5   0  0.6724773E-03  0.8284846E+03  0.7818609E-02  0.9519678E-01
       -2   -1    0    0    0  501  0.00000000000E+00  0.00000000000E+00  0.14940302262E+03  0.14940302264E+03  0.25500000920E-02 0.  1.
        2   -1    0    0  501    0  0.00000000000E+00  0.00000000000E+00 -0.11485489377E+04  0.11485489377E+04  0.25500000920E-02 0. -1.
    10030    2    1    2    0    0  0.00000000000E+00  0.00000000000E+00 -0.99914591506E+03  0.12979519603E+04  0.82848459958E+03 0.  0.
        5    1    3    3  502    0  0.20456696197E+02 -0.26726794853E+02 -0.11463613666E+04  0.11468649750E+04  0.46999998093E+01 0. -1.
       -5    1    3    3    0  502 -0.20456696197E+02  0.26726794853E+02  0.14721545153E+03  0.15108698537E+03  0.46999998093E+01 0.  1.
</event>
<event>
 5   0  0.3794006E-03  0.8984159E+03  0.7818609E-02  0.9427564E-01
        1   -1    0    0  501    0  0.00000000000E+00  0.00000000000E+00  0.26002341478E+03  0.26002341483E+03  0.50400001928E-02 0. -1.
       -1   -1    0    0    0  501  0.00000000000E+00  0.00000000000E+00 -0.77603702244E+03  0.77603702246E+03  0.50400001928E-02 0.  1.
    10030    2    1    2    0    0  0.00000000000E+00  0.00000000000E+00 -0.51601360766E+03  0.10360604373E+04  0.89841593176E+03 0.  0.
        5    1    3    3  502    0 -0.21912390048E+03 -0.36480697122E+03 -0.92224193151E+02  0.43546159625E+03  0.46999998093E+01 0. -1.
       -5    1    3    3    0  502  0.21912390048E+03  0.36480697122E+03 -0.42378941451E+03  0.60059884104E+03  0.46999998093E+01 0.  1.
</event>
<event>
 5   0  0.3927993E-03  0.8925706E+03  0.7818609E-02  0.9434917E-01
       -1   -1    0    0    0  501  0.00000000000E+00  0.00000000000E+00  0.16789298128E+03  0.16789298136E+03  0.50400001928E-02 0. -1.
        1   -1    0    0  501    0  0.00000000000E+00  0.00000000000E+00 -0.11862946632E+04  0.11862946632E+04  0.50400001928E-02 0.  1.
    10030    2    1    2    0    0  0.00000000000E+00  0.00000000000E+00 -0.10184016819E+04  0.13541876446E+04  0.89257055238E+03 0.  0.
        2    1    3    3  502    0  0.24368859541E+03  0.26034765230E+03 -0.91631778360E+03  0.98326156852E+03  0.25500000920E-02 0.  1.
       -2    1    3    3    0  502 -0.24368859541E+03 -0.26034765230E+03 -0.10208389832E+03  0.37092607605E+03  0.25500000920E-02 0. -1.
</event>
<event>
 5   0  0.6724773E-03  0.8937829E+03  0.7818609E-02  0.9433387E-01
       -2   -1    0    0    0  501  0.00000000000E+00  0.00000000000E+00  0.20638121256E+03  0.20638121258E+03  0.25500000920E-02 0.  1.
        2   -1    0    0  501    0  0.00000000000E+00  0.00000000000E+00 -0.96768476366E+03  0.96768476366E+03  0.25500000920E-02 0. -1.
    10030    2    1    2    0    0  0.00000000000E+00  0.00000000000E+00 -0.76130355110E+03  0.11740659762E+04  0.89378287053E+03 0.  0.
        5    1    3    3  502    0  0.16039038816E+03 -0.33052742594E+02  0.16551237000E+03  0.23288193366E+03  0.46999998093E+01 0.  1.
       -5    1    3    3    0  502 -0.16039038816E+03  0.33052742594E+02 -0.92681592110E+03  0.94118404258E+03  0.46999998093E+01 0. -1.
</event>
<event>
 5   0  0.6863405E-03  0.9078144E+03  0.7818609E-02  0.9415865E-01
        2   -1    0    0  501    0  0.00000000000E+00  0.00000000000E+00  0.14312939555E+04  0.14312939555E+04  0.25500000920E-02 0. -1.
       -2   -1    0    0    0  501  0.00000000000E+00  0.00000000000E+00 -0.14394789312E+03  0.14394789315E+03  0.25500000920E-02 0.  1.
    10030    2    1    2    0    0  0.00000000000E+00  0.00000000000E+00  0.12873460624E+04  0.15752418487E+04  0.90781440693E+03 0.  0.
        1    1    3    3  502    0 -0.21209217065E+03 -0.30191482627E+03  0.18492244036E+03  0.41271292704E+03  0.50400001928E-02 0.  1.
       -1    1    3    3    0  502  0.21209217065E+03  0.30191482627E+03  0.11024236220E+04  0.11625289216E+04  0.50400001928E-02 0. -1.
</event>
<event>
 5   0  0.3927993E-03  0.8855334E+03  0.7818609E-02  0.9443848E-01
       -1   -1    0    0    0  501  0.00000000000E+00  0.00000000000E+00  0.28575246649E+03  0.28575246653E+03  0.50400001928E-02 0. -1.
        1   -1    0    0  501    0  0.00000000000E+00  0.00000000000E+00 -0.68605657575E+03  0.68605657577E+03  0.50400001928E-02 0.  1.
    10030    2    1    2    0    0  0.00000000000E+00  0.00000000000E+00 -0.40030410926E+03  0.97180904230E+03  0.88553341823E+03 0.  0.
        2    1    3    3  502    0 -0.36581439541E+03 -0.24937357182E+03 -0.19365879742E+03  0.48322984183E+03  0.25500000920E-02 0. -1.
       -2    1    3    3    0  502  0.36581439541E+03  0.24937357182E+03 -0.20664531184E+03  0.48857920047E+03  0.25500000920E-02 0.  1.
</event>
<event>
 5   0  0.3794006E-03  0.8987593E+03  0.7818609E-02  0.9427134E-01
       -1   -1    0    0    0  501  0.00000000000E+00  0.00000000000E+00  0.67982685426E+03  0.67982685427E+03  0.50400001928E-02 0.  1.
        1   -1    0    0  501    0  0.00000000000E+00  0.00000000000E+00 -0.29704924828E+03  0.29704924832E+03  0.50400001928E-02 0. -1.
    10030    2    1    2    0    0  0.00000000000E+00  0.00000000000E+00  0.38277760598E+03  0.97687610260E+03  0.89875926932E+03 0.  0.
        5    1    3    3  502    0 -0.35762369224E+03  0.24527631075E+03  0.63405655900E+02  0.43828933488E+03  0.46999998093E+01 0. -1.
       -5    1    3    3    0  502  0.35762369224E+03 -0.24527631075E+03  0.31937195008E+03  0.53858676772E+03  0.46999998093E+01 0.  1.
</event>
<event>
 5   0  0.3943549E-03  0.9020189E+03  0.7818609E-02  0.9423061E-01
       -1   -1    0    0    0  501  0.00000000000E+00  0.00000000000E+00  0.48758286241E+03  0.48758286244E+03  0.50400001928E-02 0. -1.
        1   -1    0    0  501    0  0.00000000000E+00  0.00000000000E+00 -0.41717936131E+03  0.41717936134E+03  0.50400001928E-02 0.  1.
    10030    2    1    2    0    0  0.00000000000E+00  0.00000000000E+00  0.70403501102E+02  0.90476222378E+03  0.90201886267E+03 0.  0.
        3    1    3    3  502    0  0.18745865391E+03 -0.58453182200E+02  0.44245627501E+03  0.48407136554E+03  0.10100000352E+00 0. -1.
       -3    1    3    3    0  502 -0.18745865391E+03  0.58453182200E+02 -0.37205277391E+03  0.42069085824E+03  0.10100000352E+00 0.  1.
</event>
<event>
 5   0  0.3943549E-03  0.9039000E+03  0.7818609E-02  0.9420719E-01
       -1   -1    0    0    0  501  0.00000000000E+00  0.00000000000E+00  0.34470925670E+03  0.34470925673E+03  0.50400001928E-02 0.  1.
        1   -1    0    0  501    0  0.00000000000E+00  0.00000000000E+00 -0.59255382392E+03  0.59255382394E+03  0.50400001928E-02 0. -1.
    10030    2    1    2    0    0  0.00000000000E+00  0.00000000000E+00 -0.24784456722E+03  0.93726308067E+03  0.90389996841E+03 0.  0.
        3    1    3    3  502    0  0.31567433453E+03 -0.31070605306E+02 -0.45774151837E+03  0.55690481758E+03  0.10100000352E+00 0. -1.
       -3    1    3    3    0  502 -0.31567433453E+03  0.31070605306E+02  0.20989695116E+03  0.38035826309E+03  0.10100000352E+00 0.  1.
</event>
<event>
 5   0  0.3794006E-03  0.9000475E+03  0.7818609E-02  0.9425522E-01
        1   -1    0    0  501    0  0.00000000000E+00  0.00000000000E+00  0.83834268170E+03  0.83834268172E+03  0.50400001928E-02 0. -1.
       -1   -1    0    0    0  501  0.00000000000E+00  0.00000000000E+00 -0.24157351901E+03  0.24157351906E+03  0.50400001928E-02 0.  1.
    10030    2    1    2    0    0  0.00000000000E+00  0.00000000000E+00  0.59676916270E+03  0.10799162008E+04  0.90004753606E+03 0.  0.
        5    1    3    3  502    0 -0.16121388220E+03  0.22758921842E+03  0.72210526108E+03  0.77410907903E+03  0.46999998093E+01 0. -1.
       -5    1    3    3    0  502  0.16121388220E+03 -0.22758921842E+03 -0.12533609839E+03  0.30580712175E+03  0.46999998093E+01 0.  1.
</event>
<event>
 5   0  0.3998066E-03  0.9004103E+03  0.7818609E-02  0.9425069E-01
        1   -1    0    0  501    0  0.00000000000E+00  0.00000000000E+00  0.60350578190E+03  0.60350578192E+03  0.50400001928E-02 0.  1.
       -1   -1    0    0    0  501  0.00000000000E+00  0.00000000000E+00 -0.33584543019E+03  0.33584543023E+03  0.50400001928E-02 0. -1.
    10030    2    1    2    0    0  0.00000000000E+00  0.00000000000E+00  0.26766035171E+03  0.93935121215E+03  0.90041025976E+03 0.  0.
        4    1    3    3  502    0 -0.13690198908E+03  0.55446791527E+02 -0.30984658969E+03  0.34325358460E+03  0.12699999809E+01 0. -1.
       -4    1    3    3    0  502  0.13690198908E+03 -0.55446791527E+02  0.57750694140E+03  0.59609762754E+03  0.12699999809E+01 0.  1.
</event>
<event>
 5   0  0.3794006E-03  0.9009266E+03  0.7818609E-02  0.9424424E-01
       -1   -1    0    0    0  501  0.00000000000E+00  0.00000000000E+00  0.75716760075E+03  0.75716760077E+03  0.50400001928E-02 0.  1.
        1   -1    0    0  501    0  0.00000000000E+00  0.00000000000E+00 -0.26799505965E+03  0.26799505970E+03  0.50400001928E-02 0. -1.
    10030    2    1    2    0    0  0.00000000000E+00  0.00000000000E+00  0.48917254110E+03  0.10251626605E+04  0.90092658161E+03 0.  0.
        5    1    3    3  502    0 -0.33016638555E+03  0.26148400891E+03  0.62838052592E+02  0.42585729994E+03  0.46999998093E+01 0. -1.
       -5    1    3    3    0  502  0.33016638555E+03 -0.26148400891E+03  0.42633448851E+03  0.59930536053E+03  0.46999998093E+01 0.  1.
</event>
<event>
 5   0  0.6534628E-03  0.9012622E+03  0.7818609E-02  0.9424005E-01
       -2   -1    0    0    0  501  0.00000000000E+00  0.00000000000E+00  0.31200343835E+03  0.31200343836E+03  0.25500000920E-02 0. -1.
        2   -1    0    0  501    0  0.00000000000E+00  0.00000000000E+00 -0.65085306741E+03  0.65085306741E+03  0.25500000920E-02 0.  1.
    10030    2    1    2    0    0  0.00000000000E+00  0.00000000000E+00 -0.33884962906E+03  0.96285650577E+03  0.90126221467E+03 0.  0.
        4    1    3    3  502    0 -0.30816874719E+03  0.32717120144E+03 -0.20417157183E+03  0.49365637385E+03  0.12699999809E+01 0.  1.
       -4    1    3    3    0  502  0.30816874719E+03 -0.32717120144E+03 -0.13467805723E+03  0.46920013192E+03  0.12699999809E+01 0. -1.
</event>
<event>
 5   0  0.3794006E-03  0.9288803E+03  0.7818609E-02  0.9390183E-01
       -1   -1    0    0    0  501  0.00000000000E+00  0.00000000000E+00  0.47353357456E+03  0.47353357458E+03  0.50400001928E-02 0.  1.
        1   -1    0    0  501    0  0.00000000000E+00  0.00000000000E+00 -0.45552133355E+03  0.45552133358E+03  0.50400001928E-02 0. -1.
    10030    2    1    2    0    0  0.00000000000E+00  0.00000000000E+00  0.18012241007E+02  0.92905490816E+03  0.92888028375E+03 0.  0.
        5    1    3    3  502    0 -0.10607520276E+03 -0.38903586172E+03  0.23944410577E+03  0.46899511739E+03  0.46999998093E+01 0.  1.
       -5    1    3    3    0  502  0.10607520276E+03  0.38903586172E+03 -0.22143186477E+03  0.46005979077E+03  0.46999998093E+01 0. -1.
</event>
<event>
 5   0  0.6524705E-03  0.9007052E+03  0.7818609E-02  0.9424700E-01
        2   -1    0    0  501    0  0.00000000000E+00  0.00000000000E+00  0.18200987758E+04  0.18200987758E+04  0.25500000920E-02 0. -1.
       -2   -1    0    0    0  501  0.00000000000E+00  0.00000000000E+00 -0.11143210829E+03  0.11143210832E+03  0.25500000920E-02 0.  1.
    10030    2    1    2    0    0  0.00000000000E+00  0.00000000000E+00  0.17086666675E+04  0.19315308841E+04  0.90070515466E+03 0.  0.
        3    1    3    3  502    0 -0.31146748942E+03 -0.12289828780E+03  0.15001750859E+04  0.15370885741E+04  0.10100000352E+00 0. -1.
       -3    1    3    3    0  502  0.31146748942E+03  0.12289828780E+03  0.20849158158E+03  0.39444230997E+03  0.10100000352E+00 0.  1.
</event>
<event>
 5   0  0.6524705E-03  0.8946547E+03  0.7818609E-02  0.9432288E-01
       -2   -1    0    0    0  501  0.00000000000E+00  0.00000000000E+00  0.18052539382E+03  0.18052539384E+03  0.25500000920E-02 0.  1.
        2   -1    0    0  501    0  0.00000000000E+00  0.00000000000E+00 -0.11084410045E+04  0.11084410045E+04  0.25500000920E-02 0. -1.
    10030    2    1    2    0    0  0.00000000000E+00  0.00000000000E+00 -0.92791561070E+03  0.12889663984E+04  0.89465467948E+03 0.  0.
        3    1    3    3  502    0 -0.94018100277E+02  0.25205395046E+03  0.50956022653E+02  0.27380124830E+03  0.10100000352E+00 0.  1.
       -3    1    3    3    0  502  0.94018100277E+02 -0.25205395046E+03 -0.97887163335E+03  0.10151651501E+04  0.10100000352E+00 0. -1.
</event>
<event>
 5   0  0.2560250E-03  0.9027185E+03  0.7818609E-02  0.9422190E-01
       -4   -1    0    0    0  501  0.00000000000E+00  0.00000000000E+00  0.14097709076E+03  0.14098281107E+03  0.12699999809E+01 0.  1.
        4   -1    0    0  501    0  0.00000000000E+00  0.00000000000E+00 -0.14450589166E+04  0.14450594747E+04  0.12699999809E+01 0. -1.
    10030    2    1    2    0    0  0.00000000000E+00  0.00000000000E+00 -0.13040818259E+04  0.15860422858E+04  0.90271851853E+03 0.  0.
        3    1    3    3  502    0  0.18767667114E+03  0.40263248788E+03 -0.79248492914E+03  0.90849756538E+03  0.10100000352E+00 0. -1.
       -3    1    3    3    0  502 -0.18767667114E+03 -0.40263248788E+03 -0.51159689673E+03  0.67754472040E+03  0.10100000352E+00 0.  1.
</event>
<event>
 5   0  0.6724773E-03  0.8972976E+03  0.7818609E-02  0.9428966E-01
        2   -1    0    0  501    0  0.00000000000E+00  0.00000000000E+00  0.27146094028E+03  0.27146094029E+03  0.25500000920E-02 0.  1.
       -2   -1    0    0    0  501  0.00000000000E+00  0.00000000000E+00 -0.74149059613E+03  0.74149059614E+03  0.25500000920E-02 0. -1.
    10030    2    1    2    0    0  0.00000000000E+00  0.00000000000E+00 -0.47002965585E+03  0.10129515364E+04  0.89729757482E+03 0.  0.
        5    1    3    3  502    0  0.69458603680E+02  0.44160432147E+03 -0.19240354917E+03  0.48670328753E+03  0.46999998093E+01 0.  1.
       -5    1    3    3    0  502 -0.69458603680E+02 -0.44160432147E+03 -0.27762610668E+03  0.52624824890E+03  0.46999998093E+01 0. -1.
</event>
<event>
 5   0  0.3794006E-03  0.8983715E+03  0.7818609E-02  0.9427619E-01
       -1   -1    0    0    0  501  0.00000000000E+00  0.00000000000E+00  0.42546087087E+03  0.42546087090E+03  0.50400001928E-02 0.  1.
        1   -1    0    0  501    0  0.00000000000E+00  0.00000000000E+00 -0.47423358418E+03  0.47423358421E+03  0.50400001928E-02 0. -1.
    10030    2    1    2    0    0  0.00000000000E+00  0.00000000000E+00 -0.48772713310E+02  0.89969445511E+03  0.89837149053E+03 0.  0.
        5    1    3    3  502    0  0.20491227058E+03  0.35195590219E+03  0.16532266388E+03  0.43956304316E+03  0.46999998093E+01 0.  1.
       -5    1    3    3    0  502 -0.20491227058E+03 -0.35195590219E+03 -0.21409537719E+03  0.46013141194E+03  0.46999998093E+01 0. -1.
</event>
<event>
 5   0  0.3927993E-03  0.8937382E+03  0.7818609E-02  0.9433443E-01
        1   -1    0    0  501    0  0.00000000000E+00  0.00000000000E+00  0.55055698184E+03  0.55055698186E+03  0.50400001928E-02 0.  1.
       -1   -1    0    0    0  501  0.00000000000E+00  0.00000000000E+00 -0.36270902800E+03  0.36270902803E+03  0.50400001928E-02 0. -1.
    10030    2    1    2    0    0  0.00000000000E+00  0.00000000000E+00  0.18784795385E+03  0.91326600990E+03  0.89373818933E+03 0.  0.
        2    1    3    3  502    0  0.21035442760E+02 -0.15254341518E+02 -0.36193640636E+03  0.36286794711E+03  0.25500000920E-02 0. -1.
       -2    1    3    3    0  502 -0.21035442760E+02  0.15254341518E+02  0.54978436020E+03  0.55039806278E+03  0.25500000920E-02 0.  1.
</event>
<event>
 5   0  0.6724773E-03  0.8537462E+03  0.7818609E-02  0.9485323E-01
        2   -1    0    0  501    0  0.00000000000E+00  0.00000000000E+00  0.56510458225E+03  0.56510458226E+03  0.25500000920E-02 0. -1.
       -2   -1    0    0    0  501  0.00000000000E+00  0.00000000000E+00 -0.32245474805E+03  0.32245474806E+03  0.25500000920E-02 0.  1.
    10030    2    1    2    0    0  0.00000000000E+00  0.00000000000E+00  0.24264983420E+03  0.88755933031E+03  0.85374622856E+03 0.  0.
        5    1    3    3  502    0  0.13262059466E+03  0.43624687843E+02 -0.29802061635E+03  0.32913479501E+03  0.46999998093E+01 0.  1.
       -5    1    3    3    0  502 -0.13262059466E+03 -0.43624687843E+02  0.54067045056E+03  0.55842453530E+03  0.46999998093E+01 0. -1.
</event>
<event>
 5   0  0.6863405E-03  0.8960210E+03  0.7818609E-02  0.9430569E-01
        2   -1    0    0  501    0  0.00000000000E+00  0.00000000000E+00  0.49499237659E+03  0.49499237659E+03  0.25500000920E-02 0.  1.
       -2   -1    0    0    0  501  0.00000000000E+00  0.00000000000E+00 -0.40548784131E+03  0.40548784132E+03  0.25500000920E-02 0. -1.
    10030    2    1    2    0    0  0.00000000000E+00  0.00000000000E+00  0.89504535272E+02  0.90048021791E+03  0.89602096015E+03 0.  0.
        1    1    3    3  502    0 -0.36552489288E+02 -0.62106651071E+02  0.48912937656E+03  0.49440961521E+03  0.50400001928E-02 0.  1.
       -1    1    3    3    0  502  0.36552489288E+02  0.62106651071E+02 -0.39962484128E+03  0.40607060270E+03  0.50400001928E-02 0. -1.
</event>
<event>
 5   0  0.3927993E-03  0.8919790E+03  0.7818609E-02  0.9435664E-01
        1   -1    0    0  501    0  0.00000000000E+00  0.00000000000E+00  0.63168314807E+03  0.63168314809E+03  0.50400001928E-02 0. -1.
       -1   -1    0    0    0  501  0.00000000000E+00  0.00000000000E+00 -0.31488352838E+03  0.31488352842E+03  0.50400001928E-02 0.  1.
    10030    2    1    2    0    0  0.00000000000E+00  0.00000000000E+00  0.31679961968E+03  0.94656667651E+03  0.89197896503E+03 0.  0.
        2    1    3    3  502    0  0.14079454291E+03 -0.28491823248E+03  0.49044660401E+03  0.58441370098E+03  0.25500000920E-02 0. -1.
       -2    1    3    3    0  502 -0.14079454291E+03  0.28491823248E+03 -0.17364698432E+03  0.36215297553E+03  0.25500000920E-02 0.  1.
</event>
<event>
 5   0  0.6863405E-03  0.9050589E+03  0.7818609E-02  0.9419280E-01
        2   -1    0    0  501    0  0.00000000000E+00  0.00000000000E+00  0.34591636288E+03  0.34591636289E+03  0.25500000920E-02 0.  1.
       -2   -1    0    0    0  501  0.00000000000E+00  0.00000000000E+00 -0.59200117501E+03  0.59200117502E+03  0.25500000920E-02 0. -1.
    10030    2    1    2    0    0  0.00000000000E+00  0.00000000000E+00 -0.24608481213E+03  0.93791753791E+03  0.90505887828E+03 0.  0.
        1    1    3    3  502    0 -0.35454313344E+03  0.21555465543E+03 -0.31020461160E+03  0.51806519284E+03  0.50400001928E-02 0.  1.
       -1    1    3    3    0  502  0.35454313344E+03 -0.21555465543E+03  0.64119799473E+02  0.41985234507E+03  0.50400001928E-02 0. -1.
</event>
<event>
 5   0  0.3998066E-03  0.9021866E+03  0.7818609E-02  0.9422852E-01
        1   -1    0    0  501    0  0.00000000000E+00  0.00000000000E+00  0.63289921578E+03  0.63289921580E+03  0.50400001928E-02 0. -1.
       -1   -1    0    0    0  501  0.00000000000E+00  0.00000000000E+00 -0.32151275632E+03  0.32151275636E+03  0.50400001928E-02 0.  1.
    10030    2    1    2    0    0  0.00000000000E+00  0.00000000000E+00  0.31138645945E+03  0.95441197216E+03  0.90218661344E+03 0.  0.
        4    1    3    3  502    0 -0.81184506148E+02 -0.38839562549E+03  0.38268708565E+03  0.55126500375E+03  0.12699999809E+01 0. -1.
       -4    1    3    3    0  502  0.81184506148E+02  0.38839562549E+03 -0.71300626200E+02  0.40314696841E+03  0.12699999809E+01 0.  1.
</event>
<event>
 5   0  0.6524705E-03  0.8959785E+03  0.7818609E-02  0.9430622E-01
       -2   -1    0    0    0  501  0.00000000000E+00  0.00000000000E+00  0.16854074702E+03  0.16854074704E+03  0.25500000920E-02 0. -1.
        2   -1    0    0  501    0  0.00000000000E+00  0.00000000000E+00 -0.11907766183E+04  0.11907766183E+04  0.25500000920E-02 0.  1.
    10030    2    1    2    0    0  0.00000000000E+00  0.00000000000E+00 -0.10222358713E+04  0.13593173653E+04  0.89597852831E+03 0.  0.
        3    1    3    3  502    0  0.15962912431E+03  0.18498216082E+03 -0.10807892740E+04  0.11080637717E+04  0.10100000352E+00 0.  1.
       -3    1    3    3    0  502 -0.15962912431E+03 -0.18498216082E+03  0.58553402720E+02  0.25125359365E+03  0.10100000352E+00 0. -1.
</event>
<event>
 5   0  0.3998066E-03  0.9040425E+03  0.7818609E-02  0.9420542E-01
        1   -1    0    0  501    0  0.00000000000E+00  0.00000000000E+00  0.68264632445E+03  0.68264632447E+03  0.50400001928E-02 0. -1.
       -1   -1    0    0    0  501  0.00000000000E+00  0.00000000000E+00 -0.29931047019E+03  0.29931047024E+03  0.50400001928E-02 0.  1.
    10030    2    1    2    0    0  0.00000000000E+00  0.00000000000E+00  0.38333585425E+03  0.98195679470E+03  0.90404246001E+03 0.  0.
        4    1    3    3  502    0  0.56460792181E+02  0.22696796770E+03  0.61181114809E+03  0.65499372001E+03  0.12699999809E+01 0. -1.
       -4    1    3    3    0  502 -0.56460792181E+02 -0.22696796770E+03 -0.22847529384E+03  0.32696307469E+03  0.12699999809E+01 0.  1.
</event>
<event>
 5   0  0.6524705E-03  0.9027546E+03  0.7818609E-02  0.9422145E-01
        2   -1    0    0  501    0  0.00000000000E+00  0.00000000000E+00  0.37882704068E+03  0.37882704069E+03  0.25500000920E-02 0. -1.
       -2   -1    0    0    0  501  0.00000000000E+00  0.00000000000E+00 -0.53782182655E+03  0.53782182655E+03  0.25500000920E-02 0.  1.
    10030    2    1    2    0    0  0.00000000000E+00  0.00000000000E+00 -0.15899478587E+03  0.91664886724E+03  0.90275456459E+03 0.  0.
        3    1    3    3  502    0 -0.81798880616E+02  0.35912775231E+03 -0.34443009174E+03  0.50427759979E+03  0.10100000352E+00 0.  1.
       -3    1    3    3    0  502  0.81798880616E+02 -0.35912775231E+03  0.18543530588E+03  0.41237126745E+03  0.10100000352E+00 0. -1.
</event>
<event>
 5   0  0.6534628E-03  0.8930828E+03  0.7818609E-02  0.9434270E-01
        2   -1    0    0  501    0  0.00000000000E+00  0.00000000000E+00  0.71683037136E+03  0.71683037136E+03  0.25500000920E-02 0.  1.
       -2   -1    0    0    0  501  0.00000000000E+00  0.00000000000E+00 -0.27816790545E+03  0.27816790547E+03  0.25500000920E-02 0. -1.
    10030    2    1    2    0    0  0.00000000000E+00  0.00000000000E+00  0.43866246591E+03  0.99499827683E+03  0.89308275759E+03 0.  0.
        4    1    3    3  502    0 -0.39403760272E+03  0.11561103390E+02  0.45302577275E+03  0.60052748076E+03  0.12699999809E+01 0.  1.
       -4    1    3    3    0  502  0.39403760272E+03 -0.11561103390E+02 -0.14363306845E+02  0.39447079607E+03  0.12699999809E+01 0. -1.
</event>
<event>
 5   0  0.6609191E-03  0.9009644E+03  0.7818609E-02  0.9424377E-01
        2   -1    0    0  501    0  0.00000000000E+00  0.00000000000E+00  0.10533545675E+04  0.10533545675E+04  0.25500000920E-02 0. -1.
       -2   -1    0    0    0  501  0.00000000000E+00  0.00000000000E+00 -0.19265516356E+03  0.19265516357E+03  0.25500000920E-02 0.  1.
    10030    2    1    2    0    0  0.00000000000E+00  0.00000000000E+00  0.86069940398E+03  0.12460097311E+04  0.90096436446E+03 0.  0.
        2    1    3    3  502    0  0.18747031521E+03  0.40464663336E+02  0.99407327998E+03  0.10124051531E+04  0.25500000920E-02 0. -1.
       -2    1    3    3    0  502 -0.18747031521E+03 -0.40464663336E+02 -0.13337387600E+03  0.23360457801E+03  0.25500000920E-02 0.  1.
</event>
<event>
 5   0  0.6609191E-03  0.9001515E+03  0.7818609E-02  0.9425392E-01
       -2   -1    0    0    0  501  0.00000000000E+00  0.00000000000E+00  0.58124592309E+03  0.58124592309E+03  0.25500000920E-02 0.  1.
        2   -1    0    0  501    0  0.00000000000E+00  0.00000000000E+00 -0.34850681228E+03  0.34850681229E+03  0.25500000920E-02 0. -1.
    10030    2    1    2    0    0  0.00000000000E+00  0.00000000000E+00  0.23273911081E+03  0.92975273538E+03  0.90015146240E+03 0.  0.
        2    1    3    3  502    0  0.26736888141E+03 -0.14023147101E+03 -0.22839924174E+03  0.37857257936E+03  0.25500000920E-02 0. -1.
       -2    1    3    3    0  502 -0.26736888141E+03  0.14023147101E+03  0.46113835254E+03  0.55118015603E+03  0.25500000920E-02 0.  1.
</event>
<event>
 5   0  0.3998066E-03  0.8999284E+03  0.7818609E-02  0.9425671E-01
        1   -1    0    0  501    0  0.00000000000E+00  0.00000000000E+00  0.25190683470E+03  0.25190683475E+03  0.50400001928E-02 0. -1.
       -1   -1    0    0    0  501  0.00000000000E+00  0.00000000000E+00 -0.80374072292E+03  0.80374072293E+03  0.50400001928E-02 0.  1.
    10030    2    1    2    0    0  0.00000000000E+00  0.00000000000E+00 -0.55183388822E+03  0.10556475577E+04  0.89992840040E+03 0.  0.
        4    1    3    3  502    0 -0.43330181094E+03 -0.25062816885E+02 -0.41514570140E+03  0.60060483719E+03  0.12699999809E+01 0.  1.
       -4    1    3    3    0  502  0.43330181094E+03  0.25062816885E+02 -0.13668818682E+03  0.45504272049E+03  0.12699999809E+01 0. -1.
</event>
<event>
 5   0  0.6609191E-03  0.8996286E+03  0.7818609E-02  0.9426046E-01
        2   -1    0    0  501    0  0.00000000000E+00  0.00000000000E+00  0.30881358900E+03  0.30881358901E+03  0.25500000920E-02 0.  1.
       -2   -1    0    0    0  501  0.00000000000E+00  0.00000000000E+00 -0.65519434042E+03  0.65519434042E+03  0.25500000920E-02 0. -1.
    10030    2    1    2    0    0  0.00000000000E+00  0.00000000000E+00 -0.34638075142E+03  0.96400792943E+03  0.89962862507E+03 0.  0.
        2    1    3    3  502    0 -0.41955654815E+03 -0.63525152622E+02 -0.33310023529E+03  0.53946168434E+03  0.25500000920E-02 0.  1.
       -2    1    3    3    0  502  0.41955654815E+03  0.63525152622E+02 -0.13280516128E+02  0.42454624509E+03  0.25500000920E-02 0. -1.
</event>
<event>
 5   0  0.6724773E-03  0.9029646E+03  0.7818609E-02  0.9421883E-01
       -2   -1    0    0    0  501  0.00000000000E+00  0.00000000000E+00  0.20789238588E+03  0.20789238590E+03  0.25500000920E-02 0. -1.
        2   -1    0    0  501    0  0.00000000000E+00  0.00000000000E+00 -0.98048942934E+03  0.98048942934E+03  0.25500000920E-02 0.  1.
    10030    2    1    2    0    0  0.00000000000E+00  0.00000000000E+00 -0.77259704345E+03  0.11883818152E+04  0.90296464340E+03 0.  0.
        5    1    3    3  502    0  0.39302262650E+03 -0.20371779380E+03 -0.26971894427E+03  0.51839957885E+03  0.46999998093E+01 0. -1.
       -5    1    3    3    0  502 -0.39302262650E+03  0.20371779380E+03 -0.50287809918E+03  0.66998223639E+03  0.46999998093E+01 0.  1.
</event>
<event>
 5   0  0.6724773E-03  0.9037589E+03  0.7818609E-02  0.9420895E-01
        2   -1    0    0  501    0  0.00000000000E+00  0.00000000000E+00  0.65902171173E+03  0.65902171173E+03  0.25500000920E-02 0.  1.
       -2   -1    0    0    0  501  0.00000000000E+00  0.00000000000E+00 -0.30984567900E+03  0.30984567901E+03  0.25500000920E-02 0. -1.
    10030    2    1    2    0    0  0.00000000000E+00  0.00000000000E+00  0.34917603273E+03  0.96886739074E+03  0.90375888322E+03 0.  0.
        5    1    3    3  502    0  0.52473096157E+02 -0.34423134281E+03  0.48329940981E+03  0.59569207877E+03  0.46999998093E+01 0.  1.
       -5    1    3    3    0  502 -0.52473096157E+02  0.34423134281E+03 -0.13412337707E+03  0.37317531197E+03  0.46999998093E+01 0. -1.
</event>
<event>
 5   0  0.6524705E-03  0.8931846E+03  0.7818609E-02  0.9434141E-01
       -2   -1    0    0    0  501  0.00000000000E+00  0.00000000000E+00  0.14549722249E+03  0.14549722251E+03  0.25500000920E-02 0.  1.
        2   -1    0    0  501    0  0.00000000000E+00  0.00000000000E+00 -0.13707800025E+04  0.13707800025E+04  0.25500000920E-02 0. -1.
    10030    2    1    2    0    0  0.00000000000E+00  0.00000000000E+00 -0.12252827800E+04  0.15162772250E+04  0.89318460137E+03 0.  0.
        3    1    3    3  502    0 -0.24306715226E+03  0.27190734288E+03 -0.17510150833E+03  0.40456864935E+03  0.10100000352E+00 0.  1.
       -3    1    3    3    0  502  0.24306715226E+03 -0.27190734288E+03 -0.10501812717E+04  0.11117085757E+04  0.10100000352E+00 0. -1.
</event>
<event>
 5   0  0.3794006E-03  0.8966552E+03  0.7818609E-02  0.9429772E-01
       -1   -1    0    0    0  501  0.00000000000E+00  0.00000000000E+00  0.51453093159E+03  0.51453093161E+03  0.50400001928E-02 0. -1.
        1   -1    0    0  501    0  0.00000000000E+00  0.00000000000E+00 -0.39064251777E+03  0.39064251781E+03  0.50400001928E-02 0.  1.
    10030    2    1    2    0    0  0.00000000000E+00  0.00000000000E+00  0.12388841381E+03  0.90517344942E+03  0.89665524838E+03 0.  0.
        5    1    3    3  502    0 -0.11040269714E+03  0.23757075413E+03  0.42919545485E+03  0.50285131721E+03  0.46999998093E+01 0. -1.
       -5    1    3    3    0  502  0.11040269714E+03 -0.23757075413E+03 -0.30530704104E+03  0.40232213221E+03  0.46999998093E+01 0.  1.
</event>
<event>
 5   0  0.3969536E-03  0.8842161E+03  0.7818609E-02  0.9445530E-01
        1   -1    0    0  501    0  0.00000000000E+00  0.00000000000E+00  0.64424670114E+03  0.64424670116E+03  0.50400001928E-02 0.  1.
       -1   -1    0    0    0  501  0.00000000000E+00  0.00000000000E+00 -0.30339237776E+03  0.30339237780E+03  0.50400001928E-02 0. -1.
    10030    2    1    2    0    0  0.00000000000E+00  0.00000000000E+00  0.34085432338E+03  0.94763907896E+03  0.88421612415E+03 0.  0.
        1    1    3    3  502    0 -0.17092847314E+03 -0.40768855940E+03  0.16426737082E+03  0.47160393715E+03  0.50400001928E-02 0. -1.
       -1    1    3    3    0  502  0.17092847314E+03  0.40768855940E+03  0.17658695256E+03  0.47603514181E+03  0.50400001928E-02 0.  1.
</event>
<event>
 5   0  0.6524705E-03  0.9026413E+03  0.7818609E-02  0.9422286E-01
        2   -1    0    0  501    0  0.00000000000E+00  0.00000000000E+00  0.34461456925E+03  0.34461456926E+03  0.25500000920E-02 0.  1.
       -2   -1    0    0    0  501  0.00000000000E+00  0.00000000000E+00 -0.59106706893E+03  0.59106706894E+03  0.25500000920E-02 0. -1.
    10030    2    1    2    0    0  0.00000000000E+00  0.00000000000E+00 -0.24645249969E+03  0.93568163820E+03  0.90264128725E+03 0.  0.
        3    1    3    3  502    0  0.17305815454E+03 -0.37329157870E+03 -0.31547253343E+03  0.51847724843E+03  0.10100000352E+00 0. -1.
       -3    1    3    3    0  502 -0.17305815454E+03  0.37329157870E+03  0.69020033745E+02  0.41720438977E+03  0.10100000352E+00 0.  1.
</event>
<event>
 5   0  0.3927993E-03  0.9008263E+03  0.7818609E-02  0.9424549E-01
        1   -1    0    0  501    0  0.00000000000E+00  0.00000000000E+00  0.73606761738E+03  0.73606761740E+03  0.50400001928E-02 0.  1.
       -1   -1    0    0    0  501  0.00000000000E+00  0.00000000000E+00 -0.27561599266E+03  0.27561599271E+03  0.50400001928E-02 0. -1.
    10030    2    1    2    0    0  0.00000000000E+00  0.00000000000E+00  0.46045162472E+03  0.10116836101E+04  0.90082630304E+03 0.  0.
        2    1    3    3  502    0  0.18357898675E+03  0.28148463286E+03  0.56702671781E+03  0.65913135385E+03  0.25500000920E-02 0.  1.
       -2    1    3    3    0  502 -0.18357898675E+03 -0.28148463286E+03 -0.10657509309E+03  0.35255225625E+03  0.25500000920E-02 0. -1.
</event>
<event>
 5   0  0.6534628E-03  0.9003861E+03  0.7818609E-02  0.9425099E-01
       -2   -1    0    0    0  501  0.00000000000E+00  0.00000000000E+00  0.14987477030E+03  0.14987477032E+03  0.25500000920E-02 0. -1.
        2   -1    0    0  501    0  0.00000000000E+00  0.00000000000E+00 -0.13522874192E+04  0.13522874192E+04  0.25500000920E-02 0.  1.
    10030    2    1    2    0    0  0.00000000000E+00  0.00000000000E+00 -0.12024126489E+04  0.15021621896E+04  0.90038606465E+03 0.  0.
        4    1    3    3  502    0 -0.31713328094E+01  0.22017559385E+03  0.53895558922E+02  0.22670177249E+03  0.12699999809E+01 0. -1.
       -4    1    3    3    0  502  0.31713328094E+01 -0.22017559385E+03 -0.12563082079E+04  0.12754604171E+04  0.12699999809E+01 0.  1.
</event>
<event>
 5   0  0.2560250E-03  0.9023368E+03  0.7818609E-02  0.9422665E-01
        3   -1    0    0  501    0  0.00000000000E+00  0.00000000000E+00  0.82424233999E+03  0.82424234618E+03  0.10100000352E+00 0.  1.
       -3   -1    0    0    0  501  0.00000000000E+00  0.00000000000E+00 -0.24695758257E+03  0.24695760322E+03  0.10100000352E+00 0. -1.
    10030    2    1    2    0    0  0.00000000000E+00  0.00000000000E+00  0.57728475742E+03  0.10711999494E+04  0.90233676664E+03 0.  0.
        5    1    3    3  502    0  0.31362554384E+03  0.27310760907E+03  0.81038556624E+02  0.42371934761E+03  0.46999998093E+01 0. -1.
       -5    1    3    3    0  502 -0.31362554384E+03 -0.27310760907E+03  0.49624620080E+03  0.64748060179E+03  0.46999998093E+01 0.  1.
</event>
<event>
 5   0  0.3998066E-03  0.8981467E+03  0.7818609E-02  0.9427901E-01
       -1   -1    0    0    0  501  0.00000000000E+00  0.00000000000E+00  0.25024018560E+03  0.25024018565E+03  0.50400001928E-02 0. -1.
        1   -1    0    0  501    0  0.00000000000E+00  0.00000000000E+00 -0.80589329244E+03  0.80589329246E+03  0.50400001928E-02 0.  1.
    10030    2    1    2    0    0  0.00000000000E+00  0.00000000000E+00 -0.55565310684E+03  0.10561334781E+04  0.89814672990E+03 0.  0.
        4    1    3    3  502    0 -0.33164411627E+03  0.58270277200E+02 -0.62721430010E+03  0.71188667371E+03  0.12699999809E+01 0.  1.
       -4    1    3    3    0  502  0.33164411627E+03 -0.58270277200E+02  0.71561193254E+02  0.34424680440E+03  0.12699999809E+01 0. -1.
</event>
<event>
 5   0  0.6534628E-03  0.8828380E+03  0.7818609E-02  0.9447293E-01
        2   -1    0    0  501    0  0.00000000000E+00  0.00000000000E+00  0.49101712963E+03  0.49101712963E+03  0.25500000920E-02 0.  1.
       -2   -1    0    0    0  501  0.00000000000E+00  0.00000000000E+00 -0.39683087131E+03  0.39683087131E+03  0.25500000920E-02 0. -1.
    10030    2    1    2    0    0  0.00000000000E+00  0.00000000000E+00  0.94186258320E+02  0.88784800095E+03  0.88283804944E+03 0.  0.
        4    1    3    3  502    0 -0.11472370273E+03  0.42195922006E+03 -0.13565247540E+02  0.43748913152E+03  0.12699999809E+01 0. -1.
       -4    1    3    3    0  502  0.11472370273E+03 -0.42195922006E+03  0.10775150586E+03  0.45035886943E+03  0.12699999809E+01 0.  1.
</event>
<event>
 5   0  0.6863405E-03  0.9030676E+03  0.7818609E-02  0.9421755E-01
        2   -1    0    0  501    0  0.00000000000E+00  0.00000000000E+00  0.15092395858E+03  0.15092395860E+03  0.25500000920E-02 0. -1.
       -2   -1    0    0    0  501  0.00000000000E+00  0.00000000000E+00 -0.13508972678E+04  0.13508972678E+04  0.25500000920E-02 0.  1.
    10030    2    1    2    0    0  0.00000000000E+00  0.00000000000E+00 -0.11999733092E+04  0.15018212264E+04  0.90306757955E+03 0.  0.
        1    1    3    3  502    0 -0.34888057766E+03 -0.10994976012E+03 -0.10402201902E+04  0.11026625283E+04  0.50400001928E-02 0. -1.
       -1    1    3    3    0  502  0.34888057766E+03  0.10994976012E+03 -0.15975311906E+03  0.39915869813E+03  0.50400001928E-02 0.  1.
</event>
<event>
 5   0  0.6609191E-03  0.8886617E+03  0.7818609E-02  0.9439867E-01
       -2   -1    0    0    0  501  0.00000000000E+00  0.00000000000E+00  0.42969087716E+03  0.42969087717E+03  0.25500000920E-02 0.  1.
        2   -1    0    0  501    0  0.00000000000E+00  0.00000000000E+00 -0.45946959810E+03  0.45946959811E+03  0.25500000920E-02 0. -1.
    10030    2    1    2    0    0  0.00000000000E+00  0.00000000000E+00 -0.29778720937E+02  0.88916047528E+03  0.88866167836E+03 0.  0.
        2    1    3    3  502    0 -0.48253022490E+01  0.30919062990E+03 -0.33414174483E+03  0.45527226448E+03  0.25500000920E-02 0. -1.
       -2    1    3    3    0  502  0.48253022490E+01 -0.30919062990E+03  0.30436302389E+03  0.43388821081E+03  0.25500000920E-02 0.  1.
</event>
<event>
 5   0  0.3943549E-03  0.9012566E+03  0.7818609E-02  0.9424012E-01
       -1   -1    0    0    0  501  0.00000000000E+00  0.00000000000E+00  0.10391444767E+03  0.10391444780E+03  0.50400001928E-02 0.  1.
        1   -1    0    0  501    0  0.00000000000E+00  0.00000000000E+00 -0.19541640980E+04  0.19541640980E+04  0.50400001928E-02 0. -1.
    10030    2    1    2    0    0  0.00000000000E+00  0.00000000000E+00 -0.18502496503E+04  0.20580785458E+04  0.90125664056E+03 0.  0.
        3    1    3    3  502    0  0.22057762315E+03 -0.74107972825E+02 -0.18063544668E+04  0.18212805796E+04  0.10100000352E+00 0. -1.
       -3    1    3    3    0  502 -0.22057762315E+03  0.74107972825E+02 -0.43895183475E+02  0.23679796621E+03  0.10100000352E+00 0.  1.
</event>
<event>
 5   0  0.2560250E-03  0.9028521E+03  0.7818609E-02  0.9422023E-01
       -3   -1    0    0    0  501  0.00000000000E+00  0.00000000000E+00  0.18185891896E+03  0.18185894701E+03  0.10100000352E+00 0.  1.
        3   -1    0    0  501    0  0.00000000000E+00  0.00000000000E+00 -0.11205689264E+04  0.11205689310E+04  0.10100000352E+00 0. -1.
    10030    2    1    2    0    0  0.00000000000E+00  0.00000000000E+00 -0.93871000744E+03  0.13024278780E+04  0.90285209155E+03 0.  0.
        3    1    3    3  502    0 -0.62434385528E+02  0.12800267017E+03 -0.10873121205E+04  0.10965994682E+04  0.10100000352E+00 0. -1.
       -3    1    3    3    0  502  0.62434385528E+02 -0.12800267017E+03  0.14860211305E+03  0.20582840977E+03  0.10100000352E+00 0.  1.
</event>
<event>
 5   0  0.3969536E-03  0.8821108E+03  0.7818609E-02  0.9448224E-01
       -1   -1    0    0    0  501  0.00000000000E+00  0.00000000000E+00  0.14352129980E+03  0.14352129989E+03  0.50400001928E-02 0.  1.
        1   -1    0    0  501    0  0.00000000000E+00  0.00000000000E+00 -0.13554075272E+04  0.13554075272E+04  0.50400001928E-02 0. -1.
    10030    2    1    2    0    0  0.00000000000E+00  0.00000000000E+00 -0.12118862274E+04  0.14989288270E+04  0.88211076430E+03 0.  0.
        1    1    3    3  502    0 -0.13207920206E+03  0.36106841123E+03 -0.23867441675E+03  0.45252711569E+03  0.50400001928E-02 0. -1.
       -1    1    3    3    0  502  0.13207920206E+03 -0.36106841123E+03 -0.97321181060E+03  0.10464017114E+04  0.50400001928E-02 0.  1.
</event>
<event>
 5   0  0.3927993E-03  0.8994485E+03  0.7818609E-02  0.9426271E-01
       -1   -1    0    0    0  501  0.00000000000E+00  0.00000000000E+00  0.22767108096E+03  0.22767108102E+03  0.50400001928E-02 0.  1.
        1   -1    0    0  501    0  0.00000000000E+00  0.00000000000E+00 -0.88835136447E+03  0.88835136449E+03  0.50400001928E-02 0. -1.
    10030    2    1    2    0    0  0.00000000000E+00  0.00000000000E+00 -0.66068028351E+03  0.11160224455E+04  0.89944853207E+03 0.  0.
        2    1    3    3  502    0  0.27712296786E+03  0.12295796365E+02 -0.76955635978E+03  0.81802525438E+03  0.25500000920E-02 0. -1.
       -2    1    3    3    0  502 -0.27712296786E+03 -0.12295796365E+02  0.10887607627E+03  0.29799719112E+03  0.25500000920E-02 0.  1.
</event>
<event>
 5   0  0.6609191E-03  0.8916974E+03  0.7818609E-02  0.9436020E-01
        2   -1    0    0  501    0  0.00000000000E+00  0.00000000000E+00  0.18693683825E+04  0.18693683825E+04  0.25500000920E-02 0. -1.
       -2   -1    0    0    0  501  0.00000000000E+00  0.00000000000E+00 -0.10633595090E+03  0.10633595093E+03  0.25500000920E-02 0.  1.
    10030    2    1    2    0    0  0.00000000000E+00  0.00000000000E+00  0.17630324316E+04  0.19757043334E+04  0.89169740285E+03 0.  0.
        2    1    3    3  502    0 -0.11304534207E+03  0.31970661046E+03  0.15228723399E+04  0.15601704169E+04  0.25500000920E-02 0. -1.
       -2    1    3    3    0  502  0.11304534207E+03 -0.31970661046E+03  0.24016009171E+03  0.41553391653E+03  0.25500000920E-02 0.  1.
</event>
<event>
 5   0  0.6724773E-03  0.9069203E+03  0.7818609E-02  0.9416972E-01
        2   -1    0    0  501    0  0.00000000000E+00  0.00000000000E+00  0.10700368716E+04  0.10700368717E+04  0.25500000920E-02 0. -1.
       -2   -1    0    0    0  501  0.00000000000E+00  0.00000000000E+00 -0.19216730216E+03  0.19216730218E+03  0.25500000920E-02 0.  1.
    10030    2    1    2    0    0  0.00000000000E+00  0.00000000000E+00  0.87786956949E+03  0.12622041738E+04  0.90692028062E+03 0.  0.
        5    1    3    3  502    0 -0.13647962562E+03  0.31022985109E+03  0.19709618171E+02  0.33952880255E+03  0.46999998093E+01 0.  1.
       -5    1    3    3    0  502  0.13647962562E+03 -0.31022985109E+03  0.85815995132E+03  0.92267537127E+03  0.46999998093E+01 0. -1.
</event>
<event>
 5   0  0.3969536E-03  0.8962411E+03  0.7818609E-02  0.9430292E-01
        1   -1    0    0  501    0  0.00000000000E+00  0.00000000000E+00  0.29058730364E+03  0.29058730368E+03  0.50400001928E-02 0.  1.
       -1   -1    0    0    0  501  0.00000000000E+00  0.00000000000E+00 -0.69105574576E+03  0.69105574578E+03  0.50400001928E-02 0. -1.
    10030    2    1    2    0    0  0.00000000000E+00  0.00000000000E+00 -0.40046844212E+03  0.98164304946E+03  0.89624109671E+03 0.  0.
        1    1    3    3  502    0  0.16930257428E+03  0.35100479226E+03 -0.44254894387E+03  0.58967558334E+03  0.50400001928E-02 0. -1.
       -1    1    3    3    0  502 -0.16930257428E+03 -0.35100479226E+03  0.42080501747E+02  0.39196746612E+03  0.50400001928E-02 0.  1.
</event>
<event>
 5   0  0.6863405E-03  0.9187404E+03  0.7818609E-02  0.9402454E-01
        2   -1    0    0  501    0  0.00000000000E+00  0.00000000000E+00  0.31986768927E+03  0.31986768928E+03  0.25500000920E-02 0. -1.
       -2   -1    0    0    0  501  0.00000000000E+00  0.00000000000E+00 -0.65971327000E+03  0.65971327000E+03  0.25500000920E-02 0.  1.
    10030    2    1    2    0    0  0.00000000000E+00  0.00000000000E+00 -0.33984558073E+03  0.97958095928E+03  0.91874035344E+03 0.  0.
        1    1    3    3  502    0  0.18241316308E+03  0.40629768801E+03 -0.28993118128E+03  0.53142493661E+03  0.50400001928E-02 0.  1.
       -1    1    3    3    0  502 -0.18241316308E+03 -0.40629768801E+03 -0.49914399449E+02  0.44815602266E+03  0.50400001928E-02 0. -1.
</event>
<event>
 5   0  0.3969536E-03  0.9016027E+03  0.7818609E-02  0.9423580E-01
       -1   -1    0    0    0  501  0.00000000000E+00  0.00000000000E+00  0.38162804092E+03  0.38162804096E+03  0.50400001928E-02 0. -1.
        1   -1    0    0  501    0  0.00000000000E+00  0.00000000000E+00 -0.53251288852E+03  0.53251288854E+03  0.50400001928E-02 0.  1.
    10030    2    1    2    0    0  0.00000000000E+00  0.00000000000E+00 -0.15088484759E+03  0.91414092950E+03  0.90160268508E+03 0.  0.
        1    1    3    3  502    0 -0.15870206801E+03  0.30363863151E+03 -0.37249990819E+03  0.50610171564E+03  0.50400001928E-02 0.  1.
       -1    1    3    3    0  502  0.15870206801E+03 -0.30363863151E+03  0.22161506060E+03  0.40803921386E+03  0.50400001928E-02 0. -1.
</event>
<event>
 5   0  0.6724773E-03  0.8916715E+03  0.7818609E-02  0.9436053E-01
        2   -1    0    0  501    0  0.00000000000E+00  0.00000000000E+00  0.18970718814E+04  0.18970718814E+04  0.25500000920E-02 0.  1.
       -2   -1    0    0    0  501  0.00000000000E+00  0.00000000000E+00 -0.10477700023E+03  0.10477700027E+03  0.25500000920E-02 0. -1.
    10030    2    1    2    0    0  0.00000000000E+00  0.00000000000E+00  0.17922948812E+04  0.20018488817E+04  0.89167146640E+03 0.  0.
        5    1    3    3  502    0 -0.32916327732E+03  0.25382219981E+03  0.12579648620E+04  0.13248667315E+04  0.46999998093E+01 0.  1.
       -5    1    3    3    0  502  0.32916327732E+03 -0.25382219981E+03  0.53433001917E+03  0.67698215015E+03  0.46999998093E+01 0. -1.
</event>
<event>
 5   0  0.6863405E-03  0.8919761E+03  0.7818609E-02  0.9435668E-01
        2   -1    0    0  501    0  0.00000000000E+00  0.00000000000E+00  0.59895371787E+03  0.59895371788E+03  0.25500000920E-02 0. -1.
       -2   -1    0    0    0  501  0.00000000000E+00  0.00000000000E+00 -0.33208798406E+03  0.33208798407E+03  0.25500000920E-02 0.  1.
    10030    2    1    2    0    0  0.00000000000E+00  0.00000000000E+00  0.26686573382E+03  0.93104170194E+03  0.89197608201E+03 0.  0.
        1    1    3    3  502    0  0.24150599663E+03 -0.14738164493E+03  0.49329128204E+03  0.56866755194E+03  0.50400001928E-02 0. -1.
       -1    1    3    3    0  502 -0.24150599663E+03  0.14738164493E+03 -0.22642554823E+03  0.36237415000E+03  0.50400001928E-02 0.  1.
</event>
<event>
 5   0  0.6724773E-03  0.9043934E+03  0.7818609E-02  0.9420106E-01
        2   -1    0    0  501    0  0.00000000000E+00  0.00000000000E+00  0.71530485707E+03  0.71530485708E+03  0.25500000920E-02 0.  1.
       -2   -1    0    0    0  501  0.00000000000E+00  0.00000000000E+00 -0.28586672696E+03  0.28586672697E+03  0.25500000920E-02 0. -1.
    10030    2    1    2    0    0  0.00000000000E+00  0.00000000000E+00  0.42943813012E+03  0.10011715840E+04  0.90439340616E+03 0.  0.
        5    1    3    3  502    0  0.41320934480E+03  0.13449027962E+03  0.76320055271E+02  0.44122153027E+03  0.46999998093E+01 0. -1.
       -5    1    3    3    0  502 -0.41320934480E+03 -0.13449027962E+03  0.35311807485E+03  0.55995005377E+03  0.46999998093E+01 0.  1.
</event>
<event>
 5   0  0.6724773E-03  0.8952647E+03  0.7818609E-02  0.9431520E-01
       -2   -1    0    0    0  501  0.00000000000E+00  0.00000000000E+00  0.27195945990E+03  0.27195945991E+03  0.25500000920E-02 0. -1.
        2   -1    0    0  501    0  0.00000000000E+00  0.00000000000E+00 -0.73678161054E+03  0.73678161054E+03  0.25500000920E-02 0.  1.
    10030    2    1    2    0    0  0.00000000000E+00  0.00000000000E+00 -0.46482215064E+03  0.10087410705E+04  0.89526471811E+03 0.  0.
        5    1    3    3  502    0  0.21201649292E+03 -0.16091809338E+02 -0.67621782753E+03  0.70887416363E+03  0.46999998093E+01 0.  1.
       -5    1    3    3    0  502 -0.21201649292E+03  0.16091809338E+02  0.21139567689E+03  0.29986690682E+03  0.46999998093E+01 0. -1.
</event>
<event>
 5   0  0.2560250E-03  0.8994542E+03  0.7818609E-02  0.9426264E-01
        4   -1    0    0  501    0  0.00000000000E+00  0.00000000000E+00  0.36549750769E+03  0.36549971413E+03  0.12699999809E+01 0. -1.
       -4   -1    0    0    0  501  0.00000000000E+00  0.00000000000E+00 -0.55336300014E+03  0.55336445750E+03  0.12699999809E+01 0.  1.
    10030    2    1    2    0    0  0.00000000000E+00  0.00000000000E+00 -0.18786549244E+03  0.91886417163E+03  0.89945423599E+03 0.  0.
        3    1    3    3  502    0 -0.29080847730E+03  0.14088711133E+03  0.22560412116E+03  0.39410148223E+03  0.10100000352E+00 0. -1.
       -3    1    3    3    0  502  0.29080847730E+03 -0.14088711133E+03 -0.41346961361E+03  0.52476268940E+03  0.10100000352E+00 0.  1.
</event>
<event>
 5   0  0.6524705E-03  0.9002225E+03  0.7818609E-02  0.9425303E-01
       -2   -1    0    0    0  501  0.00000000000E+00  0.00000000000E+00  0.23349071972E+03  0.23349071973E+03  0.25500000920E-02 0. -1.
        2   -1    0    0  501    0  0.00000000000E+00  0.00000000000E+00 -0.86770103465E+03  0.86770103465E+03  0.25500000920E-02 0.  1.
    10030    2    1    2    0    0  0.00000000000E+00  0.00000000000E+00 -0.63421031493E+03  0.11011917544E+04  0.90022250380E+03 0.  0.
        3    1    3    3  502    0 -0.16236796947E+03 -0.27960027401E+03  0.65948880246E+02  0.32998323555E+03  0.10100000352E+00 0. -1.
       -3    1    3    3    0  502  0.16236796947E+03  0.27960027401E+03 -0.70015919518E+03  0.77120851884E+03  0.10100000352E+00 0.  1.
</event>
<event>
 5   0  0.3927993E-03  0.8990940E+03  0.7818609E-02  0.9426715E-01
       -1   -1    0    0    0  501  0.00000000000E+00  0.00000000000E+00  0.31965790696E+03  0.31965790700E+03  0.50400001928E-02 0.  1.
        1   -1    0    0  501    0  0.00000000000E+00  0.00000000000E+00 -0.63221492720E+03  0.63221492722E+03  0.50400001928E-02 0. -1.
    10030    2    1    2    0    0  0.00000000000E+00  0.00000000000E+00 -0.31255702024E+03  0.95187283422E+03  0.89909398931E+03 0.  0.
        2    1    3    3  502    0  0.43670530090E+03 -0.20277002352E+02 -0.26716373024E+03  0.51234669456E+03  0.25500000920E-02 0.  1.
       -2    1    3    3    0  502 -0.43670530090E+03  0.20277002352E+02 -0.45393290002E+02  0.43952613966E+03  0.25500000920E-02 0. -1.
</event>
<event>
 5   0  0.6534628E-03  0.8958536E+03  0.7818609E-02  0.9430779E-01
        2   -1    0    0  501    0  0.00000000000E+00  0.00000000000E+00  0.47587097629E+03  0.47587097630E+03  0.25500000920E-02 0. -1.
       -2   -1    0    0    0  501  0.00000000000E+00  0.00000000000E+00 -0.42162360612E+03  0.42162360612E+03  0.25500000920E-02 0.  1.
    10030    2    1    2    0    0  0.00000000000E+00  0.00000000000E+00  0.54247370176E+02  0.89749458242E+03  0.89585364224E+03 0.  0.
        4    1    3    3  502    0 -0.38506977147E+03 -0.20545557415E+03 -0.73788681423E+02  0.44264783322E+03  0.12699999809E+01 0. -1.
       -4    1    3    3    0  502  0.38506977147E+03  0.20545557415E+03  0.12803605160E+03  0.45484674920E+03  0.12699999809E+01 0.  1.
</event>
<event>
 5   0  0.3943549E-03  0.8166506E+03  0.7818609E-02  0.9536224E-01
       -1   -1    0    0    0  501  0.00000000000E+00  0.00000000000E+00  0.27737544228E+03  0.27737544233E+03  0.50400001928E-02 0.  1.
        1   -1    0    0  501    0  0.00000000000E+00  0.00000000000E+00 -0.60109703338E+03  0.60109703340E+03  0.50400001928E-02 0. -1.
    10030    2    1    2    0    0  0.00000000000E+00  0.00000000000E+00 -0.32372159109E+03  0.87847247573E+03  0.81665061199E+03 0.  0.
        3    1    3    3  502    0 -0.10943843703E+03  0.39025866275E+03 -0.10860595490E+03  0.41961155727E+03  0.10100000352E+00 0.  1.
       -3    1    3    3    0  502  0.10943843703E+03 -0.39025866275E+03 -0.21511563620E+03  0.45886091846E+03  0.10100000352E+00 0. -1.
</event>
<event>
 5   0  0.6524705E-03  0.8966043E+03  0.7818609E-02  0.9429836E-01
       -2   -1    0    0    0  501  0.00000000000E+00  0.00000000000E+00  0.13843168260E+03  0.13843168263E+03  0.25500000920E-02 0.  1.
        2   -1    0    0  501    0  0.00000000000E+00  0.00000000000E+00 -0.14517978359E+04  0.14517978359E+04  0.25500000920E-02 0. -1.
    10030    2    1    2    0    0  0.00000000000E+00  0.00000000000E+00 -0.13133661533E+04  0.15902295185E+04  0.89660429899E+03 0.  0.
        3    1    3    3  502    0 -0.18482957994E+03 -0.30604968909E+03 -0.17699874251E+03  0.39894479676E+03  0.10100000352E+00 0.  1.
       -3    1    3    3    0  502  0.18482957994E+03  0.30604968909E+03 -0.11363674108E+04  0.11912847218E+04  0.10100000352E+00 0. -1.
</event>
<event>
 5   0  0.3998066E-03  0.8909237E+03  0.7818609E-02  0.9436999E-01
       -1   -1    0    0    0  501  0.00000000000E+00  0.00000000000E+00  0.21603500486E+03  0.21603500492E+03  0.50400001928E-02 0.  1.
        1   -1    0    0  501    0  0.00000000000E+00  0.00000000000E+00 -0.91853758001E+03  0.91853758002E+03  0.50400001928E-02 0. -1.
    10030    2    1    2    0    0  0.00000000000E+00  0.00000000000E+00 -0.70250257514E+03  0.11345725849E+04  0.89092372425E+03 0.  0.
        4    1    3    3  502    0  0.17495790767E+03 -0.34460637612E+03 -0.63335154353E+03  0.74195661228E+03  0.12699999809E+01 0.  1.
       -4    1    3    3    0  502 -0.17495790767E+03  0.34460637612E+03 -0.69151031614E+02  0.39261597266E+03  0.12699999809E+01 0. -1.
</event>
<event>
 5   0  0.6863405E-03  0.9013590E+03  0.7818609E-02  0.9423884E-01
       -2   -1    0    0    0  501  0.00000000000E+00  0.00000000000E+00  0.31023212508E+03  0.31023212509E+03  0.25500000920E-02 0. -1.
        2   -1    0    0  501    0  0.00000000000E+00  0.00000000000E+00 -0.65470979651E+03  0.65470979651E+03  0.25500000920E-02 0.  1.
    10030    2    1    2    0    0  0.00000000000E+00  0.00000000000E+00 -0.34447767143E+03  0.96494192160E+03  0.90135899948E+03 0.  0.
        1    1    3    3  502    0 -0.23807485490E+03  0.30449634509E+03  0.75873604873E+02  0.39389651515E+03  0.50400001928E-02 0. -1.
       -1    1    3    3    0  502  0.23807485490E+03 -0.30449634509E+03 -0.42035127630E+03  0.57104540645E+03  0.50400001928E-02 0.  1.
</event>
<event>
 5   0  0.3794006E-03  0.8988992E+03  0.7818609E-02  0.9426959E-01
        1   -1    0    0  501    0  0.00000000000E+00  0.00000000000E+00  0.34985315041E+03  0.34985315045E+03  0.50400001928E-02 0.  1.
       -1   -1    0    0    0  501  0.00000000000E+00  0.00000000000E+00 -0.57739924633E+03  0.57739924635E+03  0.50400001928E-02 0. -1.
    10030    2    1    2    0    0  0.00000000000E+00  0.00000000000E+00 -0.22754609592E+03  0.92725239680E+03  0.89889920548E+03 0.  0.
        5    1    3    3  502    0 -0.26827415670E+03  0.27303670410E+03  0.12916068637E+03  0.40401069026E+03  0.46999998093E+01 0.  1.
       -5    1    3    3    0  502  0.26827415670E+03 -0.27303670410E+03 -0.35670678229E+03  0.52324170655E+03  0.46999998093E+01 0. -1.
</event>
<event>
 5   0  0.3998066E-03  0.8934194E+03  0.7818609E-02  0.9433845E-01
        1   -1    0    0  501    0  0.00000000000E+00  0.00000000000E+00  0.99640222515E+03  0.99640222516E+03  0.50400001928E-02 0.  1.
       -1   -1    0    0    0  501  0.00000000000E+00  0.00000000000E+00 -0.20027009432E+03  0.20027009439E+03  0.50400001928E-02 0. -1.
    10030    2    1    2    0    0  0.00000000000E+00  0.00000000000E+00  0.79613213083E+03  0.11966723196E+04  0.89341942594E+03 0.  0.
        4    1    3    3  502    0 -0.72558820748E+02 -0.36244045429E+03  0.73404691164E+03  0.82186029638E+03  0.12699999809E+01 0.  1.
       -4    1    3    3    0  502  0.72558820748E+02  0.36244045429E+03  0.62085219182E+02  0.37481202317E+03  0.12699999809E+01 0. -1.
</event>
<event>
 5   0  0.6524705E-03  0.8957414E+03  0.7818609E-02  0.9430921E-01
       -2   -1    0    0    0  501  0.00000000000E+00  0.00000000000E+00  0.13240134037E+03  0.13240134040E+03  0.25500000920E-02 0.  1.
        2   -1    0    0  501    0  0.00000000000E+00  0.00000000000E+00 -0.15150011042E+04  0.15150011042E+04  0.25500000920E-02 0. -1.
    10030    2    1    2    0    0  0.00000000000E+00  0.00000000000E+00 -0.13825997638E+04  0.16474024446E+04  0.89574142894E+03 0.  0.
        3    1    3    3  502    0 -0.11961002520E+03 -0.17152655516E+02 -0.14844562229E+04  0.14893659925E+04  0.10100000352E+00 0. -1.
       -3    1    3    3    0  502  0.11961002520E+03  0.17152655516E+02  0.10185645910E+03  0.15803645207E+03  0.10100000352E+00 0.  1.
</event>
<event>
 5   0  0.3794006E-03  0.8963628E+03  0.7818609E-02  0.9430140E-01
        1   -1    0    0  501    0  0.00000000000E+00  0.00000000000E+00  0.41377765158E+03  0.41377765161E+03  0.50400001928E-02 0.  1.
       -1   -1    0    0    0  501  0.00000000000E+00  0.00000000000E+00 -0.48544567265E+03  0.48544567268E+03  0.50400001928E-02 0. -1.
    10030    2    1    2    0    0  0.00000000000E+00  0.00000000000E+00 -0.71668021068E+02  0.89922332429E+03  0.89636280696E+03 0.  0.
        5    1    3    3  502    0 -0.57236162839E+02 -0.35491963849E+03  0.23260270814E+03  0.42821727891E+03  0.46999998093E+01 0.  1.
       -5    1    3    3    0  502  0.57236162839E+02  0.35491963849E+03 -0.30427072921E+03  0.47100604537E+03  0.46999998093E+01 0. -1.
</event>
<event>
 5   0  0.3943549E-03  0.9017337E+03  0.7818609E-02  0.9423417E-01
        1   -1    0    0  501    0  0.00000000000E+00  0.00000000000E+00  0.23168054989E+04  0.23168054989E+04  0.50400001928E-02 0. -1.
       -1   -1    0    0    0  501  0.00000000000E+00  0.00000000000E+00 -0.87741893640E+02  0.87741893785E+02  0.50400001928E-02 0.  1.
    10030    2    1    2    0    0  0.00000000000E+00  0.00000000000E+00  0.22290636052E+04  0.24045473926E+04  0.90173366766E+03 0.  0.
        3    1    3    3  502    0 -0.29251380264E+03  0.33772665441E+03  0.95326915187E+03  0.10527799884E+04  0.10100000352E+00 0.  1.
       -3    1    3    3    0  502  0.29251380264E+03 -0.33772665441E+03  0.12757944533E+04  0.13517674043E+04  0.10100000352E+00 0. -1.
</event>
<event>
 5   0  0.3927993E-03  0.8950747E+03  0.7818609E-02  0.9431759E-01
        1   -1    0    0  501    0  0.00000000000E+00  0.00000000000E+00  0.14318890314E+04  0.14318890314E+04  0.50400001928E-02 0.  1.
       -1   -1    0    0    0  501  0.00000000000E+00  0.00000000000E+00 -0.13987792325E+03  0.13987792334E+03  0.50400001928E-02 0. -1.
    10030    2    1    2    0    0  0.00000000000E+00  0.00000000000E+00  0.12920111082E+04  0.15717669548E+04  0.89507466531E+03 0.  0.
        2    1    3    3  502    0  0.28711940851E+03 -0.19368425324E+03  0.11437320962E+04  0.11950206076E+04  0.25500000920E-02 0.  1.
       -2    1    3    3    0  502 -0.28711940851E+03  0.19368425324E+03  0.14827901194E+03  0.37674634714E+03  0.25500000920E-02 0. -1.
</event>
<event>
 5   0  0.6609191E-03  0.9017959E+03  0.7818609E-02  0.9423339E-01
       -2   -1    0    0    0  501  0.00000000000E+00  0.00000000000E+00  0.90470554591E+02  0.90470554627E+02  0.25500000920E-02 0.  1.
        2   -1    0    0  501    0  0.00000000000E+00  0.00000000000E+00 -0.22472391555E+04  0.22472391555E+04  0.25500000920E-02 0. -1.
    10030    2    1    2    0    0  0.00000000000E+00  0.00000000000E+00 -0.21567686010E+04  0.23377097102E+04  0.90179592535E+03 0.  0.
        2    1    3    3  502    0  0.24626619012E+03 -0.26293061161E+03 -0.17813156479E+04  0.18173786013E+04  0.25500000920E-02 0. -1.
       -2    1    3    3    0  502 -0.24626619012E+03  0.26293061161E+03 -0.37545295303E+03  0.52033110888E+03  0.25500000920E-02 0.  1.
</event>
<event>
 5   0  0.3927993E-03  0.9098173E+03  0.7818609E-02  0.9413392E-01
        1   -1    0    0  501    0  0.00000000000E+00  0.00000000000E+00  0.94999979277E+03  0.94999979278E+03  0.50400001928E-02 0.  1.
       -1   -1    0    0    0  501  0.00000000000E+00  0.00000000000E+00 -0.21783361340E+03  0.21783361346E+03  0.50400001928E-02 0. -1.
    10030    2    1    2    0    0  0.00000000000E+00  0.00000000000E+00  0.73216617937E+03  0.11678334062E+04  0.90981731711E+03 0.  0.
        2    1    3    3  502    0  0.93774412241E+02  0.27418333766E+03 -0.84038001094E+02  0.30171597352E+03  0.25500000920E-02 0. -1.
       -2    1    3    3    0  502 -0.93774412241E+02 -0.27418333766E+03  0.81620418046E+03  0.86611743272E+03  0.25500000920E-02 0.  1.
</event>
<event>
 5   0  0.3927993E-03  0.9006306E+03  0.7818609E-02  0.9424793E-01
        1   -1    0    0  501    0  0.00000000000E+00  0.00000000000E+00  0.60168641852E+03  0.60168641854E+03  0.50400001928E-02 0.  1.
       -1   -1    0    0    0  501  0.00000000000E+00  0.00000000000E+00 -0.33702587147E+03  0.33702587151E+03  0.50400001928E-02 0. -1.
    10030    2    1    2    0    0  0.00000000000E+00  0.00000000000E+00  0.26466054705E+03  0.93871229005E+03  0.90063064478E+03 0.  0.
        2    1    3    3  502    0 -0.34586990776E+03 -0.65804851361E+02  0.42496440947E+03  0.55186141456E+03  0.25500000920E-02 0.  1.
       -2    1    3    3    0  502  0.34586990776E+03  0.65804851361E+02 -0.16030386241E+03  0.38685087549E+03  0.25500000920E-02 0. -1.
</event>
<event>
 5   0  0.3943549E-03  0.8290378E+03  0.7818609E-02  0.9518912E-01
       -1   -1    0    0    0  501  0.00000000000E+00  0.00000000000E+00  0.24999348075E+03  0.24999348080E+03  0.50400001928E-02 0.  1.
        1   -1    0    0  501    0  0.00000000000E+00  0.00000000000E+00 -0.68732158997E+03  0.68732158998E+03  0.50400001928E-02 0. -1.
    10030    2    1    2    0    0  0.00000000000E+00  0.00000000000E+00 -0.43732810921E+03  0.93731507079E+03  0.82903779577E+03 0.  0.
        3    1    3    3  502    0 -0.89772109921E+01  0.33583071731E+03  0.55873159983E+02  0.34056523782E+03  0.10100000352E+00 0.  1.
       -3    1    3    3    0  502  0.89772109921E+01 -0.33583071731E+03 -0.49320126920E+03  0.59674983296E+03  0.10100000352E+00 0. -1.
</event>
<event>
 5   0  0.6863405E-03  0.8997579E+03  0.7818609E-02  0.9425884E-01
       -2   -1    0    0    0  501  0.00000000000E+00  0.00000000000E+00  0.11534893581E+03  0.11534893584E+03  0.25500000920E-02 0. -1.
        2   -1    0    0  501    0  0.00000000000E+00  0.00000000000E+00 -0.17545984846E+04  0.17545984846E+04  0.25500000920E-02 0.  1.
    10030    2    1    2    0    0  0.00000000000E+00  0.00000000000E+00 -0.16392495488E+04  0.18699474204E+04  0.89975789632E+03 0.  0.
        1    1    3    3  502    0 -0.71651494838E+02 -0.22902347943E+03 -0.28771216234E+02  0.24168879525E+03  0.50400001928E-02 0. -1.
       -1    1    3    3    0  502  0.71651494838E+02  0.22902347943E+03 -0.16104783325E+04  0.16282586252E+04  0.50400001928E-02 0.  1.
</event>
<event>
 5   0  0.6534628E-03  0.8970535E+03  0.7818609E-02  0.9429272E-01
       -2   -1    0    0    0  501  0.00000000000E+00  0.00000000000E+00  0.55914420990E+03  0.55914420991E+03  0.25500000920E-02 0.  1.
        2   -1    0    0  501    0  0.00000000000E+00  0.00000000000E+00 -0.35979313757E+03  0.35979313757E+03  0.25500000920E-02 0. -1.
    10030    2    1    2    0    0  0.00000000000E+00  0.00000000000E+00  0.19935107234E+03  0.91893734748E+03  0.89705350931E+03 0.  0.
        4    1    3    3  502    0 -0.29706096688E+03 -0.17666769213E+03  0.39251275394E+03  0.52299576135E+03  0.12699999809E+01 0.  1.
       -4    1    3    3    0  502  0.29706096688E+03  0.17666769213E+03 -0.19316168160E+03  0.39594158613E+03  0.12699999809E+01 0. -1.
</event>
<event>
 5   0  0.3969536E-03  0.8990854E+03  0.7818609E-02  0.9426725E-01
        1   -1    0    0  501    0  0.00000000000E+00  0.00000000000E+00  0.20220111921E+04  0.20220111921E+04  0.50400001928E-02 0.  1.
       -1   -1    0    0    0  501  0.00000000000E+00  0.00000000000E+00 -0.99944378015E+02  0.99944378142E+02  0.50400001928E-02 0. -1.
    10030    2    1    2    0    0  0.00000000000E+00  0.00000000000E+00  0.19220668141E+04  0.21219555703E+04  0.89908542659E+03 0.  0.
        1    1    3    3  502    0  0.75241409370E+02  0.21907476366E+03  0.18703214524E+04  0.18846106646E+04  0.50400001928E-02 0.  1.
       -1    1    3    3    0  502 -0.75241409370E+02 -0.21907476366E+03  0.51745361676E+02  0.23734490565E+03  0.50400001928E-02 0. -1.
</event>
<event>
 5   0  0.6863405E-03  0.9027665E+03  0.7818609E-02  0.9422130E-01
       -2   -1    0    0    0  501  0.00000000000E+00  0.00000000000E+00  0.26476648087E+03  0.26476648088E+03  0.25500000920E-02 0. -1.
        2   -1    0    0  501    0  0.00000000000E+00  0.00000000000E+00 -0.76953409377E+03  0.76953409377E+03  0.25500000920E-02 0.  1.
    10030    2    1    2    0    0  0.00000000000E+00  0.00000000000E+00 -0.50476761290E+03  0.10343005746E+04  0.90276649012E+03 0.  0.
        1    1    3    3  502    0  0.14423355421E+03 -0.34098093879E+03 -0.54822219330E+03  0.66152769559E+03  0.50400001928E-02 0. -1.
       -1    1    3    3    0  502 -0.14423355421E+03  0.34098093879E+03  0.43454580397E+02  0.37277287906E+03  0.50400001928E-02 0.  1.
</event>
<event>
 5   0  0.6534628E-03  0.8974691E+03  0.7818609E-02  0.9428751E-01
        2   -1    0    0  501    0  0.00000000000E+00  0.00000000000E+00  0.53168032624E+03  0.53168032624E+03  0.25500000920E-02 0.  1.
       -2   -1    0    0    0  501  0.00000000000E+00  0.00000000000E+00 -0.37872891933E+03  0.37872891933E+03  0.25500000920E-02 0. -1.
    10030    2    1    2    0    0  0.00000000000E+00  0.00000000000E+00  0.15295140691E+03  0.91040924558E+03  0.89746914240E+03 0.  0.
        4    1    3    3  502    0  0.26023488853E+03 -0.13004537759E+02  0.44707843712E+03  0.51746696227E+03  0.12699999809E+01 0.  1.
       -4    1    3    3    0  502 -0.26023488853E+03  0.13004537759E+02 -0.29412703020E+03  0.39294228330E+03  0.12699999809E+01 0. -1.
</event>
<event>
 5   0  0.6724773E-03  0.8966262E+03  0.7818609E-02  0.9429809E-01
        2   -1    0    0  501    0  0.00000000000E+00  0.00000000000E+00  0.41521281347E+03  0.41521281348E+03  0.25500000920E-02 0.  1.
       -2   -1    0    0    0  501  0.00000000000E+00  0.00000000000E+00 -0.48405205945E+03  0.48405205946E+03  0.25500000920E-02 0. -1.
    10030    2    1    2    0    0  0.00000000000E+00  0.00000000000E+00 -0.68839245978E+02  0.89926487293E+03  0.89662615950E+03 0.  0.
        5    1    3    3  502    0 -0.36209207876E+03  0.26054347008E+03 -0.78923108739E+02  0.45303920403E+03  0.46999998093E+01 0. -1.
       -5    1    3    3    0  502  0.36209207876E+03 -0.26054347008E+03  0.10083862761E+02  0.44622566890E+03  0.46999998093E+01 0.  1.
</event>
<event>
 5   0  0.6863405E-03  0.9025784E+03  0.7818609E-02  0.9422364E-01
       -2   -1    0    0    0  501  0.00000000000E+00  0.00000000000E+00  0.51037855570E+03  0.51037855571E+03  0.25500000920E-02 0. -1.
        2   -1    0    0  501    0  0.00000000000E+00  0.00000000000E+00 -0.39904098555E+03  0.39904098556E+03  0.25500000920E-02 0.  1.
    10030    2    1    2    0    0  0.00000000000E+00  0.00000000000E+00  0.11133757015E+03  0.90941954127E+03  0.90257844397E+03 0.  0.
        1    1    3    3  502    0  0.30392230683E+03 -0.51059238284E+02 -0.27650581603E+03  0.41404260738E+03  0.50400001928E-02 0.  1.
       -1    1    3    3    0  502 -0.30392230683E+03  0.51059238284E+02  0.38784338618E+03  0.49537693389E+03  0.50400001928E-02 0. -1.
</event>
<event>
 5   0  0.6724773E-03  0.8863824E+03  0.7818609E-02  0.9442766E-01
        2   -1    0    0  501    0  0.00000000000E+00  0.00000000000E+00  0.73085208242E+03  0.73085208243E+03  0.25500000920E-02 0.  1.
       -2   -1    0    0    0  501  0.00000000000E+00  0.00000000000E+00 -0.26875264112E+03  0.26875264113E+03  0.25500000920E-02 0. -1.
    10030    2    1    2    0    0  0.00000000000E+00  0.00000000000E+00  0.46209944130E+03  0.99960472356E+03  0.88638237218E+03 0.  0.
        5    1    3    3  502    0 -0.35074066397E+03  0.25676919895E+03  0.32836813503E+03  0.54479092961E+03  0.46999998093E+01 0. -1.
       -5    1    3    3    0  502  0.35074066397E+03 -0.25676919895E+03  0.13373130628E+03  0.45481379395E+03  0.46999998093E+01 0.  1.
</event>
<event>
 5   0  0.6863405E-03  0.8871364E+03  0.7818609E-02  0.9441806E-01
        2   -1    0    0  501    0  0.00000000000E+00  0.00000000000E+00  0.59215080946E+03  0.59215080947E+03  0.25500000920E-02 0.  1.
       -2   -1    0    0    0  501  0.00000000000E+00  0.00000000000E+00 -0.33226796847E+03  0.33226796848E+03  0.25500000920E-02 0. -1.
    10030    2    1    2    0    0  0.00000000000E+00  0.00000000000E+00  0.25988284099E+03  0.92441877795E+03  0.88713639649E+03 0.  0.
        1    1    3    3  502    0  0.27581352124E+03 -0.30534045898E+03  0.30257474429E+03  0.51074198016E+03  0.50400001928E-02 0. -1.
       -1    1    3    3    0  502 -0.27581352124E+03  0.30534045898E+03 -0.42691903297E+02  0.41367679778E+03  0.50400001928E-02 0.  1.
</event>
<event>
 5   0  0.3998066E-03  0.9039849E+03  0.7818609E-02  0.9420614E-01
       -1   -1    0    0    0  501  0.00000000000E+00  0.00000000000E+00  0.13060511202E+03  0.13060511212E+03  0.50400001928E-02 0.  1.
        1   -1    0    0  501    0  0.00000000000E+00  0.00000000000E+00 -0.15642356764E+04  0.15642356764E+04  0.50400001928E-02 0. -1.
    10030    2    1    2    0    0  0.00000000000E+00  0.00000000000E+00 -0.14336305644E+04  0.16948407886E+04  0.90398490217E+03 0.  0.
        4    1    3    3  502    0 -0.22391066428E+03  0.34156373851E+03 -0.35378119867E+03  0.54033741540E+03  0.12699999809E+01 0.  1.
       -4    1    3    3    0  502  0.22391066428E+03 -0.34156373851E+03 -0.10798493657E+04  0.11545033732E+04  0.12699999809E+01 0. -1.
</event>
<event>
 5   0  0.3943549E-03  0.9185903E+03  0.7818609E-02  0.9402636E-01
       -1   -1    0    0    0  501  0.00000000000E+00  0.00000000000E+00  0.30465231466E+03  0.30465231470E+03  0.50400001928E-02 0.  1.
        1   -1    0    0  501    0  0.00000000000E+00  0.00000000000E+00 -0.69243538641E+03  0.69243538643E+03  0.50400001928E-02 0. -1.
    10030    2    1    2    0    0  0.00000000000E+00  0.00000000000E+00 -0.38778307175E+03  0.99708770113E+03  0.91859031837E+03 0.  0.
        3    1    3    3  502    0 -0.42620824515E+03  0.15470678710E+03 -0.11439081732E+03  0.46762477212E+03  0.10100000352E+00 0. -1.
       -3    1    3    3    0  502  0.42620824515E+03 -0.15470678710E+03 -0.27339225443E+03  0.52946292901E+03  0.10100000352E+00 0.  1.
</event>
<event>
 5   0  0.6863405E-03  0.9048132E+03  0.7818609E-02  0.9419585E-01
       -2   -1    0    0    0  501  0.00000000000E+00  0.00000000000E+00  0.11400748948E+03  0.11400748951E+03  0.25500000920E-02 0. -1.
        2   -1    0    0  501    0  0.00000000000E+00  0.00000000000E+00 -0.17952480342E+04  0.17952480342E+04  0.25500000920E-02 0.  1.
    10030    2    1    2    0    0  0.00000000000E+00  0.00000000000E+00 -0.16812405447E+04  0.19092555237E+04  0.90481317720E+03 0.  0.
        1    1    3    3  502    0 -0.37897590128E+03 -0.24555471524E+03 -0.89847999678E+03  0.10055775239E+04  0.50400001928E-02 0.  1.
       -1    1    3    3    0  502  0.37897590128E+03  0.24555471524E+03 -0.78276054796E+03  0.90367799984E+03  0.50400001928E-02 0. -1.
</event>
<event>
 5   0  0.3927993E-03  0.8989440E+03  0.7818609E-02  0.9426902E-01
        1   -1    0    0  501    0  0.00000000000E+00  0.00000000000E+00  0.77585440074E+03  0.77585440076E+03  0.50400001928E-02 0. -1.
       -1   -1    0    0    0  501  0.00000000000E+00  0.00000000000E+00 -0.26039046753E+03  0.26039046758E+03  0.50400001928E-02 0.  1.
    10030    2    1    2    0    0  0.00000000000E+00  0.00000000000E+00  0.51546393321E+03  0.10362448683E+04  0.89894402535E+03 0.  0.
        2    1    3    3  502    0 -0.55253941799E+02 -0.13951288243E+03 -0.23066386240E+03  0.27517750611E+03  0.25500000920E-02 0.  1.
       -2    1    3    3    0  502  0.55253941799E+02  0.13951288243E+03  0.74612779561E+03  0.76106736222E+03  0.25500000920E-02 0. -1.
</event>
<event>
 5   0  0.6609191E-03  0.8970567E+03  0.7818609E-02  0.9429268E-01
       -2   -1    0    0    0  501  0.00000000000E+00  0.00000000000E+00  0.10376605594E+03  0.10376605598E+03  0.25500000920E-02 0.  1.
        2   -1    0    0  501    0  0.00000000000E+00  0.00000000000E+00 -0.19387618473E+04  0.19387618473E+04  0.25500000920E-02 0. -1.
    10030    2    1    2    0    0  0.00000000000E+00  0.00000000000E+00 -0.18349957914E+04  0.20425279033E+04  0.89705667680E+03 0.  0.
        2    1    3    3  502    0  0.11522727480E+03  0.35046067159E+03 -0.33664776685E+03  0.49943140281E+03  0.25500000920E-02 0.  1.
       -2    1    3    3    0  502 -0.11522727480E+03 -0.35046067159E+03 -0.14983480245E+04  0.15430965005E+04  0.25500000920E-02 0. -1.
</event>
<event>
 5   0  0.3998066E-03  0.8973215E+03  0.7818609E-02  0.9428936E-01
       -1   -1    0    0    0  501  0.00000000000E+00  0.00000000000E+00  0.64858292993E+03  0.64858292995E+03  0.50400001928E-02 0.  1.
        1   -1    0    0  501    0  0.00000000000E+00  0.00000000000E+00 -0.31036351320E+03  0.31036351324E+03  0.50400001928E-02 0. -1.
    10030    2    1    2    0    0  0.00000000000E+00  0.00000000000E+00  0.33821941673E+03  0.95894644320E+03  0.89732151822E+03 0.  0.
        4    1    3    3  502    0  0.10721376793E+03 -0.42279217895E+03  0.28143185772E+03  0.51908912727E+03  0.12699999809E+01 0.  1.
       -4    1    3    3    0  502 -0.10721376793E+03  0.42279217895E+03  0.56787559009E+02  0.43985731592E+03  0.12699999809E+01 0. -1.
</event>
<event>
 5   0  0.6724773E-03  0.8745106E+03  0.7818609E-02  0.9458018E-01
       -2   -1    0    0    0  501  0.00000000000E+00  0.00000000000E+00  0.18588653534E+03  0.18588653536E+03  0.25500000920E-02 0. -1.
        2   -1    0    0  501    0  0.00000000000E+00  0.00000000000E+00 -0.10285423833E+04  0.10285423833E+04  0.25500000920E-02 0.  1.
    10030    2    1    2    0    0  0.00000000000E+00  0.00000000000E+00 -0.84265584794E+03  0.12144289186E+04  0.87451056047E+03 0.  0.
        5    1    3    3  502    0 -0.20047973414E+02  0.11254322545E+03  0.16473152633E+03  0.20056536241E+03  0.46999998093E+01 0. -1.
       -5    1    3    3    0  502  0.20047973414E+02 -0.11254322545E+03 -0.10073873743E+04  0.10138635562E+04  0.46999998093E+01 0.  1.
</event>
<event>
 5   0  0.3998066E-03  0.9005057E+03  0.7818609E-02  0.9424949E-01
       -1   -1    0    0    0  501  0.00000000000E+00  0.00000000000E+00  0.53639093525E+03  0.53639093527E+03  0.50400001928E-02 0. -1.
        1   -1    0    0  501    0  0.00000000000E+00  0.00000000000E+00 -0.37794756178E+03  0.37794756181E+03  0.50400001928E-02 0.  1.
    10030    2    1    2    0    0  0.00000000000E+00  0.00000000000E+00  0.15844337347E+03  0.91433849708E+03  0.90050573827E+03 0.  0.
        4    1    3    3  502    0  0.22519395575E+03 -0.18267236480E+03  0.42896093138E+03  0.51777466539E+03  0.12699999809E+01 0. -1.
       -4    1    3    3    0  502 -0.22519395575E+03  0.18267236480E+03 -0.27051755792E+03  0.39656383169E+03  0.12699999809E+01 0.  1.
</event>
<event>
 5   0  0.6863405E-03  0.8964207E+03  0.7818609E-02  0.9430067E-01
        2   -1    0    0  501    0  0.00000000000E+00  0.00000000000E+00  0.37828769287E+03  0.37828769288E+03  0.25500000920E-02 0. -1.
       -2   -1    0    0    0  501  0.00000000000E+00  0.00000000000E+00 -0.53105746393E+03  0.53105746394E+03  0.25500000920E-02 0.  1.
    10030    2    1    2    0    0  0.00000000000E+00  0.00000000000E+00 -0.15276977106E+03  0.90934515682E+03  0.89642066647E+03 0.  0.
        1    1    3    3  502    0  0.30244652116E+03  0.10270476415E+03 -0.39535493286E+03  0.50825947085E+03  0.50400001928E-02 0.  1.
       -1    1    3    3    0  502 -0.30244652116E+03 -0.10270476415E+03  0.24258516180E+03  0.40108568597E+03  0.50400001928E-02 0. -1.
</event>
<event>
 5   0  0.3927993E-03  0.9106484E+03  0.7818609E-02  0.9412367E-01
       -1   -1    0    0    0  501  0.00000000000E+00  0.00000000000E+00  0.22939173651E+03  0.22939173657E+03  0.50400001928E-02 0. -1.
        1   -1    0    0  501    0  0.00000000000E+00  0.00000000000E+00 -0.90378193863E+03  0.90378193865E+03  0.50400001928E-02 0.  1.
    10030    2    1    2    0    0  0.00000000000E+00  0.00000000000E+00 -0.67439020212E+03  0.11331736752E+04  0.91064835885E+03 0.  0.
        2    1    3    3  502    0  0.24251630497E+03  0.46519357313E+01  0.14230207051E+03  0.28122175940E+03  0.25500000920E-02 0. -1.
       -2    1    3    3    0  502 -0.24251630497E+03 -0.46519357313E+01 -0.81669227263E+03  0.85195191582E+03  0.25500000920E-02 0.  1.
</event>
<event>
 5   0  0.3927993E-03  0.9356586E+03  0.7818609E-02  0.9382072E-01
       -1   -1    0    0    0  501  0.00000000000E+00  0.00000000000E+00  0.24450600578E+03  0.24450600583E+03  0.50400001928E-02 0.  1.
        1   -1    0    0  501    0  0.00000000000E+00  0.00000000000E+00 -0.89512828258E+03  0.89512828259E+03  0.50400001928E-02 0. -1.
    10030    2    1    2    0    0  0.00000000000E+00  0.00000000000E+00 -0.65062227680E+03  0.11396342884E+04  0.93565857249E+03 0.  0.
        2    1    3    3  502    0 -0.81143576307E+02 -0.45209947877E+03 -0.21714854064E+03  0.50806663676E+03  0.25500000920E-02 0. -1.
       -2    1    3    3    0  502  0.81143576307E+02  0.45209947877E+03 -0.43347373616E+03  0.63156765166E+03  0.25500000920E-02 0.  1.
</event>
<event>
 5   0  0.3794006E-03  0.8984300E+03  0.7818609E-02  0.9427546E-01
        1   -1    0    0  501    0  0.00000000000E+00  0.00000000000E+00  0.22945085352E+03  0.22945085357E+03  0.50400001928E-02 0. -1.
       -1   -1    0    0    0  501  0.00000000000E+00  0.00000000000E+00 -0.87946551222E+03  0.87946551223E+03  0.50400001928E-02 0.  1.
    10030    2    1    2    0    0  0.00000000000E+00  0.00000000000E+00 -0.65001465870E+03  0.11089163658E+04  0.89842999161E+03 0.  0.
        5    1    3    3  502    0 -0.31492425891E+02  0.72422652732E+02 -0.87079916724E+03  0.87438555179E+03  0.46999998093E+01 0.  1.
       -5    1    3    3    0  502  0.31492425891E+02 -0.72422652732E+02  0.22078450853E+03  0.23453081402E+03  0.46999998093E+01 0. -1.
</event>
<event>
 5   0  0.3794006E-03  0.9024552E+03  0.7818609E-02  0.9422517E-01
        1   -1    0    0  501    0  0.00000000000E+00  0.00000000000E+00  0.33351675274E+03  0.33351675278E+03  0.50400001928E-02 0. -1.
       -1   -1    0    0    0  501  0.00000000000E+00  0.00000000000E+00 -0.61048316649E+03  0.61048316651E+03  0.50400001928E-02 0.  1.
    10030    2    1    2    0    0  0.00000000000E+00  0.00000000000E+00 -0.27696641375E+03  0.94399991930E+03  0.90245523617E+03 0.  0.
        5    1    3    3  502    0 -0.11916573923E+03  0.17089199052E+03 -0.55713221181E+03  0.59483017514E+03  0.46999998093E+01 0.  1.
       -5    1    3    3    0  502  0.11916573923E+03 -0.17089199052E+03  0.28016579806E+03  0.34916974415E+03  0.46999998093E+01 0. -1.
</event>
<event>
 5   0  0.3998066E-03  0.9007670E+03  0.7818609E-02  0.9424623E-01
        1   -1    0    0  501    0  0.00000000000E+00  0.00000000000E+00  0.32033904115E+03  0.32033904119E+03  0.50400001928E-02 0. -1.
       -1   -1    0    0    0  501  0.00000000000E+00  0.00000000000E+00 -0.63322065839E+03  0.63322065841E+03  0.50400001928E-02 0.  1.
    10030    2    1    2    0    0  0.00000000000E+00  0.00000000000E+00 -0.31288161724E+03  0.95355969960E+03  0.90076700334E+03 0.  0.
        4    1    3    3  502    0 -0.43972486112E+03  0.96400102295E+02 -0.17113803530E+03  0.48160229779E+03  0.12699999809E+01 0.  1.
       -4    1    3    3    0  502  0.43972486112E+03 -0.96400102295E+02 -0.14174358194E+03  0.47195740181E+03  0.12699999809E+01 0. -1.
</event>
<event>
 5   0  0.6534628E-03  0.8969820E+03  0.7818609E-02  0.9429362E-01
        2   -1    0    0  501    0  0.00000000000E+00  0.00000000000E+00  0.96390593745E+03  0.96390593745E+03  0.25500000920E-02 0.  1.
       -2   -1    0    0    0  501  0.00000000000E+00  0.00000000000E+00 -0.20867613693E+03  0.20867613695E+03  0.25500000920E-02 0. -1.
    10030    2    1    2    0    0  0.00000000000E+00  0.00000000000E+00  0.75522980052E+03  0.11725820744E+04  0.89698197842E+03 0.  0.
        4    1    3    3  502    0 -0.13686077209E+03 -0.39833905887E+03  0.17620600470E+03  0.45656877440E+03  0.12699999809E+01 0. -1.
       -4    1    3    3    0  502  0.13686077209E+03  0.39833905887E+03  0.57902379582E+03  0.71601330000E+03  0.12699999809E+01 0.  1.
</event>
<event>
 5   0  0.6863405E-03  0.9049660E+03  0.7818609E-02  0.9419395E-01
        2   -1    0    0  501    0  0.00000000000E+00  0.00000000000E+00  0.10946895289E+04  0.10946895289E+04  0.25500000920E-02 0. -1.
       -2   -1    0    0    0  501  0.00000000000E+00  0.00000000000E+00 -0.18703097157E+03  0.18703097159E+03  0.25500000920E-02 0.  1.
    10030    2    1    2    0    0  0.00000000000E+00  0.00000000000E+00  0.90765855734E+03  0.12817205005E+04  0.90496595776E+03 0.  0.
        1    1    3    3  502    0  0.53450461424E+02 -0.41095882092E+03  0.19655485290E+03  0.45866972272E+03  0.50400001928E-02 0. -1.
       -1    1    3    3    0  502 -0.53450461424E+02  0.41095882092E+03  0.71110370443E+03  0.82305077778E+03  0.50400001928E-02 0.  1.
</event>
<event>
 5   0  0.6724773E-03  0.9256910E+03  0.7818609E-02  0.9394024E-01
        2   -1    0    0  501    0  0.00000000000E+00  0.00000000000E+00  0.24849656808E+04  0.24849656808E+04  0.25500000920E-02 0.  1.
       -2   -1    0    0    0  501  0.00000000000E+00  0.00000000000E+00 -0.86208821896E+02  0.86208821933E+02  0.25500000920E-02 0. -1.
    10030    2    1    2    0    0  0.00000000000E+00  0.00000000000E+00  0.23987568589E+04  0.25711745027E+04  0.92569101506E+03 0.  0.
        5    1    3    3  502    0  0.92704854406E+02 -0.45343237777E+03  0.11911563415E+04  0.12779165196E+04  0.46999998093E+01 0. -1.
       -5    1    3    3    0  502 -0.92704854406E+02  0.45343237777E+03  0.12076005174E+04  0.12932579831E+04  0.46999998093E+01 0.  1.
</event>
<event>
 5   0  0.6609191E-03  0.9008717E+03  0.7818609E-02  0.9424492E-01
       -2   -1    0    0    0  501  0.00000000000E+00  0.00000000000E+00  0.48312178376E+03  0.48312178377E+03  0.25500000920E-02 0.  1.
        2   -1    0    0  501    0  0.00000000000E+00  0.00000000000E+00 -0.41996129301E+03  0.41996129302E+03  0.25500000920E-02 0. -1.
    10030    2    1    2    0    0  0.00000000000E+00  0.00000000000E+00  0.63160490749E+02  0.90308307679E+03  0.90087168675E+03 0.  0.
        2    1    3    3  502    0 -0.76020532506E+01  0.40565449203E+03  0.22771094318E+03  0.46525867189E+03  0.25500000920E-02 0.  1.
       -2    1    3    3    0  502  0.76020532506E+01 -0.40565449203E+03 -0.16455045244E+03  0.43782440489E+03  0.25500000920E-02 0. -1.
</event>
<event>
 5   0  0.3927993E-03  0.8785037E+03  0.7818609E-02  0.9452859E-01
        1   -1    0    0  501    0  0.00000000000E+00  0.00000000000E+00  0.33902166415E+03  0.33902166419E+03  0.50400001928E-02 0.  1.
       -1   -1    0    0    0  501  0.00000000000E+00  0.00000000000E+00 -0.56911461147E+03  0.56911461150E+03  0.50400001928E-02 0. -1.
    10030    2    1    2    0    0  0.00000000000E+00  0.00000000000E+00 -0.23009294732E+03  0.90813627568E+03  0.87850368855E+03 0.  0.
        2    1    3    3  502    0  0.17947749816E+03  0.99727513145E+01  0.29925980420E+03  0.34909605918E+03  0.25500000920E-02 0.  1.
       -2    1    3    3    0  502 -0.17947749816E+03 -0.99727513145E+01 -0.52935275153E+03  0.55904021651E+03  0.25500000920E-02 0. -1.
</event>
<event>
 5   0  0.3969536E-03  0.8931935E+03  0.7818609E-02  0.9434130E-01
       -1   -1    0    0    0  501  0.00000000000E+00  0.00000000000E+00  0.29528630072E+03  0.29528630076E+03  0.50400001928E-02 0. -1.
        1   -1    0    0  501    0  0.00000000000E+00  0.00000000000E+00 -0.67544162685E+03  0.67544162687E+03  0.50400001928E-02 0.  1.
    10030    2    1    2    0    0  0.00000000000E+00  0.00000000000E+00 -0.38015532614E+03  0.97072792763E+03  0.89319350506E+03 0.  0.
        1    1    3    3  502    0 -0.32248634657E+03  0.16923427187E+03 -0.47099327690E+03  0.59537580519E+03  0.50400001928E-02 0.  1.
       -1    1    3    3    0  502  0.32248634657E+03 -0.16923427187E+03  0.90837950761E+02  0.37535212244E+03  0.50400001928E-02 0. -1.
</event>
<event>
 5   0  0.6724773E-03  0.8866379E+03  0.7818609E-02  0.9442441E-01
        2   -1    0    0  501    0  0.00000000000E+00  0.00000000000E+00  0.16637625138E+04  0.16637625138E+04  0.25500000920E-02 0.  1.
       -2   -1    0    0    0  501  0.00000000000E+00  0.00000000000E+00 -0.11812485380E+03  0.11812485382E+03  0.25500000920E-02 0. -1.
    10030    2    1    2    0    0  0.00000000000E+00  0.00000000000E+00  0.15456376600E+04  0.17818873677E+04  0.88663792774E+03 0.  0.
        5    1    3    3  502    0 -0.33489732342E+03  0.17546296404E+03  0.30768370257E+03  0.48747801982E+03  0.46999998093E+01 0. -1.
       -5    1    3    3    0  502  0.33489732342E+03 -0.17546296404E+03  0.12379539575E+04  0.12944093478E+04  0.46999998093E+01 0.  1.
</event>
<event>
 5   0  0.6863405E-03  0.9175769E+03  0.7818609E-02  0.9403872E-01
       -2   -1    0    0    0  501  0.00000000000E+00  0.00000000000E+00  0.35237941161E+03  0.35237941162E+03  0.25500000920E-02 0. -1.
        2   -1    0    0  501    0  0.00000000000E+00  0.00000000000E+00 -0.59733019952E+03  0.59733019952E+03  0.25500000920E-02 0.  1.
    10030    2    1    2    0    0  0.00000000000E+00  0.00000000000E+00 -0.24495078791E+03  0.94970961114E+03  0.91757694881E+03 0.  0.
        1    1    3    3  502    0 -0.31718767536E+02 -0.98387229340E+02 -0.58511933771E+03  0.59418075238E+03  0.50400001928E-02 0.  1.
       -1    1    3    3    0  502  0.31718767536E+02  0.98387229340E+02  0.34016854980E+03  0.35552885876E+03  0.50400001928E-02 0. -1.
</event>
<event>
 5   0  0.3794006E-03  0.9009776E+03  0.7818609E-02  0.9424360E-01
       -1   -1    0    0    0  501  0.00000000000E+00  0.00000000000E+00  0.43802116157E+03  0.43802116160E+03  0.50400001928E-02 0. -1.
        1   -1    0    0  501    0  0.00000000000E+00  0.00000000000E+00 -0.46331129654E+03  0.46331129657E+03  0.50400001928E-02 0.  1.
    10030    2    1    2    0    0  0.00000000000E+00  0.00000000000E+00 -0.25290134969E+02  0.90133245816E+03  0.90097758530E+03 0.  0.
        5    1    3    3  502    0  0.39581821336E+02 -0.45306905638E+02 -0.45924965163E+03  0.46319733246E+03  0.46999998093E+01 0.  1.
       -5    1    3    3    0  502 -0.39581821336E+02  0.45306905638E+02  0.43395951666E+03  0.43813512570E+03  0.46999998093E+01 0. -1.
</event>
<event>
 5   0  0.3943549E-03  0.9008111E+03  0.7818609E-02  0.9424568E-01
       -1   -1    0    0    0  501  0.00000000000E+00  0.00000000000E+00  0.11053308656E+04  0.11053308656E+04  0.50400001928E-02 0.  1.
        1   -1    0    0  501    0  0.00000000000E+00  0.00000000000E+00 -0.18353343593E+03  0.18353343600E+03  0.50400001928E-02 0. -1.
    10030    2    1    2    0    0  0.00000000000E+00  0.00000000000E+00  0.92179742968E+03  0.12888643016E+04  0.90081112705E+03 0.  0.
        3    1    3    3  502    0 -0.13046885537E+02  0.23197774232E+02 -0.18240733235E+03  0.18433882675E+03  0.10100000352E+00 0. -1.
       -3    1    3    3    0  502  0.13046885537E+02 -0.23197774232E+02  0.11042047620E+04  0.11045254749E+04  0.10100000352E+00 0.  1.
</event>
<event>
 5   0  0.6724773E-03  0.9053742E+03  0.7818609E-02  0.9418888E-01
        2   -1    0    0  501    0  0.00000000000E+00  0.00000000000E+00  0.29879569217E+03  0.29879569218E+03  0.25500000920E-02 0.  1.
       -2   -1    0    0    0  501  0.00000000000E+00  0.00000000000E+00 -0.68583863141E+03  0.68583863141E+03  0.25500000920E-02 0. -1.
    10030    2    1    2    0    0  0.00000000000E+00  0.00000000000E+00 -0.38704293923E+03  0.98463432359E+03  0.90537423997E+03 0.  0.
        5    1    3    3  502    0  0.12631710320E+03  0.86871823736E+02  0.26967629342E+03  0.31024203060E+03  0.46999998093E+01 0.  1.
       -5    1    3    3    0  502 -0.12631710320E+03 -0.86871823736E+02 -0.65671923265E+03  0.67439229300E+03  0.46999998093E+01 0. -1.
</event>
<event>
 5   0  0.3943549E-03  0.9066336E+03  0.7818609E-02  0.9417327E-01
        1   -1    0    0  501    0  0.00000000000E+00  0.00000000000E+00  0.13156928425E+03  0.13156928434E+03  0.50400001928E-02 0.  1.
       -1   -1    0    0    0  501  0.00000000000E+00  0.00000000000E+00 -0.15618852437E+04  0.15618852437E+04  0.50400001928E-02 0. -1.
    10030    2    1    2    0    0  0.00000000000E+00  0.00000000000E+00 -0.14303159594E+04  0.16934545280E+04  0.90663360553E+03 0.  0.
        3    1    3    3  502    0 -0.20929308279E+03  0.72292824383E+02 -0.14540008501E+04  0.14707645390E+04  0.10100000352E+00 0. -1.
       -3    1    3    3    0  502  0.20929308279E+03 -0.72292824383E+02  0.23684890658E+02  0.22268998901E+03  0.10100000352E+00 0.  1.
</event>
<event>
 5   0  0.6724773E-03  0.9029029E+03  0.7818609E-02  0.9421960E-01
        2   -1    0    0  501    0  0.00000000000E+00  0.00000000000E+00  0.75433734283E+03  0.75433734283E+03  0.25500000920E-02 0. -1.
       -2   -1    0    0    0  501  0.00000000000E+00  0.00000000000E+00 -0.27018202959E+03  0.27018202960E+03  0.25500000920E-02 0.  1.
    10030    2    1    2    0    0  0.00000000000E+00  0.00000000000E+00  0.48415531324E+03  0.10245193724E+04  0.90290286141E+03 0.  0.
        5    1    3    3  502    0 -0.17397462025E+03 -0.78099425274E+02 -0.22220484479E+03  0.29285452322E+03  0.46999998093E+01 0.  1.
       -5    1    3    3    0  502  0.17397462025E+03  0.78099425274E+02  0.70636015803E+03  0.73166484921E+03  0.46999998093E+01 0. -1.
</event>
<event>
 5   0  0.3927993E-03  0.8984671E+03  0.7818609E-02  0.9427500E-01
        1   -1    0    0  501    0  0.00000000000E+00  0.00000000000E+00  0.28157171596E+03  0.28157171601E+03  0.50400001928E-02 0. -1.
       -1   -1    0    0    0  501  0.00000000000E+00  0.00000000000E+00 -0.71672960758E+03  0.71672960760E+03  0.50400001928E-02 0.  1.
    10030    2    1    2    0    0  0.00000000000E+00  0.00000000000E+00 -0.43515789161E+03  0.99830132361E+03  0.89846710684E+03 0.  0.
        2    1    3    3  502    0  0.17023212818E+03 -0.64978723869E+02 -0.67382653194E+03  0.69802822807E+03  0.25500000920E-02 0.  1.
       -2    1    3    3    0  502 -0.17023212818E+03  0.64978723869E+02  0.23866864033E+03  0.30027309554E+03  0.25500000920E-02 0. -1.
</event>
<event>
 5   0  0.6863405E-03  0.8977573E+03  0.7818609E-02  0.9428389E-01
       -2   -1    0    0    0  501  0.00000000000E+00  0.00000000000E+00  0.15513242754E+04  0.15513242754E+04  0.25500000920E-02 0. -1.
        2   -1    0    0  501    0  0.00000000000E+00  0.00000000000E+00 -0.12988391117E+03  0.12988391119E+03  0.25500000920E-02 0.  1.
    10030    2    1    2    0    0  0.00000000000E+00  0.00000000000E+00  0.14214403642E+04  0.16812081866E+04  0.89775734896E+03 0.  0.
        1    1    3    3  502    0  0.94391843276E+01  0.17188183011E+03 -0.65615287514E+02  0.18422222369E+03  0.50400001928E-02 0.  1.
       -1    1    3    3    0  502 -0.94391843276E+01 -0.17188183011E+03  0.14870556518E+04  0.14969859629E+04  0.50400001928E-02 0. -1.
</event>
<event>
 5   0  0.3927993E-03  0.8967178E+03  0.7818609E-02  0.9429694E-01
        1   -1    0    0  501    0  0.00000000000E+00  0.00000000000E+00  0.47193878766E+03  0.47193878769E+03  0.50400001928E-02 0. -1.
       -1   -1    0    0    0  501  0.00000000000E+00  0.00000000000E+00 -0.42595715134E+03  0.42595715136E+03  0.50400001928E-02 0.  1.
    10030    2    1    2    0    0  0.00000000000E+00  0.00000000000E+00  0.45981636329E+02  0.89789593906E+03  0.89671779646E+03 0.  0.
        2    1    3    3  502    0  0.37962425955E+03 -0.90856757919E+02  0.24386206898E+03  0.46025888106E+03  0.25500000920E-02 0.  1.
       -2    1    3    3    0  502 -0.37962425955E+03  0.90856757919E+02 -0.19788043266E+03  0.43763705800E+03  0.25500000920E-02 0. -1.
</event>
<event>
 5   0  0.6534628E-03  0.9253448E+03  0.7818609E-02  0.9394442E-01
       -2   -1    0    0    0  501  0.00000000000E+00  0.00000000000E+00  0.24214802864E+03  0.24214802866E+03  0.25500000920E-02 0. -1.
        2   -1    0    0  501    0  0.00000000000E+00  0.00000000000E+00 -0.88402851541E+03  0.88402851541E+03  0.25500000920E-02 0.  1.
    10030    2    1    2    0    0  0.00000000000E+00  0.00000000000E+00 -0.64188048676E+03  0.11261765441E+04  0.92534482714E+03 0.  0.
        4    1    3    3  502    0  0.41384415698E+02 -0.46081541812E+03 -0.32190618588E+03  0.56363882483E+03  0.12699999809E+01 0. -1.
       -4    1    3    3    0  502 -0.41384415698E+02  0.46081541812E+03 -0.31997430088E+03  0.56253771924E+03  0.12699999809E+01 0.  1.
</event>
<event>
 5   0  0.3998066E-03  0.9103830E+03  0.7818609E-02  0.9412694E-01
       -1   -1    0    0    0  501  0.00000000000E+00  0.00000000000E+00  0.34318324364E+03  0.34318324368E+03  0.50400001928E-02 0. -1.
        1   -1    0    0  501    0  0.00000000000E+00  0.00000000000E+00 -0.60375704453E+03  0.60375704455E+03  0.50400001928E-02 0.  1.
    10030    2    1    2    0    0  0.00000000000E+00  0.00000000000E+00 -0.26057380089E+03  0.94694028823E+03  0.91038299839E+03 0.  0.
        4    1    3    3  502    0 -0.42003156406E+03 -0.95020544288E+02  0.23086798616E+02  0.43126561631E+03  0.12699999809E+01 0. -1.
       -4    1    3    3    0  502  0.42003156406E+03  0.95020544288E+02 -0.28366059951E+03  0.51567467191E+03  0.12699999809E+01 0.  1.
</event>
<event>
 5   0  0.2560250E-03  0.9012829E+03  0.7818609E-02  0.9423979E-01
        4   -1    0    0  501    0  0.00000000000E+00  0.00000000000E+00  0.26220831250E+03  0.26221138809E+03  0.12699999809E+01 0.  1.
       -4   -1    0    0    0  501  0.00000000000E+00  0.00000000000E+00 -0.77448188557E+03  0.77448292685E+03  0.12699999809E+01 0. -1.
    10030    2    1    2    0    0  0.00000000000E+00  0.00000000000E+00 -0.51227357308E+03  0.10366943149E+04  0.90128291282E+03 0.  0.
        3    1    3    3  502    0  0.84814490286E+01 -0.42110116157E+03 -0.44046151889E+03  0.60942963751E+03  0.10100000352E+00 0. -1.
       -3    1    3    3    0  502 -0.84814490286E+01  0.42110116157E+03 -0.71812054188E+02  0.42726467743E+03  0.10100000352E+00 0.  1.
</event>
<event>
 5   0  0.3794006E-03  0.9013571E+03  0.7818609E-02  0.9423887E-01
       -1   -1    0    0    0  501  0.00000000000E+00  0.00000000000E+00  0.14878951420E+03  0.14878951429E+03  0.50400001928E-02 0. -1.
        1   -1    0    0  501    0  0.00000000000E+00  0.00000000000E+00 -0.13650905532E+04  0.13650905532E+04  0.50400001928E-02 0.  1.
    10030    2    1    2    0    0  0.00000000000E+00  0.00000000000E+00 -0.12163010390E+04  0.15138800675E+04  0.90135711085E+03 0.  0.
        5    1    3    3  502    0 -0.24340487651E+03 -0.35834820241E+03 -0.39952215462E+03  0.58932114344E+03  0.46999998093E+01 0. -1.
       -5    1    3    3    0  502  0.24340487651E+03  0.35834820241E+03 -0.81677888436E+03  0.92455892404E+03  0.46999998093E+01 0.  1.
</event>
<event>
 5   0  0.3927993E-03  0.8951997E+03  0.7818609E-02  0.9431602E-01
        1   -1    0    0  501    0  0.00000000000E+00  0.00000000000E+00  0.82688598894E+03  0.82688598895E+03  0.50400001928E-02 0. -1.
       -1   -1    0    0    0  501  0.00000000000E+00  0.00000000000E+00 -0.24228929979E+03  0.24228929984E+03  0.50400001928E-02 0.  1.
    10030    2    1    2    0    0  0.00000000000E+00  0.00000000000E+00  0.58459668915E+03  0.10691752888E+04  0.89519970354E+03 0.  0.
        2    1    3    3  502    0  0.20869298438E+03 -0.39342667396E+03  0.23877475897E+03  0.50532236745E+03  0.25500000920E-02 0.  1.
       -2    1    3    3    0  502 -0.20869298438E+03  0.39342667396E+03  0.34582193018E+03  0.56385292135E+03  0.25500000920E-02 0. -1.
</event>
<event>
 5   0  0.3943549E-03  0.8879243E+03  0.7818609E-02  0.9440804E-01
       -1   -1    0    0    0  501  0.00000000000E+00  0.00000000000E+00  0.34201646517E+03  0.34201646520E+03  0.50400001928E-02 0. -1.
        1   -1    0    0  501    0  0.00000000000E+00  0.00000000000E+00 -0.57629500248E+03  0.57629500250E+03  0.50400001928E-02 0.  1.
    10030    2    1    2    0    0  0.00000000000E+00  0.00000000000E+00 -0.23427853731E+03  0.91831146770E+03  0.88792427530E+03 0.  0.
        3    1    3    3  502    0 -0.42425651456E+03 -0.12640993295E+03 -0.15189451034E+03  0.46802245007E+03  0.10100000352E+00 0.  1.
       -3    1    3    3    0  502  0.42425651456E+03  0.12640993295E+03 -0.82384026979E+02  0.45028901763E+03  0.10100000352E+00 0. -1.
</event>
<event>
 5   0  0.3794006E-03  0.8924053E+03  0.7818609E-02  0.9435125E-01
        1   -1    0    0  501    0  0.00000000000E+00  0.00000000000E+00  0.16218649565E+04  0.16218649565E+04  0.50400001928E-02 0.  1.
       -1   -1    0    0    0  501  0.00000000000E+00  0.00000000000E+00 -0.12275794206E+03  0.12275794216E+03  0.50400001928E-02 0. -1.
    10030    2    1    2    0    0  0.00000000000E+00  0.00000000000E+00  0.14991070145E+04  0.17446228987E+04  0.89240529908E+03 0.  0.
        5    1    3    3  502    0 -0.46774134842E+02  0.88385223345E+01  0.16168381522E+04  0.16175455602E+04  0.46999998093E+01 0.  1.
       -5    1    3    3    0  502  0.46774134842E+02 -0.88385223345E+01 -0.11773113769E+03  0.12707733845E+03  0.46999998093E+01 0. -1.
</event>
<event>
 5   0  0.3794006E-03  0.9003650E+03  0.7818609E-02  0.9425125E-01
       -1   -1    0    0    0  501  0.00000000000E+00  0.00000000000E+00  0.14111506913E+03  0.14111506922E+03  0.50400001928E-02 0. -1.
        1   -1    0    0  501    0  0.00000000000E+00  0.00000000000E+00 -0.14361634442E+04  0.14361634442E+04  0.50400001928E-02 0.  1.
    10030    2    1    2    0    0  0.00000000000E+00  0.00000000000E+00 -0.12950483751E+04  0.15772785135E+04  0.90036504549E+03 0.  0.
        5    1    3    3  502    0  0.65580427246E+02  0.44115412608E+03 -0.75443492487E+03  0.87641993430E+03  0.46999998093E+01 0.  1.
       -5    1    3    3    0  502 -0.65580427246E+02 -0.44115412608E+03 -0.54061345024E+03  0.70085857915E+03  0.46999998093E+01 0. -1.
</event>
<event>
 5   0  0.3794006E-03  0.9080297E+03  0.7818609E-02  0.9415599E-01
       -1   -1    0    0    0  501  0.00000000000E+00  0.00000000000E+00  0.89358218249E+03  0.89358218250E+03  0.50400001928E-02 0. -1.
        1   -1    0    0  501    0  0.00000000000E+00  0.00000000000E+00 -0.23067771202E+03  0.23067771207E+03  0.50400001928E-02 0.  1.
    10030    2    1    2    0    0  0.00000000000E+00  0.00000000000E+00  0.66290447047E+03  0.11242598946E+04  0.90802972065E+03 0.  0.
        5    1    3    3  502    0  0.20301118981E+02 -0.20183346497E+03 -0.17141580058E+03  0.26562068764E+03  0.46999998093E+01 0.  1.
       -5    1    3    3    0  502 -0.20301118981E+02  0.20183346497E+03  0.83432027105E+03  0.85863920694E+03  0.46999998093E+01 0. -1.
</event>
<event>
 5   0  0.6534628E-03  0.8632087E+03  0.7818609E-02  0.9472778E-01
        2   -1    0    0  501    0  0.00000000000E+00  0.00000000000E+00  0.35817781801E+03  0.35817781802E+03  0.25500000920E-02 0. -1.
       -2   -1    0    0    0  501  0.00000000000E+00  0.00000000000E+00 -0.52008338179E+03  0.52008338180E+03  0.25500000920E-02 0.  1.
    10030    2    1    2    0    0  0.00000000000E+00  0.00000000000E+00 -0.16190556378E+03  0.87826119981E+03  0.86320873693E+03 0.  0.
        4    1    3    3  502    0 -0.17909714339E+02  0.39804283429E+03  0.87837242998E+02  0.40801452174E+03  0.12699999809E+01 0.  1.
       -4    1    3    3    0  502  0.17909714339E+02 -0.39804283429E+03 -0.24974280678E+03  0.47024667807E+03  0.12699999809E+01 0. -1.
</event>
<event>
 5   0  0.3998066E-03  0.8957534E+03  0.7818609E-02  0.9430905E-01
        1   -1    0    0  501    0  0.00000000000E+00  0.00000000000E+00  0.18432120308E+04  0.18432120308E+04  0.50400001928E-02 0.  1.
       -1   -1    0    0    0  501  0.00000000000E+00  0.00000000000E+00 -0.10882825966E+03  0.10882825977E+03  0.50400001928E-02 0. -1.
    10030    2    1    2    0    0  0.00000000000E+00  0.00000000000E+00  0.17343837711E+04  0.19520402906E+04  0.89575344289E+03 0.  0.
        4    1    3    3  502    0  0.24763717828E+03 -0.17106740717E+03  0.14441547975E+03  0.33383479980E+03  0.12699999809E+01 0. -1.
       -4    1    3    3    0  502 -0.24763717828E+03  0.17106740717E+03  0.15899682914E+04  0.16182054908E+04  0.12699999809E+01 0.  1.
</event>
<event>
 5   0  0.6524705E-03  0.8768395E+03  0.7818609E-02  0.9455005E-01
       -2   -1    0    0    0  501  0.00000000000E+00  0.00000000000E+00  0.19354707786E+03  0.19354707787E+03  0.25500000920E-02 0. -1.
        2   -1    0    0  501    0  0.00000000000E+00  0.00000000000E+00 -0.99310144797E+03  0.99310144797E+03  0.25500000920E-02 0.  1.
    10030    2    1    2    0    0  0.00000000000E+00  0.00000000000E+00 -0.79955437011E+03  0.11866485258E+04  0.87683951390E+03 0.  0.
        3    1    3    3  502    0  0.49883979153E+02  0.37786238022E+03 -0.69299452364E+03  0.79089178132E+03  0.10100000352E+00 0.  1.
       -3    1    3    3    0  502 -0.49883979153E+02 -0.37786238022E+03 -0.10655984647E+03  0.39575674453E+03  0.10100000352E+00 0. -1.
</event>
<event>
 5   0  0.6863405E-03  0.9066108E+03  0.7818609E-02  0.9417355E-01
       -2   -1    0    0    0  501  0.00000000000E+00  0.00000000000E+00  0.32407324691E+03  0.32407324692E+03  0.25500000920E-02 0.  1.
        2   -1    0    0  501    0  0.00000000000E+00  0.00000000000E+00 -0.63407198584E+03  0.63407198585E+03  0.25500000920E-02 0. -1.
    10030    2    1    2    0    0  0.00000000000E+00  0.00000000000E+00 -0.30999873893E+03  0.95814523276E+03  0.90661075933E+03 0.  0.
        1    1    3    3  502    0  0.43165436265E+02 -0.41778857183E+03  0.25207769105E+02  0.42076831783E+03  0.50400001928E-02 0.  1.
       -1    1    3    3    0  502 -0.43165436265E+02  0.41778857183E+03 -0.33520650804E+03  0.53737691493E+03  0.50400001928E-02 0. -1.
</event>
<event>
 5   0  0.3998066E-03  0.8985701E+03  0.7818609E-02  0.9427371E-01
       -1   -1    0    0    0  501  0.00000000000E+00  0.00000000000E+00  0.41223327882E+03  0.41223327885E+03  0.50400001928E-02 0. -1.
        1   -1    0    0  501    0  0.00000000000E+00  0.00000000000E+00 -0.48966708987E+03  0.48966708989E+03  0.50400001928E-02 0.  1.
    10030    2    1    2    0    0  0.00000000000E+00  0.00000000000E+00 -0.77433811046E+02  0.90190036875E+03  0.89857013085E+03 0.  0.
        4    1    3    3  502    0 -0.42162020441E+03  0.15368560762E+03 -0.16897101177E+02  0.44907681713E+03  0.12699999809E+01 0.  1.
       -4    1    3    3    0  502  0.42162020441E+03 -0.15368560762E+03 -0.60536709869E+02  0.45282355162E+03  0.12699999809E+01 0. -1.
</event>
<event>
 5   0  0.6863405E-03  0.9041585E+03  0.7818609E-02  0.9420398E-01
        2   -1    0    0  501    0  0.00000000000E+00  0.00000000000E+00  0.68178706346E+03  0.68178706347E+03  0.25500000920E-02 0.  1.
       -2   -1    0    0    0  501  0.00000000000E+00  0.00000000000E+00 -0.29976463516E+03  0.29976463517E+03  0.25500000920E-02 0. -1.
    10030    2    1    2    0    0  0.00000000000E+00  0.00000000000E+00  0.38202242830E+03  0.98155169864E+03  0.90415850456E+03 0.  0.
        1    1    3    3  502    0 -0.13248281469E+03  0.17251209682E+03 -0.23922432811E+03  0.32332707731E+03  0.50400001928E-02 0. -1.
       -1    1    3    3    0  502  0.13248281469E+03 -0.17251209682E+03  0.62124675641E+03  0.65822462132E+03  0.50400001928E-02 0.  1.
</event>
<event>
 5   0  0.6524705E-03  0.8988518E+03  0.7818609E-02  0.9427018E-01
       -2   -1    0    0    0  501  0.00000000000E+00  0.00000000000E+00  0.35224708427E+03  0.35224708427E+03  0.25500000920E-02 0. -1.
        2   -1    0    0  501    0  0.00000000000E+00  0.00000000000E+00 -0.57341465736E+03  0.57341465737E+03  0.25500000920E-02 0.  1.
    10030    2    1    2    0    0  0.00000000000E+00  0.00000000000E+00 -0.22116757310E+03  0.92566174164E+03  0.89885180344E+03 0.  0.
        3    1    3    3  502    0  0.32394932068E+03 -0.17815182415E+03  0.15258160706E+03  0.39995298702E+03  0.10100000352E+00 0. -1.
       -3    1    3    3    0  502 -0.32394932068E+03  0.17815182415E+03 -0.37374918016E+03  0.52570875462E+03  0.10100000352E+00 0.  1.
</event>
<event>
 5   0  0.3927993E-03  0.8908711E+03  0.7818609E-02  0.9437065E-01
        1   -1    0    0  501    0  0.00000000000E+00  0.00000000000E+00  0.13441396617E+04  0.13441396617E+04  0.50400001928E-02 0. -1.
       -1   -1    0    0    0  501  0.00000000000E+00  0.00000000000E+00 -0.14761326370E+03  0.14761326378E+03  0.50400001928E-02 0.  1.
    10030    2    1    2    0    0  0.00000000000E+00  0.00000000000E+00  0.11965263980E+04  0.14917529255E+04  0.89087112963E+03 0.  0.
        2    1    3    3  502    0  0.35288330106E+03  0.15365729501E+03  0.22280561847E+03  0.44472410786E+03  0.25500000920E-02 0.  1.
       -2    1    3    3    0  502 -0.35288330106E+03 -0.15365729501E+03  0.97372077953E+03  0.10470288176E+04  0.25500000920E-02 0. -1.
</event>
<event>
 5   0  0.6524705E-03  0.8968053E+03  0.7818609E-02  0.9429584E-01
       -2   -1    0    0    0  501  0.00000000000E+00  0.00000000000E+00  0.21474270841E+03  0.21474270842E+03  0.25500000920E-02 0. -1.
        2   -1    0    0  501    0  0.00000000000E+00  0.00000000000E+00 -0.93630613688E+03  0.93630613688E+03  0.25500000920E-02 0.  1.
    10030    2    1    2    0    0  0.00000000000E+00  0.00000000000E+00 -0.72156342847E+03  0.11510488453E+04  0.89680525365E+03 0.  0.
        3    1    3    3  502    0  0.27517269350E+03  0.11608321460E+03 -0.79007254909E+03  0.84463599674E+03  0.10100000352E+00 0.  1.
       -3    1    3    3    0  502 -0.27517269350E+03 -0.11608321460E+03  0.68509120622E+02  0.30641284857E+03  0.10100000352E+00 0. -1.
</event>
<event>
 5   0  0.3998066E-03  0.9013587E+03  0.7818609E-02  0.9423885E-01
       -1   -1    0    0    0  501  0.00000000000E+00  0.00000000000E+00  0.23428537090E+03  0.23428537095E+03  0.50400001928E-02 0.  1.
        1   -1    0    0  501    0  0.00000000000E+00  0.00000000000E+00 -0.86694228212E+03  0.86694228214E+03  0.50400001928E-02 0. -1.
    10030    2    1    2    0    0  0.00000000000E+00  0.00000000000E+00 -0.63265691122E+03  0.11012276531E+04  0.90135873913E+03 0.  0.
        4    1    3    3  502    0 -0.11591274952E+03 -0.13389334903E+03 -0.82264733837E+03  0.84149477160E+03  0.12699999809E+01 0. -1.
       -4    1    3    3    0  502  0.11591274952E+03  0.13389334903E+03  0.18999042714E+03  0.25973288148E+03  0.12699999809E+01 0.  1.
</event>
<event>
 5   0  0.3927993E-03  0.9019484E+03  0.7818609E-02  0.9423149E-01
        1   -1    0    0  501    0  0.00000000000E+00  0.00000000000E+00  0.12695894144E+04  0.12695894144E+04  0.50400001928E-02 0.  1.
       -1   -1    0    0    0  501  0.00000000000E+00  0.00000000000E+00 -0.16019172310E+03  0.16019172318E+03  0.50400001928E-02 0. -1.
    10030    2    1    2    0    0  0.00000000000E+00  0.00000000000E+00  0.11093976913E+04  0.14297811376E+04  0.90194837101E+03 0.  0.
        2    1    3    3  502    0 -0.17054457947E+03  0.38028836978E+03  0.28163214286E+03  0.50301228780E+03  0.25500000920E-02 0.  1.
       -2    1    3    3    0  502  0.17054457947E+03 -0.38028836978E+03  0.82776554843E+03  0.92676884980E+03  0.25500000920E-02 0. -1.
</event>
<event>
 5   0  0.3969536E-03  0.8474460E+03  0.7818609E-02  0.9493771E-01
        1   -1    0    0  501    0  0.00000000000E+00  0.00000000000E+00  0.41462168359E+03  0.41462168362E+03  0.50400001928E-02 0. -1.
       -1   -1    0    0    0  501  0.00000000000E+00  0.00000000000E+00 -0.43302407881E+03  0.43302407884E+03  0.50400001928E-02 0.  1.
    10030    2    1    2    0    0  0.00000000000E+00  0.00000000000E+00 -0.18402395223E+02  0.84764576245E+03  0.84744598085E+03 0.  0.
        1    1    3    3  502    0 -0.29613832847E+03  0.12492743839E+03  0.26697328918E+03  0.41782713126E+03  0.50400001928E-02 0. -1.
       -1    1    3    3    0  502  0.29613832847E+03 -0.12492743839E+03 -0.28537568440E+03  0.42981863120E+03  0.50400001928E-02 0.  1.
</event>
<event>
 5   0  0.6863405E-03  0.9007403E+03  0.7818609E-02  0.9424657E-01
        2   -1    0    0  501    0  0.00000000000E+00  0.00000000000E+00  0.90165851323E+03  0.90165851324E+03  0.25500000920E-02 0.  1.
       -2   -1    0    0    0  501  0.00000000000E+00  0.00000000000E+00 -0.22495574011E+03  0.22495574012E+03  0.25500000920E-02 0. -1.
    10030    2    1    2    0    0  0.00000000000E+00  0.00000000000E+00  0.67670277313E+03  0.11266142534E+04  0.90074026929E+03 0.  0.
        1    1    3    3  502    0 -0.22262733256E+03 -0.23206873493E+02  0.82716169337E+03  0.85691187131E+03  0.50400001928E-02 0.  1.
       -1    1    3    3    0  502  0.22262733256E+03  0.23206873493E+02 -0.15045892025E+03  0.26970238206E+03  0.50400001928E-02 0. -1.
</event>
<event>
 5   0  0.3969536E-03  0.8788885E+03  0.7818609E-02  0.9452364E-01
       -1   -1    0    0    0  501  0.00000000000E+00  0.00000000000E+00  0.18617590898E+03  0.18617590905E+03  0.50400001928E-02 0. -1.
        1   -1    0    0  501    0  0.00000000000E+00  0.00000000000E+00 -0.10372515645E+04  0.10372515645E+04  0.50400001928E-02 0.  1.
    10030    2    1    2    0    0  0.00000000000E+00  0.00000000000E+00 -0.85107565549E+03  0.12234274735E+04  0.87888850921E+03 0.  0.
        1    1    3    3  502    0  0.27951727389E+03 -0.31321597003E+03 -0.60637736526E+03  0.73751451471E+03  0.50400001928E-02 0. -1.
       -1    1    3    3    0  502 -0.27951727389E+03  0.31321597003E+03 -0.24469829024E+03  0.48591295883E+03  0.50400001928E-02 0.  1.
</event>
<event>
 5   0  0.3998066E-03  0.8990908E+03  0.7818609E-02  0.9426719E-01
        1   -1    0    0  501    0  0.00000000000E+00  0.00000000000E+00  0.49883252215E+03  0.49883252217E+03  0.50400001928E-02 0. -1.
       -1   -1    0    0    0  501  0.00000000000E+00  0.00000000000E+00 -0.40512813050E+03  0.40512813053E+03  0.50400001928E-02 0.  1.
    10030    2    1    2    0    0  0.00000000000E+00  0.00000000000E+00  0.93704391651E+02  0.90396065270E+03  0.89909084559E+03 0.  0.
        4    1    3    3  502    0 -0.31850149124E+03  0.12501480784E+03 -0.24630482571E+03  0.42159172450E+03  0.12699999809E+01 0.  1.
       -4    1    3    3    0  502  0.31850149124E+03 -0.12501480784E+03  0.34000921737E+03  0.48236892820E+03  0.12699999809E+01 0. -1.
</event>
<event>
 5   0  0.6609191E-03  0.9072975E+03  0.7818609E-02  0.9416505E-01
       -2   -1    0    0    0  501  0.00000000000E+00  0.00000000000E+00  0.79353878663E+03  0.79353878663E+03  0.25500000920E-02 0. -1.
        2   -1    0    0  501    0  0.00000000000E+00  0.00000000000E+00 -0.25934108098E+03  0.25934108099E+03  0.25500000920E-02 0.  1.
    10030    2    1    2    0    0  0.00000000000E+00  0.00000000000E+00  0.53419770565E+03  0.10528798676E+04  0.90729754046E+03 0.  0.
        2    1    3    3  502    0  0.44085496697E+03  0.38677621654E+02  0.15135440379E+03  0.46771488738E+03  0.25500000920E-02 0. -1.
       -2    1    3    3    0  502 -0.44085496697E+03 -0.38677621654E+02  0.38284330186E+03  0.58516498025E+03  0.25500000920E-02 0.  1.
</event>
<event>
 5   0  0.6609191E-03  0.8969631E+03  0.7818609E-02  0.9429386E-01
       -2   -1    0    0    0  501  0.00000000000E+00  0.00000000000E+00  0.16836966315E+03  0.16836966317E+03  0.25500000920E-02 0. -1.
        2   -1    0    0  501    0  0.00000000000E+00  0.00000000000E+00 -0.11946077478E+04  0.11946077478E+04  0.25500000920E-02 0.  1.
    10030    2    1    2    0    0  0.00000000000E+00  0.00000000000E+00 -0.10262380846E+04  0.13629774109E+04  0.89696310760E+03 0.  0.
        2    1    3    3  502    0 -0.12649256149E+02  0.21124858595E+03  0.87726236039E+02  0.22908919932E+03  0.25500000920E-02 0. -1.
       -2    1    3    3    0  502  0.12649256149E+02 -0.21124858595E+03 -0.11139643206E+04  0.11338882116E+04  0.25500000920E-02 0.  1.
</event>
<event>
 5   0  0.2560250E-03  0.8951607E+03  0.7818609E-02  0.9431651E-01
        4   -1    0    0  501    0  0.00000000000E+00  0.00000000000E+00  0.14945342620E+04  0.14945348016E+04  0.12699999809E+01 0. -1.
       -4   -1    0    0    0  501  0.00000000000E+00  0.00000000000E+00 -0.13403697004E+03  0.13404298653E+03  0.12699999809E+01 0.  1.
    10030    2    1    2    0    0  0.00000000000E+00  0.00000000000E+00  0.13604972919E+04  0.16285777881E+04  0.89516072889E+03 0.  0.
        4    1    3    3  502    0 -0.34097170278E+03 -0.26746975358E+03  0.88385571904E+03  0.98438016851E+03  0.12699999809E+01 0.  1.
       -4    1    3    3    0  502  0.34097170278E+03  0.26746975358E+03  0.47664157288E+03  0.64419761958E+03  0.12699999809E+01 0. -1.
</event>
<event>
 5   0  0.6863405E-03  0.8950296E+03  0.7818609E-02  0.9431816E-01
       -2   -1    0    0    0  501  0.00000000000E+00  0.00000000000E+00  0.69664645321E+02  0.69664645368E+02  0.25500000920E-02 0. -1.
        2   -1    0    0  501    0  0.00000000000E+00  0.00000000000E+00 -0.28747650866E+04  0.28747650866E+04  0.25500000920E-02 0.  1.
    10030    2    1    2    0    0  0.00000000000E+00  0.00000000000E+00 -0.28051004413E+04  0.29444297319E+04  0.89502958657E+03 0.  0.
        1    1    3    3  502    0  0.73701753632E+01  0.10487953745E+03 -0.28335583598E+04  0.28355082464E+04  0.50400001928E-02 0.  1.
       -1    1    3    3    0  502 -0.73701753632E+01 -0.10487953745E+03  0.28457918562E+02  0.10892148555E+03  0.50400001928E-02 0. -1.
</event>
<event>
 5   0  0.3943549E-03  0.9007431E+03  0.7818609E-02  0.9424653E-01
       -1   -1    0    0    0  501  0.00000000000E+00  0.00000000000E+00  0.21571664101E+03  0.21571664106E+03  0.50400001928E-02 0.  1.
        1   -1    0    0  501    0  0.00000000000E+00  0.00000000000E+00 -0.94028228058E+03  0.94028228060E+03  0.50400001928E-02 0. -1.
    10030    2    1    2    0    0  0.00000000000E+00  0.00000000000E+00 -0.72456563958E+03  0.11559989217E+04  0.90074310479E+03 0.  0.
        3    1    3    3  502    0 -0.36498607357E+03 -0.13301246186E+03 -0.65473487100E+03  0.76130474214E+03  0.10100000352E+00 0. -1.
       -3    1    3    3    0  502  0.36498607357E+03  0.13301246186E+03 -0.69830768582E+02  0.39469417952E+03  0.10100000352E+00 0.  1.
</event>
<event>
 5   0  0.6534628E-03  0.8517319E+03  0.7818609E-02  0.9488015E-01
       -2   -1    0    0    0  501  0.00000000000E+00  0.00000000000E+00  0.71217901846E+03  0.71217901846E+03  0.25500000920E-02 0. -1.
        2   -1    0    0  501    0  0.00000000000E+00  0.00000000000E+00 -0.25465758189E+03  0.25465758190E+03  0.25500000920E-02 0.  1.
    10030    2    1    2    0    0  0.00000000000E+00  0.00000000000E+00  0.45752143657E+03  0.96683660036E+03  0.85173185151E+03 0.  0.
        4    1    3    3  502    0  0.25550092709E+02  0.25471809590E+02 -0.25291757188E+03  0.25548098048E+03  0.12699999809E+01 0.  1.
       -4    1    3    3    0  502 -0.25550092709E+02 -0.25471809590E+02  0.71043900844E+03  0.71135561988E+03  0.12699999809E+01 0. -1.
</event>
<event>
 5   0  0.6724773E-03  0.9001981E+03  0.7818609E-02  0.9425334E-01
        2   -1    0    0  501    0  0.00000000000E+00  0.00000000000E+00  0.11042613221E+04  0.11042613221E+04  0.25500000920E-02 0.  1.
       -2   -1    0    0    0  501  0.00000000000E+00  0.00000000000E+00 -0.18346122761E+03  0.18346122763E+03  0.25500000920E-02 0. -1.
    10030    2    1    2    0    0  0.00000000000E+00  0.00000000000E+00  0.92080009444E+03  0.12877225497E+04  0.90019806213E+03 0.  0.
        5    1    3    3  502    0  0.47296060496E+02  0.43596621819E+03  0.31547821645E+03  0.54023333458E+03  0.46999998093E+01 0.  1.
       -5    1    3    3    0  502 -0.47296060496E+02 -0.43596621819E+03  0.60532187799E+03  0.74748921511E+03  0.46999998093E+01 0. -1.
</event>
<event>
 5   0  0.6524705E-03  0.9064217E+03  0.7818609E-02  0.9417589E-01
        2   -1    0    0  501    0  0.00000000000E+00  0.00000000000E+00  0.11581540152E+04  0.11581540152E+04  0.25500000920E-02 0.  1.
       -2   -1    0    0    0  501  0.00000000000E+00  0.00000000000E+00 -0.17735127057E+03  0.17735127059E+03  0.25500000920E-02 0. -1.
    10030    2    1    2    0    0  0.00000000000E+00  0.00000000000E+00  0.98080274461E+03  0.13355052858E+04  0.90642172552E+03 0.  0.
        3    1    3    3  502    0 -0.91983158748E+02  0.82903783863E+02 -0.15194263824E+03  0.19601151596E+03  0.10100000352E+00 0. -1.
       -3    1    3    3    0  502  0.91983158748E+02 -0.82903783863E+02  0.11327453828E+04  0.11394937698E+04  0.10100000352E+00 0.  1.
</event>
<event>
 5   0  0.3969536E-03  0.8967971E+03  0.7818609E-02  0.9429594E-01
       -1   -1    0    0    0  501  0.00000000000E+00  0.00000000000E+00  0.14332279693E+03  0.14332279702E+03  0.50400001928E-02 0.  1.
        1   -1    0    0  501    0  0.00000000000E+00  0.00000000000E+00 -0.14028562120E+04  0.14028562120E+04  0.50400001928E-02 0. -1.
    10030    2    1    2    0    0  0.00000000000E+00  0.00000000000E+00 -0.12595334150E+04  0.15461790090E+04  0.89679713662E+03 0.  0.
        1    1    3    3  502    0 -0.13446817740E+03  0.32475477556E+03 -0.14975103957E+03  0.38206377590E+03  0.50400001928E-02 0.  1.
       -1    1    3    3    0  502  0.13446817740E+03 -0.32475477556E+03 -0.11097823755E+04  0.11641152331E+04  0.50400001928E-02 0. -1.
</event>
<event>
 5   0  0.2560250E-03  0.8867888E+03  0.7818609E-02  0.9442248E-01
       -4   -1    0    0    0  501  0.00000000000E+00  0.00000000000E+00  0.11759763043E+04  0.11759769901E+04  0.12699999809E+01 0. -1.
        4   -1    0    0  501    0  0.00000000000E+00  0.00000000000E+00 -0.16717591302E+03  0.16718073691E+03  0.12699999809E+01 0.  1.
    10030    2    1    2    0    0  0.00000000000E+00  0.00000000000E+00  0.10088003913E+04  0.13431577270E+04  0.88678884191E+03 0.  0.
        5    1    3    3  502    0 -0.13464368229E+03 -0.34728166777E+03  0.14012267922E+03  0.39798232772E+03  0.46999998093E+01 0.  1.
       -5    1    3    3    0  502  0.13464368229E+03  0.34728166777E+03  0.86867771207E+03  0.94517539928E+03  0.46999998093E+01 0. -1.
</event>
<event>
 5   0  0.3927993E-03  0.8960832E+03  0.7818609E-02  0.9430491E-01
       -1   -1    0    0    0  501  0.00000000000E+00  0.00000000000E+00  0.10494318452E+03  0.10494318464E+03  0.50400001928E-02 0.  1.
        1   -1    0    0  501    0  0.00000000000E+00  0.00000000000E+00 -0.19128565502E+04  0.19128565502E+04  0.50400001928E-02 0. -1.
    10030    2    1    2    0    0  0.00000000000E+00  0.00000000000E+00 -0.18079133657E+04  0.20177997348E+04  0.89608316140E+03 0.  0.
        2    1    3    3  502    0 -0.19434699430E+03  0.12298525451E+03 -0.17697879346E+04  0.17846695662E+04  0.25500000920E-02 0. -1.
       -2    1    3    3    0  502  0.19434699430E+03 -0.12298525451E+03 -0.38125431031E+02  0.23313016861E+03  0.25500000920E-02 0.  1.
</event>
<event>
 5   0  0.6609191E-03  0.9081493E+03  0.7818609E-02  0.9415451E-01
        2   -1    0    0  501    0  0.00000000000E+00  0.00000000000E+00  0.10245704592E+04  0.10245704592E+04  0.25500000920E-02 0.  1.
       -2   -1    0    0    0  501  0.00000000000E+00  0.00000000000E+00 -0.20123922981E+03  0.20123922982E+03  0.25500000920E-02 0. -1.
    10030    2    1    2    0    0  0.00000000000E+00  0.00000000000E+00  0.82333122935E+03  0.12258096890E+04  0.90814926106E+03 0.  0.
        2    1    3    3  502    0  0.15212323646E+03 -0.29851315762E+03  0.82535371624E+03  0.89076390882E+03  0.25500000920E-02 0.  1.
       -2    1    3    3    0  502 -0.15212323646E+03  0.29851315762E+03 -0.20224868862E+01  0.33504578016E+03  0.25500000920E-02 0. -1.
</event>
<event>
 5   0  0.6534628E-03  0.8980357E+03  0.7818609E-02  0.9428040E-01
        2   -1    0    0  501    0  0.00000000000E+00  0.00000000000E+00  0.26439229061E+03  0.26439229062E+03  0.25500000920E-02 0.  1.
       -2   -1    0    0    0  501  0.00000000000E+00  0.00000000000E+00 -0.76256775172E+03  0.76256775172E+03  0.25500000920E-02 0. -1.
    10030    2    1    2    0    0  0.00000000000E+00  0.00000000000E+00 -0.49817546111E+03  0.10269600423E+04  0.89803571116E+03 0.  0.
        4    1    3    3  502    0  0.12614550545E+03 -0.88013550497E+02 -0.73149815224E+03  0.74749597540E+03  0.12699999809E+01 0. -1.
       -4    1    3    3    0  502 -0.12614550545E+03  0.88013550497E+02  0.23332269113E+03  0.27946406694E+03  0.12699999809E+01 0.  1.
</event>
<event>
 5   0  0.6724773E-03  0.9017359E+03  0.7818609E-02  0.9423414E-01
        2   -1    0    0  501    0  0.00000000000E+00  0.00000000000E+00  0.17224893358E+04  0.17224893358E+04  0.25500000920E-02 0. -1.
       -2   -1    0    0    0  501  0.00000000000E+00  0.00000000000E+00 -0.11801634923E+03  0.11801634926E+03  0.25500000920E-02 0.  1.
    10030    2    1    2    0    0  0.00000000000E+00  0.00000000000E+00  0.16044729866E+04  0.18405056851E+04  0.90173588822E+03 0.  0.
        5    1    3    3  502    0 -0.26572868228E+03  0.23818709816E+03  0.23986723915E+03  0.43000373107E+03  0.46999998093E+01 0.  1.
       -5    1    3    3    0  502  0.26572868228E+03 -0.23818709816E+03  0.13646057474E+04  0.14105019540E+04  0.46999998093E+01 0. -1.
</event>
<event>
 5   0  0.3969536E-03  0.8912282E+03  0.7818609E-02  0.9436614E-01
        1   -1    0    0  501    0  0.00000000000E+00  0.00000000000E+00  0.14004843225E+04  0.14004843225E+04  0.50400001928E-02 0.  1.
       -1   -1    0    0    0  501  0.00000000000E+00  0.00000000000E+00 -0.14178803566E+03  0.14178803575E+03  0.50400001928E-02 0. -1.
    10030    2    1    2    0    0  0.00000000000E+00  0.00000000000E+00  0.12586962868E+04  0.15422723582E+04  0.89122818881E+03 0.  0.
        1    1    3    3  502    0 -0.57548388407E+02  0.23766397824E+03 -0.15309662154E+02  0.24501095759E+03  0.50400001928E-02 0. -1.
       -1    1    3    3    0  502  0.57548388407E+02 -0.23766397824E+03  0.12740059490E+04  0.12972614007E+04  0.50400001928E-02 0.  1.
</event>
<event>
 5   0  0.3998066E-03  0.8977417E+03  0.7818609E-02  0.9428409E-01
        1   -1    0    0  501    0  0.00000000000E+00  0.00000000000E+00  0.49427674036E+03  0.49427674038E+03  0.50400001928E-02 0. -1.
       -1   -1    0    0    0  501  0.00000000000E+00  0.00000000000E+00 -0.40763609586E+03  0.40763609589E+03  0.50400001928E-02 0.  1.
    10030    2    1    2    0    0  0.00000000000E+00  0.00000000000E+00  0.86640644496E+02  0.90191283628E+03  0.89774170169E+03 0.  0.
        4    1    3    3  502    0  0.11608997874E+03 -0.22233191737E+03 -0.33066599322E+03  0.41503009122E+03  0.12699999809E+01 0.  1.
       -4    1    3    3    0  502 -0.11608997874E+03  0.22233191737E+03  0.41730663772E+03  0.48688274505E+03  0.12699999809E+01 0. -1.
</event>
<event>
 5   0  0.6609191E-03  0.8956438E+03  0.7818609E-02  0.9431043E-01
       -2   -1    0    0    0  501  0.00000000000E+00  0.00000000000E+00  0.88385417985E+03  0.88385417985E+03  0.25500000920E-02 0.  1.
        2   -1    0    0  501    0  0.00000000000E+00  0.00000000000E+00 -0.22689767983E+03  0.22689767985E+03  0.25500000920E-02 0. -1.
    10030    2    1    2    0    0  0.00000000000E+00  0.00000000000E+00  0.65695650002E+03  0.11107518597E+04  0.89564381922E+03 0.  0.
        2    1    3    3  502    0  0.21502014824E+03  0.25847613965E+03 -0.38371253507E+02  0.33840202721E+03  0.25500000920E-02 0. -1.
       -2    1    3    3    0  502 -0.21502014824E+03 -0.25847613965E+03  0.69532775353E+03  0.77234983249E+03  0.25500000920E-02 0.  1.
</event>
<event>
 5   0  0.6863405E-03  0.8992923E+03  0.7818609E-02  0.9426467E-01
        2   -1    0    0  501    0  0.00000000000E+00  0.00000000000E+00  0.69659849204E+03  0.69659849204E+03  0.25500000920E-02 0.  1.
       -2   -1    0    0    0  501  0.00000000000E+00  0.00000000000E+00 -0.29024128000E+03  0.29024128001E+03  0.25500000920E-02 0. -1.
    10030    2    1    2    0    0  0.00000000000E+00  0.00000000000E+00  0.40635721204E+03  0.98683977206E+03  0.89929225057E+03 0.  0.
        1    1    3    3  502    0  0.27774892818E+03  0.27854633752E+03  0.44221268515E+03  0.59184845035E+03  0.50400001928E-02 0. -1.
       -1    1    3    3    0  502 -0.27774892818E+03 -0.27854633752E+03 -0.35855473112E+02  0.39499132171E+03  0.50400001928E-02 0.  1.
</event>
<event>
 5   0  0.6863405E-03  0.8168620E+03  0.7818609E-02  0.9535926E-01
       -2   -1    0    0    0  501  0.00000000000E+00  0.00000000000E+00  0.64287001558E+03  0.64287001559E+03  0.25500000920E-02 0. -1.
        2   -1    0    0  501    0  0.00000000000E+00  0.00000000000E+00 -0.25948619995E+03  0.25948619997E+03  0.25500000920E-02 0.  1.
    10030    2    1    2    0    0  0.00000000000E+00  0.00000000000E+00  0.38338381563E+03  0.90235621555E+03  0.81686203833E+03 0.  0.
        1    1    3    3  502    0 -0.35947062925E+03 -0.19073665441E+03  0.23021741471E+03  0.46754642838E+03  0.50400001928E-02 0.  1.
       -1    1    3    3    0  502  0.35947062925E+03  0.19073665441E+03  0.15316640092E+03  0.43480978718E+03  0.50400001928E-02 0. -1.
</event>
<event>
 5   0  0.3927993E-03  0.8948716E+03  0.7818609E-02  0.9432015E-01
        1   -1    0    0  501    0  0.00000000000E+00  0.00000000000E+00  0.22078581800E+04  0.22078581801E+04  0.50400001928E-02 0. -1.
       -1   -1    0    0    0  501  0.00000000000E+00  0.00000000000E+00 -0.90675559178E+02  0.90675559318E+02  0.50400001928E-02 0.  1.
    10030    2    1    2    0    0  0.00000000000E+00  0.00000000000E+00  0.21171826209E+04  0.22985337394E+04  0.89487155554E+03 0.  0.
        2    1    3    3  502    0  0.21255248963E+03 -0.38836702608E+03  0.12248800592E+04  0.13024356672E+04  0.25500000920E-02 0.  1.
       -2    1    3    3    0  502 -0.21255248963E+03  0.38836702608E+03  0.89230256170E+03  0.99609807219E+03  0.25500000920E-02 0. -1.
</event>
<event>
 5   0  0.6724773E-03  0.8647168E+03  0.7818609E-02  0.9470795E-01
        2   -1    0    0  501    0  0.00000000000E+00  0.00000000000E+00  0.76329184238E+03  0.76329184239E+03  0.25500000920E-02 0. -1.
       -2   -1    0    0    0  501  0.00000000000E+00  0.00000000000E+00 -0.24490475194E+03  0.24490475196E+03  0.25500000920E-02 0.  1.
    10030    2    1    2    0    0  0.00000000000E+00  0.00000000000E+00  0.51838709044E+03  0.10081965943E+04  0.86471683071E+03 0.  0.
        5    1    3    3  502    0  0.15461931007E+03  0.37997968139E+03  0.10009676676E+03  0.42229508880E+03  0.46999998093E+01 0.  1.
       -5    1    3    3    0  502 -0.15461931007E+03 -0.37997968139E+03  0.41829032368E+03  0.58590150554E+03  0.46999998093E+01 0. -1.
</event>
<event>
 5   0  0.3998066E-03  0.8999826E+03  0.7818609E-02  0.9425603E-01
        1   -1    0    0  501    0  0.00000000000E+00  0.00000000000E+00  0.96029754959E+03  0.96029754960E+03  0.50400001928E-02 0. -1.
       -1   -1    0    0    0  501  0.00000000000E+00  0.00000000000E+00 -0.21086397300E+03  0.21086397306E+03  0.50400001928E-02 0.  1.
    10030    2    1    2    0    0  0.00000000000E+00  0.00000000000E+00  0.74943357658E+03  0.11711615227E+04  0.89998257008E+03 0.  0.
        4    1    3    3  502    0 -0.25800599364E+03 -0.12663825131E+02  0.85420014355E+03  0.89240515651E+03  0.12699999809E+01 0. -1.
       -4    1    3    3    0  502  0.25800599364E+03  0.12663825131E+02 -0.10476656697E+03  0.27875636616E+03  0.12699999809E+01 0.  1.
</event>
<event>
 5   0  0.3969536E-03  0.9011013E+03  0.7818609E-02  0.9424206E-01
       -1   -1    0    0    0  501  0.00000000000E+00  0.00000000000E+00  0.23300652019E+03  0.23300652025E+03  0.50400001928E-02 0. -1.
        1   -1    0    0  501    0  0.00000000000E+00  0.00000000000E+00 -0.87120259769E+03  0.87120259770E+03  0.50400001928E-02 0.  1.
    10030    2    1    2    0    0  0.00000000000E+00  0.00000000000E+00 -0.63819607750E+03  0.11042091179E+04  0.90110129443E+03 0.  0.
        1    1    3    3  502    0 -0.20926181171E+02 -0.30520230594E+02  0.23114114845E+03  0.23408464296E+03  0.50400001928E-02 0. -1.
       -1    1    3    3    0  502  0.20926181171E+02  0.30520230594E+02 -0.86933722595E+03  0.87012447499E+03  0.50400001928E-02 0.  1.
</event>
<event>
 5   0  0.3969536E-03  0.8950175E+03  0.7818609E-02  0.9431831E-01
        1   -1    0    0  501    0  0.00000000000E+00  0.00000000000E+00  0.11379779230E+04  0.11379779230E+04  0.50400001928E-02 0. -1.
       -1   -1    0    0    0  501  0.00000000000E+00  0.00000000000E+00 -0.17598239515E+03  0.17598239523E+03  0.50400001928E-02 0.  1.
    10030    2    1    2    0    0  0.00000000000E+00  0.00000000000E+00  0.96199552788E+03  0.13139603183E+04  0.89501749834E+03 0.  0.
        1    1    3    3  502    0 -0.11063017988E+03 -0.40912928159E+03  0.69190302767E+03  0.81139115443E+03  0.50400001928E-02 0. -1.
       -1    1    3    3    0  502  0.11063017988E+03  0.40912928159E+03  0.27009250021E+03  0.50256916385E+03  0.50400001928E-02 0.  1.
</event>
<event>
 5   0  0.3927993E-03  0.8967052E+03  0.7818609E-02  0.9429709E-01
       -1   -1    0    0    0  501  0.00000000000E+00  0.00000000000E+00  0.61858647542E+03  0.61858647544E+03  0.50400001928E-02 0. -1.
        1   -1    0    0  501    0  0.00000000000E+00  0.00000000000E+00 -0.32496681277E+03  0.32496681281E+03  0.50400001928E-02 0.  1.
    10030    2    1    2    0    0  0.00000000000E+00  0.00000000000E+00  0.29361966265E+03  0.94355328826E+03  0.89670524783E+03 0.  0.
        2    1    3    3  502    0  0.19690421426E+03 -0.70804640470E+02  0.56405569116E+03  0.60161731146E+03  0.25500000920E-02 0. -1.
       -2    1    3    3    0  502 -0.19690421426E+03  0.70804640470E+02 -0.27043602852E+03  0.34193597680E+03  0.25500000920E-02 0.  1.
</event>
<event>
 5   0  0.3943549E-03  0.9104553E+03  0.7818609E-02  0.9412605E-01
        1   -1    0    0  501    0  0.00000000000E+00  0.00000000000E+00  0.43214015607E+03  0.43214015610E+03  0.50400001928E-02 0. -1.
       -1   -1    0    0    0  501  0.00000000000E+00  0.00000000000E+00 -0.47954856429E+03  0.47954856432E+03  0.50400001928E-02 0.  1.
    10030    2    1    2    0    0  0.00000000000E+00  0.00000000000E+00 -0.47408408216E+02  0.91168872042E+03  0.91045525193E+03 0.  0.
        3    1    3    3  502    0 -0.31189904606E+02  0.36851840981E+03 -0.28949468637E+03  0.46966563868E+03  0.10100000352E+00 0.  1.
       -3    1    3    3    0  502  0.31189904606E+02 -0.36851840981E+03  0.24208627816E+03  0.44202308174E+03  0.10100000352E+00 0. -1.
</event>
<event>
 5   0  0.6524705E-03  0.9232608E+03  0.7818609E-02  0.9396962E-01
       -2   -1    0    0    0  501  0.00000000000E+00  0.00000000000E+00  0.58520687421E+03  0.58520687421E+03  0.25500000920E-02 0.  1.
        2   -1    0    0  501    0  0.00000000000E+00  0.00000000000E+00 -0.36414922257E+03  0.36414922258E+03  0.25500000920E-02 0. -1.
    10030    2    1    2    0    0  0.00000000000E+00  0.00000000000E+00  0.22105765164E+03  0.94935609679E+03  0.92326080452E+03 0.  0.
        3    1    3    3  502    0  0.23609891621E+03  0.35320206474E+00 -0.29736923043E+03  0.37969894969E+03  0.10100000352E+00 0. -1.
       -3    1    3    3    0  502 -0.23609891621E+03 -0.35320206474E+00  0.51842688207E+03  0.56965714710E+03  0.10100000352E+00 0.  1.
</event>
<event>
 5   0  0.3943549E-03  0.9993737E+03  0.7818609E-02  0.9309232E-01
       -1   -1    0    0    0  501  0.00000000000E+00  0.00000000000E+00  0.25712610962E+03  0.25712610967E+03  0.50400001928E-02 0.  1.
        1   -1    0    0  501    0  0.00000000000E+00  0.00000000000E+00 -0.97106809566E+03  0.97106809568E+03  0.50400001928E-02 0. -1.
    10030    2    1    2    0    0  0.00000000000E+00  0.00000000000E+00 -0.71394198604E+03  0.12281942053E+04  0.99937372719E+03 0.  0.
        3    1    3    3  502    0  0.15380175793E+03 -0.20468570127E+02 -0.94071331906E+03  0.95342304459E+03  0.10100000352E+00 0. -1.
       -3    1    3    3    0  502 -0.15380175793E+03  0.20468570127E+02  0.22677133301E+03  0.27477116075E+03  0.10100000352E+00 0.  1.
</event>
<event>
 5   0  0.6534628E-03  0.9007301E+03  0.7818609E-02  0.9424669E-01
        2   -1    0    0  501    0  0.00000000000E+00  0.00000000000E+00  0.79445035237E+03  0.79445035237E+03  0.25500000920E-02 0. -1.
       -2   -1    0    0    0  501  0.00000000000E+00  0.00000000000E+00 -0.25530691241E+03  0.25530691242E+03  0.25500000920E-02 0.  1.
    10030    2    1    2    0    0  0.00000000000E+00  0.00000000000E+00  0.53914343996E+03  0.10497572648E+04  0.90073007396E+03 0.  0.
        4    1    3    3  502    0 -0.29950497980E+03  0.32197533876E+03  0.15624270540E+03  0.46667413426E+03  0.12699999809E+01 0.  1.
       -4    1    3    3    0  502  0.29950497980E+03 -0.32197533876E+03  0.38290073455E+03  0.58308313054E+03  0.12699999809E+01 0. -1.
</event>
<event>
 5   0  0.6524705E-03  0.9081661E+03  0.7818609E-02  0.9415431E-01
        2   -1    0    0  501    0  0.00000000000E+00  0.00000000000E+00  0.10111117888E+04  0.10111117888E+04  0.25500000920E-02 0. -1.
       -2   -1    0    0    0  501  0.00000000000E+00  0.00000000000E+00 -0.20392546004E+03  0.20392546006E+03  0.25500000920E-02 0.  1.
    10030    2    1    2    0    0  0.00000000000E+00  0.00000000000E+00  0.80718632871E+03  0.12150372488E+04  0.90816614490E+03 0.  0.
        3    1    3    3  502    0  0.27248297045E+03 -0.36308482717E+03  0.38931670502E+03  0.59803433674E+03  0.10100000352E+00 0. -1.
       -3    1    3    3    0  502 -0.27248297045E+03  0.36308482717E+03  0.41786962369E+03  0.61700291207E+03  0.10100000352E+00 0.  1.
</event>
<event>
 5   0  0.6609191E-03  0.8986597E+03  0.7818609E-02  0.9427258E-01
        2   -1    0    0  501    0  0.00000000000E+00  0.00000000000E+00  0.66054934520E+03  0.66054934520E+03  0.25500000920E-02 0. -1.
       -2   -1    0    0    0  501  0.00000000000E+00  0.00000000000E+00 -0.30565061010E+03  0.30565061011E+03  0.25500000920E-02 0.  1.
    10030    2    1    2    0    0  0.00000000000E+00  0.00000000000E+00  0.35489873510E+03  0.96619995532E+03  0.89865969170E+03 0.  0.
        2    1    3    3  502    0  0.43466536011E+03  0.68940159922E+02  0.27487178876E+03  0.51888459333E+03  0.25500000920E-02 0. -1.
       -2    1    3    3    0  502 -0.43466536011E+03 -0.68940159922E+02  0.80026946335E+02  0.44731536199E+03  0.25500000920E-02 0.  1.
</event>
<event>
 5   0  0.3794006E-03  0.9047464E+03  0.7818609E-02  0.9419668E-01
       -1   -1    0    0    0  501  0.00000000000E+00  0.00000000000E+00  0.46088230785E+03  0.46088230787E+03  0.50400001928E-02 0.  1.
        1   -1    0    0  501    0  0.00000000000E+00  0.00000000000E+00 -0.44402118278E+03  0.44402118280E+03  0.50400001928E-02 0. -1.
    10030    2    1    2    0    0  0.00000000000E+00  0.00000000000E+00  0.16861125071E+02  0.90490349068E+03  0.90474638983E+03 0.  0.
        5    1    3    3  502    0  0.36047892806E+03  0.20249699285E+03 -0.17509333657E+03  0.44903213270E+03  0.46999998093E+01 0. -1.
       -5    1    3    3    0  502 -0.36047892806E+03 -0.20249699285E+03  0.19195446164E+03  0.45587135798E+03  0.46999998093E+01 0.  1.
</event>
<event>
 5   0  0.3969536E-03  0.8757350E+03  0.7818609E-02  0.9456433E-01
       -1   -1    0    0    0  501  0.00000000000E+00  0.00000000000E+00  0.25341040309E+03  0.25341040314E+03  0.50400001928E-02 0. -1.
        1   -1    0    0  501    0  0.00000000000E+00  0.00000000000E+00 -0.75659073607E+03  0.75659073608E+03  0.50400001928E-02 0.  1.
    10030    2    1    2    0    0  0.00000000000E+00  0.00000000000E+00 -0.50318033298E+03  0.10100011392E+04  0.87573503626E+03 0.  0.
        1    1    3    3  502    0  0.65066087044E+02  0.17652747243E+03 -0.70759942740E+03  0.73218337450E+03  0.50400001928E-02 0.  1.
       -1    1    3    3    0  502 -0.65066087044E+02 -0.17652747243E+03  0.20441909443E+03  0.27781776472E+03  0.50400001928E-02 0. -1.
</event>
<event>
 5   0  0.6534628E-03  0.9029083E+03  0.7818609E-02  0.9421953E-01
        2   -1    0    0  501    0  0.00000000000E+00  0.00000000000E+00  0.17715197508E+04  0.17715197508E+04  0.25500000920E-02 0.  1.
       -2   -1    0    0    0  501  0.00000000000E+00  0.00000000000E+00 -0.11504859233E+03  0.11504859236E+03  0.25500000920E-02 0. -1.
    10030    2    1    2    0    0  0.00000000000E+00  0.00000000000E+00  0.16564711585E+04  0.18865683432E+04  0.90290830909E+03 0.  0.
        4    1    3    3  502    0 -0.29277299018E+03  0.91076026880E+02  0.13588374369E+03  0.33537571640E+03  0.12699999809E+01 0. -1.
       -4    1    3    3    0  502  0.29277299018E+03 -0.91076026880E+02  0.15205874148E+04  0.15511926268E+04  0.12699999809E+01 0.  1.
</event>
<event>
 5   0  0.6534628E-03  0.8994543E+03  0.7818609E-02  0.9426264E-01
       -2   -1    0    0    0  501  0.00000000000E+00  0.00000000000E+00  0.30183679550E+03  0.30183679551E+03  0.25500000920E-02 0.  1.
        2   -1    0    0  501    0  0.00000000000E+00  0.00000000000E+00 -0.67007901967E+03  0.67007901967E+03  0.25500000920E-02 0. -1.
    10030    2    1    2    0    0  0.00000000000E+00  0.00000000000E+00 -0.36824222417E+03  0.97191581518E+03  0.89945428796E+03 0.  0.
        4    1    3    3  502    0 -0.31178382069E+03 -0.51011161897E+02 -0.52997107427E+03  0.61699452343E+03  0.12699999809E+01 0. -1.
       -4    1    3    3    0  502  0.31178382069E+03  0.51011161897E+02  0.16172885010E+03  0.35492129175E+03  0.12699999809E+01 0.  1.
</event>
<event>
 5   0  0.2560250E-03  0.8949338E+03  0.7818609E-02  0.9431937E-01
        4   -1    0    0  501    0  0.00000000000E+00  0.00000000000E+00  0.18843490856E+03  0.18843918823E+03  0.12699999809E+01 0.  1.
       -4   -1    0    0    0  501  0.00000000000E+00  0.00000000000E+00 -0.10625604987E+04  0.10625612576E+04  0.12699999809E+01 0. -1.
    10030    2    1    2    0    0  0.00000000000E+00  0.00000000000E+00 -0.87412559010E+03  0.12510004459E+04  0.89493383458E+03 0.  0.
        2    1    3    3  502    0  0.15801206888E+03 -0.41692920518E+03 -0.48990273197E+03  0.66242166544E+03  0.25500000920E-02 0. -1.
       -2    1    3    3    0  502 -0.15801206888E+03  0.41692920518E+03 -0.38422285813E+03  0.58857878042E+03  0.25500000920E-02 0.  1.
</event>
<event>
 5   0  0.6524705E-03  0.9021247E+03  0.7818609E-02  0.9422929E-01
       -2   -1    0    0    0  501  0.00000000000E+00  0.00000000000E+00  0.74766542846E+03  0.74766542846E+03  0.25500000920E-02 0.  1.
        2   -1    0    0  501    0  0.00000000000E+00  0.00000000000E+00 -0.27212340415E+03  0.27212340416E+03  0.25500000920E-02 0. -1.
    10030    2    1    2    0    0  0.00000000000E+00  0.00000000000E+00  0.47554202431E+03  0.10197888326E+04  0.90212473986E+03 0.  0.
        3    1    3    3  502    0 -0.41524471995E+03 -0.15777440967E+03  0.14921923337E+03  0.46860146350E+03  0.10100000352E+00 0. -1.
       -3    1    3    3    0  502  0.41524471995E+03  0.15777440967E+03  0.32632279094E+03  0.55118736912E+03  0.10100000352E+00 0.  1.
</event>
<event>
 5   0  0.6534628E-03  0.8926608E+03  0.7818609E-02  0.9434803E-01
       -2   -1    0    0    0  501  0.00000000000E+00  0.00000000000E+00  0.16190107084E+03  0.16190107086E+03  0.25500000920E-02 0.  1.
        2   -1    0    0  501    0  0.00000000000E+00  0.00000000000E+00 -0.12304477983E+04  0.12304477983E+04  0.25500000920E-02 0. -1.
    10030    2    1    2    0    0  0.00000000000E+00  0.00000000000E+00 -0.10685467274E+04  0.13923488691E+04  0.89266077804E+03 0.  0.
        4    1    3    3  502    0  0.77005212033E+02  0.17996733041E+03 -0.11599179711E+04  0.11763202605E+04  0.12699999809E+01 0. -1.
       -4    1    3    3    0  502 -0.77005212033E+02 -0.17996733041E+03  0.91371243633E+02  0.21602860865E+03  0.12699999809E+01 0.  1.
</event>
<event>
 5   0  0.3794006E-03  0.9009155E+03  0.7818609E-02  0.9424438E-01
       -1   -1    0    0    0  501  0.00000000000E+00  0.00000000000E+00  0.17241628328E+03  0.17241628335E+03  0.50400001928E-02 0. -1.
        1   -1    0    0  501    0  0.00000000000E+00  0.00000000000E+00 -0.11768737060E+04  0.11768737060E+04  0.50400001928E-02 0.  1.
    10030    2    1    2    0    0  0.00000000000E+00  0.00000000000E+00 -0.10044574227E+04  0.13492899893E+04  0.90091551286E+03 0.  0.
        5    1    3    3  502    0  0.12456907764E+03  0.16075037847E+03  0.99707493756E+02  0.22654318262E+03  0.46999998093E+01 0. -1.
       -5    1    3    3    0  502 -0.12456907764E+03 -0.16075037847E+03 -0.11041649164E+04  0.11227468067E+04  0.46999998093E+01 0.  1.
</event>
<event>
 5   0  0.3927993E-03  0.9035862E+03  0.7818609E-02  0.9421110E-01
       -1   -1    0    0    0  501  0.00000000000E+00  0.00000000000E+00  0.28455200653E+03  0.28455200657E+03  0.50400001928E-02 0.  1.
        1   -1    0    0  501    0  0.00000000000E+00  0.00000000000E+00 -0.71732755204E+03  0.71732755205E+03  0.50400001928E-02 0. -1.
    10030    2    1    2    0    0  0.00000000000E+00  0.00000000000E+00 -0.43277554551E+03  0.10018795586E+04  0.90358617586E+03 0.  0.
        2    1    3    3  502    0 -0.37307912826E+03  0.19575764947E+03 -0.39725140400E+03  0.57906629263E+03  0.25500000920E-02 0. -1.
       -2    1    3    3    0  502  0.37307912826E+03 -0.19575764947E+03 -0.35524141508E+02  0.42281326600E+03  0.25500000920E-02 0.  1.
</event>
<event>
 5   0  0.2560250E-03  0.8925969E+03  0.7818609E-02  0.9434883E-01
        3   -1    0    0  501    0  0.00000000000E+00  0.00000000000E+00  0.73948151673E+03  0.73948152363E+03  0.10100000352E+00 0.  1.
       -3   -1    0    0    0  501  0.00000000000E+00  0.00000000000E+00 -0.26935400318E+03  0.26935402212E+03  0.10100000352E+00 0. -1.
    10030    2    1    2    0    0  0.00000000000E+00  0.00000000000E+00  0.47012751355E+03  0.10088355457E+04  0.89259692995E+03 0.  0.
        5    1    3    3  502    0 -0.21901100485E+03  0.38879711874E+03  0.22874964468E+03  0.50147533311E+03  0.46999998093E+01 0. -1.
       -5    1    3    3    0  502  0.21901100485E+03 -0.38879711874E+03  0.24137786887E+03  0.50736021263E+03  0.46999998093E+01 0.  1.
</event>
<event>
 5   0  0.6534628E-03  0.1007690E+04  0.7818609E-02  0.9300150E-01
       -2   -1    0    0    0  501  0.00000000000E+00  0.00000000000E+00  0.35675539864E+03  0.35675539865E+03  0.25500000920E-02 0. -1.
        2   -1    0    0  501    0  0.00000000000E+00  0.00000000000E+00 -0.71158000022E+03  0.71158000023E+03  0.25500000920E-02 0.  1.
    10030    2    1    2    0    0  0.00000000000E+00  0.00000000000E+00 -0.35482460158E+03  0.10683353989E+04  0.10076904419E+04 0.  0.
        4    1    3    3  502    0 -0.37672784650E+03  0.33388875525E+03 -0.19997258133E+03  0.54166061090E+03  0.12699999809E+01 0.  1.
       -4    1    3    3    0  502  0.37672784650E+03 -0.33388875525E+03 -0.15485202026E+03  0.52667478798E+03  0.12699999809E+01 0. -1.
</event>
<event>
 5   0  0.6524705E-03  0.8831813E+03  0.7818609E-02  0.9446853E-01
        2   -1    0    0  501    0  0.00000000000E+00  0.00000000000E+00  0.27788753433E+04  0.27788753433E+04  0.25500000920E-02 0. -1.
       -2   -1    0    0    0  501  0.00000000000E+00  0.00000000000E+00 -0.70173097252E+02  0.70173097298E+02  0.25500000920E-02 0.  1.
    10030    2    1    2    0    0  0.00000000000E+00  0.00000000000E+00  0.27087022460E+04  0.28490484406E+04  0.88318127195E+03 0.  0.
        3    1    3    3  502    0 -0.28000569165E+03  0.33287015248E+03  0.15999548304E+04  0.16580293108E+04  0.10100000352E+00 0. -1.
       -3    1    3    3    0  502  0.28000569165E+03 -0.33287015248E+03  0.11087474156E+04  0.11910191298E+04  0.10100000352E+00 0.  1.
</event>
<event>
 5   0  0.2560250E-03  0.9033163E+03  0.7818609E-02  0.9421445E-01
        3   -1    0    0  501    0  0.00000000000E+00  0.00000000000E+00  0.11092068924E+04  0.11092068970E+04  0.10100000352E+00 0.  1.
       -3   -1    0    0    0  501  0.00000000000E+00  0.00000000000E+00 -0.18391074052E+03  0.18391076825E+03  0.10100000352E+00 0. -1.
    10030    2    1    2    0    0  0.00000000000E+00  0.00000000000E+00  0.92529615184E+03  0.12931176652E+04  0.90331629426E+03 0.  0.
        4    1    3    3  502    0 -0.38972908693E+03  0.22749650077E+03  0.48943132042E+03  0.66572370347E+03  0.12699999809E+01 0. -1.
       -4    1    3    3    0  502  0.38972908693E+03 -0.22749650077E+03  0.43586483143E+03  0.62739396174E+03  0.12699999809E+01 0.  1.
</event>
<event>
 5   0  0.6609191E-03  0.8989918E+03  0.7818609E-02  0.9426843E-01
        2   -1    0    0  501    0  0.00000000000E+00  0.00000000000E+00  0.56874044266E+03  0.56874044267E+03  0.25500000920E-02 0. -1.
       -2   -1    0    0    0  501  0.00000000000E+00  0.00000000000E+00 -0.35525271389E+03  0.35525271390E+03  0.25500000920E-02 0.  1.
    10030    2    1    2    0    0  0.00000000000E+00  0.00000000000E+00  0.21348772877E+03  0.92399315657E+03  0.89899184816E+03 0.  0.
        2    1    3    3  502    0  0.47054396296E+02 -0.38944898603E+03 -0.11881768186E+03  0.40988080030E+03  0.25500000920E-02 0.  1.
       -2    1    3    3    0  502 -0.47054396296E+02  0.38944898603E+03  0.33230541062E+03  0.51411235627E+03  0.25500000920E-02 0. -1.
</event>
<event>
 5   0  0.6534628E-03  0.8949312E+03  0.7818609E-02  0.9431940E-01
       -2   -1    0    0    0  501  0.00000000000E+00  0.00000000000E+00  0.76128905486E+02  0.76128905529E+02  0.25500000920E-02 0.  1.
        2   -1    0    0  501    0  0.00000000000E+00  0.00000000000E+00 -0.26300847537E+04  0.26300847537E+04  0.25500000920E-02 0. -1.
    10030    2    1    2    0    0  0.00000000000E+00  0.00000000000E+00 -0.25539558482E+04  0.27062136592E+04  0.89493122349E+03 0.  0.
        4    1    3    3  502    0  0.15309100313E+03  0.15277073538E+03 -0.24615273597E+04  0.24710107868E+04  0.12699999809E+01 0. -1.
       -4    1    3    3    0  502 -0.15309100313E+03 -0.15277073538E+03 -0.92428488501E+02  0.23520287246E+03  0.12699999809E+01 0.  1.
</event>
<event>
 5   0  0.3969536E-03  0.8995106E+03  0.7818609E-02  0.9426193E-01
       -1   -1    0    0    0  501  0.00000000000E+00  0.00000000000E+00  0.49760131785E+03  0.49760131788E+03  0.50400001928E-02 0.  1.
        1   -1    0    0  501    0  0.00000000000E+00  0.00000000000E+00 -0.40650981424E+03  0.40650981427E+03  0.50400001928E-02 0. -1.
    10030    2    1    2    0    0  0.00000000000E+00  0.00000000000E+00  0.91091503614E+02  0.90411113215E+03  0.89951057650E+03 0.  0.
        1    1    3    3  502    0 -0.18490830281E+03 -0.22302720930E+03 -0.30023058986E+03  0.41721771732E+03  0.50400001928E-02 0. -1.
       -1    1    3    3    0  502  0.18490830281E+03  0.22302720930E+03  0.39132209347E+03  0.48689341483E+03  0.50400001928E-02 0.  1.
</event>
<event>
 5   0  0.6609191E-03  0.9093023E+03  0.7818609E-02  0.9414027E-01
       -2   -1    0    0    0  501  0.00000000000E+00  0.00000000000E+00  0.28619712043E+03  0.28619712045E+03  0.25500000920E-02 0.  1.
        2   -1    0    0  501    0  0.00000000000E+00  0.00000000000E+00 -0.72225631280E+03  0.72225631281E+03  0.25500000920E-02 0. -1.
    10030    2    1    2    0    0  0.00000000000E+00  0.00000000000E+00 -0.43605919237E+03  0.10084534333E+04  0.90930231925E+03 0.  0.
        2    1    3    3  502    0 -0.22419563102E+03 -0.11601797311E+03  0.20133426939E+03  0.32289214777E+03  0.25500000920E-02 0.  1.
       -2    1    3    3    0  502  0.22419563102E+03  0.11601797311E+03 -0.63739346176E+03  0.68556128548E+03  0.25500000920E-02 0. -1.
</event>
<event>
 5   0  0.3794006E-03  0.9017525E+03  0.7818609E-02  0.9423393E-01
        1   -1    0    0  501    0  0.00000000000E+00  0.00000000000E+00  0.16680505837E+04  0.16680505837E+04  0.50400001928E-02 0.  1.
       -1   -1    0    0    0  501  0.00000000000E+00  0.00000000000E+00 -0.12187242950E+03  0.12187242960E+03  0.50400001928E-02 0. -1.
    10030    2    1    2    0    0  0.00000000000E+00  0.00000000000E+00  0.15461781542E+04  0.17899230133E+04  0.90175246551E+03 0.  0.
        5    1    3    3  502    0 -0.34267689618E+03 -0.19738829749E+03  0.12028531675E+04  0.12662019696E+04  0.46999998093E+01 0.  1.
       -5    1    3    3    0  502  0.34267689618E+03  0.19738829749E+03  0.34332498667E+03  0.52372104372E+03  0.46999998093E+01 0. -1.
</event>
<event>
 5   0  0.2560250E-03  0.8960497E+03  0.7818609E-02  0.9430533E-01
       -3   -1    0    0    0  501  0.00000000000E+00  0.00000000000E+00  0.11354599782E+04  0.11354599827E+04  0.10100000352E+00 0.  1.
        3   -1    0    0  501    0  0.00000000000E+00  0.00000000000E+00 -0.17677965482E+03  0.17677968367E+03  0.10100000352E+00 0. -1.
    10030    2    1    2    0    0  0.00000000000E+00  0.00000000000E+00  0.95868032340E+03  0.13122396664E+04  0.89604965239E+03 0.  0.
        3    1    3    3  502    0 -0.34459928854E+03 -0.14383626236E+03  0.11678735494E+03  0.39125035017E+03  0.10100000352E+00 0. -1.
       -3    1    3    3    0  502  0.34459928854E+03  0.14383626236E+03  0.84189296845E+03  0.92098931621E+03  0.10100000352E+00 0.  1.
</event>
<event>
 5   0  0.3943549E-03  0.8988588E+03  0.7818609E-02  0.9427009E-01
       -1   -1    0    0    0  501  0.00000000000E+00  0.00000000000E+00  0.39663263432E+03  0.39663263435E+03  0.50400001928E-02 0. -1.
        1   -1    0    0  501    0  0.00000000000E+00  0.00000000000E+00 -0.50925410091E+03  0.50925410093E+03  0.50400001928E-02 0.  1.
    10030    2    1    2    0    0  0.00000000000E+00  0.00000000000E+00 -0.11262146659E+03  0.90588673528E+03  0.89885882230E+03 0.  0.
        3    1    3    3  502    0 -0.15983858433E+03  0.29786362513E+03 -0.35479470536E+03  0.49005143135E+03  0.10100000352E+00 0.  1.
       -3    1    3    3    0  502  0.15983858433E+03 -0.29786362513E+03  0.24217323877E+03  0.41583530393E+03  0.10100000352E+00 0. -1.
</event>
<event>
 5   0  0.6724773E-03  0.9028347E+03  0.7818609E-02  0.9422045E-01
       -2   -1    0    0    0  501  0.00000000000E+00  0.00000000000E+00  0.10577578975E+03  0.10577578978E+03  0.25500000920E-02 0. -1.
        2   -1    0    0  501    0  0.00000000000E+00  0.00000000000E+00 -0.19265051509E+04  0.19265051509E+04  0.25500000920E-02 0.  1.
    10030    2    1    2    0    0  0.00000000000E+00  0.00000000000E+00 -0.18207293612E+04  0.20322809407E+04  0.90283465557E+03 0.  0.
        5    1    3    3  502    0 -0.26752847255E+03 -0.29382421520E+03 -0.13923697851E+04  0.14479709464E+04  0.46999998093E+01 0.  1.
       -5    1    3    3    0  502  0.26752847255E+03  0.29382421520E+03 -0.42835957604E+03  0.58430999431E+03  0.46999998093E+01 0. -1.
</event>
<event>
 5   0  0.3794006E-03  0.8965184E+03  0.7818609E-02  0.9429944E-01
        1   -1    0    0  501    0  0.00000000000E+00  0.00000000000E+00  0.82059987400E+03  0.82059987402E+03  0.50400001928E-02 0. -1.
       -1   -1    0    0    0  501  0.00000000000E+00  0.00000000000E+00 -0.24486513854E+03  0.24486513859E+03  0.50400001928E-02 0.  1.
    10030    2    1    2    0    0  0.00000000000E+00  0.00000000000E+00  0.57573473546E+03  0.10654650126E+04  0.89651838100E+03 0.  0.
        5    1    3    3  502    0  0.18666149113E+03  0.25931625144E+03  0.66147635992E+03  0.73461588280E+03  0.46999998093E+01 0. -1.
       -5    1    3    3    0  502 -0.18666149113E+03 -0.25931625144E+03 -0.85741624458E+02  0.33084912981E+03  0.46999998093E+01 0.  1.
</event>
<event>
 5   0  0.6524705E-03  0.8981947E+03  0.7818609E-02  0.9427841E-01
        2   -1    0    0  501    0  0.00000000000E+00  0.00000000000E+00  0.79103293747E+03  0.79103293747E+03  0.25500000920E-02 0. -1.
       -2   -1    0    0    0  501  0.00000000000E+00  0.00000000000E+00 -0.25496841254E+03  0.25496841255E+03  0.25500000920E-02 0.  1.
    10030    2    1    2    0    0  0.00000000000E+00  0.00000000000E+00  0.53606452492E+03  0.10460013500E+04  0.89819466118E+03 0.  0.
        3    1    3    3  502    0  0.89533131484E+02  0.38761491671E+03  0.51071627911E+03  0.64737364269E+03  0.10100000352E+00 0. -1.
       -3    1    3    3    0  502 -0.89533131484E+02 -0.38761491671E+03  0.25348245813E+02  0.39862770734E+03  0.10100000352E+00 0.  1.
</event>
<event>
 5   0  0.3969536E-03  0.8933437E+03  0.7818609E-02  0.9433941E-01
       -1   -1    0    0    0  501  0.00000000000E+00  0.00000000000E+00  0.33265111663E+03  0.33265111666E+03  0.50400001928E-02 0.  1.
        1   -1    0    0  501    0  0.00000000000E+00  0.00000000000E+00 -0.59977471764E+03  0.59977471766E+03  0.50400001928E-02 0. -1.
    10030    2    1    2    0    0  0.00000000000E+00  0.00000000000E+00 -0.26712360102E+03  0.93242583433E+03  0.89334367312E+03 0.  0.
        1    1    3    3  502    0  0.52617760706E+02  0.32900972529E+02  0.32812971257E+03  0.33394641940E+03  0.50400001928E-02 0.  1.
       -1    1    3    3    0  502 -0.52617760706E+02 -0.32900972529E+02 -0.59525331358E+03  0.59847941493E+03  0.50400001928E-02 0. -1.
</event>
<event>
 5   0  0.3794006E-03  0.8992433E+03  0.7818609E-02  0.9426528E-01
       -1   -1    0    0    0  501  0.00000000000E+00  0.00000000000E+00  0.27825748460E+03  0.27825748465E+03  0.50400001928E-02 0.  1.
        1   -1    0    0  501    0  0.00000000000E+00  0.00000000000E+00 -0.72651999253E+03  0.72651999255E+03  0.50400001928E-02 0. -1.
    10030    2    1    2    0    0  0.00000000000E+00  0.00000000000E+00 -0.44826250792E+03  0.10047774772E+04  0.89924329448E+03 0.  0.
        5    1    3    3  502    0 -0.17428190184E+03 -0.19917295453E+03  0.18196911905E+03  0.32121472166E+03  0.46999998093E+01 0.  1.
       -5    1    3    3    0  502  0.17428190184E+03  0.19917295453E+03 -0.63023162697E+03  0.68356275554E+03  0.46999998093E+01 0. -1.
</event>
<event>
 5   0  0.6524705E-03  0.9049681E+03  0.7818609E-02  0.9419392E-01
       -2   -1    0    0    0  501  0.00000000000E+00  0.00000000000E+00  0.15654101284E+03  0.15654101286E+03  0.25500000920E-02 0.  1.
        2   -1    0    0  501    0  0.00000000000E+00  0.00000000000E+00 -0.13079117650E+04  0.13079117650E+04  0.25500000920E-02 0. -1.
    10030    2    1    2    0    0  0.00000000000E+00  0.00000000000E+00 -0.11513707522E+04  0.14644527779E+04  0.90496813737E+03 0.  0.
        3    1    3    3  502    0  0.15094395462E+03 -0.27618682264E+03 -0.11017457337E+04  0.11458215002E+04  0.10100000352E+00 0. -1.
       -3    1    3    3    0  502 -0.15094395462E+03  0.27618682264E+03 -0.49625018475E+02  0.31863127765E+03  0.10100000352E+00 0.  1.
</event>
<event>
 5   0  0.6724773E-03  0.9009809E+03  0.7818609E-02  0.9424356E-01
       -2   -1    0    0    0  501  0.00000000000E+00  0.00000000000E+00  0.13727696194E+03  0.13727696196E+03  0.25500000920E-02 0.  1.
        2   -1    0    0  501    0  0.00000000000E+00  0.00000000000E+00 -0.14783372248E+04  0.14783372248E+04  0.25500000920E-02 0. -1.
    10030    2    1    2    0    0  0.00000000000E+00  0.00000000000E+00 -0.13410602628E+04  0.16156141867E+04  0.90098089425E+03 0.  0.
        5    1    3    3  502    0  0.53890264856E+02  0.21599456554E+02  0.13049602453E+03  0.14290556177E+03  0.46999998093E+01 0.  1.
       -5    1    3    3    0  502 -0.53890264856E+02 -0.21599456554E+02 -0.14715562873E+04  0.14727086249E+04  0.46999998093E+01 0. -1.
</event>
<event>
 5   0  0.6724773E-03  0.9270934E+03  0.7818609E-02  0.9392333E-01
        2   -1    0    0  501    0  0.00000000000E+00  0.00000000000E+00  0.26817993088E+03  0.26817993090E+03  0.25500000920E-02 0. -1.
       -2   -1    0    0    0  501  0.00000000000E+00  0.00000000000E+00 -0.80123646260E+03  0.80123646261E+03  0.25500000920E-02 0.  1.
    10030    2    1    2    0    0  0.00000000000E+00  0.00000000000E+00 -0.53305653172E+03  0.10694163935E+04  0.92709339157E+03 0.  0.
        5    1    3    3  502    0 -0.27959790517E+03  0.19893587489E+03  0.92922677031E+02  0.35553788096E+03  0.46999998093E+01 0. -1.
       -5    1    3    3    0  502  0.27959790517E+03 -0.19893587489E+03 -0.62597920875E+03  0.71387851255E+03  0.46999998093E+01 0.  1.
</event>
<event>
 5   0  0.3998066E-03  0.9069613E+03  0.7818609E-02  0.9416921E-01
        1   -1    0    0  501    0  0.00000000000E+00  0.00000000000E+00  0.57373367660E+03  0.57373367663E+03  0.50400001928E-02 0.  1.
       -1   -1    0    0    0  501  0.00000000000E+00  0.00000000000E+00 -0.35843229554E+03  0.35843229558E+03  0.50400001928E-02 0. -1.
    10030    2    1    2    0    0  0.00000000000E+00  0.00000000000E+00  0.21530138106E+03  0.93216597220E+03  0.90696125333E+03 0.  0.
        4    1    3    3  502    0 -0.53542488027E+02  0.23777350541E+03 -0.28539011601E+03  0.37530276993E+03  0.12699999809E+01 0. -1.
       -4    1    3    3    0  502  0.53542488027E+02 -0.23777350541E+03  0.50069149707E+03  0.55686320227E+03  0.12699999809E+01 0.  1.
</event>
<event>
 5   0  0.2560250E-03  0.9024689E+03  0.7818609E-02  0.9422500E-01
        3   -1    0    0  501    0  0.00000000000E+00  0.00000000000E+00  0.22104240783E+03  0.22104243090E+03  0.10100000352E+00 0.  1.
       -3   -1    0    0    0  501  0.00000000000E+00  0.00000000000E+00 -0.92114687254E+03  0.92114687808E+03  0.10100000352E+00 0. -1.
    10030    2    1    2    0    0  0.00000000000E+00  0.00000000000E+00 -0.70010446472E+03  0.11421893090E+04  0.90246892248E+03 0.  0.
        2    1    3    3  502    0  0.65554420689E+02 -0.96397906130E+02  0.20165472935E+03  0.23292610041E+03  0.25500000920E-02 0.  1.
       -2    1    3    3    0  502 -0.65554420689E+02  0.96397906130E+02 -0.90175919406E+03  0.90926320857E+03  0.25500000920E-02 0. -1.
</event>
<event>
 5   0  0.3998066E-03  0.8970986E+03  0.7818609E-02  0.9429216E-01
        1   -1    0    0  501    0  0.00000000000E+00  0.00000000000E+00  0.82725739174E+03  0.82725739175E+03  0.50400001928E-02 0. -1.
       -1   -1    0    0    0  501  0.00000000000E+00  0.00000000000E+00 -0.24320903530E+03  0.24320903535E+03  0.50400001928E-02 0.  1.
    10030    2    1    2    0    0  0.00000000000E+00  0.00000000000E+00  0.58404835644E+03  0.10704664271E+04  0.89709859486E+03 0.  0.
        4    1    3    3  502    0 -0.43808211917E+03 -0.21321463991E+02  0.40411583454E+03  0.59639061746E+03  0.12699999809E+01 0.  1.
       -4    1    3    3    0  502  0.43808211917E+03  0.21321463991E+02  0.17993252189E+03  0.47407580965E+03  0.12699999809E+01 0. -1.
</event>
<event>
 5   0  0.3943549E-03  0.8997553E+03  0.7818609E-02  0.9425887E-01
        1   -1    0    0  501    0  0.00000000000E+00  0.00000000000E+00  0.12337333972E+04  0.12337333972E+04  0.50400001928E-02 0.  1.
       -1   -1    0    0    0  501  0.00000000000E+00  0.00000000000E+00 -0.16404669225E+03  0.16404669233E+03  0.50400001928E-02 0. -1.
    10030    2    1    2    0    0  0.00000000000E+00  0.00000000000E+00  0.10696867050E+04  0.13977800895E+04  0.89975526225E+03 0.  0.
        3    1    3    3  502    0 -0.13017143838E+03  0.28419709754E+03  0.10374643960E+04  0.10835335605E+04  0.10100000352E+00 0.  1.
       -3    1    3    3    0  502  0.13017143838E+03 -0.28419709754E+03  0.32222308996E+02  0.31424652905E+03  0.10100000352E+00 0. -1.
</event>
<event>
 5   0  0.3998066E-03  0.8956866E+03  0.7818609E-02  0.9430990E-01
        1   -1    0    0  501    0  0.00000000000E+00  0.00000000000E+00  0.65951286589E+03  0.65951286591E+03  0.50400001928E-02 0. -1.
       -1   -1    0    0    0  501  0.00000000000E+00  0.00000000000E+00 -0.30410871696E+03  0.30410871700E+03  0.50400001928E-02 0.  1.
    10030    2    1    2    0    0  0.00000000000E+00  0.00000000000E+00  0.35540414893E+03  0.96362158292E+03  0.89568657799E+03 0.  0.
        4    1    3    3  502    0  0.33206909916E+03  0.28737027970E+03  0.83232953699E+02  0.44696856909E+03  0.12699999809E+01 0. -1.
       -4    1    3    3    0  502 -0.33206909916E+03 -0.28737027970E+03  0.27217119523E+03  0.51665301382E+03  0.12699999809E+01 0.  1.
</event>
<event>
 5   0  0.6524705E-03  0.8833385E+03  0.7818609E-02  0.9446652E-01
       -2   -1    0    0    0  501  0.00000000000E+00  0.00000000000E+00  0.20939798793E+03  0.20939798795E+03  0.25500000920E-02 0. -1.
        2   -1    0    0  501    0  0.00000000000E+00  0.00000000000E+00 -0.93158359576E+03  0.93158359577E+03  0.25500000920E-02 0.  1.
    10030    2    1    2    0    0  0.00000000000E+00  0.00000000000E+00 -0.72218560783E+03  0.11409815837E+04  0.88333850942E+03 0.  0.
        3    1    3    3  502    0  0.28944249683E+03 -0.46464489256E+02  0.65619449176E+02  0.30040277969E+03  0.10100000352E+00 0. -1.
       -3    1    3    3    0  502 -0.28944249683E+03  0.46464489256E+02 -0.78780505701E+03  0.84057880403E+03  0.10100000352E+00 0.  1.
</event>
<event>
 5   0  0.6724773E-03  0.8986092E+03  0.7818609E-02  0.9427322E-01
        2   -1    0    0  501    0  0.00000000000E+00  0.00000000000E+00  0.50777860019E+03  0.50777860020E+03  0.25500000920E-02 0. -1.
       -2   -1    0    0    0  501  0.00000000000E+00  0.00000000000E+00 -0.39756421773E+03  0.39756421774E+03  0.25500000920E-02 0.  1.
    10030    2    1    2    0    0  0.00000000000E+00  0.00000000000E+00  0.11021438246E+03  0.90534281794E+03  0.89860915191E+03 0.  0.
        5    1    3    3  502    0  0.13663486672E+03 -0.15003864047E+03  0.45894975981E+03  0.50183428786E+03  0.46999998093E+01 0. -1.
       -5    1    3    3    0  502 -0.13663486672E+03  0.15003864047E+03 -0.34873537735E+03  0.40350853008E+03  0.46999998093E+01 0.  1.
</event>
<event>
 5   0  0.6724773E-03  0.9000557E+03  0.7818609E-02  0.9425512E-01
       -2   -1    0    0    0  501  0.00000000000E+00  0.00000000000E+00  0.15146984544E+03  0.15146984546E+03  0.25500000920E-02 0.  1.
        2   -1    0    0  501    0  0.00000000000E+00  0.00000000000E+00 -0.13370651580E+04  0.13370651580E+04  0.25500000920E-02 0. -1.
    10030    2    1    2    0    0  0.00000000000E+00  0.00000000000E+00 -0.11855953125E+04  0.14885350034E+04  0.90005567125E+03 0.  0.
        5    1    3    3  502    0  0.13274666211E+03  0.33758499742E+03 -0.10332174868E+04  0.10950551456E+04  0.46999998093E+01 0. -1.
       -5    1    3    3    0  502 -0.13274666211E+03 -0.33758499742E+03 -0.15237782573E+03  0.39347985788E+03  0.46999998093E+01 0.  1.
</event>
<event>
 5   0  0.3969536E-03  0.9066555E+03  0.7818609E-02  0.9417300E-01
       -1   -1    0    0    0  501  0.00000000000E+00  0.00000000000E+00  0.28895208626E+03  0.28895208631E+03  0.50400001928E-02 0.  1.
        1   -1    0    0  501    0  0.00000000000E+00  0.00000000000E+00 -0.71121146558E+03  0.71121146560E+03  0.50400001928E-02 0. -1.
    10030    2    1    2    0    0  0.00000000000E+00  0.00000000000E+00 -0.42225937932E+03  0.10001635519E+04  0.90665547323E+03 0.  0.
        1    1    3    3  502    0  0.45169757726E+03 -0.19251221500E+02 -0.17446432498E+03  0.48460201357E+03  0.50400001928E-02 0.  1.
       -1    1    3    3    0  502 -0.45169757726E+03  0.19251221500E+02 -0.24779505434E+03  0.51556153834E+03  0.50400001928E-02 0. -1.
</event>
<event>
 5   0  0.6863405E-03  0.9024683E+03  0.7818609E-02  0.9422501E-01
        2   -1    0    0  501    0  0.00000000000E+00  0.00000000000E+00  0.44441170223E+03  0.44441170224E+03  0.25500000920E-02 0. -1.
       -2   -1    0    0    0  501  0.00000000000E+00  0.00000000000E+00 -0.45816130014E+03  0.45816130014E+03  0.25500000920E-02 0.  1.
    10030    2    1    2    0    0  0.00000000000E+00  0.00000000000E+00 -0.13749597905E+02  0.90257300238E+03  0.90246826713E+03 0.  0.
        1    1    3    3  502    0  0.25636898479E+03  0.19605993560E+03 -0.32226467283E+03  0.45609108092E+03  0.50400001928E-02 0.  1.
       -1    1    3    3    0  502 -0.25636898479E+03 -0.19605993560E+03  0.30851507493E+03  0.44648192146E+03  0.50400001928E-02 0. -1.
</event>
<event>
 5   0  0.6863405E-03  0.9013232E+03  0.7818609E-02  0.9423929E-01
       -2   -1    0    0    0  501  0.00000000000E+00  0.00000000000E+00  0.10422599661E+03  0.10422599664E+03  0.25500000920E-02 0.  1.
        2   -1    0    0  501    0  0.00000000000E+00  0.00000000000E+00 -0.19486103721E+04  0.19486103721E+04  0.25500000920E-02 0. -1.
    10030    2    1    2    0    0  0.00000000000E+00  0.00000000000E+00 -0.18443843755E+04  0.20528363687E+04  0.90132315641E+03 0.  0.
        1    1    3    3  502    0 -0.85534087831E+02  0.44239289892E+03 -0.90336927395E+03  0.10095066133E+04  0.50400001928E-02 0. -1.
       -1    1    3    3    0  502  0.85534087831E+02 -0.44239289892E+03 -0.94101510152E+03  0.10433297554E+04  0.50400001928E-02 0.  1.
</event>
<event>
 5   0  0.3943549E-03  0.8897448E+03  0.7818609E-02  0.9438492E-01
        1   -1    0    0  501    0  0.00000000000E+00  0.00000000000E+00  0.14351638711E+04  0.14351638711E+04  0.50400001928E-02 0.  1.
       -1   -1    0    0    0  501  0.00000000000E+00  0.00000000000E+00 -0.13790164720E+03  0.13790164730E+03  0.50400001928E-02 0. -1.
    10030    2    1    2    0    0  0.00000000000E+00  0.00000000000E+00  0.12972622239E+04  0.15730655184E+04  0.88974482163E+03 0.  0.
        3    1    3    3  502    0  0.16799023553E+03 -0.77983002302E+02  0.13637618523E+04  0.13762806646E+04  0.10100000352E+00 0.  1.
       -3    1    3    3    0  502 -0.16799023553E+03  0.77983002302E+02 -0.66499628423E+02  0.19678485374E+03  0.10100000352E+00 0. -1.
</event>
<event>
 5   0  0.6534628E-03  0.9052812E+03  0.7818609E-02  0.9419004E-01
       -2   -1    0    0    0  501  0.00000000000E+00  0.00000000000E+00  0.23449330329E+03  0.23449330330E+03  0.25500000920E-02 0.  1.
        2   -1    0    0  501    0  0.00000000000E+00  0.00000000000E+00 -0.87372853767E+03  0.87372853767E+03  0.25500000920E-02 0. -1.
    10030    2    1    2    0    0  0.00000000000E+00  0.00000000000E+00 -0.63923523438E+03  0.11082218410E+04  0.90528115187E+03 0.  0.
        4    1    3    3  502    0  0.24007199960E+03 -0.36608244875E+03 -0.46042933717E+03  0.63533275667E+03  0.12699999809E+01 0.  1.
       -4    1    3    3    0  502 -0.24007199960E+03  0.36608244875E+03 -0.17880589722E+03  0.47288908430E+03  0.12699999809E+01 0. -1.
</event>
<event>
 5   0  0.3927993E-03  0.9038729E+03  0.7818609E-02  0.9420753E-01
        1   -1    0    0  501    0  0.00000000000E+00  0.00000000000E+00  0.73596125459E+03  0.73596125461E+03  0.50400001928E-02 0.  1.
       -1   -1    0    0    0  501  0.00000000000E+00  0.00000000000E+00 -0.27752348874E+03  0.27752348878E+03  0.50400001928E-02 0. -1.
    10030    2    1    2    0    0  0.00000000000E+00  0.00000000000E+00  0.45843776585E+03  0.10134847434E+04  0.90387285606E+03 0.  0.
        2    1    3    3  502    0  0.16306039947E+03  0.32119958951E+03 -0.76804749473E+02  0.36831622246E+03  0.25500000920E-02 0. -1.
       -2    1    3    3    0  502 -0.16306039947E+03 -0.32119958951E+03  0.53524251533E+03  0.64516852093E+03  0.25500000920E-02 0.  1.
</event>
<event>
 5   0  0.6609191E-03  0.8945543E+03  0.7818609E-02  0.9432415E-01
        2   -1    0    0  501    0  0.00000000000E+00  0.00000000000E+00  0.12039351497E+04  0.12039351497E+04  0.25500000920E-02 0.  1.
       -2   -1    0    0    0  501  0.00000000000E+00  0.00000000000E+00 -0.16616912698E+03  0.16616912700E+03  0.25500000920E-02 0. -1.
    10030    2    1    2    0    0  0.00000000000E+00  0.00000000000E+00  0.10377660228E+04  0.13701042767E+04  0.89455430867E+03 0.  0.
        2    1    3    3  502    0 -0.43676765686E+03  0.95626849477E+02  0.50035296749E+03  0.67101681984E+03  0.25500000920E-02 0. -1.
       -2    1    3    3    0  502  0.43676765686E+03 -0.95626849477E+02  0.53741305528E+03  0.69908745691E+03  0.25500000920E-02 0.  1.
</event>
<event>
 5   0  0.3969536E-03  0.8972847E+03  0.7818609E-02  0.9428982E-01
       -1   -1    0    0    0  501  0.00000000000E+00  0.00000000000E+00  0.55612848675E+03  0.55612848678E+03  0.50400001928E-02 0. -1.
        1   -1    0    0  501    0  0.00000000000E+00  0.00000000000E+00 -0.36193063665E+03  0.36193063669E+03  0.50400001928E-02 0.  1.
    10030    2    1    2    0    0  0.00000000000E+00  0.00000000000E+00  0.19419785010E+03  0.91805912347E+03  0.89728465338E+03 0.  0.
        1    1    3    3  502    0  0.10962212927E+02  0.42573754813E+03 -0.47261007656E+02  0.42849297879E+03  0.50400001928E-02 0.  1.
       -1    1    3    3    0  502 -0.10962212927E+02 -0.42573754813E+03  0.24145885776E+03  0.48956614468E+03  0.50400001928E-02 0. -1.
</event>
<event>
 5   0  0.6609191E-03  0.9032819E+03  0.7818609E-02  0.9421488E-01
        2   -1    0    0  501    0  0.00000000000E+00  0.00000000000E+00  0.95920553465E+03  0.95920553465E+03  0.25500000920E-02 0. -1.
       -2   -1    0    0    0  501  0.00000000000E+00  0.00000000000E+00 -0.21265466772E+03  0.21265466773E+03  0.25500000920E-02 0.  1.
    10030    2    1    2    0    0  0.00000000000E+00  0.00000000000E+00  0.74655086693E+03  0.11718602024E+04  0.90328187019E+03 0.  0.
        2    1    3    3  502    0  0.38386870804E+03 -0.15870081236E+03  0.60330451168E+03  0.73247352626E+03  0.25500000920E-02 0. -1.
       -2    1    3    3    0  502 -0.38386870804E+03  0.15870081236E+03  0.14324635525E+03  0.43938667612E+03  0.25500000920E-02 0.  1.
</event>
<event>
 5   0  0.6724773E-03  0.9026770E+03  0.7818609E-02  0.9422241E-01
        2   -1    0    0  501    0  0.00000000000E+00  0.00000000000E+00  0.10515687696E+04  0.10515687696E+04  0.25500000920E-02 0.  1.
       -2   -1    0    0    0  501  0.00000000000E+00  0.00000000000E+00 -0.19371669789E+03  0.19371669791E+03  0.25500000920E-02 0. -1.
    10030    2    1    2    0    0  0.00000000000E+00  0.00000000000E+00  0.85785207168E+03  0.12452854675E+04  0.90267697358E+03 0.  0.
        5    1    3    3  502    0  0.43878216704E+03  0.50548103644E+02  0.55685580310E+03  0.71077097320E+03  0.46999998093E+01 0.  1.
       -5    1    3    3    0  502 -0.43878216704E+03 -0.50548103644E+02  0.30099626858E+03  0.53451449428E+03  0.46999998093E+01 0. -1.
</event>
<event>
 5   0  0.6724773E-03  0.8901663E+03  0.7818609E-02  0.9437958E-01
       -2   -1    0    0    0  501  0.00000000000E+00  0.00000000000E+00  0.89941059213E+03  0.89941059213E+03  0.25500000920E-02 0. -1.
        2   -1    0    0  501    0  0.00000000000E+00  0.00000000000E+00 -0.22025427877E+03  0.22025427879E+03  0.25500000920E-02 0.  1.
    10030    2    1    2    0    0  0.00000000000E+00  0.00000000000E+00  0.67915631336E+03  0.11196648709E+04  0.89016634693E+03 0.  0.
        5    1    3    3  502    0  0.13252137887E+03  0.32527563655E+03  0.68338026284E+03  0.76837284520E+03  0.46999998093E+01 0.  1.
       -5    1    3    3    0  502 -0.13252137887E+03 -0.32527563655E+03 -0.42239494849E+01  0.35129202573E+03  0.46999998093E+01 0. -1.
</event>
<event>
 5   0  0.2560250E-03  0.8939309E+03  0.7818609E-02  0.9433200E-01
        4   -1    0    0  501    0  0.00000000000E+00  0.00000000000E+00  0.55772630148E+03  0.55772774744E+03  0.12699999809E+01 0.  1.
       -4   -1    0    0    0  501  0.00000000000E+00  0.00000000000E+00 -0.35819797652E+03  0.35820022792E+03  0.12699999809E+01 0. -1.
    10030    2    1    2    0    0  0.00000000000E+00  0.00000000000E+00  0.19952832496E+03  0.91592797536E+03  0.89393092775E+03 0.  0.
        4    1    3    3  502    0  0.29365376056E+02  0.10367188199E+03 -0.34469136996E+03  0.36114254506E+03  0.12699999809E+01 0. -1.
       -4    1    3    3    0  502 -0.29365376056E+02 -0.10367188199E+03  0.54421969493E+03  0.55478543030E+03  0.12699999809E+01 0.  1.
</event>
<event>
 5   0  0.3943549E-03  0.9009638E+03  0.7818609E-02  0.9424377E-01
       -1   -1    0    0    0  501  0.00000000000E+00  0.00000000000E+00  0.67155807861E+03  0.67155807863E+03  0.50400001928E-02 0. -1.
        1   -1    0    0  501    0  0.00000000000E+00  0.00000000000E+00 -0.30218378598E+03  0.30218378603E+03  0.50400001928E-02 0.  1.
    10030    2    1    2    0    0  0.00000000000E+00  0.00000000000E+00  0.36937429263E+03  0.97374186466E+03  0.90096384552E+03 0.  0.
        3    1    3    3  502    0  0.39340376871E+03  0.16891876574E+03  0.33247522798E+02  0.42942459481E+03  0.10100000352E+00 0. -1.
       -3    1    3    3    0  502 -0.39340376871E+03 -0.16891876574E+03  0.33612676983E+03  0.54431726985E+03  0.10100000352E+00 0.  1.
</event>
<event>
 5   0  0.3943549E-03  0.9017814E+03  0.7818609E-02  0.9423357E-01
        1   -1    0    0  501    0  0.00000000000E+00  0.00000000000E+00  0.11734860120E+04  0.11734860120E+04  0.50400001928E-02 0.  1.
       -1   -1    0    0    0  501  0.00000000000E+00  0.00000000000E+00 -0.17324657438E+03  0.17324657445E+03  0.50400001928E-02 0. -1.
    10030    2    1    2    0    0  0.00000000000E+00  0.00000000000E+00  0.10002394376E+04  0.13467325864E+04  0.90178141855E+03 0.  0.
        3    1    3    3  502    0  0.94416004990E+02 -0.31880713858E+03  0.95493720941E+03  0.10111663848E+04  0.10100000352E+00 0.  1.
       -3    1    3    3    0  502 -0.94416004990E+02  0.31880713858E+03  0.45302228182E+02  0.33556620165E+03  0.10100000352E+00 0. -1.
</event>
<event>
 5   0  0.3943549E-03  0.9017905E+03  0.7818609E-02  0.9423346E-01
        1   -1    0    0  501    0  0.00000000000E+00  0.00000000000E+00  0.38482545645E+03  0.38482545648E+03  0.50400001928E-02 0.  1.
       -1   -1    0    0    0  501  0.00000000000E+00  0.00000000000E+00 -0.52830843603E+03  0.52830843605E+03  0.50400001928E-02 0. -1.
    10030    2    1    2    0    0  0.00000000000E+00  0.00000000000E+00 -0.14348297958E+03  0.91313389253E+03  0.90179051906E+03 0.  0.
        3    1    3    3  502    0  0.25488053097E+03  0.35477060589E+03  0.41378813752E+02  0.43879207411E+03  0.10100000352E+00 0.  1.
       -3    1    3    3    0  502 -0.25488053097E+03 -0.35477060589E+03 -0.18486179334E+03  0.47434181843E+03  0.10100000352E+00 0. -1.
</event>
<event>
 5   0  0.6863405E-03  0.8925492E+03  0.7818609E-02  0.9434944E-01
       -2   -1    0    0    0  501  0.00000000000E+00  0.00000000000E+00  0.11260286629E+03  0.11260286632E+03  0.25500000920E-02 0. -1.
        2   -1    0    0  501    0  0.00000000000E+00  0.00000000000E+00 -0.17687028000E+04  0.17687028000E+04  0.25500000920E-02 0.  1.
    10030    2    1    2    0    0  0.00000000000E+00  0.00000000000E+00 -0.16560999337E+04  0.18813056663E+04  0.89254916934E+03 0.  0.
        1    1    3    3  502    0 -0.79995642017E+02 -0.11492521807E+03  0.65100501687E+02  0.15441885842E+03  0.50400001928E-02 0. -1.
       -1    1    3    3    0  502  0.79995642017E+02  0.11492521807E+03 -0.17212004354E+04  0.17268868079E+04  0.50400001928E-02 0.  1.
</event>
<event>
 5   0  0.3794006E-03  0.9039431E+03  0.7818609E-02  0.9420666E-01
       -1   -1    0    0    0  501  0.00000000000E+00  0.00000000000E+00  0.20275701516E+03  0.20275701523E+03  0.50400001928E-02 0.  1.
        1   -1    0    0  501    0  0.00000000000E+00  0.00000000000E+00 -0.10075029257E+04  0.10075029257E+04  0.50400001928E-02 0. -1.
    10030    2    1    2    0    0  0.00000000000E+00  0.00000000000E+00 -0.80474591054E+03  0.12102599409E+04  0.90394310890E+03 0.  0.
        5    1    3    3  502    0  0.21623117895E+03  0.35761094262E+03 -0.63277754902E+03  0.75833437584E+03  0.46999998093E+01 0. -1.
       -5    1    3    3    0  502 -0.21623117895E+03 -0.35761094262E+03 -0.17196836152E+03  0.45192556511E+03  0.46999998093E+01 0.  1.
</event>
<event>
 5   0  0.6863405E-03  0.9030521E+03  0.7818609E-02  0.9421774E-01
       -2   -1    0    0    0  501  0.00000000000E+00  0.00000000000E+00  0.31423559850E+03  0.31423559852E+03  0.25500000920E-02 0. -1.
        2   -1    0    0  501    0  0.00000000000E+00  0.00000000000E+00 -0.64879913123E+03  0.64879913124E+03  0.25500000920E-02 0.  1.
    10030    2    1    2    0    0  0.00000000000E+00  0.00000000000E+00 -0.33456353273E+03  0.96303472975E+03  0.90305212102E+03 0.  0.
        1    1    3    3  502    0 -0.56768588527E+02  0.29257441745E+03 -0.52900692155E+03  0.60718266235E+03  0.50400001928E-02 0.  1.
       -1    1    3    3    0  502  0.56768588527E+02 -0.29257441745E+03  0.19444338882E+03  0.35585206740E+03  0.50400001928E-02 0. -1.
</event>
<event>
 5   0  0.6524705E-03  0.9050888E+03  0.7818609E-02  0.9419242E-01
        2   -1    0    0  501    0  0.00000000000E+00  0.00000000000E+00  0.22239307278E+04  0.22239307278E+04  0.25500000920E-02 0. -1.
       -2   -1    0    0    0  501  0.00000000000E+00  0.00000000000E+00 -0.92087597822E+02  0.92087597857E+02  0.25500000920E-02 0.  1.
    10030    2    1    2    0    0  0.00000000000E+00  0.00000000000E+00  0.21318431299E+04  0.23160183256E+04  0.90508880997E+03 0.  0.
        3    1    3    3  502    0  0.45236973877E+02  0.25787774443E+02 -0.84396322234E+02  0.99167245216E+02  0.10100000352E+00 0.  1.
       -3    1    3    3    0  502 -0.45236973877E+02 -0.25787774443E+02  0.22162394522E+04  0.22168510804E+04  0.10100000352E+00 0. -1.
</event>
<event>
 5   0  0.6609191E-03  0.9043719E+03  0.7818609E-02  0.9420133E-01
       -2   -1    0    0    0  501  0.00000000000E+00  0.00000000000E+00  0.46443274143E+03  0.46443274144E+03  0.25500000920E-02 0. -1.
        2   -1    0    0  501    0  0.00000000000E+00  0.00000000000E+00 -0.44026205810E+03  0.44026205811E+03  0.25500000920E-02 0.  1.
    10030    2    1    2    0    0  0.00000000000E+00  0.00000000000E+00  0.24170683330E+02  0.90469479955E+03  0.90437185847E+03 0.  0.
        2    1    3    3  502    0 -0.32779797390E+03  0.25277111089E+03  0.19415958875E+03  0.45721186785E+03  0.25500000920E-02 0. -1.
       -2    1    3    3    0  502  0.32779797390E+03 -0.25277111089E+03 -0.16998890542E+03  0.44748293170E+03  0.25500000920E-02 0.  1.
</event>
<event>
 5   0  0.3927993E-03  0.9094292E+03  0.7818609E-02  0.9413871E-01
        1   -1    0    0  501    0  0.00000000000E+00  0.00000000000E+00  0.13978934750E+04  0.13978934750E+04  0.50400001928E-02 0. -1.
       -1   -1    0    0    0  501  0.00000000000E+00  0.00000000000E+00 -0.14791209684E+03  0.14791209693E+03  0.50400001928E-02 0.  1.
    10030    2    1    2    0    0  0.00000000000E+00  0.00000000000E+00  0.12499813781E+04  0.15458055719E+04  0.90942917287E+03 0.  0.
        2    1    3    3  502    0  0.72153839790E+02  0.16757278548E+02 -0.13758778617E+03  0.15626062169E+03  0.25500000920E-02 0.  1.
       -2    1    3    3    0  502 -0.72153839790E+02 -0.16757278548E+02  0.13875691643E+04  0.13895449502E+04  0.25500000920E-02 0. -1.
</event>
<event>
 5   0  0.6724773E-03  0.9034932E+03  0.7818609E-02  0.9421225E-01
       -2   -1    0    0    0  501  0.00000000000E+00  0.00000000000E+00  0.26001367739E+03  0.26001367740E+03  0.25500000920E-02 0. -1.
        2   -1    0    0  501    0  0.00000000000E+00  0.00000000000E+00 -0.78486259017E+03  0.78486259017E+03  0.25500000920E-02 0.  1.
    10030    2    1    2    0    0  0.00000000000E+00  0.00000000000E+00 -0.52484891278E+03  0.10448762676E+04  0.90349323921E+03 0.  0.
        5    1    3    3  502    0 -0.50249746618E+02  0.35853545478E+02 -0.77993354798E+03  0.78238669660E+03  0.46999998093E+01 0.  1.
       -5    1    3    3    0  502  0.50249746618E+02 -0.35853545478E+02  0.25508463520E+03  0.26248957098E+03  0.46999998093E+01 0. -1.
</event>
<event>
 5   0  0.2560250E-03  0.9070678E+03  0.7818609E-02  0.9416789E-01
       -3   -1    0    0    0  501  0.00000000000E+00  0.00000000000E+00  0.56190027618E+03  0.56190028525E+03  0.10100000352E+00 0. -1.
        3   -1    0    0  501    0  0.00000000000E+00  0.00000000000E+00 -0.36606668617E+03  0.36606670011E+03  0.10100000352E+00 0.  1.
    10030    2    1    2    0    0  0.00000000000E+00  0.00000000000E+00  0.19583359000E+03  0.92796698536E+03  0.90706776535E+03 0.  0.
        1    1    3    3  502    0  0.39215715046E+03  0.21897969123E+03  0.16224356291E+03  0.47755869750E+03  0.50400001928E-02 0. -1.
       -1    1    3    3    0  502 -0.39215715046E+03 -0.21897969123E+03  0.33590027088E+02  0.45040828786E+03  0.50400001928E-02 0.  1.
</event>
<event>
 5   0  0.6724773E-03  0.9001534E+03  0.7818609E-02  0.9425390E-01
       -2   -1    0    0    0  501  0.00000000000E+00  0.00000000000E+00  0.43427636740E+03  0.43427636741E+03  0.25500000920E-02 0.  1.
        2   -1    0    0  501    0  0.00000000000E+00  0.00000000000E+00 -0.46645193064E+03  0.46645193065E+03  0.25500000920E-02 0. -1.
    10030    2    1    2    0    0  0.00000000000E+00  0.00000000000E+00 -0.32175563237E+02  0.90072829806E+03  0.90015343139E+03 0.  0.
        5    1    3    3  502    0 -0.42458991964E+02 -0.15072268161E+02  0.43198946133E+03  0.43435805963E+03  0.46999998093E+01 0.  1.
       -5    1    3    3    0  502  0.42458991964E+02  0.15072268161E+02 -0.46416502456E+03  0.46637023843E+03  0.46999998093E+01 0. -1.
</event>
<event>
 5   0  0.6863405E-03  0.9840863E+03  0.7818609E-02  0.9326173E-01
       -2   -1    0    0    0  501  0.00000000000E+00  0.00000000000E+00  0.27283336014E+03  0.27283336015E+03  0.25500000920E-02 0.  1.
        2   -1    0    0  501    0  0.00000000000E+00  0.00000000000E+00 -0.88737855862E+03  0.88737855862E+03  0.25500000920E-02 0. -1.
    10030    2    1    2    0    0  0.00000000000E+00  0.00000000000E+00 -0.61454519848E+03  0.11602119188E+04  0.98408632523E+03 0.  0.
        1    1    3    3  502    0 -0.23424594358E+03  0.20192598146E+03  0.14392360171E+03  0.34111474203E+03  0.50400001928E-02 0.  1.
       -1    1    3    3    0  502  0.23424594358E+03 -0.20192598146E+03 -0.75846880019E+03  0.81909717675E+03  0.50400001928E-02 0. -1.
</event>
<event>
 5   0  0.6534628E-03  0.8773315E+03  0.7818609E-02  0.9454370E-01
       -2   -1    0    0    0  501  0.00000000000E+00  0.00000000000E+00  0.33361172849E+03  0.33361172850E+03  0.25500000920E-02 0.  1.
        2   -1    0    0  501    0  0.00000000000E+00  0.00000000000E+00 -0.57680116621E+03  0.57680116622E+03  0.25500000920E-02 0. -1.
    10030    2    1    2    0    0  0.00000000000E+00  0.00000000000E+00 -0.24318943772E+03  0.91041289472E+03  0.87733148596E+03 0.  0.
        4    1    3    3  502    0 -0.38314445619E+03 -0.13964193265E+03  0.46136967946E+02  0.41040196926E+03  0.12699999809E+01 0.  1.
       -4    1    3    3    0  502  0.38314445619E+03  0.13964193265E+03 -0.28932640567E+03  0.50001092546E+03  0.12699999809E+01 0. -1.
</event>
<event>
 5   0  0.3927993E-03  0.9030647E+03  0.7818609E-02  0.9421759E-01
       -1   -1    0    0    0  501  0.00000000000E+00  0.00000000000E+00  0.16915815802E+03  0.16915815809E+03  0.50400001928E-02 0. -1.
        1   -1    0    0  501    0  0.00000000000E+00  0.00000000000E+00 -0.12052711600E+04  0.12052711600E+04  0.50400001928E-02 0.  1.
    10030    2    1    2    0    0  0.00000000000E+00  0.00000000000E+00 -0.10361130020E+04  0.13744293181E+04  0.90306466967E+03 0.  0.
        2    1    3    3  502    0 -0.43814385104E+03 -0.87279218882E+02 -0.41832735618E+03  0.61203388238E+03  0.25500000920E-02 0. -1.
       -2    1    3    3    0  502  0.43814385104E+03  0.87279218882E+02 -0.61778564583E+03  0.76239543575E+03  0.25500000920E-02 0.  1.
</event>
<event>
 5   0  0.3927993E-03  0.9023104E+03  0.7818609E-02  0.9422698E-01
       -1   -1    0    0    0  501  0.00000000000E+00  0.00000000000E+00  0.43207822320E+03  0.43207822323E+03  0.50400001928E-02 0. -1.
        1   -1    0    0  501    0  0.00000000000E+00  0.00000000000E+00 -0.47107446437E+03  0.47107446440E+03  0.50400001928E-02 0.  1.
    10030    2    1    2    0    0  0.00000000000E+00  0.00000000000E+00 -0.38996241164E+02  0.90315268763E+03  0.90231040687E+03 0.  0.
        2    1    3    3  502    0 -0.31572576114E+03  0.27068723906E+03  0.15555561449E+03  0.44401789023E+03  0.25500000920E-02 0. -1.
       -2    1    3    3    0  502  0.31572576114E+03 -0.27068723906E+03 -0.19455185566E+03  0.45913479740E+03  0.25500000920E-02 0.  1.
</event>
<event>
 5   0  0.6724773E-03  0.8870950E+03  0.7818609E-02  0.9441859E-01
        2   -1    0    0  501    0  0.00000000000E+00  0.00000000000E+00  0.16754717311E+04  0.16754717311E+04  0.25500000920E-02 0. -1.
       -2   -1    0    0    0  501  0.00000000000E+00  0.00000000000E+00 -0.11742030350E+03  0.11742030353E+03  0.25500000920E-02 0.  1.
    10030    2    1    2    0    0  0.00000000000E+00  0.00000000000E+00  0.15580514276E+04  0.17928920347E+04  0.88709503258E+03 0.  0.
        5    1    3    3  502    0 -0.38684975336E+03  0.75682306086E+02  0.36813533535E+03  0.53937580430E+03  0.46999998093E+01 0.  1.
       -5    1    3    3    0  502  0.38684975336E+03 -0.75682306086E+02  0.11899160923E+04  0.12535162304E+04  0.46999998093E+01 0. -1.
</event>
<event>
 5   0  0.6524705E-03  0.9092909E+03  0.7818609E-02  0.9414041E-01
       -2   -1    0    0    0  501  0.00000000000E+00  0.00000000000E+00  0.41132287099E+03  0.41132287099E+03  0.25500000920E-02 0. -1.
        2   -1    0    0  501    0  0.00000000000E+00  0.00000000000E+00 -0.50253093739E+03  0.50253093739E+03  0.25500000920E-02 0.  1.
    10030    2    1    2    0    0  0.00000000000E+00  0.00000000000E+00 -0.91208066399E+02  0.91385380839E+03  0.90929086200E+03 0.  0.
        3    1    3    3  502    0  0.18804799086E+03 -0.22658508045E+03  0.30254389948E+03  0.42217966183E+03  0.10100000352E+00 0. -1.
       -3    1    3    3    0  502 -0.18804799086E+03  0.22658508045E+03 -0.39375196588E+03  0.49167414655E+03  0.10100000352E+00 0.  1.
</event>
<event>
 5   0  0.3927993E-03  0.9067490E+03  0.7818609E-02  0.9417184E-01
       -1   -1    0    0    0  501  0.00000000000E+00  0.00000000000E+00  0.35655132880E+03  0.35655132884E+03  0.50400001928E-02 0.  1.
        1   -1    0    0  501    0  0.00000000000E+00  0.00000000000E+00 -0.57649043782E+03  0.57649043784E+03  0.50400001928E-02 0. -1.
    10030    2    1    2    0    0  0.00000000000E+00  0.00000000000E+00 -0.21993910901E+03  0.93304176668E+03  0.90674898770E+03 0.  0.
        2    1    3    3  502    0 -0.37781675560E+02 -0.26308360928E+03 -0.48791824359E+03  0.55561196254E+03  0.25500000920E-02 0. -1.
       -2    1    3    3    0  502  0.37781675560E+02  0.26308360928E+03  0.26797913457E+03  0.37742980414E+03  0.25500000920E-02 0.  1.
</event>
<event>
 5   0  0.6534628E-03  0.9002359E+03  0.7818609E-02  0.9425287E-01
       -2   -1    0    0    0  501  0.00000000000E+00  0.00000000000E+00  0.20377149362E+03  0.20377149364E+03  0.25500000920E-02 0. -1.
        2   -1    0    0  501    0  0.00000000000E+00  0.00000000000E+00 -0.99428111432E+03  0.99428111432E+03  0.25500000920E-02 0.  1.
    10030    2    1    2    0    0  0.00000000000E+00  0.00000000000E+00 -0.79050962070E+03  0.11980526080E+04  0.90023585300E+03 0.  0.
        4    1    3    3  502    0 -0.16008903393E+03 -0.39855597986E+03 -0.21606698109E+03  0.48079301272E+03  0.12699999809E+01 0.  1.
       -4    1    3    3    0  502  0.16008903393E+03  0.39855597986E+03 -0.57444263961E+03  0.71725959524E+03  0.12699999809E+01 0. -1.
</event>
<event>
 5   0  0.3998066E-03  0.9054080E+03  0.7818609E-02  0.9418846E-01
        1   -1    0    0  501    0  0.00000000000E+00  0.00000000000E+00  0.15134755950E+04  0.15134755950E+04  0.50400001928E-02 0.  1.
       -1   -1    0    0    0  501  0.00000000000E+00  0.00000000000E+00 -0.13541077309E+03  0.13541077318E+03  0.50400001928E-02 0. -1.
    10030    2    1    2    0    0  0.00000000000E+00  0.00000000000E+00  0.13780648219E+04  0.16488863682E+04  0.90540797533E+03 0.  0.
        4    1    3    3  502    0  0.38441558126E+03 -0.18282259256E+03  0.40843388863E+03  0.58993160091E+03  0.12699999809E+01 0. -1.
       -4    1    3    3    0  502 -0.38441558126E+03  0.18282259256E+03  0.96963093324E+03  0.10589547672E+04  0.12699999809E+01 0.  1.
</event>
<event>
 5   0  0.3943549E-03  0.9277629E+03  0.7818609E-02  0.9391527E-01
        1   -1    0    0  501    0  0.00000000000E+00  0.00000000000E+00  0.72228649644E+03  0.72228649646E+03  0.50400001928E-02 0.  1.
       -1   -1    0    0    0  501  0.00000000000E+00  0.00000000000E+00 -0.29792331841E+03  0.29792331845E+03  0.50400001928E-02 0. -1.
    10030    2    1    2    0    0  0.00000000000E+00  0.00000000000E+00  0.42436317803E+03  0.10202098149E+04  0.92776287896E+03 0.  0.
        3    1    3    3  502    0 -0.30403929050E+03  0.14561250608E+03 -0.13822937624E+03  0.36434909462E+03  0.10100000352E+00 0. -1.
       -3    1    3    3    0  502  0.30403929050E+03 -0.14561250608E+03  0.56259255428E+03  0.65586072029E+03  0.10100000352E+00 0.  1.
</event>
<event>
 5   0  0.6524705E-03  0.8948992E+03  0.7818609E-02  0.9431980E-01
        2   -1    0    0  501    0  0.00000000000E+00  0.00000000000E+00  0.31599096173E+03  0.31599096174E+03  0.25500000920E-02 0. -1.
       -2   -1    0    0    0  501  0.00000000000E+00  0.00000000000E+00 -0.63359773931E+03  0.63359773932E+03  0.25500000920E-02 0.  1.
    10030    2    1    2    0    0  0.00000000000E+00  0.00000000000E+00 -0.31760677759E+03  0.94958870106E+03  0.89489923232E+03 0.  0.
        3    1    3    3  502    0  0.44259085428E+03  0.81732312089E+00 -0.22857761513E+03  0.49813157765E+03  0.10100000352E+00 0.  1.
       -3    1    3    3    0  502 -0.44259085428E+03 -0.81732312089E+00 -0.89029162459E+02  0.45145712341E+03  0.10100000352E+00 0. -1.
</event>
<event>
 5   0  0.3927993E-03  0.9158778E+03  0.7818609E-02  0.9405948E-01
       -1   -1    0    0    0  501  0.00000000000E+00  0.00000000000E+00  0.84229928425E+03  0.84229928426E+03  0.50400001928E-02 0.  1.
        1   -1    0    0  501    0  0.00000000000E+00  0.00000000000E+00 -0.24897091688E+03  0.24897091693E+03  0.50400001928E-02 0. -1.
    10030    2    1    2    0    0  0.00000000000E+00  0.00000000000E+00  0.59332836737E+03  0.10912702012E+04  0.91587777595E+03 0.  0.
        2    1    3    3  502    0  0.20901700631E+03 -0.30768818418E+03  0.61492660702E+03  0.71867576809E+03  0.25500000920E-02 0.  1.
       -2    1    3    3    0  502 -0.20901700631E+03  0.30768818418E+03 -0.21598239654E+02  0.37259443310E+03  0.25500000920E-02 0. -1.
</event>
<event>
 5   0  0.6863405E-03  0.9047164E+03  0.7818609E-02  0.9419705E-01
       -2   -1    0    0    0  501  0.00000000000E+00  0.00000000000E+00  0.22100786052E+03  0.22100786054E+03  0.25500000920E-02 0. -1.
        2   -1    0    0  501    0  0.00000000000E+00  0.00000000000E+00 -0.92588544617E+03  0.92588544617E+03  0.25500000920E-02 0.  1.
    10030    2    1    2    0    0  0.00000000000E+00  0.00000000000E+00 -0.70487758565E+03  0.11468933067E+04  0.90471644521E+03 0.  0.
        1    1    3    3  502    0 -0.44957572582E+03  0.49635465324E+02 -0.36103185472E+03  0.57872792642E+03  0.50400001928E-02 0.  1.
       -1    1    3    3    0  502  0.44957572582E+03 -0.49635465324E+02 -0.34384573093E+03  0.56816538029E+03  0.50400001928E-02 0. -1.
</event>
<event>
 5   0  0.6524705E-03  0.8994244E+03  0.7818609E-02  0.9426301E-01
       -2   -1    0    0    0  501  0.00000000000E+00  0.00000000000E+00  0.41727894881E+03  0.41727894882E+03  0.25500000920E-02 0.  1.
        2   -1    0    0  501    0  0.00000000000E+00  0.00000000000E+00 -0.48466631429E+03  0.48466631429E+03  0.25500000920E-02 0. -1.
    10030    2    1    2    0    0  0.00000000000E+00  0.00000000000E+00 -0.67387365473E+02  0.90194526311E+03  0.89942437182E+03 0.  0.
        3    1    3    3  502    0 -0.16852619799E+02 -0.21028081764E+03 -0.43197054928E+03  0.48072923638E+03  0.10100000352E+00 0. -1.
       -3    1    3    3    0  502  0.16852619799E+02  0.21028081764E+03  0.36458318381E+03  0.42121602674E+03  0.10100000352E+00 0.  1.
</event>
<event>
 5   0  0.3969536E-03  0.8939064E+03  0.7818609E-02  0.9433231E-01
        1   -1    0    0  501    0  0.00000000000E+00  0.00000000000E+00  0.10246612013E+04  0.10246612013E+04  0.50400001928E-02 0.  1.
       -1   -1    0    0    0  501  0.00000000000E+00  0.00000000000E+00 -0.19495923091E+03  0.19495923097E+03  0.50400001928E-02 0. -1.
    10030    2    1    2    0    0  0.00000000000E+00  0.00000000000E+00  0.82970197042E+03  0.12196204323E+04  0.89390639285E+03 0.  0.
        1    1    3    3  502    0  0.20876758418E+03 -0.15370214661E+03 -0.81898131353E+02  0.27187415843E+03  0.50400001928E-02 0. -1.
       -1    1    3    3    0  502 -0.20876758418E+03  0.15370214661E+03  0.91160010178E+03  0.94774627388E+03  0.50400001928E-02 0.  1.
</event>
<event>
 5   0  0.3969536E-03  0.8996595E+03  0.7818609E-02  0.9426007E-01
       -1   -1    0    0    0  501  0.00000000000E+00  0.00000000000E+00  0.10630271051E+04  0.10630271051E+04  0.50400001928E-02 0.  1.
        1   -1    0    0  501    0  0.00000000000E+00  0.00000000000E+00 -0.19034960411E+03  0.19034960417E+03  0.50400001928E-02 0. -1.
    10030    2    1    2    0    0  0.00000000000E+00  0.00000000000E+00  0.87267750097E+03  0.12533767093E+04  0.89965946592E+03 0.  0.
        1    1    3    3  502    0 -0.17006821795E+03  0.38074367942E+03  0.67135854192E+03  0.79032350339E+03  0.50400001928E-02 0.  1.
       -1    1    3    3    0  502  0.17006821795E+03 -0.38074367942E+03  0.20131895905E+03  0.46305320588E+03  0.50400001928E-02 0. -1.
</event>
<event>
 5   0  0.6863405E-03  0.8892700E+03  0.7818609E-02  0.9439095E-01
        2   -1    0    0  501    0  0.00000000000E+00  0.00000000000E+00  0.16908175231E+03  0.16908175233E+03  0.25500000920E-02 0.  1.
       -2   -1    0    0    0  501  0.00000000000E+00  0.00000000000E+00 -0.11692584283E+04  0.11692584283E+04  0.25500000920E-02 0. -1.
    10030    2    1    2    0    0  0.00000000000E+00  0.00000000000E+00 -0.10001766760E+04  0.13383401807E+04  0.88926995671E+03 0.  0.
        1    1    3    3  502    0  0.30908095731E+03 -0.23232414167E+03 -0.16969397981E+03  0.42225773147E+03  0.50400001928E-02 0.  1.
       -1    1    3    3    0  502 -0.30908095731E+03  0.23232414167E+03 -0.83048269621E+03  0.91608244919E+03  0.50400001928E-02 0. -1.
</event>
<event>
 5   0  0.3927993E-03  0.9094773E+03  0.7818609E-02  0.9413811E-01
        1   -1    0    0  501    0  0.00000000000E+00  0.00000000000E+00  0.35017930455E+03  0.35017930459E+03  0.50400001928E-02 0. -1.
       -1   -1    0    0    0  501  0.00000000000E+00  0.00000000000E+00 -0.59051821196E+03  0.59051821198E+03  0.50400001928E-02 0.  1.
    10030    2    1    2    0    0  0.00000000000E+00  0.00000000000E+00 -0.24033890741E+03  0.94069751657E+03  0.90947733741E+03 0.  0.
        2    1    3    3  502    0 -0.10909921817E+01  0.44452210139E+03 -0.21930406447E+03  0.49567667041E+03  0.25500000920E-02 0. -1.
       -2    1    3    3    0  502  0.10909921817E+01 -0.44452210139E+03 -0.21034842938E+02  0.44502084616E+03  0.25500000920E-02 0.  1.
</event>
<event>
 5   0  0.3969536E-03  0.9066352E+03  0.7818609E-02  0.9417325E-01
       -1   -1    0    0    0  501  0.00000000000E+00  0.00000000000E+00  0.23315058922E+03  0.23315058927E+03  0.50400001928E-02 0. -1.
        1   -1    0    0  501    0  0.00000000000E+00  0.00000000000E+00 -0.88139108029E+03  0.88139108030E+03  0.50400001928E-02 0.  1.
    10030    2    1    2    0    0  0.00000000000E+00  0.00000000000E+00 -0.64824049107E+03  0.11145416696E+04  0.90663520722E+03 0.  0.
        1    1    3    3  502    0 -0.26483142069E+03 -0.29566405906E+03 -0.54947826858E+02  0.40071458783E+03  0.50400001928E-02 0. -1.
       -1    1    3    3    0  502  0.26483142069E+03  0.29566405906E+03 -0.59329266421E+03  0.71382708174E+03  0.50400001928E-02 0.  1.
</event>
<event>
 5   0  0.6524705E-03  0.9006210E+03  0.7818609E-02  0.9424805E-01
       -2   -1    0    0    0  501  0.00000000000E+00  0.00000000000E+00  0.92380466067E+02  0.92380466102E+02  0.25500000920E-02 0. -1.
        2   -1    0    0  501    0  0.00000000000E+00  0.00000000000E+00 -0.21950479697E+04  0.21950479697E+04  0.25500000920E-02 0.  1.
    10030    2    1    2    0    0  0.00000000000E+00  0.00000000000E+00 -0.21026675036E+04  0.22874284358E+04  0.90062101801E+03 0.  0.
        3    1    3    3  502    0 -0.10809130968E+03  0.10476891976E+03 -0.21292513112E+04  0.21345658609E+04  0.10100000352E+00 0.  1.
       -3    1    3    3    0  502  0.10809130968E+03 -0.10476891976E+03  0.26583807635E+02  0.15286257490E+03  0.10100000352E+00 0. -1.
</event>
<event>
 5   0  0.3998066E-03  0.8942716E+03  0.7818609E-02  0.9432771E-01
        1   -1    0    0  501    0  0.00000000000E+00  0.00000000000E+00  0.35492781470E+03  0.35492781473E+03  0.50400001928E-02 0. -1.
       -1   -1    0    0    0  501  0.00000000000E+00  0.00000000000E+00 -0.56329879002E+03  0.56329879004E+03  0.50400001928E-02 0.  1.
    10030    2    1    2    0    0  0.00000000000E+00  0.00000000000E+00 -0.20837097532E+03  0.91822660477E+03  0.89427156633E+03 0.  0.
        4    1    3    3  502    0  0.44803917427E+02 -0.39051025938E+03  0.11465064709E+03  0.40945333981E+03  0.12699999809E+01 0. -1.
       -4    1    3    3    0  502 -0.44803917427E+02  0.39051025938E+03 -0.32302162241E+03  0.50877326496E+03  0.12699999809E+01 0.  1.
</event>
<event>
 5   0  0.3969536E-03  0.9015045E+03  0.7818609E-02  0.9423703E-01
       -1   -1    0    0    0  501  0.00000000000E+00  0.00000000000E+00  0.87633164769E+03  0.87633164770E+03  0.50400001928E-02 0.  1.
        1   -1    0    0  501    0  0.00000000000E+00  0.00000000000E+00 -0.23185010918E+03  0.23185010923E+03  0.50400001928E-02 0. -1.
    10030    2    1    2    0    0  0.00000000000E+00  0.00000000000E+00  0.64448153851E+03  0.11081817569E+04  0.90150449412E+03 0.  0.
        1    1    3    3  502    0  0.14246696155E+03  0.12562439441E+03 -0.18025263975E+03  0.26185747605E+03  0.50400001928E-02 0. -1.
       -1    1    3    3    0  502 -0.14246696155E+03 -0.12562439441E+03  0.82473417825E+03  0.84632428088E+03  0.50400001928E-02 0.  1.
</event>
<event>
 5   0  0.3998066E-03  0.9312026E+03  0.7818609E-02  0.9387396E-01
        1   -1    0    0  501    0  0.00000000000E+00  0.00000000000E+00  0.45324620629E+03  0.45324620632E+03  0.50400001928E-02 0.  1.
       -1   -1    0    0    0  501  0.00000000000E+00  0.00000000000E+00 -0.47829319799E+03  0.47829319802E+03  0.50400001928E-02 0. -1.
    10030    2    1    2    0    0  0.00000000000E+00  0.00000000000E+00 -0.25046991701E+02  0.93153940434E+03  0.93120261493E+03 0.  0.
        4    1    3    3  502    0 -0.10496552807E+03  0.17168990294E+03  0.40749474106E+03  0.45447635994E+03  0.12699999809E+01 0.  1.
       -4    1    3    3    0  502  0.10496552807E+03 -0.17168990294E+03 -0.43254173276E+03  0.47706304440E+03  0.12699999809E+01 0. -1.
</event>
<event>
 5   0  0.6609191E-03  0.9276633E+03  0.7818609E-02  0.9391647E-01
        2   -1    0    0  501    0  0.00000000000E+00  0.00000000000E+00  0.57977302061E+03  0.57977302062E+03  0.25500000920E-02 0.  1.
       -2   -1    0    0    0  501  0.00000000000E+00  0.00000000000E+00 -0.37107593730E+03  0.37107593731E+03  0.25500000920E-02 0. -1.
    10030    2    1    2    0    0  0.00000000000E+00  0.00000000000E+00  0.20869708331E+03  0.95084895793E+03  0.92766333775E+03 0.  0.
        2    1    3    3  502    0 -0.12935096774E+02  0.80080630875E+02  0.57244593952E+03  0.57816483623E+03  0.25500000920E-02 0.  1.
       -2    1    3    3    0  502  0.12935096774E+02 -0.80080630875E+02 -0.36374885621E+03  0.37268412170E+03  0.25500000920E-02 0. -1.
</event>
<event>
 5   0  0.6534628E-03  0.9267463E+03  0.7818609E-02  0.9392751E-01
       -2   -1    0    0    0  501  0.00000000000E+00  0.00000000000E+00  0.99762138564E+02  0.99762138596E+02  0.25500000920E-02 0.  1.
        2   -1    0    0  501    0  0.00000000000E+00  0.00000000000E+00 -0.21522661883E+04  0.21522661883E+04  0.25500000920E-02 0. -1.
    10030    2    1    2    0    0  0.00000000000E+00  0.00000000000E+00 -0.20525040497E+04  0.22520283269E+04  0.92674630345E+03 0.  0.
        4    1    3    3  502    0 -0.61746221501E+01 -0.36593842498E+03 -0.17168446212E+04  0.17554219217E+04  0.12699999809E+01 0. -1.
       -4    1    3    3    0  502  0.61746221501E+01  0.36593842498E+03 -0.33565942850E+03  0.49660640519E+03  0.12699999809E+01 0.  1.
</event>
<event>
 5   0  0.6524705E-03  0.8964709E+03  0.7818609E-02  0.9430004E-01
       -2   -1    0    0    0  501  0.00000000000E+00  0.00000000000E+00  0.89890585585E+02  0.89890585622E+02  0.25500000920E-02 0.  1.
        2   -1    0    0  501    0  0.00000000000E+00  0.00000000000E+00 -0.22351063777E+04  0.22351063777E+04  0.25500000920E-02 0. -1.
    10030    2    1    2    0    0  0.00000000000E+00  0.00000000000E+00 -0.21452157921E+04  0.23249969633E+04  0.89647090567E+03 0.  0.
        3    1    3    3  502    0 -0.17627106593E+03  0.27997970182E+02 -0.62422257409E+01  0.17858989502E+03  0.10100000352E+00 0.  1.
       -3    1    3    3    0  502  0.17627106593E+03 -0.27997970182E+02 -0.21389735663E+04  0.21464070683E+04  0.10100000352E+00 0. -1.
</event>
<event>
 5   0  0.3943549E-03  0.8932626E+03  0.7818609E-02  0.9434043E-01
        1   -1    0    0  501    0  0.00000000000E+00  0.00000000000E+00  0.12886453670E+04  0.12886453670E+04  0.50400001928E-02 0.  1.
       -1   -1    0    0    0  501  0.00000000000E+00  0.00000000000E+00 -0.15479783506E+03  0.15479783514E+03  0.50400001928E-02 0. -1.
    10030    2    1    2    0    0  0.00000000000E+00  0.00000000000E+00  0.11338475320E+04  0.14434432022E+04  0.89326258858E+03 0.  0.
        3    1    3    3  502    0  0.41593064146E+03 -0.98501767629E+02  0.77623787029E+03  0.88614115027E+03  0.10100000352E+00 0.  1.
       -3    1    3    3    0  502 -0.41593064146E+03  0.98501767629E+02  0.35760966168E+03  0.55730205191E+03  0.10100000352E+00 0. -1.
</event>
<event>
 5   0  0.6724773E-03  0.8976994E+03  0.7818609E-02  0.9428462E-01
       -2   -1    0    0    0  501  0.00000000000E+00  0.00000000000E+00  0.19377493910E+03  0.19377493912E+03  0.25500000920E-02 0. -1.
        2   -1    0    0  501    0  0.00000000000E+00  0.00000000000E+00 -0.10396910590E+04  0.10396910590E+04  0.25500000920E-02 0.  1.
    10030    2    1    2    0    0  0.00000000000E+00  0.00000000000E+00 -0.84591611993E+03  0.12334659982E+04  0.89769944115E+03 0.  0.
        5    1    3    3  502    0  0.24407450933E+03 -0.16109138704E+03  0.44860691028E+02  0.29590095079E+03  0.46999998093E+01 0. -1.
       -5    1    3    3    0  502 -0.24407450933E+03  0.16109138704E+03 -0.89077681096E+03  0.93756504736E+03  0.46999998093E+01 0.  1.
</event>
<event>
 5   0  0.6609191E-03  0.9353200E+03  0.7818609E-02  0.9382476E-01
        2   -1    0    0  501    0  0.00000000000E+00  0.00000000000E+00  0.67021496180E+03  0.67021496181E+03  0.25500000920E-02 0. -1.
       -2   -1    0    0    0  501  0.00000000000E+00  0.00000000000E+00 -0.32632199772E+03  0.32632199773E+03  0.25500000920E-02 0.  1.
    10030    2    1    2    0    0  0.00000000000E+00  0.00000000000E+00  0.34389296408E+03  0.99653695954E+03  0.93532002062E+03 0.  0.
        2    1    3    3  502    0  0.16213369491E+03  0.10557089121E+03  0.62557478651E+03  0.65481017220E+03  0.25500000920E-02 0. -1.
       -2    1    3    3    0  502 -0.16213369491E+03 -0.10557089121E+03 -0.28168182242E+03  0.34172678734E+03  0.25500000920E-02 0.  1.
</event>
<event>
 5   0  0.3943549E-03  0.8662138E+03  0.7818609E-02  0.9468830E-01
       -1   -1    0    0    0  501  0.00000000000E+00  0.00000000000E+00  0.67657797643E+03  0.67657797645E+03  0.50400001928E-02 0.  1.
        1   -1    0    0  501    0  0.00000000000E+00  0.00000000000E+00 -0.27725047549E+03  0.27725047553E+03  0.50400001928E-02 0. -1.
    10030    2    1    2    0    0  0.00000000000E+00  0.00000000000E+00  0.39932750094E+03  0.95382845198E+03  0.86621375122E+03 0.  0.
        3    1    3    3  502    0 -0.85898895732E+02  0.20503459439E+02  0.66655846666E+03  0.67238323284E+03  0.10100000352E+00 0.  1.
       -3    1    3    3    0  502  0.85898895732E+02 -0.20503459439E+02 -0.26723096571E+03  0.28144521914E+03  0.10100000352E+00 0. -1.
</event>
<event>
 5   0  0.6724773E-03  0.8978631E+03  0.7818609E-02  0.9428257E-01
        2   -1    0    0  501    0  0.00000000000E+00  0.00000000000E+00  0.30674300041E+03  0.30674300042E+03  0.25500000920E-02 0.  1.
       -2   -1    0    0    0  501  0.00000000000E+00  0.00000000000E+00 -0.65703066686E+03  0.65703066687E+03  0.25500000920E-02 0. -1.
    10030    2    1    2    0    0  0.00000000000E+00  0.00000000000E+00 -0.35028766646E+03  0.96377366728E+03  0.89786314797E+03 0.  0.
        5    1    3    3  502    0  0.15369502215E+03  0.19869167354E+03 -0.57449918729E+03  0.62703424720E+03  0.46999998093E+01 0. -1.
       -5    1    3    3    0  502 -0.15369502215E+03 -0.19869167354E+03  0.22421152083E+03  0.33673942009E+03  0.46999998093E+01 0.  1.
</event>
<event>
 5   0  0.2560250E-03  0.8985551E+03  0.7818609E-02  0.9427389E-01
        3   -1    0    0  501    0  0.00000000000E+00  0.00000000000E+00  0.42999029472E+03  0.42999030658E+03  0.10100000352E+00 0.  1.
       -3   -1    0    0    0  501  0.00000000000E+00  0.00000000000E+00 -0.46942992160E+03  0.46942993247E+03  0.10100000352E+00 0. -1.
    10030    2    1    2    0    0  0.00000000000E+00  0.00000000000E+00 -0.39439626884E+02  0.89942023905E+03  0.89855510807E+03 0.  0.
        2    1    3    3  502    0  0.14515791882E+03 -0.75740188381E+02  0.39906431801E+03  0.43134641236E+03  0.25500000920E-02 0.  1.
       -2    1    3    3    0  502 -0.14515791882E+03  0.75740188381E+02 -0.43850394490E+03  0.46807382669E+03  0.25500000920E-02 0. -1.
</event>
<event>
 5   0  0.6724773E-03  0.9005244E+03  0.7818609E-02  0.9424926E-01
        2   -1    0    0  501    0  0.00000000000E+00  0.00000000000E+00  0.94819909654E+03  0.94819909654E+03  0.25500000920E-02 0. -1.
       -2   -1    0    0    0  501  0.00000000000E+00  0.00000000000E+00 -0.21381168254E+03  0.21381168256E+03  0.25500000920E-02 0.  1.
    10030    2    1    2    0    0  0.00000000000E+00  0.00000000000E+00  0.73438741400E+03  0.11620107791E+04  0.90052438995E+03 0.  0.
        5    1    3    3  502    0 -0.28424259860E+03  0.22432397323E+03  0.71247075795E+03  0.79921947596E+03  0.46999998093E+01 0. -1.
       -5    1    3    3    0  502  0.28424259860E+03 -0.22432397323E+03  0.21916656042E+02  0.36279130313E+03  0.46999998093E+01 0.  1.
</event>
<event>
 5   0  0.6863405E-03  0.9105312E+03  0.7818609E-02  0.9412512E-01
       -2   -1    0    0    0  501  0.00000000000E+00  0.00000000000E+00  0.12816512739E+03  0.12816512741E+03  0.25500000920E-02 0.  1.
        2   -1    0    0  501    0  0.00000000000E+00  0.00000000000E+00 -0.16171854897E+04  0.16171854897E+04  0.25500000920E-02 0. -1.
    10030    2    1    2    0    0  0.00000000000E+00  0.00000000000E+00 -0.14890203623E+04  0.17453506171E+04  0.91053123904E+03 0.  0.
        1    1    3    3  502    0 -0.17875844561E+03  0.40814964960E+03 -0.56545080019E+03  0.71991341550E+03  0.50400001928E-02 0.  1.
       -1    1    3    3    0  502  0.17875844561E+03 -0.40814964960E+03 -0.92356956213E+03  0.10254372016E+04  0.50400001928E-02 0. -1.
</event>
<event>
 5   0  0.6534628E-03  0.9022996E+03  0.7818609E-02  0.9422711E-01
        2   -1    0    0  501    0  0.00000000000E+00  0.00000000000E+00  0.47955628681E+03  0.47955628681E+03  0.25500000920E-02 0. -1.
       -2   -1    0    0    0  501  0.00000000000E+00  0.00000000000E+00 -0.42442594525E+03  0.42442594525E+03  0.25500000920E-02 0.  1.
    10030    2    1    2    0    0  0.00000000000E+00  0.00000000000E+00  0.55130341561E+02  0.90398223207E+03  0.90229957405E+03 0.  0.
        4    1    3    3  502    0  0.13469957717E+03 -0.36832007396E+02  0.45735695512E+03  0.47820243638E+03  0.12699999809E+01 0. -1.
       -4    1    3    3    0  502 -0.13469957717E+03  0.36832007396E+02 -0.40222661356E+03  0.42577979569E+03  0.12699999809E+01 0.  1.
</event>
<event>
 5   0  0.3943549E-03  0.8935163E+03  0.7818609E-02  0.9433723E-01
        1   -1    0    0  501    0  0.00000000000E+00  0.00000000000E+00  0.10084913646E+04  0.10084913647E+04  0.50400001928E-02 0.  1.
       -1   -1    0    0    0  501  0.00000000000E+00  0.00000000000E+00 -0.19791229079E+03  0.19791229085E+03  0.50400001928E-02 0. -1.
    10030    2    1    2    0    0  0.00000000000E+00  0.00000000000E+00  0.81057907386E+03  0.12064036555E+04  0.89351628136E+03 0.  0.
        3    1    3    3  502    0 -0.22156112358E+02  0.14548389553E+03 -0.16424824019E+03  0.22053106760E+03  0.10100000352E+00 0. -1.
       -3    1    3    3    0  502  0.22156112358E+02 -0.14548389553E+03  0.97482731404E+03  0.98587258790E+03  0.10100000352E+00 0.  1.
</event>
<event>
 5   0  0.3998066E-03  0.9051607E+03  0.7818609E-02  0.9419153E-01
        1   -1    0    0  501    0  0.00000000000E+00  0.00000000000E+00  0.98653588588E+03  0.98653588589E+03  0.50400001928E-02 0. -1.
       -1   -1    0    0    0  501  0.00000000000E+00  0.00000000000E+00 -0.20762444336E+03  0.20762444342E+03  0.50400001928E-02 0.  1.
    10030    2    1    2    0    0  0.00000000000E+00  0.00000000000E+00  0.77891144252E+03  0.11941603293E+04  0.90516068011E+03 0.  0.
        4    1    3    3  502    0 -0.18108932892E+01 -0.35348370975E+03  0.76230892509E+03  0.84028002628E+03  0.12699999809E+01 0.  1.
       -4    1    3    3    0  502  0.18108932892E+01  0.35348370975E+03  0.16602517436E+02  0.35388030304E+03  0.12699999809E+01 0. -1.
</event>
<event>
 5   0  0.6863405E-03  0.8990994E+03  0.7818609E-02  0.9426708E-01
       -2   -1    0    0    0  501  0.00000000000E+00  0.00000000000E+00  0.34339086154E+03  0.34339086155E+03  0.25500000920E-02 0.  1.
        2   -1    0    0  501    0  0.00000000000E+00  0.00000000000E+00 -0.58852744660E+03  0.58852744661E+03  0.25500000920E-02 0. -1.
    10030    2    1    2    0    0  0.00000000000E+00  0.00000000000E+00 -0.24513658506E+03  0.93191830816E+03  0.89909943151E+03 0.  0.
        1    1    3    3  502    0 -0.92196394656E+02  0.23438564572E+03 -0.50852874520E+03  0.56748417672E+03  0.50400001928E-02 0. -1.
       -1    1    3    3    0  502  0.92196394656E+02 -0.23438564572E+03  0.26339216014E+03  0.36443413144E+03  0.50400001928E-02 0.  1.
</event>
<event>
 5   0  0.3969536E-03  0.8963416E+03  0.7818609E-02  0.9430166E-01
        1   -1    0    0  501    0  0.00000000000E+00  0.00000000000E+00  0.18363634656E+04  0.18363634656E+04  0.50400001928E-02 0.  1.
       -1   -1    0    0    0  501  0.00000000000E+00  0.00000000000E+00 -0.10937762053E+03  0.10937762064E+03  0.50400001928E-02 0. -1.
    10030    2    1    2    0    0  0.00000000000E+00  0.00000000000E+00  0.17269858451E+04  0.19457410863E+04  0.89634160098E+03 0.  0.
        1    1    3    3  502    0 -0.74716754503E+01  0.35188720694E+03  0.14657625395E+04  0.15074283580E+04  0.50400001928E-02 0.  1.
       -1    1    3    3    0  502  0.74716754503E+01 -0.35188720694E+03  0.26122330563E+03  0.43831272828E+03  0.50400001928E-02 0. -1.
</event>
<event>
 5   0  0.6534628E-03  0.8932998E+03  0.7818609E-02  0.9433996E-01
       -2   -1    0    0    0  501  0.00000000000E+00  0.00000000000E+00  0.47652158101E+03  0.47652158101E+03  0.25500000920E-02 0. -1.
        2   -1    0    0  501    0  0.00000000000E+00  0.00000000000E+00 -0.41865077676E+03  0.41865077677E+03  0.25500000920E-02 0.  1.
    10030    2    1    2    0    0  0.00000000000E+00  0.00000000000E+00  0.57870804245E+02  0.89517235779E+03  0.89329979299E+03 0.  0.
        4    1    3    3  502    0 -0.70846312106E+02 -0.42632298440E+02 -0.41091271067E+03  0.41915102469E+03  0.12699999809E+01 0.  1.
       -4    1    3    3    0  502  0.70846312106E+02  0.42632298440E+02  0.46878351491E+03  0.47602133310E+03  0.12699999809E+01 0. -1.
</event>
<event>
 5   0  0.6724773E-03  0.8997709E+03  0.7818609E-02  0.9425868E-01
       -2   -1    0    0    0  501  0.00000000000E+00  0.00000000000E+00  0.41816464509E+03  0.41816464510E+03  0.25500000920E-02 0. -1.
        2   -1    0    0  501    0  0.00000000000E+00  0.00000000000E+00 -0.48401248702E+03  0.48401248703E+03  0.25500000920E-02 0.  1.
    10030    2    1    2    0    0  0.00000000000E+00  0.00000000000E+00 -0.65847841936E+02  0.90217713213E+03  0.89977088164E+03 0.  0.
        5    1    3    3  502    0  0.44201028194E+03 -0.81081748713E+02 -0.12193025590E+02  0.44957546550E+03  0.46999998093E+01 0. -1.
       -5    1    3    3    0  502 -0.44201028194E+03  0.81081748713E+02 -0.53654816347E+02  0.45260166662E+03  0.46999998093E+01 0.  1.
</event>
<event>
 5   0  0.6724773E-03  0.8918021E+03  0.7818609E-02  0.9435888E-01
       -2   -1    0    0    0  501  0.00000000000E+00  0.00000000000E+00  0.41744159971E+03  0.41744159972E+03  0.25500000920E-02 0.  1.
        2   -1    0    0  501    0  0.00000000000E+00  0.00000000000E+00 -0.47630070068E+03  0.47630070068E+03  0.25500000920E-02 0. -1.
    10030    2    1    2    0    0  0.00000000000E+00  0.00000000000E+00 -0.58859100963E+02  0.89374230041E+03  0.89180205526E+03 0.  0.
        5    1    3    3  502    0 -0.16457291176E+02  0.40875927022E+03 -0.20715870633E+03  0.45857584218E+03  0.46999998093E+01 0. -1.
       -5    1    3    3    0  502  0.16457291176E+02 -0.40875927022E+03  0.14829960537E+03  0.43516645823E+03  0.46999998093E+01 0.  1.
</event>
<event>
 5   0  0.3998066E-03  0.8924442E+03  0.7818609E-02  0.9435076E-01
        1   -1    0    0  501    0  0.00000000000E+00  0.00000000000E+00  0.42375419665E+03  0.42375419668E+03  0.50400001928E-02 0. -1.
       -1   -1    0    0    0  501  0.00000000000E+00  0.00000000000E+00 -0.46988126455E+03  0.46988126457E+03  0.50400001928E-02 0.  1.
    10030    2    1    2    0    0  0.00000000000E+00  0.00000000000E+00 -0.46127067893E+02  0.89363546125E+03  0.89244418941E+03 0.  0.
        4    1    3    3  502    0 -0.40592095612E+03 -0.18505501115E+03 -0.32842076967E+02  0.44732247282E+03  0.12699999809E+01 0. -1.
       -4    1    3    3    0  502  0.40592095612E+03  0.18505501115E+03 -0.13284990926E+02  0.44631298844E+03  0.12699999809E+01 0.  1.
</event>
<event>
 5   0  0.3998066E-03  0.9052238E+03  0.7818609E-02  0.9419075E-01
       -1   -1    0    0    0  501  0.00000000000E+00  0.00000000000E+00  0.10014328480E+04  0.10014328480E+04  0.50400001928E-02 0. -1.
        1   -1    0    0  501    0  0.00000000000E+00  0.00000000000E+00 -0.20456440627E+03  0.20456440633E+03  0.50400001928E-02 0.  1.
    10030    2    1    2    0    0  0.00000000000E+00  0.00000000000E+00  0.79686844175E+03  0.12059972544E+04  0.90522376465E+03 0.  0.
        4    1    3    3  502    0  0.31092840295E+03  0.11992187806E+03 -0.95915231325E+01  0.33339366943E+03  0.12699999809E+01 0. -1.
       -4    1    3    3    0  502 -0.31092840295E+03 -0.11992187806E+03  0.80645996488E+03  0.87260358494E+03  0.12699999809E+01 0.  1.
</event>
<event>
 5   0  0.2560250E-03  0.9002070E+03  0.7818609E-02  0.9425323E-01
       -3   -1    0    0    0  501  0.00000000000E+00  0.00000000000E+00  0.29153007156E+03  0.29153008905E+03  0.10100000352E+00 0.  1.
        3   -1    0    0  501    0  0.00000000000E+00  0.00000000000E+00 -0.69493046252E+03  0.69493046986E+03  0.10100000352E+00 0. -1.
    10030    2    1    2    0    0  0.00000000000E+00  0.00000000000E+00 -0.40340039097E+03  0.98646055891E+03  0.90020695335E+03 0.  0.
        5    1    3    3  502    0 -0.20172990749E+03  0.14851490894E+03  0.20805182567E+03  0.32566744682E+03  0.46999998093E+01 0.  1.
       -5    1    3    3    0  502  0.20172990749E+03 -0.14851490894E+03 -0.61145221664E+03  0.66079311209E+03  0.46999998093E+01 0. -1.
</event>
<event>
 5   0  0.3969536E-03  0.8998439E+03  0.7818609E-02  0.9425777E-01
        1   -1    0    0  501    0  0.00000000000E+00  0.00000000000E+00  0.76966927475E+03  0.76966927476E+03  0.50400001928E-02 0. -1.
       -1   -1    0    0    0  501  0.00000000000E+00  0.00000000000E+00 -0.26300876095E+03  0.26300876100E+03  0.50400001928E-02 0.  1.
    10030    2    1    2    0    0  0.00000000000E+00  0.00000000000E+00  0.50666051379E+03  0.10326780358E+04  0.89984390274E+03 0.  0.
        1    1    3    3  502    0 -0.14452252320E+03 -0.23628291614E+03 -0.15357052459E+03  0.31670219801E+03  0.50400001928E-02 0.  1.
       -1    1    3    3    0  502  0.14452252320E+03  0.23628291614E+03  0.66023103839E+03  0.71597583776E+03  0.50400001928E-02 0. -1.
</event>
<event>
 5   0  0.6724773E-03  0.8989665E+03  0.7818609E-02  0.9426874E-01
       -2   -1    0    0    0  501  0.00000000000E+00  0.00000000000E+00  0.26381181081E+03  0.26381181082E+03  0.25500000920E-02 0.  1.
        2   -1    0    0  501    0  0.00000000000E+00  0.00000000000E+00 -0.76583065874E+03  0.76583065875E+03  0.25500000920E-02 0. -1.
    10030    2    1    2    0    0  0.00000000000E+00  0.00000000000E+00 -0.50201884793E+03  0.10296424696E+04  0.89896645736E+03 0.  0.
        5    1    3    3  502    0 -0.22678114036E+03 -0.30769564764E+03 -0.52182598683E+03  0.64686223242E+03  0.46999998093E+01 0. -1.
       -5    1    3    3    0  502  0.22678114036E+03  0.30769564764E+03  0.19807138894E+02  0.38278023715E+03  0.46999998093E+01 0.  1.
</event>
<event>
 5   0  0.6534628E-03  0.8284070E+03  0.7818609E-02  0.9519786E-01
       -2   -1    0    0    0  501  0.00000000000E+00  0.00000000000E+00  0.27372528096E+03  0.27372528097E+03  0.25500000920E-02 0. -1.
        2   -1    0    0  501    0  0.00000000000E+00  0.00000000000E+00 -0.62677632447E+03  0.62677632447E+03  0.25500000920E-02 0.  1.
    10030    2    1    2    0    0  0.00000000000E+00  0.00000000000E+00 -0.35305104351E+03  0.90050160544E+03  0.82840696646E+03 0.  0.
        4    1    3    3  502    0  0.24434417796E+03  0.33248969337E+03 -0.21586090672E+03  0.46567265053E+03  0.12699999809E+01 0.  1.
       -4    1    3    3    0  502 -0.24434417796E+03 -0.33248969337E+03 -0.13719013679E+03  0.43482895491E+03  0.12699999809E+01 0. -1.
</event>
<event>
 5   0  0.6863405E-03  0.8939382E+03  0.7818609E-02  0.9433191E-01
        2   -1    0    0  501    0  0.00000000000E+00  0.00000000000E+00  0.50717729028E+03  0.50717729029E+03  0.25500000920E-02 0.  1.
       -2   -1    0    0    0  501  0.00000000000E+00  0.00000000000E+00 -0.39390837728E+03  0.39390837729E+03  0.25500000920E-02 0. -1.
    10030    2    1    2    0    0  0.00000000000E+00  0.00000000000E+00  0.11326891300E+03  0.90108566757E+03  0.89393821579E+03 0.  0.
        1    1    3    3  502    0  0.10452107356E+03 -0.31915539632E+03  0.35394452861E+03  0.48791551644E+03  0.50400001928E-02 0.  1.
       -1    1    3    3    0  502 -0.10452107356E+03  0.31915539632E+03 -0.24067561561E+03  0.41317015114E+03  0.50400001928E-02 0. -1.
</event>
<event>
 5   0  0.6863405E-03  0.8946667E+03  0.7818609E-02  0.9432273E-01
       -2   -1    0    0    0  501  0.00000000000E+00  0.00000000000E+00  0.20373679820E+03  0.20373679821E+03  0.25500000920E-02 0. -1.
        2   -1    0    0  501    0  0.00000000000E+00  0.00000000000E+00 -0.98218456629E+03  0.98218456629E+03  0.25500000920E-02 0.  1.
    10030    2    1    2    0    0  0.00000000000E+00  0.00000000000E+00 -0.77844776810E+03  0.11859213645E+04  0.89466672853E+03 0.  0.
        1    1    3    3  502    0  0.14476880641E+03  0.27600412531E+03 -0.81457910129E+03  0.87216706930E+03  0.50400001928E-02 0.  1.
       -1    1    3    3    0  502 -0.14476880641E+03 -0.27600412531E+03  0.36131333189E+02  0.31375429521E+03  0.50400001928E-02 0. -1.
</event>
<event>
 5   0  0.3927993E-03  0.9028106E+03  0.7818609E-02  0.9422075E-01
       -1   -1    0    0    0  501  0.00000000000E+00  0.00000000000E+00  0.18157653407E+03  0.18157653414E+03  0.50400001928E-02 0. -1.
        1   -1    0    0  501    0  0.00000000000E+00  0.00000000000E+00 -0.11222086344E+04  0.11222086344E+04  0.50400001928E-02 0.  1.
    10030    2    1    2    0    0  0.00000000000E+00  0.00000000000E+00 -0.94063210035E+03  0.13037851686E+04  0.90281062111E+03 0.  0.
        2    1    3    3  502    0 -0.35977466362E+02  0.78733830084E+02  0.16947779168E+03  0.19030532301E+03  0.25500000920E-02 0. -1.
       -2    1    3    3    0  502  0.35977466362E+02 -0.78733830084E+02 -0.11101098920E+04  0.11134798456E+04  0.25500000920E-02 0.  1.
</event>
<event>
 5   0  0.3794006E-03  0.9152015E+03  0.7818609E-02  0.9406776E-01
        1   -1    0    0  501    0  0.00000000000E+00  0.00000000000E+00  0.83031236313E+03  0.83031236315E+03  0.50400001928E-02 0. -1.
       -1   -1    0    0    0  501  0.00000000000E+00  0.00000000000E+00 -0.25219238339E+03  0.25219238344E+03  0.50400001928E-02 0.  1.
    10030    2    1    2    0    0  0.00000000000E+00  0.00000000000E+00  0.57811997975E+03  0.10825047466E+04  0.91520151628E+03 0.  0.
        5    1    3    3  502    0 -0.31364558891E+03 -0.32368824572E+03  0.19571032546E+03  0.49139826755E+03  0.46999998093E+01 0. -1.
       -5    1    3    3    0  502  0.31364558891E+03  0.32368824572E+03  0.38240965428E+03  0.59110647903E+03  0.46999998093E+01 0.  1.
</event>
<event>
 5   0  0.6724773E-03  0.9003880E+03  0.7818609E-02  0.9425096E-01
       -2   -1    0    0    0  501  0.00000000000E+00  0.00000000000E+00  0.18600385421E+03  0.18600385422E+03  0.25500000920E-02 0.  1.
        2   -1    0    0  501    0  0.00000000000E+00  0.00000000000E+00 -0.10896260995E+04  0.10896260995E+04  0.25500000920E-02 0. -1.
    10030    2    1    2    0    0  0.00000000000E+00  0.00000000000E+00 -0.90362224525E+03  0.12756299537E+04  0.90038803670E+03 0.  0.
        5    1    3    3  502    0  0.42010695308E+00 -0.29281492202E+03 -0.93623348478E+03  0.98096686135E+03  0.46999998093E+01 0. -1.
       -5    1    3    3    0  502 -0.42010695308E+00  0.29281492202E+03  0.32611239526E+02  0.29466309234E+03  0.46999998093E+01 0.  1.
</event>
<event>
 5   0  0.3998066E-03  0.9050656E+03  0.7818609E-02  0.9419271E-01
        1   -1    0    0  501    0  0.00000000000E+00  0.00000000000E+00  0.54108651098E+03  0.54108651101E+03  0.50400001928E-02 0.  1.
       -1   -1    0    0    0  501  0.00000000000E+00  0.00000000000E+00 -0.37847167189E+03  0.37847167192E+03  0.50400001928E-02 0. -1.
    10030    2    1    2    0    0  0.00000000000E+00  0.00000000000E+00  0.16261483909E+03  0.91955818293E+03  0.90506555889E+03 0.  0.
        4    1    3    3  502    0 -0.38915394042E+02  0.33089525594E+03 -0.22982851988E+03  0.40475775441E+03  0.12699999809E+01 0. -1.
       -4    1    3    3    0  502  0.38915394042E+02 -0.33089525594E+03  0.39244335898E+03  0.51480042852E+03  0.12699999809E+01 0.  1.
</event>
<event>
 5   0  0.6609191E-03  0.9039087E+03  0.7818609E-02  0.9420709E-01
       -2   -1    0    0    0  501  0.00000000000E+00  0.00000000000E+00  0.57970211306E+03  0.57970211307E+03  0.25500000920E-02 0. -1.
        2   -1    0    0  501    0  0.00000000000E+00  0.00000000000E+00 -0.35235808705E+03  0.35235808706E+03  0.25500000920E-02 0.  1.
    10030    2    1    2    0    0  0.00000000000E+00  0.00000000000E+00  0.22734402602E+03  0.93206020012E+03  0.90390868482E+03 0.  0.
        2    1    3    3  502    0  0.21636714299E+03  0.35851799263E+02 -0.29380955567E+03  0.36663898741E+03  0.25500000920E-02 0.  1.
       -2    1    3    3    0  502 -0.21636714299E+03 -0.35851799263E+02  0.52115358169E+03  0.56542121272E+03  0.25500000920E-02 0. -1.
</event>
<event>
 5   0  0.3969536E-03  0.8969423E+03  0.7818609E-02  0.9429412E-01
        1   -1    0    0  501    0  0.00000000000E+00  0.00000000000E+00  0.97777704870E+03  0.97777704871E+03  0.50400001928E-02 0. -1.
       -1   -1    0    0    0  501  0.00000000000E+00  0.00000000000E+00 -0.20569755835E+03  0.20569755841E+03  0.50400001928E-02 0.  1.
    10030    2    1    2    0    0  0.00000000000E+00  0.00000000000E+00  0.77207949035E+03  0.11834746071E+04  0.89694225360E+03 0.  0.
        1    1    3    3  502    0 -0.10119668091E+03  0.43669304531E+03  0.40397498758E+03  0.60343796257E+03  0.50400001928E-02 0. -1.
       -1    1    3    3    0  502  0.10119668091E+03 -0.43669304531E+03  0.36810450277E+03  0.58003664456E+03  0.50400001928E-02 0.  1.
</event>
<event>
 5   0  0.6524705E-03  0.8925851E+03  0.7818609E-02  0.9434898E-01
        2   -1    0    0  501    0  0.00000000000E+00  0.00000000000E+00  0.15681966796E+04  0.15681966796E+04  0.25500000920E-02 0.  1.
       -2   -1    0    0    0  501  0.00000000000E+00  0.00000000000E+00 -0.12701024800E+03  0.12701024803E+03  0.25500000920E-02 0. -1.
    10030    2    1    2    0    0  0.00000000000E+00  0.00000000000E+00  0.14411864316E+04  0.16952069276E+04  0.89258512023E+03 0.  0.
        3    1    3    3  502    0  0.99735825742E+02 -0.41513211257E+03  0.47373141898E+03  0.63773299534E+03  0.10100000352E+00 0. -1.
       -3    1    3    3    0  502 -0.99735825742E+02  0.41513211257E+03  0.96745501263E+03  0.10574739323E+04  0.10100000352E+00 0.  1.
</event>
<event>
 5   0  0.6724773E-03  0.8933231E+03  0.7818609E-02  0.9433967E-01
       -2   -1    0    0    0  501  0.00000000000E+00  0.00000000000E+00  0.22076647959E+03  0.22076647961E+03  0.25500000920E-02 0.  1.
        2   -1    0    0  501    0  0.00000000000E+00  0.00000000000E+00 -0.90369951847E+03  0.90369951848E+03  0.25500000920E-02 0. -1.
    10030    2    1    2    0    0  0.00000000000E+00  0.00000000000E+00 -0.68293303888E+03  0.11244659981E+04  0.89332314716E+03 0.  0.
        5    1    3    3  502    0 -0.14384842766E+03  0.26936895756E+03  0.68800278324E+02  0.31306161331E+03  0.46999998093E+01 0.  1.
       -5    1    3    3    0  502  0.14384842766E+03 -0.26936895756E+03 -0.75173331720E+03  0.81140438477E+03  0.46999998093E+01 0. -1.
</event>
<event>
 5   0  0.3969536E-03  0.9053123E+03  0.7818609E-02  0.9418965E-01
       -1   -1    0    0    0  501  0.00000000000E+00  0.00000000000E+00  0.33690112757E+03  0.33690112760E+03  0.50400001928E-02 0.  1.
        1   -1    0    0  501    0  0.00000000000E+00  0.00000000000E+00 -0.60818309730E+03  0.60818309732E+03  0.50400001928E-02 0. -1.
    10030    2    1    2    0    0  0.00000000000E+00  0.00000000000E+00 -0.27128196973E+03  0.94508422492E+03  0.90531225834E+03 0.  0.
        1    1    3    3  502    0  0.17030035135E+03  0.31081953320E+03  0.15830799271E+03  0.38816544471E+03  0.50400001928E-02 0.  1.
       -1    1    3    3    0  502 -0.17030035135E+03 -0.31081953320E+03 -0.42958996244E+03  0.55691878021E+03  0.50400001928E-02 0. -1.
</event>
<event>
 5   0  0.3998066E-03  0.8930396E+03  0.7818609E-02  0.9434324E-01
       -1   -1    0    0    0  501  0.00000000000E+00  0.00000000000E+00  0.19239575040E+03  0.19239575047E+03  0.50400001928E-02 0. -1.
        1   -1    0    0  501    0  0.00000000000E+00  0.00000000000E+00 -0.10363012050E+04  0.10363012050E+04  0.50400001928E-02 0.  1.
    10030    2    1    2    0    0  0.00000000000E+00  0.00000000000E+00 -0.84390545462E+03  0.12286969555E+04  0.89303963636E+03 0.  0.
        4    1    3    3  502    0  0.13229863851E+02 -0.32660662907E+03 -0.84047507288E+03  0.90180201845E+03  0.12699999809E+01 0. -1.
       -4    1    3    3    0  502 -0.13229863851E+02  0.32660662907E+03 -0.34303817375E+01  0.32689493705E+03  0.12699999809E+01 0.  1.
</event>
<event>
 5   0  0.2560250E-03  0.8730722E+03  0.7818609E-02  0.9459883E-01
        3   -1    0    0  501    0  0.00000000000E+00  0.00000000000E+00  0.19252900715E+03  0.19252903364E+03  0.10100000352E+00 0.  1.
       -3   -1    0    0    0  501  0.00000000000E+00  0.00000000000E+00 -0.98979245134E+03  0.98979245649E+03  0.10100000352E+00 0. -1.
    10030    2    1    2    0    0  0.00000000000E+00  0.00000000000E+00 -0.79726344419E+03  0.11823214901E+04  0.87307222301E+03 0.  0.
        2    1    3    3  502    0 -0.38871987726E+03 -0.99712604742E+02 -0.63129567265E+03  0.74805078226E+03  0.25500000920E-02 0. -1.
       -2    1    3    3    0  502  0.38871987726E+03  0.99712604742E+02 -0.16596777154E+03  0.43427070788E+03  0.25500000920E-02 0.  1.
</event>
<event>
 5   0  0.3794006E-03  0.8984328E+03  0.7818609E-02  0.9427543E-01
       -1   -1    0    0    0  501  0.00000000000E+00  0.00000000000E+00  0.10946119521E+04  0.10946119521E+04  0.50400001928E-02 0.  1.
        1   -1    0    0  501    0  0.00000000000E+00  0.00000000000E+00 -0.18435336080E+03  0.18435336086E+03  0.50400001928E-02 0. -1.
    10030    2    1    2    0    0  0.00000000000E+00  0.00000000000E+00  0.91025859133E+03  0.12789653130E+04  0.89843284043E+03 0.  0.
        5    1    3    3  502    0  0.14204789987E+03 -0.28245276763E+03  0.90936518124E+03  0.96276907649E+03  0.46999998093E+01 0.  1.
       -5    1    3    3    0  502 -0.14204789987E+03  0.28245276763E+03  0.89341008690E+00  0.31619623651E+03  0.46999998093E+01 0. -1.
</event>
<event>
 5   0  0.6724773E-03  0.8897153E+03  0.7818609E-02  0.9438530E-01
       -2   -1    0    0    0  501  0.00000000000E+00  0.00000000000E+00  0.32307050012E+03  0.32307050013E+03  0.25500000920E-02 0.  1.
        2   -1    0    0  501    0  0.00000000000E+00  0.00000000000E+00 -0.61255464522E+03  0.61255464522E+03  0.25500000920E-02 0. -1.
    10030    2    1    2    0    0  0.00000000000E+00  0.00000000000E+00 -0.28948414510E+03  0.93562514536E+03  0.88971531534E+03 0.  0.
        5    1    3    3  502    0 -0.17288196431E+03 -0.10887266670E+03 -0.56027045599E+03  0.59637782067E+03  0.46999998093E+01 0. -1.
       -5    1    3    3    0  502  0.17288196431E+03  0.10887266670E+03  0.27078631089E+03  0.33924732468E+03  0.46999998093E+01 0.  1.
</event>
<event>
 5   0  0.6724773E-03  0.9043198E+03  0.7818609E-02  0.9420197E-01
        2   -1    0    0  501    0  0.00000000000E+00  0.00000000000E+00  0.32340133627E+03  0.32340133628E+03  0.25500000920E-02 0.  1.
       -2   -1    0    0    0  501  0.00000000000E+00  0.00000000000E+00 -0.63218227129E+03  0.63218227130E+03  0.25500000920E-02 0. -1.
    10030    2    1    2    0    0  0.00000000000E+00  0.00000000000E+00 -0.30878093502E+03  0.95558360758E+03  0.90431983570E+03 0.  0.
        5    1    3    3  502    0 -0.10649465648E+03  0.29399367095E+03 -0.49948128076E+03  0.58930215530E+03  0.46999998093E+01 0. -1.
       -5    1    3    3    0  502  0.10649465648E+03 -0.29399367095E+03  0.19070034574E+03  0.36628145227E+03  0.46999998093E+01 0.  1.
</event>
<event>
 5   0  0.6524705E-03  0.9000821E+03  0.7818609E-02  0.9425479E-01
        2   -1    0    0  501    0  0.00000000000E+00  0.00000000000E+00  0.12657490900E+04  0.12657490900E+04  0.25500000920E-02 0. -1.
       -2   -1    0    0    0  501  0.00000000000E+00  0.00000000000E+00 -0.16001352008E+03  0.16001352010E+03  0.25500000920E-02 0.  1.
    10030    2    1    2    0    0  0.00000000000E+00  0.00000000000E+00  0.11057355699E+04  0.14257626101E+04  0.90008214611E+03 0.  0.
        3    1    3    3  502    0  0.38039636566E+03 -0.60325483528E+02  0.92163328770E+03  0.99887360870E+03  0.10100000352E+00 0. -1.
       -3    1    3    3    0  502 -0.38039636566E+03  0.60325483528E+02  0.18410228218E+03  0.42688900135E+03  0.10100000352E+00 0.  1.
</event>
<event>
 5   0  0.6724773E-03  0.8918882E+03  0.7818609E-02  0.9435779E-01
        2   -1    0    0  501    0  0.00000000000E+00  0.00000000000E+00  0.57674042089E+03  0.57674042089E+03  0.25500000920E-02 0. -1.
       -2   -1    0    0    0  501  0.00000000000E+00  0.00000000000E+00 -0.34481046930E+03  0.34481046931E+03  0.25500000920E-02 0.  1.
    10030    2    1    2    0    0  0.00000000000E+00  0.00000000000E+00  0.23192995159E+03  0.92155089020E+03  0.89188818850E+03 0.  0.
        5    1    3    3  502    0  0.12843376480E+03 -0.32092523821E+03  0.40703552180E+03  0.53403019246E+03  0.46999998093E+01 0. -1.
       -5    1    3    3    0  502 -0.12843376480E+03  0.32092523821E+03 -0.17510557021E+03  0.38752069774E+03  0.46999998093E+01 0.  1.
</event>
<event>
 5   0  0.3927993E-03  0.9000895E+03  0.7818609E-02  0.9425470E-01
        1   -1    0    0  501    0  0.00000000000E+00  0.00000000000E+00  0.84875182929E+03  0.84875182931E+03  0.50400001928E-02 0.  1.
       -1   -1    0    0    0  501  0.00000000000E+00  0.00000000000E+00 -0.23863309260E+03  0.23863309265E+03  0.50400001928E-02 0. -1.
    10030    2    1    2    0    0  0.00000000000E+00  0.00000000000E+00  0.61011873669E+03  0.10873849220E+04  0.90008949312E+03 0.  0.
        2    1    3    3  502    0  0.14779274625E+03 -0.17434271310E+03 -0.16330115013E+03  0.28090094890E+03  0.25500000920E-02 0. -1.
       -2    1    3    3    0  502 -0.14779274625E+03  0.17434271310E+03  0.77341988682E+03  0.80648397305E+03  0.25500000920E-02 0.  1.
</event>
<event>
 5   0  0.6524705E-03  0.8950344E+03  0.7818609E-02  0.9431810E-01
        2   -1    0    0  501    0  0.00000000000E+00  0.00000000000E+00  0.17776821971E+04  0.17776821971E+04  0.25500000920E-02 0.  1.
       -2   -1    0    0    0  501  0.00000000000E+00  0.00000000000E+00 -0.11265885629E+03  0.11265885631E+03  0.25500000920E-02 0. -1.
    10030    2    1    2    0    0  0.00000000000E+00  0.00000000000E+00  0.16650233408E+04  0.18903410534E+04  0.89503439753E+03 0.  0.
        3    1    3    3  502    0 -0.11969265875E+03  0.17533118370E+03  0.16645671437E+04  0.16780498033E+04  0.10100000352E+00 0.  1.
       -3    1    3    3    0  502  0.11969265875E+03 -0.17533118370E+03  0.45619714433E+00  0.21229125007E+03  0.10100000352E+00 0. -1.
</event>
<event>
 5   0  0.6534628E-03  0.9052543E+03  0.7818609E-02  0.9419037E-01
       -2   -1    0    0    0  501  0.00000000000E+00  0.00000000000E+00  0.27896922663E+03  0.27896922664E+03  0.25500000920E-02 0. -1.
        2   -1    0    0  501    0  0.00000000000E+00  0.00000000000E+00 -0.73438691260E+03  0.73438691260E+03  0.25500000920E-02 0.  1.
    10030    2    1    2    0    0  0.00000000000E+00  0.00000000000E+00 -0.45541768597E+03  0.10133561392E+04  0.90525432684E+03 0.  0.
        4    1    3    3  502    0  0.11950350076E+03 -0.43142966455E+03 -0.15297498691E+03  0.47309153625E+03  0.12699999809E+01 0. -1.
       -4    1    3    3    0  502 -0.11950350076E+03  0.43142966455E+03 -0.30244269905E+03  0.54026460300E+03  0.12699999809E+01 0.  1.
</event>
<event>
 5   0  0.6524705E-03  0.9019362E+03  0.7818609E-02  0.9423164E-01
        2   -1    0    0  501    0  0.00000000000E+00  0.00000000000E+00  0.93623516339E+03  0.93623516339E+03  0.25500000920E-02 0.  1.
       -2   -1    0    0    0  501  0.00000000000E+00  0.00000000000E+00 -0.21722343240E+03  0.21722343241E+03  0.25500000920E-02 0. -1.
    10030    2    1    2    0    0  0.00000000000E+00  0.00000000000E+00  0.71901173099E+03  0.11534585958E+04  0.90193617454E+03 0.  0.
        3    1    3    3  502    0 -0.86981271368E+02 -0.43886907391E+03  0.28715756564E+03  0.53163077725E+03  0.10100000352E+00 0.  1.
       -3    1    3    3    0  502  0.86981271368E+02  0.43886907391E+03  0.43185416534E+03  0.62182781856E+03  0.10100000352E+00 0. -1.
</event>
<event>
 5   0  0.3927993E-03  0.8891473E+03  0.7818609E-02  0.9439250E-01
        1   -1    0    0  501    0  0.00000000000E+00  0.00000000000E+00  0.10292381446E+04  0.10292381446E+04  0.50400001928E-02 0. -1.
       -1   -1    0    0    0  501  0.00000000000E+00  0.00000000000E+00 -0.19203110599E+03  0.19203110606E+03  0.50400001928E-02 0.  1.
    10030    2    1    2    0    0  0.00000000000E+00  0.00000000000E+00  0.83720703859E+03  0.12212692507E+04  0.88914732026E+03 0.  0.
        2    1    3    3  502    0  0.17427967282E+03  0.33803969339E+03  0.10238901868E+03  0.39386260272E+03  0.25500000920E-02 0.  1.
       -2    1    3    3    0  502 -0.17427967282E+03 -0.33803969339E+03  0.73481801991E+03  0.82740664794E+03  0.25500000920E-02 0. -1.
</event>
<event>
 5   0  0.6609191E-03  0.8749571E+03  0.7818609E-02  0.9457439E-01
        2   -1    0    0  501    0  0.00000000000E+00  0.00000000000E+00  0.42550905735E+03  0.42550905735E+03  0.25500000920E-02 0.  1.
       -2   -1    0    0    0  501  0.00000000000E+00  0.00000000000E+00 -0.44978474451E+03  0.44978474451E+03  0.25500000920E-02 0. -1.
    10030    2    1    2    0    0  0.00000000000E+00  0.00000000000E+00 -0.24275687161E+02  0.87529380187E+03  0.87495710215E+03 0.  0.
        2    1    3    3  502    0  0.86873289862E+02  0.42521578536E+03 -0.67223087162E+02  0.43917465326E+03  0.25500000920E-02 0. -1.
       -2    1    3    3    0  502 -0.86873289862E+02 -0.42521578536E+03  0.42947400000E+02  0.43611914861E+03  0.25500000920E-02 0.  1.
</event>
<event>
 5   0  0.3998066E-03  0.8934844E+03  0.7818609E-02  0.9433763E-01
       -1   -1    0    0    0  501  0.00000000000E+00  0.00000000000E+00  0.19415296925E+03  0.19415296931E+03  0.50400001928E-02 0. -1.
        1   -1    0    0  501    0  0.00000000000E+00  0.00000000000E+00 -0.10279450966E+04  0.10279450966E+04  0.50400001928E-02 0.  1.
    10030    2    1    2    0    0  0.00000000000E+00  0.00000000000E+00 -0.83379212731E+03  0.12220980659E+04  0.89348439889E+03 0.  0.
        4    1    3    3  502    0 -0.16137103703E+03 -0.23975938738E+03  0.49060068754E+02  0.29314446724E+03  0.12699999809E+01 0. -1.
       -4    1    3    3    0  502  0.16137103703E+03  0.23975938738E+03 -0.88285219606E+03  0.92895359863E+03  0.12699999809E+01 0.  1.
</event>
<event>
 5   0  0.3998066E-03  0.9041506E+03  0.7818609E-02  0.9420408E-01
        1   -1    0    0  501    0  0.00000000000E+00  0.00000000000E+00  0.17651386216E+03  0.17651386224E+03  0.50400001928E-02 0.  1.
       -1   -1    0    0    0  501  0.00000000000E+00  0.00000000000E+00 -0.11578245896E+04  0.11578245896E+04  0.50400001928E-02 0. -1.
    10030    2    1    2    0    0  0.00000000000E+00  0.00000000000E+00 -0.98131072741E+03  0.13343384518E+04  0.90415062920E+03 0.  0.
        4    1    3    3  502    0 -0.21996987930E+02  0.21870215917E+03  0.92340419509E+02  0.23841742361E+03  0.12699999809E+01 0.  1.
       -4    1    3    3    0  502  0.21996987930E+02 -0.21870215917E+03 -0.10736511469E+04  0.10959210282E+04  0.12699999809E+01 0. -1.
</event>
<event>
 5   0  0.6534628E-03  0.9007537E+03  0.7818609E-02  0.9424640E-01
       -2   -1    0    0    0  501  0.00000000000E+00  0.00000000000E+00  0.12298438530E+03  0.12298438533E+03  0.25500000920E-02 0.  1.
        2   -1    0    0  501    0  0.00000000000E+00  0.00000000000E+00 -0.16493096051E+04  0.16493096051E+04  0.25500000920E-02 0. -1.
    10030    2    1    2    0    0  0.00000000000E+00  0.00000000000E+00 -0.15263252198E+04  0.17722939904E+04  0.90075374653E+03 0.  0.
        4    1    3    3  502    0  0.27181019311E+03 -0.23811980172E+03 -0.23427142680E+03  0.43065825821E+03  0.12699999809E+01 0.  1.
       -4    1    3    3    0  502 -0.27181019311E+03  0.23811980172E+03 -0.12920537930E+04  0.13416357322E+04  0.12699999809E+01 0. -1.
</event>
<event>
 5   0  0.3943549E-03  0.9019787E+03  0.7818609E-02  0.9423111E-01
        1   -1    0    0  501    0  0.00000000000E+00  0.00000000000E+00  0.43898632152E+03  0.43898632155E+03  0.50400001928E-02 0.  1.
       -1   -1    0    0    0  501  0.00000000000E+00  0.00000000000E+00 -0.46332054624E+03  0.46332054627E+03  0.50400001928E-02 0. -1.
    10030    2    1    2    0    0  0.00000000000E+00  0.00000000000E+00 -0.24334224721E+02  0.90230686782E+03  0.90197867449E+03 0.  0.
        3    1    3    3  502    0  0.29741943958E+03 -0.18361787069E+03  0.27292347130E+03  0.44346485414E+03  0.10100000352E+00 0.  1.
       -3    1    3    3    0  502 -0.29741943958E+03  0.18361787069E+03 -0.29725769602E+03  0.45884201368E+03  0.10100000352E+00 0. -1.
</event>
<event>
 5   0  0.2560250E-03  0.9071698E+03  0.7818609E-02  0.9416663E-01
        4   -1    0    0  501    0  0.00000000000E+00  0.00000000000E+00  0.63846900426E+03  0.63847026735E+03  0.12699999809E+01 0.  1.
       -4   -1    0    0    0  501  0.00000000000E+00  0.00000000000E+00 -0.32223559072E+03  0.32223809338E+03  0.12699999809E+01 0. -1.
    10030    2    1    2    0    0  0.00000000000E+00  0.00000000000E+00  0.31623341354E+03  0.96070836073E+03  0.90716976501E+03 0.  0.
        5    1    3    3  502    0  0.41992583002E+02  0.11298635868E+02 -0.31999890093E+03  0.32297433767E+03  0.46999998093E+01 0. -1.
       -5    1    3    3    0  502 -0.41992583002E+02 -0.11298635868E+02  0.63623231447E+03  0.63773402306E+03  0.46999998093E+01 0.  1.
</event>
<event>
 5   0  0.6524705E-03  0.8825819E+03  0.7818609E-02  0.9447621E-01
       -2   -1    0    0    0  501  0.00000000000E+00  0.00000000000E+00  0.17076217302E+03  0.17076217304E+03  0.25500000920E-02 0. -1.
        2   -1    0    0  501    0  0.00000000000E+00  0.00000000000E+00 -0.11404030721E+04  0.11404030721E+04  0.25500000920E-02 0.  1.
    10030    2    1    2    0    0  0.00000000000E+00  0.00000000000E+00 -0.96964089910E+03  0.13111652452E+04  0.88258190947E+03 0.  0.
        3    1    3    3  502    0  0.21677240565E+03 -0.14279883850E+03 -0.10149865604E+04  0.10476542903E+04  0.10100000352E+00 0.  1.
       -3    1    3    3    0  502 -0.21677240565E+03  0.14279883850E+03  0.45345661251E+02  0.26351095485E+03  0.10100000352E+00 0. -1.
</event>
<event>
 5   0  0.6524705E-03  0.9188306E+03  0.7818609E-02  0.9402344E-01
        2   -1    0    0  501    0  0.00000000000E+00  0.00000000000E+00  0.11342244730E+04  0.11342244730E+04  0.25500000920E-02 0. -1.
       -2   -1    0    0    0  501  0.00000000000E+00  0.00000000000E+00 -0.18608522217E+03  0.18608522218E+03  0.25500000920E-02 0.  1.
    10030    2    1    2    0    0  0.00000000000E+00  0.00000000000E+00  0.94813925081E+03  0.13203096952E+04  0.91883058950E+03 0.  0.
        3    1    3    3  502    0  0.19446072988E+03  0.36255439917E+03  0.18027927909E+03  0.44917846842E+03  0.10100000352E+00 0. -1.
       -3    1    3    3    0  502 -0.19446072988E+03 -0.36255439917E+03  0.76785997172E+03  0.87113122674E+03  0.10100000352E+00 0.  1.
</event>
<event>
 5   0  0.6534628E-03  0.9015787E+03  0.7818609E-02  0.9423610E-01
       -2   -1    0    0    0  501  0.00000000000E+00  0.00000000000E+00  0.53691566509E+03  0.53691566510E+03  0.25500000920E-02 0.  1.
        2   -1    0    0  501    0  0.00000000000E+00  0.00000000000E+00 -0.37847853763E+03  0.37847853764E+03  0.25500000920E-02 0. -1.
    10030    2    1    2    0    0  0.00000000000E+00  0.00000000000E+00  0.15843712746E+03  0.91539420274E+03  0.90157873924E+03 0.  0.
        4    1    3    3  502    0 -0.35134829789E+02  0.38009442291E+03 -0.16425430008E+03  0.41555663222E+03  0.12699999809E+01 0. -1.
       -4    1    3    3    0  502  0.35134829789E+02 -0.38009442291E+03  0.32269142754E+03  0.49983757052E+03  0.12699999809E+01 0.  1.
</event>
<event>
 5   0  0.3969536E-03  0.8982260E+03  0.7818609E-02  0.9427802E-01
       -1   -1    0    0    0  501  0.00000000000E+00  0.00000000000E+00  0.35739234708E+03  0.35739234712E+03  0.50400001928E-02 0.  1.
        1   -1    0    0  501    0  0.00000000000E+00  0.00000000000E+00 -0.56437273341E+03  0.56437273343E+03  0.50400001928E-02 0. -1.
    10030    2    1    2    0    0  0.00000000000E+00  0.00000000000E+00 -0.20698038632E+03  0.92176508055E+03  0.89822602022E+03 0.  0.
        1    1    3    3  502    0  0.18332311604E+03 -0.24425167148E+03  0.23443601006E+03  0.38500193081E+03  0.50400001928E-02 0.  1.
       -1    1    3    3    0  502 -0.18332311604E+03  0.24425167148E+03 -0.44141639638E+03  0.53676314973E+03  0.50400001928E-02 0. -1.
</event>
<event>
 5   0  0.6534628E-03  0.8922091E+03  0.7818609E-02  0.9435373E-01
       -2   -1    0    0    0  501  0.00000000000E+00  0.00000000000E+00  0.32778320595E+03  0.32778320596E+03  0.25500000920E-02 0. -1.
        2   -1    0    0  501    0  0.00000000000E+00  0.00000000000E+00 -0.60713688402E+03  0.60713688402E+03  0.25500000920E-02 0.  1.
    10030    2    1    2    0    0  0.00000000000E+00  0.00000000000E+00 -0.27935367807E+03  0.93492008999E+03  0.89220911070E+03 0.  0.
        4    1    3    3  502    0 -0.24231029762E+03 -0.25375104144E+03 -0.42837204318E+03  0.55372203463E+03  0.12699999809E+01 0.  1.
       -4    1    3    3    0  502  0.24231029762E+03  0.25375104144E+03  0.14901836511E+03  0.38119805535E+03  0.12699999809E+01 0. -1.
</event>
<event>
 5   0  0.3943549E-03  0.9248628E+03  0.7818609E-02  0.9395025E-01
        1   -1    0    0  501    0  0.00000000000E+00  0.00000000000E+00  0.26876037658E+03  0.26876037663E+03  0.50400001928E-02 0. -1.
       -1   -1    0    0    0  501  0.00000000000E+00  0.00000000000E+00 -0.79566335615E+03  0.79566335617E+03  0.50400001928E-02 0.  1.
    10030    2    1    2    0    0  0.00000000000E+00  0.00000000000E+00 -0.52690297957E+03  0.10644237328E+04  0.92486276445E+03 0.  0.
        3    1    3    3  502    0  0.14709456051E+03  0.20250259773E+03 -0.71097023082E+03  0.75373920631E+03  0.10100000352E+00 0.  1.
       -3    1    3    3    0  502 -0.14709456051E+03 -0.20250259773E+03  0.18406725125E+03  0.31068452649E+03  0.10100000352E+00 0. -1.
</event>
<event>
 5   0  0.6524705E-03  0.8941732E+03  0.7818609E-02  0.9432895E-01
       -2   -1    0    0    0  501  0.00000000000E+00  0.00000000000E+00  0.72939068216E+03  0.72939068217E+03  0.25500000920E-02 0. -1.
        2   -1    0    0  501    0  0.00000000000E+00  0.00000000000E+00 -0.27404579520E+03  0.27404579521E+03  0.25500000920E-02 0.  1.
    10030    2    1    2    0    0  0.00000000000E+00  0.00000000000E+00  0.45534488696E+03  0.10034364774E+04  0.89417324834E+03 0.  0.
        3    1    3    3  502    0 -0.28149947178E+02  0.30306620495E+03 -0.13982686535E+03  0.33495239450E+03  0.10100000352E+00 0.  1.
       -3    1    3    3    0  502  0.28149947178E+02 -0.30306620495E+03  0.59517175231E+03  0.66848408288E+03  0.10100000352E+00 0. -1.
</event>
<event>
 5   0  0.6524705E-03  0.8490647E+03  0.7818609E-02  0.9491593E-01
       -2   -1    0    0    0  501  0.00000000000E+00  0.00000000000E+00  0.28652726612E+03  0.28652726613E+03  0.25500000920E-02 0. -1.
        2   -1    0    0  501    0  0.00000000000E+00  0.00000000000E+00 -0.62900722607E+03  0.62900722607E+03  0.25500000920E-02 0.  1.
    10030    2    1    2    0    0  0.00000000000E+00  0.00000000000E+00 -0.34247995995E+03  0.91553449220E+03  0.84906471099E+03 0.  0.
        3    1    3    3  502    0  0.36349782991E+03  0.19372637556E+03 -0.28208404365E+03  0.49923140809E+03  0.10100000352E+00 0.  1.
       -3    1    3    3    0  502 -0.36349782991E+03 -0.19372637556E+03 -0.60395916297E+02  0.41630308411E+03  0.10100000352E+00 0. -1.
</event>
<event>
 5   0  0.3998066E-03  0.9011650E+03  0.7818609E-02  0.9424126E-01
        1   -1    0    0  501    0  0.00000000000E+00  0.00000000000E+00  0.15909063401E+04  0.15909063401E+04  0.50400001928E-02 0.  1.
       -1   -1    0    0    0  501  0.00000000000E+00  0.00000000000E+00 -0.12761567975E+03  0.12761567985E+03  0.50400001928E-02 0. -1.
    10030    2    1    2    0    0  0.00000000000E+00  0.00000000000E+00  0.14632906603E+04  0.17185220199E+04  0.90116501062E+03 0.  0.
        4    1    3    3  502    0  0.33698082573E+03  0.27265443459E+03  0.96618671393E+03  0.10589687893E+04  0.12699999809E+01 0.  1.
       -4    1    3    3    0  502 -0.33698082573E+03 -0.27265443459E+03  0.49710394637E+03  0.65955323061E+03  0.12699999809E+01 0. -1.
</event>
<event>
 5   0  0.3969536E-03  0.8923128E+03  0.7818609E-02  0.9435242E-01
        1   -1    0    0  501    0  0.00000000000E+00  0.00000000000E+00  0.92358839629E+03  0.92358839631E+03  0.50400001928E-02 0. -1.
       -1   -1    0    0    0  501  0.00000000000E+00  0.00000000000E+00 -0.21552406328E+03  0.21552406334E+03  0.50400001928E-02 0.  1.
    10030    2    1    2    0    0  0.00000000000E+00  0.00000000000E+00  0.70806433301E+03  0.11391124596E+04  0.89231277926E+03 0.  0.
        1    1    3    3  502    0 -0.33414424110E+03  0.24861658037E+03  0.55825750773E+03  0.69650127269E+03  0.50400001928E-02 0. -1.
       -1    1    3    3    0  502  0.33414424110E+03 -0.24861658037E+03  0.14980682528E+03  0.44261118696E+03  0.50400001928E-02 0.  1.
</event>
<event>
 5   0  0.6863405E-03  0.9045701E+03  0.7818609E-02  0.9419887E-01
       -2   -1    0    0    0  501  0.00000000000E+00  0.00000000000E+00  0.49588475353E+03  0.49588475353E+03  0.25500000920E-02 0. -1.
        2   -1    0    0  501    0  0.00000000000E+00  0.00000000000E+00 -0.41251877283E+03  0.41251877283E+03  0.25500000920E-02 0.  1.
    10030    2    1    2    0    0  0.00000000000E+00  0.00000000000E+00  0.83365980702E+02  0.90840352637E+03  0.90457010783E+03 0.  0.
        1    1    3    3  502    0  0.26812360444E+03  0.36204513927E+03  0.81787424579E+02  0.45788222610E+03  0.50400001928E-02 0. -1.
       -1    1    3    3    0  502 -0.26812360444E+03 -0.36204513927E+03  0.15785561231E+01  0.45052130027E+03  0.50400001928E-02 0.  1.
</event>
<event>
 5   0  0.3998066E-03  0.9004415E+03  0.7818609E-02  0.9425030E-01
        1   -1    0    0  501    0  0.00000000000E+00  0.00000000000E+00  0.80167042350E+03  0.80167042352E+03  0.50400001928E-02 0.  1.
       -1   -1    0    0    0  501  0.00000000000E+00  0.00000000000E+00 -0.25284545611E+03  0.25284545616E+03  0.50400001928E-02 0. -1.
    10030    2    1    2    0    0  0.00000000000E+00  0.00000000000E+00  0.54882496739E+03  0.10545158797E+04  0.90044150041E+03 0.  0.
        4    1    3    3  502    0  0.52524261940E+02  0.10434579006E+03  0.78360999330E+03  0.79227083532E+03  0.12699999809E+01 0.  1.
       -4    1    3    3    0  502 -0.52524261940E+02 -0.10434579006E+03 -0.23478502591E+03  0.26224504436E+03  0.12699999809E+01 0. -1.
</event>
<event>
 5   0  0.6724773E-03  0.8947494E+03  0.7818609E-02  0.9432169E-01
        2   -1    0    0  501    0  0.00000000000E+00  0.00000000000E+00  0.12637685061E+04  0.12637685061E+04  0.25500000920E-02 0. -1.
       -2   -1    0    0    0  501  0.00000000000E+00  0.00000000000E+00 -0.15837087903E+03  0.15837087905E+03  0.25500000920E-02 0.  1.
    10030    2    1    2    0    0  0.00000000000E+00  0.00000000000E+00  0.11053976271E+04  0.14221393852E+04  0.89474941571E+03 0.  0.
        5    1    3    3  502    0  0.19660200077E+03 -0.12021966531E+03 -0.56731997958E+02  0.23737254312E+03  0.46999998093E+01 0.  1.
       -5    1    3    3    0  502 -0.19660200077E+03  0.12021966531E+03  0.11621296251E+04  0.11847668421E+04  0.46999998093E+01 0. -1.
</event>
<event>
 5   0  0.3927993E-03  0.9043063E+03  0.7818609E-02  0.9420214E-01
       -1   -1    0    0    0  501  0.00000000000E+00  0.00000000000E+00  0.14108943148E+03  0.14108943157E+03  0.50400001928E-02 0. -1.
        1   -1    0    0  501    0  0.00000000000E+00  0.00000000000E+00 -0.14490274017E+04  0.14490274017E+04  0.50400001928E-02 0.  1.
    10030    2    1    2    0    0  0.00000000000E+00  0.00000000000E+00 -0.13079379702E+04  0.15901168333E+04  0.90430625870E+03 0.  0.
        2    1    3    3  502    0 -0.32517831775E+03  0.26284976697E+03 -0.95655148407E+03  0.10439452476E+04  0.25500000920E-02 0. -1.
       -2    1    3    3    0  502  0.32517831775E+03 -0.26284976697E+03 -0.35138648616E+03  0.54617158567E+03  0.25500000920E-02 0.  1.
</event>
<event>
 5   0  0.3794006E-03  0.8994462E+03  0.7818609E-02  0.9426274E-01
       -1   -1    0    0    0  501  0.00000000000E+00  0.00000000000E+00  0.25688419469E+03  0.25688419474E+03  0.50400001928E-02 0. -1.
        1   -1    0    0  501    0  0.00000000000E+00  0.00000000000E+00 -0.78732313058E+03  0.78732313059E+03  0.50400001928E-02 0.  1.
    10030    2    1    2    0    0  0.00000000000E+00  0.00000000000E+00 -0.53043893588E+03  0.10442073253E+04  0.89944620383E+03 0.  0.
        5    1    3    3  502    0  0.24087176430E+03  0.33942938407E+03 -0.46291190698E+03  0.62252794092E+03  0.46999998093E+01 0.  1.
       -5    1    3    3    0  502 -0.24087176430E+03 -0.33942938407E+03 -0.67527028908E+02  0.42167938441E+03  0.46999998093E+01 0. -1.
</event>
<event>
 5   0  0.3969536E-03  0.8997391E+03  0.7818609E-02  0.9425908E-01
        1   -1    0    0  501    0  0.00000000000E+00  0.00000000000E+00  0.11467253963E+04  0.11467253963E+04  0.50400001928E-02 0. -1.
       -1   -1    0    0    0  501  0.00000000000E+00  0.00000000000E+00 -0.17648744230E+03  0.17648744237E+03  0.50400001928E-02 0.  1.
    10030    2    1    2    0    0  0.00000000000E+00  0.00000000000E+00  0.97023795397E+03  0.13232128386E+04  0.89973914499E+03 0.  0.
        1    1    3    3  502    0 -0.40298865497E+03 -0.15263681445E+03  0.29515409572E+03  0.52231579854E+03  0.50400001928E-02 0.  1.
       -1    1    3    3    0  502  0.40298865497E+03  0.15263681445E+03  0.67508385824E+03  0.80089704010E+03  0.50400001928E-02 0. -1.
</event>
<event>
 5   0  0.6724773E-03  0.9009159E+03  0.7818609E-02  0.9424437E-01
       -2   -1    0    0    0  501  0.00000000000E+00  0.00000000000E+00  0.99652791697E+02  0.99652791730E+02  0.25500000920E-02 0.  1.
        2   -1    0    0  501    0  0.00000000000E+00  0.00000000000E+00 -0.20361934718E+04  0.20361934718E+04  0.25500000920E-02 0. -1.
    10030    2    1    2    0    0  0.00000000000E+00  0.00000000000E+00 -0.19365406801E+04  0.21358462635E+04  0.90091589826E+03 0.  0.
        5    1    3    3  502    0  0.21271688363E+03 -0.13767699414E+03 -0.18511537888E+04  0.18684206879E+04  0.46999998093E+01 0. -1.
       -5    1    3    3    0  502 -0.21271688363E+03  0.13767699414E+03 -0.85386891347E+02  0.26742557565E+03  0.46999998093E+01 0.  1.
</event>
<event>
 5   0  0.3927993E-03  0.9003462E+03  0.7818609E-02  0.9425149E-01
       -1   -1    0    0    0  501  0.00000000000E+00  0.00000000000E+00  0.69830982237E+03  0.69830982239E+03  0.50400001928E-02 0. -1.
        1   -1    0    0  501    0  0.00000000000E+00  0.00000000000E+00 -0.29020906232E+03  0.29020906236E+03  0.50400001928E-02 0.  1.
    10030    2    1    2    0    0  0.00000000000E+00  0.00000000000E+00  0.40810076005E+03  0.98851888475E+03  0.90034624182E+03 0.  0.
        2    1    3    3  502    0  0.14532665479E+03  0.24750349818E+01 -0.26373804391E+03  0.30113737430E+03  0.25500000920E-02 0.  1.
       -2    1    3    3    0  502 -0.14532665479E+03 -0.24750349818E+01  0.67183880396E+03  0.68738151045E+03  0.25500000920E-02 0. -1.
</event>
<event>
 5   0  0.3943549E-03  0.9035180E+03  0.7818609E-02  0.9421194E-01
       -1   -1    0    0    0  501  0.00000000000E+00  0.00000000000E+00  0.17791012063E+03  0.17791012070E+03  0.50400001928E-02 0.  1.
        1   -1    0    0  501    0  0.00000000000E+00  0.00000000000E+00 -0.11471309773E+04  0.11471309773E+04  0.50400001928E-02 0. -1.
    10030    2    1    2    0    0  0.00000000000E+00  0.00000000000E+00 -0.96922085669E+03  0.13250410980E+04  0.90351803659E+03 0.  0.
        3    1    3    3  502    0 -0.37239956991E+02 -0.12808720684E+03 -0.11175916886E+04  0.11255240288E+04  0.10100000352E+00 0. -1.
       -3    1    3    3    0  502  0.37239956991E+02  0.12808720684E+03  0.14837083186E+03  0.19951706920E+03  0.10100000352E+00 0.  1.
</event>
<event>
 5   0  0.6524705E-03  0.9100200E+03  0.7818609E-02  0.9413142E-01
       -2   -1    0    0    0  501  0.00000000000E+00  0.00000000000E+00  0.98453428740E+02  0.98453428773E+02  0.25500000920E-02 0.  1.
        2   -1    0    0  501    0  0.00000000000E+00  0.00000000000E+00 -0.21028632107E+04  0.21028632107E+04  0.25500000920E-02 0. -1.
    10030    2    1    2    0    0  0.00000000000E+00  0.00000000000E+00 -0.20044097820E+04  0.22013166395E+04  0.91001998507E+03 0.  0.
        3    1    3    3  502    0  0.42879556689E+03 -0.29489142268E+01 -0.13703326007E+04  0.14358571590E+04  0.10100000352E+00 0.  1.
       -3    1    3    3    0  502 -0.42879556689E+03  0.29489142268E+01 -0.63407718132E+03  0.76545948054E+03  0.10100000352E+00 0. -1.
</event>
<event>
 5   0  0.6724773E-03  0.9117266E+03  0.7818609E-02  0.9411040E-01
       -2   -1    0    0    0  501  0.00000000000E+00  0.00000000000E+00  0.11895325172E+03  0.11895325175E+03  0.25500000920E-02 0. -1.
        2   -1    0    0  501    0  0.00000000000E+00  0.00000000000E+00 -0.17470003061E+04  0.17470003061E+04  0.25500000920E-02 0.  1.
    10030    2    1    2    0    0  0.00000000000E+00  0.00000000000E+00 -0.16280470544E+04  0.18659535579E+04  0.91172664148E+03 0.  0.
        5    1    3    3  502    0  0.25072518197E+03 -0.32516279036E+03 -0.12192084649E+04  0.12865011963E+04  0.46999998093E+01 0.  1.
       -5    1    3    3    0  502 -0.25072518197E+03  0.32516279036E+03 -0.40883858950E+03  0.57945236160E+03  0.46999998093E+01 0. -1.
</event>
<event>
 5   0  0.6863405E-03  0.8975329E+03  0.7818609E-02  0.9428671E-01
        2   -1    0    0  501    0  0.00000000000E+00  0.00000000000E+00  0.47406213456E+03  0.47406213456E+03  0.25500000920E-02 0. -1.
       -2   -1    0    0    0  501  0.00000000000E+00  0.00000000000E+00 -0.42482053613E+03  0.42482053614E+03  0.25500000920E-02 0.  1.
    10030    2    1    2    0    0  0.00000000000E+00  0.00000000000E+00  0.49241598425E+02  0.89888267070E+03  0.89753290785E+03 0.  0.
        1    1    3    3  502    0 -0.49092163530E+02  0.15826263138E+02  0.47108355767E+03  0.47389896545E+03  0.50400001928E-02 0. -1.
       -1    1    3    3    0  502  0.49092163530E+02 -0.15826263138E+02 -0.42184195924E+03  0.42498370525E+03  0.50400001928E-02 0.  1.
</event>
<event>
 5   0  0.3998066E-03  0.8982058E+03  0.7818609E-02  0.9427827E-01
       -1   -1    0    0    0  501  0.00000000000E+00  0.00000000000E+00  0.16037346314E+03  0.16037346322E+03  0.50400001928E-02 0.  1.
        1   -1    0    0  501    0  0.00000000000E+00  0.00000000000E+00 -0.12576483060E+04  0.12576483061E+04  0.50400001928E-02 0. -1.
    10030    2    1    2    0    0  0.00000000000E+00  0.00000000000E+00 -0.10972748429E+04  0.14180217693E+04  0.89820579896E+03 0.  0.
        4    1    3    3  502    0 -0.37930835474E+03  0.10428899749E+03 -0.20659325553E+03  0.44433479393E+03  0.12699999809E+01 0.  1.
       -4    1    3    3    0  502  0.37930835474E+03 -0.10428899749E+03 -0.89068158738E+03  0.97368697535E+03  0.12699999809E+01 0. -1.
</event>
<event>
 5   0  0.3794006E-03  0.8974867E+03  0.7818609E-02  0.9428729E-01
        1   -1    0    0  501    0  0.00000000000E+00  0.00000000000E+00  0.49997373648E+03  0.49997373650E+03  0.50400001928E-02 0.  1.
       -1   -1    0    0    0  501  0.00000000000E+00  0.00000000000E+00 -0.40276238694E+03  0.40276238697E+03  0.50400001928E-02 0. -1.
    10030    2    1    2    0    0  0.00000000000E+00  0.00000000000E+00  0.97211349540E+02  0.90273612347E+03  0.89748674761E+03 0.  0.
        5    1    3    3  502    0  0.43202947485E+03 -0.12750094540E+02 -0.72666902111E+02  0.43830879607E+03  0.46999998093E+01 0. -1.
       -5    1    3    3    0  502 -0.43202947485E+03  0.12750094540E+02  0.16987825165E+03  0.46442732740E+03  0.46999998093E+01 0.  1.
</event>
<event>
 5   0  0.3969536E-03  0.8779539E+03  0.7818609E-02  0.9453568E-01
       -1   -1    0    0    0  501  0.00000000000E+00  0.00000000000E+00  0.32161481099E+03  0.32161481103E+03  0.50400001928E-02 0. -1.
        1   -1    0    0  501    0  0.00000000000E+00  0.00000000000E+00 -0.59916637987E+03  0.59916637989E+03  0.50400001928E-02 0.  1.
    10030    2    1    2    0    0  0.00000000000E+00  0.00000000000E+00 -0.27755156888E+03  0.92078119092E+03  0.87795394421E+03 0.  0.
        1    1    3    3  502    0 -0.12497183804E+02  0.34405593240E+03 -0.42440273902E+03  0.54648728177E+03  0.50400001928E-02 0.  1.
       -1    1    3    3    0  502  0.12497183804E+02 -0.34405593240E+03  0.14685117014E+03  0.37429390915E+03  0.50400001928E-02 0. -1.
</event>
<event>
 5   0  0.6609191E-03  0.8936233E+03  0.7818609E-02  0.9433588E-01
       -2   -1    0    0    0  501  0.00000000000E+00  0.00000000000E+00  0.25463167963E+03  0.25463167964E+03  0.25500000920E-02 0. -1.
        2   -1    0    0  501    0  0.00000000000E+00  0.00000000000E+00 -0.78403692745E+03  0.78403692745E+03  0.25500000920E-02 0.  1.
    10030    2    1    2    0    0  0.00000000000E+00  0.00000000000E+00 -0.52940524782E+03  0.10386686071E+04  0.89362327574E+03 0.  0.
        2    1    3    3  502    0  0.17526583830E+03  0.38245758812E+03 -0.89780655936E+02  0.43017727389E+03  0.25500000920E-02 0. -1.
       -2    1    3    3    0  502 -0.17526583830E+03 -0.38245758812E+03 -0.43962459189E+03  0.60849133320E+03  0.25500000920E-02 0.  1.
</event>
<event>
 5   0  0.3943549E-03  0.8859636E+03  0.7818609E-02  0.9443300E-01
       -1   -1    0    0    0  501  0.00000000000E+00  0.00000000000E+00  0.82935051687E+02  0.82935051840E+02  0.50400001928E-02 0.  1.
        1   -1    0    0  501    0  0.00000000000E+00  0.00000000000E+00 -0.23661028987E+04  0.23661028987E+04  0.50400001928E-02 0. -1.
    10030    2    1    2    0    0  0.00000000000E+00  0.00000000000E+00 -0.22831678470E+04  0.24490379506E+04  0.88596358028E+03 0.  0.
        3    1    3    3  502    0  0.15577432344E+03  0.41402458820E+03 -0.10767056970E+04  0.11640348653E+04  0.10100000352E+00 0.  1.
       -3    1    3    3    0  502 -0.15577432344E+03 -0.41402458820E+03 -0.12064621500E+04  0.12850030852E+04  0.10100000352E+00 0. -1.
</event>
<event>
 5   0  0.2560250E-03  0.8996074E+03  0.7818609E-02  0.9426072E-01
        4   -1    0    0  501    0  0.00000000000E+00  0.00000000000E+00  0.46871345433E+03  0.46871517489E+03  0.12699999809E+01 0.  1.
       -4   -1    0    0    0  501  0.00000000000E+00  0.00000000000E+00 -0.43165339957E+03  0.43165526784E+03  0.12699999809E+01 0. -1.
    10030    2    1    2    0    0  0.00000000000E+00  0.00000000000E+00  0.37060054768E+02  0.90037044274E+03  0.89960740687E+03 0.  0.
        3    1    3    3  502    0 -0.60073242213E+02 -0.21097235238E+03  0.41155284403E+03  0.46636239292E+03  0.10100000352E+00 0.  1.
       -3    1    3    3    0  502  0.60073242213E+02  0.21097235238E+03 -0.37449278926E+03  0.43400804982E+03  0.10100000352E+00 0. -1.
</event>
<event>
 5   0  0.3998066E-03  0.9023926E+03  0.7818609E-02  0.9422595E-01
       -1   -1    0    0    0  501  0.00000000000E+00  0.00000000000E+00  0.43480891929E+03  0.43480891932E+03  0.50400001928E-02 0. -1.
        1   -1    0    0  501    0  0.00000000000E+00  0.00000000000E+00 -0.46820131610E+03  0.46820131613E+03  0.50400001928E-02 0.  1.
    10030    2    1    2    0    0  0.00000000000E+00  0.00000000000E+00 -0.33392396809E+02  0.90301023545E+03  0.90239261586E+03 0.  0.
        4    1    3    3  502    0  0.62988168040E+02  0.25610029131E+03  0.34964400552E+03  0.43795823090E+03  0.12699999809E+01 0. -1.
       -4    1    3    3    0  502 -0.62988168040E+02 -0.25610029131E+03 -0.38303640233E+03  0.46505200454E+03  0.12699999809E+01 0.  1.
</event>
<event>
 5   0  0.6524705E-03  0.9016313E+03  0.7818609E-02  0.9423545E-01
        2   -1    0    0  501    0  0.00000000000E+00  0.00000000000E+00  0.98267027909E+03  0.98267027909E+03  0.25500000920E-02 0.  1.
       -2   -1    0    0    0  501  0.00000000000E+00  0.00000000000E+00 -0.20681886134E+03  0.20681886136E+03  0.25500000920E-02 0. -1.
    10030    2    1    2    0    0  0.00000000000E+00  0.00000000000E+00  0.77585141775E+03  0.11894891404E+04  0.90163129539E+03 0.  0.
        3    1    3    3  502    0 -0.91933305116E+02 -0.43967080963E+03  0.43855147715E+03  0.62776553087E+03  0.10100000352E+00 0.  1.
       -3    1    3    3    0  502  0.91933305116E+02  0.43967080963E+03  0.33729994060E+03  0.56172360958E+03  0.10100000352E+00 0. -1.
</event>
<event>
 5   0  0.6524705E-03  0.9215026E+03  0.7818609E-02  0.9399094E-01
        2   -1    0    0  501    0  0.00000000000E+00  0.00000000000E+00  0.19569702950E+03  0.19569702952E+03  0.25500000920E-02 0. -1.
       -2   -1    0    0    0  501  0.00000000000E+00  0.00000000000E+00 -0.10847981769E+04  0.10847981769E+04  0.25500000920E-02 0.  1.
    10030    2    1    2    0    0  0.00000000000E+00  0.00000000000E+00 -0.88910114738E+03  0.12804952064E+04  0.92150264424E+03 0.  0.
        3    1    3    3  502    0 -0.45430229269E+03 -0.70030539685E+02 -0.48842502956E+03  0.67071146504E+03  0.10100000352E+00 0. -1.
       -3    1    3    3    0  502  0.45430229269E+03  0.70030539685E+02 -0.40067611783E+03  0.60978374136E+03  0.10100000352E+00 0.  1.
</event>
<event>
 5   0  0.3927993E-03  0.9006574E+03  0.7818609E-02  0.9424760E-01
        1   -1    0    0  501    0  0.00000000000E+00  0.00000000000E+00  0.92687490858E+03  0.92687490859E+03  0.50400001928E-02 0.  1.
       -1   -1    0    0    0  501  0.00000000000E+00  0.00000000000E+00 -0.21879537494E+03  0.21879537500E+03  0.50400001928E-02 0. -1.
    10030    2    1    2    0    0  0.00000000000E+00  0.00000000000E+00  0.70807953364E+03  0.11456702836E+04  0.90065741142E+03 0.  0.
        2    1    3    3  502    0  0.14949757399E+03  0.41176926760E+03  0.22128088598E+03  0.49078374553E+03  0.25500000920E-02 0. -1.
       -2    1    3    3    0  502 -0.14949757399E+03 -0.41176926760E+03  0.48679864765E+03  0.65488653806E+03  0.25500000920E-02 0.  1.
</event>
<event>
 5   0  0.2560250E-03  0.9011292E+03  0.7818609E-02  0.9424171E-01
        3   -1    0    0  501    0  0.00000000000E+00  0.00000000000E+00  0.20383612947E+03  0.20383615449E+03  0.10100000352E+00 0. -1.
       -3   -1    0    0    0  501  0.00000000000E+00  0.00000000000E+00 -0.99593944522E+03  0.99593945034E+03  0.10100000352E+00 0.  1.
    10030    2    1    2    0    0  0.00000000000E+00  0.00000000000E+00 -0.79210331575E+03  0.11997756048E+04  0.90112920224E+03 0.  0.
        3    1    3    3  502    0  0.33045986170E+03  0.22221062792E+03 -0.11541960724E+03  0.41461184171E+03  0.10100000352E+00 0. -1.
       -3    1    3    3    0  502 -0.33045986170E+03 -0.22221062792E+03 -0.67668370851E+03  0.78516376312E+03  0.10100000352E+00 0.  1.
</event>
<event>
 5   0  0.3794006E-03  0.9155370E+03  0.7818609E-02  0.9406365E-01
       -1   -1    0    0    0  501  0.00000000000E+00  0.00000000000E+00  0.25929245965E+03  0.25929245970E+03  0.50400001928E-02 0.  1.
        1   -1    0    0  501    0  0.00000000000E+00  0.00000000000E+00 -0.80816848310E+03  0.80816848312E+03  0.50400001928E-02 0. -1.
    10030    2    1    2    0    0  0.00000000000E+00  0.00000000000E+00 -0.54887602346E+03  0.10674609428E+04  0.91553698741E+03 0.  0.
        5    1    3    3  502    0 -0.94837332299E+02 -0.52961962875E+02  0.24401962656E+03  0.26714557315E+03  0.46999998093E+01 0.  1.
       -5    1    3    3    0  502  0.94837332299E+02  0.52961962875E+02 -0.79289565002E+03  0.80031536967E+03  0.46999998093E+01 0. -1.
</event>
<event>
 5   0  0.6724773E-03  0.8938940E+03  0.7818609E-02  0.9433247E-01
       -2   -1    0    0    0  501  0.00000000000E+00  0.00000000000E+00  0.27056016984E+03  0.27056016985E+03  0.25500000920E-02 0. -1.
        2   -1    0    0  501    0  0.00000000000E+00  0.00000000000E+00 -0.73832610347E+03  0.73832610347E+03  0.25500000920E-02 0.  1.
    10030    2    1    2    0    0  0.00000000000E+00  0.00000000000E+00 -0.46776593363E+03  0.10088862733E+04  0.89389403390E+03 0.  0.
        5    1    3    3  502    0 -0.28591277620E+03 -0.17492245002E+03  0.99774521525E+02  0.34974422691E+03  0.46999998093E+01 0. -1.
       -5    1    3    3    0  502  0.28591277620E+03  0.17492245002E+03 -0.56754045515E+03  0.65914204641E+03  0.46999998093E+01 0.  1.
</event>
<event>
 5   0  0.6863405E-03  0.9037348E+03  0.7818609E-02  0.9420925E-01
        2   -1    0    0  501    0  0.00000000000E+00  0.00000000000E+00  0.21090945945E+03  0.21090945946E+03  0.25500000920E-02 0.  1.
       -2   -1    0    0    0  501  0.00000000000E+00  0.00000000000E+00 -0.96811285931E+03  0.96811285931E+03  0.25500000920E-02 0. -1.
    10030    2    1    2    0    0  0.00000000000E+00  0.00000000000E+00 -0.75720339986E+03  0.11790223188E+04  0.90373482804E+03 0.  0.
        1    1    3    3  502    0 -0.31904150338E+03  0.28212293883E+03 -0.18159540284E+03  0.46298782257E+03  0.50400001928E-02 0.  1.
       -1    1    3    3    0  502  0.31904150338E+03 -0.28212293883E+03 -0.57560799702E+03  0.71603449620E+03  0.50400001928E-02 0. -1.
</event>
<event>
 5   0  0.2560250E-03  0.8939551E+03  0.7818609E-02  0.9433170E-01
        3   -1    0    0  501    0  0.00000000000E+00  0.00000000000E+00  0.54501701177E+03  0.54501702112E+03  0.10100000352E+00 0.  1.
       -3   -1    0    0    0  501  0.00000000000E+00  0.00000000000E+00 -0.36657372207E+03  0.36657373598E+03  0.10100000352E+00 0. -1.
    10030    2    1    2    0    0  0.00000000000E+00  0.00000000000E+00  0.17844328970E+03  0.91159075710E+03  0.89395508880E+03 0.  0.
        2    1    3    3  502    0  0.50653614138E+02  0.10248542219E+03 -0.35141385775E+03  0.36954126943E+03  0.25500000920E-02 0. -1.
       -2    1    3    3    0  502 -0.50653614138E+02 -0.10248542219E+03  0.52985714745E+03  0.54204948768E+03  0.25500000920E-02 0.  1.
</event>
<event>
 5   0  0.3998066E-03  0.8991051E+03  0.7818609E-02  0.9426701E-01
       -1   -1    0    0    0  501  0.00000000000E+00  0.00000000000E+00  0.37955447216E+03  0.37955447219E+03  0.50400001928E-02 0. -1.
        1   -1    0    0  501    0  0.00000000000E+00  0.00000000000E+00 -0.53245977252E+03  0.53245977254E+03  0.50400001928E-02 0.  1.
    10030    2    1    2    0    0  0.00000000000E+00  0.00000000000E+00 -0.15290530036E+03  0.91201424474E+03  0.89910508380E+03 0.  0.
        4    1    3    3  502    0 -0.26924313268E+03  0.35903793490E+03 -0.49696440448E+02  0.45152126449E+03  0.12699999809E+01 0. -1.
       -4    1    3    3    0  502  0.26924313268E+03 -0.35903793490E+03 -0.10320885991E+03  0.46049298025E+03  0.12699999809E+01 0.  1.
</event>
<event>
 5   0  0.6534628E-03  0.8981863E+03  0.7818609E-02  0.9427851E-01
       -2   -1    0    0    0  501  0.00000000000E+00  0.00000000000E+00  0.11366369218E+03  0.11366369221E+03  0.25500000920E-02 0. -1.
        2   -1    0    0  501    0  0.00000000000E+00  0.00000000000E+00 -0.17743983551E+04  0.17743983551E+04  0.25500000920E-02 0.  1.
    10030    2    1    2    0    0  0.00000000000E+00  0.00000000000E+00 -0.16607346629E+04  0.18880620473E+04  0.89818632469E+03 0.  0.
        4    1    3    3  502    0 -0.11047277390E+03 -0.33054314050E+03 -0.14257432974E+04  0.14677222368E+04  0.12699999809E+01 0.  1.
       -4    1    3    3    0  502  0.11047277390E+03  0.33054314050E+03 -0.23499136552E+03  0.42033981048E+03  0.12699999809E+01 0. -1.
</event>
<event>
 5   0  0.6524705E-03  0.8986287E+03  0.7818609E-02  0.9427297E-01
       -2   -1    0    0    0  501  0.00000000000E+00  0.00000000000E+00  0.18591200350E+03  0.18591200352E+03  0.25500000920E-02 0. -1.
        2   -1    0    0  501    0  0.00000000000E+00  0.00000000000E+00 -0.10859081811E+04  0.10859081811E+04  0.25500000920E-02 0.  1.
    10030    2    1    2    0    0  0.00000000000E+00  0.00000000000E+00 -0.89999617756E+03  0.12718201846E+04  0.89862865650E+03 0.  0.
        3    1    3    3  502    0  0.39271521985E+03  0.20476458376E+03 -0.55712700674E+03  0.71171924978E+03  0.10100000352E+00 0.  1.
       -3    1    3    3    0  502 -0.39271521985E+03 -0.20476458376E+03 -0.34286917082E+03  0.56010093480E+03  0.10100000352E+00 0. -1.
</event>
<event>
 5   0  0.6724773E-03  0.9021857E+03  0.7818609E-02  0.9422853E-01
        2   -1    0    0  501    0  0.00000000000E+00  0.00000000000E+00  0.26732954624E+03  0.26732954625E+03  0.25500000920E-02 0. -1.
       -2   -1    0    0    0  501  0.00000000000E+00  0.00000000000E+00 -0.76117566668E+03  0.76117566668E+03  0.25500000920E-02 0.  1.
    10030    2    1    2    0    0  0.00000000000E+00  0.00000000000E+00 -0.49384612044E+03  0.10285052129E+04  0.90218566955E+03 0.  0.
        5    1    3    3  502    0 -0.24779222739E+03  0.35308297237E+03 -0.96570325220E+02  0.44205937502E+03  0.46999998093E+01 0. -1.
       -5    1    3    3    0  502  0.24779222739E+03 -0.35308297237E+03 -0.39727579522E+03  0.58644583791E+03  0.46999998093E+01 0.  1.
</event>
<event>
 5   0  0.6724773E-03  0.8922475E+03  0.7818609E-02  0.9435325E-01
       -2   -1    0    0    0  501  0.00000000000E+00  0.00000000000E+00  0.94921653737E+02  0.94921653771E+02  0.25500000920E-02 0.  1.
        2   -1    0    0  501    0  0.00000000000E+00  0.00000000000E+00 -0.20967441276E+04  0.20967441276E+04  0.25500000920E-02 0. -1.
    10030    2    1    2    0    0  0.00000000000E+00  0.00000000000E+00 -0.20018224739E+04  0.21916657814E+04  0.89224754434E+03 0.  0.
        5    1    3    3  502    0 -0.21243649872E+03  0.12035787043E+02 -0.37817480719E+02  0.21616285066E+03  0.46999998093E+01 0.  1.
       -5    1    3    3    0  502  0.21243649872E+03 -0.12035787043E+02 -0.19640049931E+04  0.19755029307E+04  0.46999998093E+01 0. -1.
</event>
<event>
 5   0  0.6724773E-03  0.8982844E+03  0.7818609E-02  0.9427728E-01
        2   -1    0    0  501    0  0.00000000000E+00  0.00000000000E+00  0.15285955765E+03  0.15285955768E+03  0.25500000920E-02 0.  1.
       -2   -1    0    0    0  501  0.00000000000E+00  0.00000000000E+00 -0.13196998466E+04  0.13196998466E+04  0.25500000920E-02 0. -1.
    10030    2    1    2    0    0  0.00000000000E+00  0.00000000000E+00 -0.11668402890E+04  0.14725594043E+04  0.89828444227E+03 0.  0.
        5    1    3    3  502    0  0.35599083362E+03 -0.23955085041E+03 -0.80085215493E+03  0.90857049678E+03  0.46999998093E+01 0.  1.
       -5    1    3    3    0  502 -0.35599083362E+03  0.23955085041E+03 -0.36598813403E+03  0.56398890752E+03  0.46999998093E+01 0. -1.
</event>
<event>
 5   0  0.3794006E-03  0.9018580E+03  0.7818609E-02  0.9423262E-01
       -1   -1    0    0    0  501  0.00000000000E+00  0.00000000000E+00  0.35200161170E+03  0.35200161174E+03  0.50400001928E-02 0. -1.
        1   -1    0    0  501    0  0.00000000000E+00  0.00000000000E+00 -0.57765917060E+03  0.57765917062E+03  0.50400001928E-02 0.  1.
    10030    2    1    2    0    0  0.00000000000E+00  0.00000000000E+00 -0.22565755890E+03  0.92966078236E+03  0.90185799124E+03 0.  0.
        5    1    3    3  502    0 -0.41433862435E+03  0.11171204626E+03 -0.25551118284E+03  0.49946384400E+03  0.46999998093E+01 0.  1.
       -5    1    3    3    0  502  0.41433862435E+03 -0.11171204626E+03  0.29853623943E+02  0.43019693836E+03  0.46999998093E+01 0. -1.
</event>
<event>
 5   0  0.6863405E-03  0.9010816E+03  0.7818609E-02  0.9424230E-01
       -2   -1    0    0    0  501  0.00000000000E+00  0.00000000000E+00  0.64705424377E+03  0.64705424377E+03  0.25500000920E-02 0. -1.
        2   -1    0    0  501    0  0.00000000000E+00  0.00000000000E+00 -0.31370945178E+03  0.31370945179E+03  0.25500000920E-02 0.  1.
    10030    2    1    2    0    0  0.00000000000E+00  0.00000000000E+00  0.33334479198E+03  0.96076369557E+03  0.90108164357E+03 0.  0.
        1    1    3    3  502    0 -0.57322673347E+02  0.19410169025E+03 -0.26251243493E+03  0.33147267392E+03  0.50400001928E-02 0.  1.
       -1    1    3    3    0  502  0.57322673347E+02 -0.19410169025E+03  0.59585722691E+03  0.62929102165E+03  0.50400001928E-02 0. -1.
</event>
<event>
 5   0  0.3927993E-03  0.8974701E+03  0.7818609E-02  0.9428749E-01
       -1   -1    0    0    0  501  0.00000000000E+00  0.00000000000E+00  0.12499219898E+03  0.12499219909E+03  0.50400001928E-02 0. -1.
        1   -1    0    0  501    0  0.00000000000E+00  0.00000000000E+00 -0.16110056647E+04  0.16110056647E+04  0.50400001928E-02 0.  1.
    10030    2    1    2    0    0  0.00000000000E+00  0.00000000000E+00 -0.14860134657E+04  0.17359978637E+04  0.89747009019E+03 0.  0.
        2    1    3    3  502    0 -0.33110597967E+03  0.17642921405E+03 -0.26681443412E+03  0.46037851775E+03  0.25500000920E-02 0.  1.
       -2    1    3    3    0  502  0.33110597967E+03 -0.17642921405E+03 -0.12191990315E+04  0.12756193460E+04  0.25500000920E-02 0. -1.
</event>
<event>
 5   0  0.3927993E-03  0.8994745E+03  0.7818609E-02  0.9426239E-01
       -1   -1    0    0    0  501  0.00000000000E+00  0.00000000000E+00  0.14418211928E+04  0.14418211928E+04  0.50400001928E-02 0. -1.
        1   -1    0    0  501    0  0.00000000000E+00  0.00000000000E+00 -0.14028341282E+03  0.14028341291E+03  0.50400001928E-02 0.  1.
    10030    2    1    2    0    0  0.00000000000E+00  0.00000000000E+00  0.13015377800E+04  0.15821046057E+04  0.89947450810E+03 0.  0.
        2    1    3    3  502    0 -0.16308372255E+03 -0.18020026719E+03  0.13163645876E+04  0.13386127761E+04  0.25500000920E-02 0. -1.
       -2    1    3    3    0  502  0.16308372255E+03  0.18020026719E+03 -0.14826807627E+02  0.24349182961E+03  0.25500000920E-02 0.  1.
</event>
<event>
 5   0  0.3943549E-03  0.8956875E+03  0.7818609E-02  0.9430988E-01
        1   -1    0    0  501    0  0.00000000000E+00  0.00000000000E+00  0.83685019317E+03  0.83685019319E+03  0.50400001928E-02 0.  1.
       -1   -1    0    0    0  501  0.00000000000E+00  0.00000000000E+00 -0.23966538312E+03  0.23966538318E+03  0.50400001928E-02 0. -1.
    10030    2    1    2    0    0  0.00000000000E+00  0.00000000000E+00  0.59718481005E+03  0.10765155764E+04  0.89568749506E+03 0.  0.
        3    1    3    3  502    0 -0.84063135588E+02  0.38182626038E+03  0.36079413430E+02  0.39263168257E+03  0.10100000352E+00 0. -1.
       -3    1    3    3    0  502  0.84063135588E+02 -0.38182626038E+03  0.56110539662E+03  0.68388389380E+03  0.10100000352E+00 0.  1.
</event>
<event>
 5   0  0.6863405E-03  0.9053786E+03  0.7818609E-02  0.9418883E-01
       -2   -1    0    0    0  501  0.00000000000E+00  0.00000000000E+00  0.86298141882E+02  0.86298141919E+02  0.25500000920E-02 0. -1.
        2   -1    0    0  501    0  0.00000000000E+00  0.00000000000E+00 -0.23746470097E+04  0.23746470097E+04  0.25500000920E-02 0.  1.
    10030    2    1    2    0    0  0.00000000000E+00  0.00000000000E+00 -0.22883488678E+04  0.24609451516E+04  0.90537864920E+03 0.  0.
        1    1    3    3  502    0  0.16176593256E+03 -0.18165599936E+03 -0.10642711807E+03  0.26550678057E+03  0.50400001928E-02 0. -1.
       -1    1    3    3    0  502 -0.16176593256E+03  0.18165599936E+03 -0.21819217497E+04  0.21954383710E+04  0.50400001928E-02 0.  1.
</event>
<event>
 5   0  0.3998066E-03  0.8965968E+03  0.7818609E-02  0.9429846E-01
       -1   -1    0    0    0  501  0.00000000000E+00  0.00000000000E+00  0.20163084369E+03  0.20163084375E+03  0.50400001928E-02 0.  1.
        1   -1    0    0  501    0  0.00000000000E+00  0.00000000000E+00 -0.99672965083E+03  0.99672965085E+03  0.50400001928E-02 0. -1.
    10030    2    1    2    0    0  0.00000000000E+00  0.00000000000E+00 -0.79509880714E+03  0.11983604946E+04  0.89659676661E+03 0.  0.
        4    1    3    3  502    0  0.25525466497E+03 -0.13973475158E+03 -0.85333415109E+03  0.90158833793E+03  0.12699999809E+01 0. -1.
       -4    1    3    3    0  502 -0.25525466497E+03  0.13973475158E+03  0.58235343944E+02  0.29677215667E+03  0.12699999809E+01 0.  1.
</event>
<event>
 5   0  0.3998066E-03  0.8984273E+03  0.7818609E-02  0.9427549E-01
        1   -1    0    0  501    0  0.00000000000E+00  0.00000000000E+00  0.38301711401E+03  0.38301711404E+03  0.50400001928E-02 0.  1.
       -1   -1    0    0    0  501  0.00000000000E+00  0.00000000000E+00 -0.52685093712E+03  0.52685093715E+03  0.50400001928E-02 0. -1.
    10030    2    1    2    0    0  0.00000000000E+00  0.00000000000E+00 -0.14383382312E+03  0.90986805119E+03  0.89842734926E+03 0.  0.
        4    1    3    3  502    0 -0.72106157789E+02 -0.29913494784E+03 -0.40336160074E+03  0.50732948748E+03  0.12699999809E+01 0. -1.
       -4    1    3    3    0  502  0.72106157789E+02  0.29913494784E+03  0.25952777763E+03  0.40253856371E+03  0.12699999809E+01 0.  1.
</event>
<event>
 5   0  0.3794006E-03  0.8963347E+03  0.7818609E-02  0.9430175E-01
       -1   -1    0    0    0  501  0.00000000000E+00  0.00000000000E+00  0.63926290705E+03  0.63926290707E+03  0.50400001928E-02 0. -1.
        1   -1    0    0  501    0  0.00000000000E+00  0.00000000000E+00 -0.31419618309E+03  0.31419618313E+03  0.50400001928E-02 0.  1.
    10030    2    1    2    0    0  0.00000000000E+00  0.00000000000E+00  0.32506672397E+03  0.95345909020E+03  0.89633468172E+03 0.  0.
        5    1    3    3  502    0  0.19016009871E+01  0.42543703058E+03  0.31233296278E+03  0.52780133830E+03  0.46999998093E+01 0.  1.
       -5    1    3    3    0  502 -0.19016009871E+01 -0.42543703058E+03  0.12733761182E+02  0.42565775189E+03  0.46999998093E+01 0. -1.
</event>
<event>
 5   0  0.6609191E-03  0.9223308E+03  0.7818609E-02  0.9398089E-01
       -2   -1    0    0    0  501  0.00000000000E+00  0.00000000000E+00  0.22588358292E+03  0.22588358293E+03  0.25500000920E-02 0.  1.
        2   -1    0    0  501    0  0.00000000000E+00  0.00000000000E+00 -0.94151834459E+03  0.94151834459E+03  0.25500000920E-02 0. -1.
    10030    2    1    2    0    0  0.00000000000E+00  0.00000000000E+00 -0.71563476167E+03  0.11674019275E+04  0.92233082366E+03 0.  0.
        2    1    3    3  502    0 -0.34303937765E+03  0.30315996326E+03 -0.42819303762E+03  0.62684228911E+03  0.25500000920E-02 0. -1.
       -2    1    3    3    0  502  0.34303937765E+03 -0.30315996326E+03 -0.28744172405E+03  0.54055963841E+03  0.25500000920E-02 0.  1.
</event>
<event>
 5   0  0.6534628E-03  0.9027954E+03  0.7818609E-02  0.9422094E-01
       -2   -1    0    0    0  501  0.00000000000E+00  0.00000000000E+00  0.10438370622E+03  0.10438370625E+03  0.25500000920E-02 0. -1.
        2   -1    0    0  501    0  0.00000000000E+00  0.00000000000E+00 -0.19520275409E+04  0.19520275409E+04  0.25500000920E-02 0.  1.
    10030    2    1    2    0    0  0.00000000000E+00  0.00000000000E+00 -0.18476438347E+04  0.20564112472E+04  0.90279536862E+03 0.  0.
        4    1    3    3  502    0  0.27885552993E+03 -0.30697306040E+03 -0.13297954724E+04  0.13929646362E+04  0.12699999809E+01 0.  1.
       -4    1    3    3    0  502 -0.27885552993E+03  0.30697306040E+03 -0.51784836234E+03  0.66344661102E+03  0.12699999809E+01 0. -1.
</event>
<event>
 5   0  0.6724773E-03  0.8992119E+03  0.7818609E-02  0.9426567E-01
        2   -1    0    0  501    0  0.00000000000E+00  0.00000000000E+00  0.20920997475E+03  0.20920997477E+03  0.25500000920E-02 0. -1.
       -2   -1    0    0    0  501  0.00000000000E+00  0.00000000000E+00 -0.96623262723E+03  0.96623262723E+03  0.25500000920E-02 0.  1.
    10030    2    1    2    0    0  0.00000000000E+00  0.00000000000E+00 -0.75702265247E+03  0.11754426020E+04  0.89921188506E+03 0.  0.
        5    1    3    3  502    0 -0.96548009730E+02  0.10750513482E+03 -0.93501989579E+03  0.94613062931E+03  0.46999998093E+01 0.  1.
       -5    1    3    3    0  502  0.96548009730E+02 -0.10750513482E+03  0.17799724331E+03  0.22931197269E+03  0.46999998093E+01 0. -1.
</event>
<event>
 5   0  0.6524705E-03  0.8918055E+03  0.7818609E-02  0.9435883E-01
       -2   -1    0    0    0  501  0.00000000000E+00  0.00000000000E+00  0.29001844351E+03  0.29001844352E+03  0.25500000920E-02 0. -1.
        2   -1    0    0  501    0  0.00000000000E+00  0.00000000000E+00 -0.68557449190E+03  0.68557449191E+03  0.25500000920E-02 0.  1.
    10030    2    1    2    0    0  0.00000000000E+00  0.00000000000E+00 -0.39555604839E+03  0.97559293543E+03  0.89180546547E+03 0.  0.
        3    1    3    3  502    0 -0.28465861130E+03 -0.47075455354E+02  0.17413789854E+03  0.33700243530E+03  0.10100000352E+00 0. -1.
       -3    1    3    3    0  502  0.28465861130E+03  0.47075455354E+02 -0.56969394693E+03  0.63859050013E+03  0.10100000352E+00 0.  1.
</event>
<event>
 5   0  0.6724773E-03  0.8821733E+03  0.7818609E-02  0.9448144E-01
       -2   -1    0    0    0  501  0.00000000000E+00  0.00000000000E+00  0.20401344536E+03  0.20401344538E+03  0.25500000920E-02 0. -1.
        2   -1    0    0  501    0  0.00000000000E+00  0.00000000000E+00 -0.95364998043E+03  0.95364998043E+03  0.25500000920E-02 0.  1.
    10030    2    1    2    0    0  0.00000000000E+00  0.00000000000E+00 -0.74963653506E+03  0.11576634258E+04  0.88217326685E+03 0.  0.
        5    1    3    3  502    0  0.30410743758E+03  0.73500183952E+02 -0.78279294518E+03  0.84301274940E+03  0.46999998093E+01 0.  1.
       -5    1    3    3    0  502 -0.30410743758E+03 -0.73500183952E+02  0.33156410117E+02  0.31465067641E+03  0.46999998093E+01 0. -1.
</event>
<event>
 5   0  0.6609191E-03  0.8955491E+03  0.7818609E-02  0.9431162E-01
        2   -1    0    0  501    0  0.00000000000E+00  0.00000000000E+00  0.12063030558E+04  0.12063030558E+04  0.25500000920E-02 0. -1.
       -2   -1    0    0    0  501  0.00000000000E+00  0.00000000000E+00 -0.16621199708E+03  0.16621199710E+03  0.25500000920E-02 0.  1.
    10030    2    1    2    0    0  0.00000000000E+00  0.00000000000E+00  0.10400910588E+04  0.13725150529E+04  0.89554908299E+03 0.  0.
        2    1    3    3  502    0 -0.23607230010E+03  0.34332898357E+03  0.77139651827E+03  0.87673115049E+03  0.25500000920E-02 0. -1.
       -2    1    3    3    0  502  0.23607230010E+03 -0.34332898357E+03  0.26869454049E+03  0.49578390245E+03  0.25500000920E-02 0.  1.
</event>
<event>
 5   0  0.3969536E-03  0.9144046E+03  0.7818609E-02  0.9407752E-01
        1   -1    0    0  501    0  0.00000000000E+00  0.00000000000E+00  0.69203885467E+03  0.69203885468E+03  0.50400001928E-02 0.  1.
       -1   -1    0    0    0  501  0.00000000000E+00  0.00000000000E+00 -0.30205523476E+03  0.30205523480E+03  0.50400001928E-02 0. -1.
    10030    2    1    2    0    0  0.00000000000E+00  0.00000000000E+00  0.38998361991E+03  0.99409408948E+03  0.91440463415E+03 0.  0.
        1    1    3    3  502    0  0.21218380256E+03  0.40478628854E+03  0.20874556640E+03  0.50244265043E+03  0.50400001928E-02 0.  1.
       -1    1    3    3    0  502 -0.21218380256E+03 -0.40478628854E+03  0.18123805351E+03  0.49165143905E+03  0.50400001928E-02 0. -1.
</event>
<event>
 5   0  0.3998066E-03  0.9016972E+03  0.7818609E-02  0.9423462E-01
       -1   -1    0    0    0  501  0.00000000000E+00  0.00000000000E+00  0.19666183966E+03  0.19666183973E+03  0.50400001928E-02 0.  1.
        1   -1    0    0  501    0  0.00000000000E+00  0.00000000000E+00 -0.10335734006E+04  0.10335734006E+04  0.50400001928E-02 0. -1.
    10030    2    1    2    0    0  0.00000000000E+00  0.00000000000E+00 -0.83691156089E+03  0.12302352403E+04  0.90169716962E+03 0.  0.
        4    1    3    3  502    0  0.61391662173E+02  0.43095038214E+03 -0.57858985372E+03  0.72405455581E+03  0.12699999809E+01 0. -1.
       -4    1    3    3    0  502 -0.61391662173E+02 -0.43095038214E+03 -0.25832170717E+03  0.50618068448E+03  0.12699999809E+01 0.  1.
</event>
<event>
 5   0  0.6534628E-03  0.9030476E+03  0.7818609E-02  0.9421780E-01
       -2   -1    0    0    0  501  0.00000000000E+00  0.00000000000E+00  0.25215017066E+03  0.25215017067E+03  0.25500000920E-02 0.  1.
        2   -1    0    0  501    0  0.00000000000E+00  0.00000000000E+00 -0.80854102202E+03  0.80854102203E+03  0.25500000920E-02 0. -1.
    10030    2    1    2    0    0  0.00000000000E+00  0.00000000000E+00 -0.55639085136E+03  0.10606911927E+04  0.90304763263E+03 0.  0.
        4    1    3    3  502    0  0.45948701778E+02 -0.83668723945E+02  0.24016118207E+03  0.25843905439E+03  0.12699999809E+01 0.  1.
       -4    1    3    3    0  502 -0.45948701778E+02  0.83668723945E+02 -0.79655203343E+03  0.80225213831E+03  0.12699999809E+01 0. -1.
</event>
<event>
 5   0  0.6534628E-03  0.8994886E+03  0.7818609E-02  0.9426221E-01
        2   -1    0    0  501    0  0.00000000000E+00  0.00000000000E+00  0.12583289496E+04  0.12583289496E+04  0.25500000920E-02 0.  1.
       -2   -1    0    0    0  501  0.00000000000E+00  0.00000000000E+00 -0.16074489346E+03  0.16074489348E+03  0.25500000920E-02 0. -1.
    10030    2    1    2    0    0  0.00000000000E+00  0.00000000000E+00  0.10975840561E+04  0.14190738430E+04  0.89948863906E+03 0.  0.
        4    1    3    3  502    0  0.18069441185E+03  0.36852280533E+03  0.83887635503E+03  0.93390292882E+03  0.12699999809E+01 0.  1.
       -4    1    3    3    0  502 -0.18069441185E+03 -0.36852280533E+03  0.25870770107E+03  0.48517091423E+03  0.12699999809E+01 0. -1.
</event>
<event>
 5   0  0.3927993E-03  0.9033348E+03  0.7818609E-02  0.9421422E-01
        1   -1    0    0  501    0  0.00000000000E+00  0.00000000000E+00  0.49696485359E+03  0.49696485362E+03  0.50400001928E-02 0.  1.
       -1   -1    0    0    0  501  0.00000000000E+00  0.00000000000E+00 -0.41049870328E+03  0.41049870331E+03  0.50400001928E-02 0. -1.
    10030    2    1    2    0    0  0.00000000000E+00  0.00000000000E+00  0.86466150313E+02  0.90746355693E+03  0.90333477294E+03 0.  0.
        2    1    3    3  502    0  0.43402414694E+03  0.86068687961E+02 -0.47838044662E+02  0.44505421883E+03  0.25500000920E-02 0. -1.
       -2    1    3    3    0  502 -0.43402414694E+03 -0.86068687961E+02  0.13430419498E+03  0.46240933810E+03  0.25500000920E-02 0.  1.
</event>
<event>
 5   0  0.3927993E-03  0.8941978E+03  0.7818609E-02  0.9432864E-01
        1   -1    0    0  501    0  0.00000000000E+00  0.00000000000E+00  0.82728732304E+03  0.82728732305E+03  0.50400001928E-02 0.  1.
       -1   -1    0    0    0  501  0.00000000000E+00  0.00000000000E+00 -0.24163000733E+03  0.24163000739E+03  0.50400001928E-02 0. -1.
    10030    2    1    2    0    0  0.00000000000E+00  0.00000000000E+00  0.58565731570E+03  0.10689173304E+04  0.89419783486E+03 0.  0.
        2    1    3    3  502    0 -0.37297942348E+03  0.88471072875E+01 -0.16979919132E+01  0.37308819980E+03  0.25500000920E-02 0. -1.
       -2    1    3    3    0  502  0.37297942348E+03 -0.88471072875E+01  0.58735530762E+03  0.69582913064E+03  0.25500000920E-02 0.  1.
</event>
<event>
 5   0  0.6609191E-03  0.8871730E+03  0.7818609E-02  0.9441759E-01
       -2   -1    0    0    0  501  0.00000000000E+00  0.00000000000E+00  0.86250173342E+02  0.86250173379E+02  0.25500000920E-02 0. -1.
        2   -1    0    0  501    0  0.00000000000E+00  0.00000000000E+00 -0.22813749304E+04  0.22813749304E+04  0.25500000920E-02 0.  1.
    10030    2    1    2    0    0  0.00000000000E+00  0.00000000000E+00 -0.21951247571E+04  0.23676251038E+04  0.88717300061E+03 0.  0.
        2    1    3    3  502    0  0.29662857156E+03 -0.26879064908E+03 -0.58747837360E+03  0.71089222950E+03  0.25500000920E-02 0. -1.
       -2    1    3    3    0  502 -0.29662857156E+03  0.26879064908E+03 -0.16076463835E+04  0.16567328743E+04  0.25500000920E-02 0.  1.
</event>
<event>
 5   0  0.6524705E-03  0.8900238E+03  0.7818609E-02  0.9438139E-01
        2   -1    0    0  501    0  0.00000000000E+00  0.00000000000E+00  0.87618424226E+03  0.87618424226E+03  0.25500000920E-02 0.  1.
       -2   -1    0    0    0  501  0.00000000000E+00  0.00000000000E+00 -0.22602050259E+03  0.22602050260E+03  0.25500000920E-02 0. -1.
    10030    2    1    2    0    0  0.00000000000E+00  0.00000000000E+00  0.65016373967E+03  0.11022047449E+04  0.89002382621E+03 0.  0.
        3    1    3    3  502    0  0.13362273592E+03  0.39592929320E+03  0.51460368408E+03  0.66289667569E+03  0.10100000352E+00 0.  1.
       -3    1    3    3    0  502 -0.13362273592E+03 -0.39592929320E+03  0.13556005559E+03  0.43930806917E+03  0.10100000352E+00 0. -1.
</event>
<event>
 5   0  0.6609191E-03  0.8895003E+03  0.7818609E-02  0.9438803E-01
        2   -1    0    0  501    0  0.00000000000E+00  0.00000000000E+00  0.14821868301E+04  0.14821868301E+04  0.25500000920E-02 0.  1.
       -2   -1    0    0    0  501  0.00000000000E+00  0.00000000000E+00 -0.13345328056E+03  0.13345328058E+03  0.25500000920E-02 0. -1.
    10030    2    1    2    0    0  0.00000000000E+00  0.00000000000E+00  0.13487335495E+04  0.16156401107E+04  0.88950029768E+03 0.  0.
        2    1    3    3  502    0 -0.93142048554E+02  0.42985756412E+03  0.55457428505E+03  0.70781749363E+03  0.25500000920E-02 0. -1.
       -2    1    3    3    0  502  0.93142048554E+02 -0.42985756412E+03  0.79415926446E+03  0.90782261702E+03  0.25500000920E-02 0.  1.
</event>
<event>
 5   0  0.6863405E-03  0.8994359E+03  0.7818609E-02  0.9426287E-01
       -2   -1    0    0    0  501  0.00000000000E+00  0.00000000000E+00  0.64027476994E+03  0.64027476995E+03  0.25500000920E-02 0.  1.
        2   -1    0    0  501    0  0.00000000000E+00  0.00000000000E+00 -0.31587414933E+03  0.31587414934E+03  0.25500000920E-02 0. -1.
    10030    2    1    2    0    0  0.00000000000E+00  0.00000000000E+00  0.32440062061E+03  0.95614891929E+03  0.89943593057E+03 0.  0.
        1    1    3    3  502    0 -0.18034459265E+03 -0.28277495255E+03 -0.15629108332E+03  0.37001722749E+03  0.50400001928E-02 0. -1.
       -1    1    3    3    0  502  0.18034459265E+03  0.28277495255E+03  0.48069170392E+03  0.58613169180E+03  0.50400001928E-02 0.  1.
</event>
<event>
 5   0  0.3794006E-03  0.9129215E+03  0.7818609E-02  0.9409572E-01
        1   -1    0    0  501    0  0.00000000000E+00  0.00000000000E+00  0.62855131667E+03  0.62855131670E+03  0.50400001928E-02 0.  1.
       -1   -1    0    0    0  501  0.00000000000E+00  0.00000000000E+00 -0.33148670651E+03  0.33148670655E+03  0.50400001928E-02 0. -1.
    10030    2    1    2    0    0  0.00000000000E+00  0.00000000000E+00  0.29706461016E+03  0.96003802324E+03  0.91292147716E+03 0.  0.
        5    1    3    3  502    0 -0.25226023734E+03  0.27030788575E+03 -0.13292386755E+03  0.39292801504E+03  0.46999998093E+01 0. -1.
       -5    1    3    3    0  502  0.25226023734E+03 -0.27030788575E+03  0.42998847771E+03  0.56711000820E+03  0.46999998093E+01 0.  1.
</event>
<event>
 5   0  0.6724773E-03  0.9002737E+03  0.7818609E-02  0.9425239E-01
        2   -1    0    0  501    0  0.00000000000E+00  0.00000000000E+00  0.41228113364E+03  0.41228113365E+03  0.25500000920E-02 0. -1.
       -2   -1    0    0    0  501  0.00000000000E+00  0.00000000000E+00 -0.49146847425E+03  0.49146847426E+03  0.25500000920E-02 0.  1.
    10030    2    1    2    0    0  0.00000000000E+00  0.00000000000E+00 -0.79187340605E+02  0.90374960791E+03  0.90027369110E+03 0.  0.
        5    1    3    3  502    0  0.26333714236E+03  0.33098216461E+03 -0.19415385474E+03  0.46541750412E+03  0.46999998093E+01 0.  1.
       -5    1    3    3    0  502 -0.26333714236E+03 -0.33098216461E+03  0.11496651413E+03  0.43833210378E+03  0.46999998093E+01 0. -1.
</event>
<event>
 5   0  0.6534628E-03  0.9007709E+03  0.7818609E-02  0.9424618E-01
       -2   -1    0    0    0  501  0.00000000000E+00  0.00000000000E+00  0.27594685493E+03  0.27594685494E+03  0.25500000920E-02 0.  1.
        2   -1    0    0  501    0  0.00000000000E+00  0.00000000000E+00 -0.73509458599E+03  0.73509458599E+03  0.25500000920E-02 0. -1.
    10030    2    1    2    0    0  0.00000000000E+00  0.00000000000E+00 -0.45914773106E+03  0.10110414409E+04  0.90077086785E+03 0.  0.
        4    1    3    3  502    0  0.35217129466E+03  0.17055481175E+03 -0.47988028224E+03  0.61919323541E+03  0.12699999809E+01 0. -1.
       -4    1    3    3    0  502 -0.35217129466E+03 -0.17055481175E+03  0.20732551186E+02  0.39184820553E+03  0.12699999809E+01 0.  1.
</event>
<event>
 5   0  0.6609191E-03  0.8807794E+03  0.7818609E-02  0.9449932E-01
       -2   -1    0    0    0  501  0.00000000000E+00  0.00000000000E+00  0.21418853939E+03  0.21418853940E+03  0.25500000920E-02 0. -1.
        2   -1    0    0  501    0  0.00000000000E+00  0.00000000000E+00 -0.90547830627E+03  0.90547830628E+03  0.25500000920E-02 0.  1.
    10030    2    1    2    0    0  0.00000000000E+00  0.00000000000E+00 -0.69128976689E+03  0.11196668457E+04  0.88077937278E+03 0.  0.
        2    1    3    3  502    0 -0.64379801120E+02  0.40441204866E+03 -0.13968633688E+03  0.43267324462E+03  0.25500000920E-02 0.  1.
       -2    1    3    3    0  502  0.64379801120E+02 -0.40441204866E+03 -0.55160343001E+03  0.68699360106E+03  0.25500000920E-02 0. -1.
</event>
<event>
 5   0  0.3794006E-03  0.9042191E+03  0.7818609E-02  0.9420323E-01
       -1   -1    0    0    0  501  0.00000000000E+00  0.00000000000E+00  0.10407615913E+04  0.10407615913E+04  0.50400001928E-02 0. -1.
        1   -1    0    0  501    0  0.00000000000E+00  0.00000000000E+00 -0.19639757582E+03  0.19639757588E+03  0.50400001928E-02 0.  1.
    10030    2    1    2    0    0  0.00000000000E+00  0.00000000000E+00  0.84436401550E+03  0.12371591672E+04  0.90421911855E+03 0.  0.
        5    1    3    3  502    0  0.13535248241E+03 -0.39657407958E+03  0.19003118654E+03  0.46013610698E+03  0.46999998093E+01 0.  1.
       -5    1    3    3    0  502 -0.13535248241E+03  0.39657407958E+03  0.65433282896E+03  0.77702306024E+03  0.46999998093E+01 0. -1.
</event>
<event>
 5   0  0.3794006E-03  0.8999242E+03  0.7818609E-02  0.9425676E-01
       -1   -1    0    0    0  501  0.00000000000E+00  0.00000000000E+00  0.52575844512E+03  0.52575844515E+03  0.50400001928E-02 0.  1.
        1   -1    0    0  501    0  0.00000000000E+00  0.00000000000E+00 -0.38509300492E+03  0.38509300495E+03  0.50400001928E-02 0. -1.
    10030    2    1    2    0    0  0.00000000000E+00  0.00000000000E+00  0.14066544020E+03  0.91085145010E+03  0.89992421797E+03 0.  0.
        5    1    3    3  502    0  0.25579824996E+03 -0.77023271666E+02  0.43677646586E+03  0.51201669913E+03  0.46999998093E+01 0.  1.
       -5    1    3    3    0  502 -0.25579824996E+03  0.77023271666E+02 -0.29611102566E+03  0.39883475097E+03  0.46999998093E+01 0. -1.
</event>
<event>
 5   0  0.6863405E-03  0.9118794E+03  0.7818609E-02  0.9410852E-01
       -2   -1    0    0    0  501  0.00000000000E+00  0.00000000000E+00  0.24152153829E+03  0.24152153830E+03  0.25500000920E-02 0.  1.
        2   -1    0    0  501    0  0.00000000000E+00  0.00000000000E+00 -0.86071414064E+03  0.86071414064E+03  0.25500000920E-02 0. -1.
    10030    2    1    2    0    0  0.00000000000E+00  0.00000000000E+00 -0.61919260235E+03  0.11022356789E+04  0.91187938519E+03 0.  0.
        1    1    3    3  502    0  0.53442871546E+02 -0.40561487885E+03 -0.66335428300E+02  0.41446345983E+03  0.50400001928E-02 0.  1.
       -1    1    3    3    0  502 -0.53442871546E+02  0.40561487885E+03 -0.55285717405E+03  0.68777221911E+03  0.50400001928E-02 0. -1.
</event>
<event>
 5   0  0.6724773E-03  0.9017463E+03  0.7818609E-02  0.9423401E-01
       -2   -1    0    0    0  501  0.00000000000E+00  0.00000000000E+00  0.33286281060E+03  0.33286281061E+03  0.25500000920E-02 0.  1.
        2   -1    0    0  501    0  0.00000000000E+00  0.00000000000E+00 -0.61072187751E+03  0.61072187751E+03  0.25500000920E-02 0. -1.
    10030    2    1    2    0    0  0.00000000000E+00  0.00000000000E+00 -0.27785906691E+03  0.94358468812E+03  0.90174630722E+03 0.  0.
        5    1    3    3  502    0  0.54571440989E+02  0.41371109948E+03 -0.31752224574E+03  0.52438285874E+03  0.46999998093E+01 0. -1.
       -5    1    3    3    0  502 -0.54571440989E+02 -0.41371109948E+03  0.39663178835E+02  0.41920182938E+03  0.46999998093E+01 0.  1.
</event>
<event>
 5   0  0.6724773E-03  0.9012806E+03  0.7818609E-02  0.9423982E-01
       -2   -1    0    0    0  501  0.00000000000E+00  0.00000000000E+00  0.29722239565E+03  0.29722239566E+03  0.25500000920E-02 0. -1.
        2   -1    0    0  501    0  0.00000000000E+00  0.00000000000E+00 -0.68324820725E+03  0.68324820726E+03  0.25500000920E-02 0.  1.
    10030    2    1    2    0    0  0.00000000000E+00  0.00000000000E+00 -0.38602581161E+03  0.98047060292E+03  0.90128057561E+03 0.  0.
        5    1    3    3  502    0  0.10970108922E+03  0.16542850306E+03  0.24707296690E+03  0.31696696921E+03  0.46999998093E+01 0. -1.
       -5    1    3    3    0  502 -0.10970108922E+03 -0.16542850306E+03 -0.63309877850E+03  0.66350363371E+03  0.46999998093E+01 0.  1.
</event>
<event>
 5   0  0.3998066E-03  0.9145851E+03  0.7818609E-02  0.9407531E-01
       -1   -1    0    0    0  501  0.00000000000E+00  0.00000000000E+00  0.26717874444E+03  0.26717874448E+03  0.50400001928E-02 0. -1.
        1   -1    0    0  501    0  0.00000000000E+00  0.00000000000E+00 -0.78268384947E+03  0.78268384948E+03  0.50400001928E-02 0.  1.
    10030    2    1    2    0    0  0.00000000000E+00  0.00000000000E+00 -0.51550510503E+03  0.10498625940E+04  0.91458512611E+03 0.  0.
        4    1    3    3  502    0  0.27395549060E+03 -0.99311068226E+02 -0.66230062243E+03  0.72357309684E+03  0.12699999809E+01 0.  1.
       -4    1    3    3    0  502 -0.27395549060E+03  0.99311068226E+02  0.14679551740E+03  0.32628949712E+03  0.12699999809E+01 0. -1.
</event>
<event>
 5   0  0.3998066E-03  0.8954244E+03  0.7818609E-02  0.9431319E-01
       -1   -1    0    0    0  501  0.00000000000E+00  0.00000000000E+00  0.13148679792E+03  0.13148679802E+03  0.50400001928E-02 0. -1.
        1   -1    0    0  501    0  0.00000000000E+00  0.00000000000E+00 -0.15244587849E+04  0.15244587849E+04  0.50400001928E-02 0.  1.
    10030    2    1    2    0    0  0.00000000000E+00  0.00000000000E+00 -0.13929719870E+04  0.16559455830E+04  0.89542437823E+03 0.  0.
        4    1    3    3  502    0  0.44051269055E+03 -0.22880452481E+02 -0.55480124874E+03  0.70878839165E+03  0.12699999809E+01 0. -1.
       -4    1    3    3    0  502 -0.44051269055E+03  0.22880452481E+02 -0.83817073827E+03  0.94715719130E+03  0.12699999809E+01 0.  1.
</event>
<event>
 5   0  0.3927993E-03  0.8978445E+03  0.7818609E-02  0.9428280E-01
        1   -1    0    0  501    0  0.00000000000E+00  0.00000000000E+00  0.68084691721E+03  0.68084691722E+03  0.50400001928E-02 0.  1.
       -1   -1    0    0    0  501  0.00000000000E+00  0.00000000000E+00 -0.29600075116E+03  0.29600075120E+03  0.50400001928E-02 0. -1.
    10030    2    1    2    0    0  0.00000000000E+00  0.00000000000E+00  0.38484616604E+03  0.97684766843E+03  0.89784452763E+03 0.  0.
        2    1    3    3  502    0 -0.44445355758E+03  0.13484096699E+02  0.12526291986E+03  0.46196491729E+03  0.25500000920E-02 0. -1.
       -2    1    3    3    0  502  0.44445355758E+03 -0.13484096699E+02  0.25958324618E+03  0.51488275113E+03  0.25500000920E-02 0.  1.
</event>
<event>
 5   0  0.6863405E-03  0.9030895E+03  0.7818609E-02  0.9421728E-01
        2   -1    0    0  501    0  0.00000000000E+00  0.00000000000E+00  0.13686923219E+04  0.13686923219E+04  0.25500000920E-02 0. -1.
       -2   -1    0    0    0  501  0.00000000000E+00  0.00000000000E+00 -0.14896894463E+03  0.14896894465E+03  0.25500000920E-02 0.  1.
    10030    2    1    2    0    0  0.00000000000E+00  0.00000000000E+00  0.12197233773E+04  0.15176612666E+04  0.90308947672E+03 0.  0.
        1    1    3    3  502    0  0.31713741208E+03 -0.19970964575E+03  0.18660851600E+03  0.41866791018E+03  0.50400001928E-02 0.  1.
       -1    1    3    3    0  502 -0.31713741208E+03  0.19970964575E+03  0.10331148613E+04  0.10989933564E+04  0.50400001928E-02 0. -1.
</event>
<event>
 5   0  0.6724773E-03  0.8997024E+03  0.7818609E-02  0.9425954E-01
       -2   -1    0    0    0  501  0.00000000000E+00  0.00000000000E+00  0.18652374228E+03  0.18652374229E+03  0.25500000920E-02 0. -1.
        2   -1    0    0  501    0  0.00000000000E+00  0.00000000000E+00 -0.10849347342E+04  0.10849347342E+04  0.25500000920E-02 0.  1.
    10030    2    1    2    0    0  0.00000000000E+00  0.00000000000E+00 -0.89841099191E+03  0.12714584765E+04  0.89970236581E+03 0.  0.
        5    1    3    3  502    0  0.39418083446E+03  0.19335573590E+03 -0.58751881173E+03  0.73346125664E+03  0.46999998093E+01 0.  1.
       -5    1    3    3    0  502 -0.39418083446E+03 -0.19335573590E+03 -0.31089218019E+03  0.53799721985E+03  0.46999998093E+01 0. -1.
</event>
<event>
 5   0  0.6524705E-03  0.9098204E+03  0.7818609E-02  0.9413388E-01
        2   -1    0    0  501    0  0.00000000000E+00  0.00000000000E+00  0.13879596786E+04  0.13879596786E+04  0.25500000920E-02 0. -1.
       -2   -1    0    0    0  501  0.00000000000E+00  0.00000000000E+00 -0.14909893666E+03  0.14909893668E+03  0.25500000920E-02 0.  1.
    10030    2    1    2    0    0  0.00000000000E+00  0.00000000000E+00  0.12388607419E+04  0.15370586152E+04  0.90982044871E+03 0.  0.
        3    1    3    3  502    0 -0.34329568875E+03  0.25471393405E+03  0.88230684316E+03  0.98040629017E+03  0.10100000352E+00 0. -1.
       -3    1    3    3    0  502  0.34329568875E+03 -0.25471393405E+03  0.35655389874E+03  0.55665232508E+03  0.10100000352E+00 0.  1.
</event>
<event>
 5   0  0.3998066E-03  0.8977696E+03  0.7818609E-02  0.9428374E-01
        1   -1    0    0  501    0  0.00000000000E+00  0.00000000000E+00  0.34972703437E+03  0.34972703441E+03  0.50400001928E-02 0.  1.
       -1   -1    0    0    0  501  0.00000000000E+00  0.00000000000E+00 -0.57615665797E+03  0.57615665799E+03  0.50400001928E-02 0. -1.
    10030    2    1    2    0    0  0.00000000000E+00  0.00000000000E+00 -0.22642962360E+03  0.92588369239E+03  0.89776959037E+03 0.  0.
        4    1    3    3  502    0 -0.38796854982E+03  0.13096767601E+02  0.11924293620E+03  0.40609310719E+03  0.12699999809E+01 0.  1.
       -4    1    3    3    0  502  0.38796854982E+03 -0.13096767601E+02 -0.34567255980E+03  0.51979058520E+03  0.12699999809E+01 0. -1.
</event>
<event>
 5   0  0.6863405E-03  0.9021096E+03  0.7818609E-02  0.9422948E-01
       -2   -1    0    0    0  501  0.00000000000E+00  0.00000000000E+00  0.22435525942E+03  0.22435525943E+03  0.25500000920E-02 0.  1.
        2   -1    0    0  501    0  0.00000000000E+00  0.00000000000E+00 -0.90682262970E+03  0.90682262971E+03  0.25500000920E-02 0. -1.
    10030    2    1    2    0    0  0.00000000000E+00  0.00000000000E+00 -0.68246737029E+03  0.11311778891E+04  0.90210958612E+03 0.  0.
        1    1    3    3  502    0  0.15793816934E+03 -0.12201845044E+02 -0.87079564597E+03  0.88508666662E+03  0.50400001928E-02 0. -1.
       -1    1    3    3    0  502 -0.15793816934E+03  0.12201845044E+02  0.18832827568E+03  0.24609122252E+03  0.50400001928E-02 0.  1.
</event>
<event>
 5   0  0.3998066E-03  0.8987476E+03  0.7818609E-02  0.9427148E-01
        1   -1    0    0  501    0  0.00000000000E+00  0.00000000000E+00  0.50610312245E+03  0.50610312248E+03  0.50400001928E-02 0. -1.
       -1   -1    0    0    0  501  0.00000000000E+00  0.00000000000E+00 -0.39900327827E+03  0.39900327830E+03  0.50400001928E-02 0.  1.
    10030    2    1    2    0    0  0.00000000000E+00  0.00000000000E+00  0.10709984419E+03  0.90510640078E+03  0.89874758420E+03 0.  0.
        4    1    3    3  502    0 -0.15778129531E+03  0.33971840130E+03  0.30356364239E+03  0.48213693824E+03  0.12699999809E+01 0. -1.
       -4    1    3    3    0  502  0.15778129531E+03 -0.33971840130E+03 -0.19646379821E+03  0.42296946254E+03  0.12699999809E+01 0.  1.
</event>
<event>
 5   0  0.6524705E-03  0.9033540E+03  0.7818609E-02  0.9421399E-01
        2   -1    0    0  501    0  0.00000000000E+00  0.00000000000E+00  0.11962609525E+04  0.11962609525E+04  0.25500000920E-02 0. -1.
       -2   -1    0    0    0  501  0.00000000000E+00  0.00000000000E+00 -0.17054146086E+03  0.17054146088E+03  0.25500000920E-02 0.  1.
    10030    2    1    2    0    0  0.00000000000E+00  0.00000000000E+00  0.10257194916E+04  0.13668024134E+04  0.90335395150E+03 0.  0.
        3    1    3    3  502    0 -0.37933495417E+03 -0.15241955834E+03  0.22227370445E+03  0.46533035481E+03  0.10100000352E+00 0.  1.
       -3    1    3    3    0  502  0.37933495417E+03  0.15241955834E+03  0.80344578719E+03  0.90147205857E+03  0.10100000352E+00 0. -1.
</event>
<event>
 5   0  0.6534628E-03  0.9012947E+03  0.7818609E-02  0.9423964E-01
       -2   -1    0    0    0  501  0.00000000000E+00  0.00000000000E+00  0.19506855709E+03  0.19506855711E+03  0.25500000920E-02 0.  1.
        2   -1    0    0  501    0  0.00000000000E+00  0.00000000000E+00 -0.10410853221E+04  0.10410853221E+04  0.25500000920E-02 0. -1.
    10030    2    1    2    0    0  0.00000000000E+00  0.00000000000E+00 -0.84601676499E+03  0.12361538792E+04  0.90129465016E+03 0.  0.
        4    1    3    3  502    0 -0.42245576890E+03  0.58642997793E+02 -0.62258161109E+03  0.75466373520E+03  0.12699999809E+01 0. -1.
       -4    1    3    3    0  502  0.42245576890E+03 -0.58642997793E+02 -0.22343515391E+03  0.48149014400E+03  0.12699999809E+01 0.  1.
</event>
<event>
 5   0  0.3969536E-03  0.8986248E+03  0.7818609E-02  0.9427302E-01
        1   -1    0    0  501    0  0.00000000000E+00  0.00000000000E+00  0.18949462243E+04  0.18949462243E+04  0.50400001928E-02 0. -1.
       -1   -1    0    0    0  501  0.00000000000E+00  0.00000000000E+00 -0.10653686213E+03  0.10653686225E+03  0.50400001928E-02 0.  1.
    10030    2    1    2    0    0  0.00000000000E+00  0.00000000000E+00  0.17884093621E+04  0.20014830865E+04  0.89862478211E+03 0.  0.
        1    1    3    3  502    0 -0.15032455322E+03 -0.13924488274E+03  0.17848217139E+04  0.17965453401E+04  0.50400001928E-02 0. -1.
       -1    1    3    3    0  502  0.15032455322E+03  0.13924488274E+03  0.35876482812E+01  0.20493774644E+03  0.50400001928E-02 0.  1.
</event>
<event>
 5   0  0.6863405E-03  0.8862787E+03  0.7818609E-02  0.9442898E-01
        2   -1    0    0  501    0  0.00000000000E+00  0.00000000000E+00  0.10198337701E+04  0.10198337701E+04  0.25500000920E-02 0. -1.
       -2   -1    0    0    0  501  0.00000000000E+00  0.00000000000E+00 -0.19255344057E+03  0.19255344058E+03  0.25500000920E-02 0.  1.
    10030    2    1    2    0    0  0.00000000000E+00  0.00000000000E+00  0.82728032949E+03  0.12123872106E+04  0.88627874000E+03 0.  0.
        1    1    3    3  502    0 -0.30843222587E+03 -0.30138474650E+03  0.27407348968E+03  0.51095937328E+03  0.50400001928E-02 0. -1.
       -1    1    3    3    0  502  0.30843222587E+03  0.30138474650E+03  0.55320683981E+03  0.70142783736E+03  0.50400001928E-02 0.  1.
</event>
<event>
 5   0  0.3794006E-03  0.8873809E+03  0.7818609E-02  0.9441495E-01
        1   -1    0    0  501    0  0.00000000000E+00  0.00000000000E+00  0.88477770780E+03  0.88477770781E+03  0.50400001928E-02 0.  1.
       -1   -1    0    0    0  501  0.00000000000E+00  0.00000000000E+00 -0.22249792086E+03  0.22249792092E+03  0.50400001928E-02 0. -1.
    10030    2    1    2    0    0  0.00000000000E+00  0.00000000000E+00  0.66227978694E+03  0.11072756287E+04  0.88738086626E+03 0.  0.
        5    1    3    3  502    0  0.85430140679E+02  0.15855134439E+03 -0.17480077406E+03  0.25102636984E+03  0.46999998093E+01 0. -1.
       -5    1    3    3    0  502 -0.85430140679E+02 -0.15855134439E+03  0.83708056100E+03  0.85624925889E+03  0.46999998093E+01 0.  1.
</event>
<event>
 5   0  0.3794006E-03  0.8922158E+03  0.7818609E-02  0.9435365E-01
       -1   -1    0    0    0  501  0.00000000000E+00  0.00000000000E+00  0.28099830077E+03  0.28099830081E+03  0.50400001928E-02 0.  1.
        1   -1    0    0  501    0  0.00000000000E+00  0.00000000000E+00 -0.70823301353E+03  0.70823301354E+03  0.50400001928E-02 0. -1.
    10030    2    1    2    0    0  0.00000000000E+00  0.00000000000E+00 -0.42723471276E+03  0.98923131436E+03  0.89221583348E+03 0.  0.
        5    1    3    3  502    0  0.77063400095E+02  0.64794046383E+02 -0.69544314730E+03  0.70270925510E+03  0.46999998093E+01 0. -1.
       -5    1    3    3    0  502 -0.77063400095E+02 -0.64794046383E+02  0.26820843454E+03  0.28652205925E+03  0.46999998093E+01 0.  1.
</event>
<event>
 5   0  0.3998066E-03  0.8939267E+03  0.7818609E-02  0.9433205E-01
        1   -1    0    0  501    0  0.00000000000E+00  0.00000000000E+00  0.30674568691E+03  0.30674568695E+03  0.50400001928E-02 0. -1.
       -1   -1    0    0    0  501  0.00000000000E+00  0.00000000000E+00 -0.65127641858E+03  0.65127641860E+03  0.50400001928E-02 0.  1.
    10030    2    1    2    0    0  0.00000000000E+00  0.00000000000E+00 -0.34453073167E+03  0.95802210555E+03  0.89392669143E+03 0.  0.
        4    1    3    3  502    0 -0.40171119312E+03 -0.19594604035E+03 -0.17527494006E+03  0.48009337729E+03  0.12699999809E+01 0.  1.
       -4    1    3    3    0  502  0.40171119312E+03  0.19594604035E+03 -0.16925579161E+03  0.47792872826E+03  0.12699999809E+01 0. -1.
</event>
<event>
 5   0  0.3943549E-03  0.9064957E+03  0.7818609E-02  0.9417498E-01
        1   -1    0    0  501    0  0.00000000000E+00  0.00000000000E+00  0.44287231208E+03  0.44287231211E+03  0.50400001928E-02 0. -1.
       -1   -1    0    0    0  501  0.00000000000E+00  0.00000000000E+00 -0.46386646506E+03  0.46386646509E+03  0.50400001928E-02 0.  1.
    10030    2    1    2    0    0  0.00000000000E+00  0.00000000000E+00 -0.20994152979E+02  0.90673877720E+03  0.90649570083E+03 0.  0.
        3    1    3    3  502    0  0.22779357270E+03  0.38119798170E+03  0.80256468798E+02  0.45126812872E+03  0.10100000352E+00 0. -1.
       -3    1    3    3    0  502 -0.22779357270E+03 -0.38119798170E+03 -0.10125062178E+03  0.45547064848E+03  0.10100000352E+00 0.  1.
</event>
<event>
 5   0  0.3943549E-03  0.8999406E+03  0.7818609E-02  0.9425656E-01
       -1   -1    0    0    0  501  0.00000000000E+00  0.00000000000E+00  0.17160340384E+03  0.17160340391E+03  0.50400001928E-02 0. -1.
        1   -1    0    0  501    0  0.00000000000E+00  0.00000000000E+00 -0.11798907982E+04  0.11798907982E+04  0.50400001928E-02 0.  1.
    10030    2    1    2    0    0  0.00000000000E+00  0.00000000000E+00 -0.10082873944E+04  0.13514942021E+04  0.89994061401E+03 0.  0.
        3    1    3    3  502    0 -0.40931148072E+03 -0.63397599324E+02 -0.24008109641E+03  0.47874219252E+03  0.10100000352E+00 0. -1.
       -3    1    3    3    0  502  0.40931148072E+03  0.63397599324E+02 -0.76820629797E+03  0.87275200962E+03  0.10100000352E+00 0.  1.
</event>
<event>
 5   0  0.3998066E-03  0.8931073E+03  0.7818609E-02  0.9434239E-01
        1   -1    0    0  501    0  0.00000000000E+00  0.00000000000E+00  0.23163863617E+04  0.23163863617E+04  0.50400001928E-02 0. -1.
       -1   -1    0    0    0  501  0.00000000000E+00  0.00000000000E+00 -0.86086736996E+02  0.86086737143E+02  0.50400001928E-02 0.  1.
    10030    2    1    2    0    0  0.00000000000E+00  0.00000000000E+00  0.22302996247E+04  0.24024730989E+04  0.89310725825E+03 0.  0.
        4    1    3    3  502    0 -0.13881831482E+03 -0.25111662944E+03  0.19471425663E+03  0.34676409957E+03  0.12699999809E+01 0.  1.
       -4    1    3    3    0  502  0.13881831482E+03  0.25111662944E+03  0.20355853681E+04  0.20557089993E+04  0.12699999809E+01 0. -1.
</event>
<event>
 5   0  0.3943549E-03  0.8945483E+03  0.7818609E-02  0.9432422E-01
       -1   -1    0    0    0  501  0.00000000000E+00  0.00000000000E+00  0.13581306901E+03  0.13581306911E+03  0.50400001928E-02 0.  1.
        1   -1    0    0  501    0  0.00000000000E+00  0.00000000000E+00 -0.14730112754E+04  0.14730112754E+04  0.50400001928E-02 0. -1.
    10030    2    1    2    0    0  0.00000000000E+00  0.00000000000E+00 -0.13371982064E+04  0.16088243445E+04  0.89454833761E+03 0.  0.
        3    1    3    3  502    0 -0.52492030118E+01 -0.43694326554E+03 -0.49696749806E+03  0.66175801904E+03  0.10100000352E+00 0.  1.
       -3    1    3    3    0  502  0.52492030118E+01  0.43694326554E+03 -0.84023070829E+03  0.94706632544E+03  0.10100000352E+00 0. -1.
</event>
<event>
 5   0  0.3969536E-03  0.8980258E+03  0.7818609E-02  0.9428053E-01
       -1   -1    0    0    0  501  0.00000000000E+00  0.00000000000E+00  0.26008426875E+03  0.26008426880E+03  0.50400001928E-02 0.  1.
        1   -1    0    0  501    0  0.00000000000E+00  0.00000000000E+00 -0.77518180764E+03  0.77518180766E+03  0.50400001928E-02 0. -1.
    10030    2    1    2    0    0  0.00000000000E+00  0.00000000000E+00 -0.51509753889E+03  0.10352660765E+04  0.89802582061E+03 0.  0.
        1    1    3    3  502    0 -0.35928658253E+03 -0.93925825115E+02  0.33419369025E+02  0.37286158727E+03  0.50400001928E-02 0.  1.
       -1    1    3    3    0  502  0.35928658253E+03  0.93925825115E+02 -0.54851690791E+03  0.66240448919E+03  0.50400001928E-02 0. -1.
</event>
<event>
 5   0  0.3794006E-03  0.8601840E+03  0.7818609E-02  0.9476769E-01
       -1   -1    0    0    0  501  0.00000000000E+00  0.00000000000E+00  0.26039326899E+03  0.26039326903E+03  0.50400001928E-02 0.  1.
        1   -1    0    0  501    0  0.00000000000E+00  0.00000000000E+00 -0.71038361006E+03  0.71038361008E+03  0.50400001928E-02 0. -1.
    10030    2    1    2    0    0  0.00000000000E+00  0.00000000000E+00 -0.44999034108E+03  0.97077687911E+03  0.86018395821E+03 0.  0.
        5    1    3    3  502    0  0.25520788972E+03 -0.12800180661E+03  0.13797879079E+03  0.31713682564E+03  0.46999998093E+01 0.  1.
       -5    1    3    3    0  502 -0.25520788972E+03  0.12800180661E+03 -0.58796913187E+03  0.65364005347E+03  0.46999998093E+01 0. -1.
</event>
<event>
 5   0  0.6524705E-03  0.9019850E+03  0.7818609E-02  0.9423103E-01
       -2   -1    0    0    0  501  0.00000000000E+00  0.00000000000E+00  0.11541743041E+03  0.11541743044E+03  0.25500000920E-02 0. -1.
        2   -1    0    0  501    0  0.00000000000E+00  0.00000000000E+00 -0.17622488626E+04  0.17622488626E+04  0.25500000920E-02 0.  1.
    10030    2    1    2    0    0  0.00000000000E+00  0.00000000000E+00 -0.16468314322E+04  0.18776662930E+04  0.90198500097E+03 0.  0.
        3    1    3    3  502    0 -0.16168759378E+03  0.38182235101E+03 -0.45416662696E+03  0.61497847195E+03  0.10100000352E+00 0. -1.
       -3    1    3    3    0  502  0.16168759378E+03 -0.38182235101E+03 -0.11926648052E+04  0.12626878211E+04  0.10100000352E+00 0.  1.
</event>
<event>
 5   0  0.6609191E-03  0.8993357E+03  0.7818609E-02  0.9426412E-01
       -2   -1    0    0    0  501  0.00000000000E+00  0.00000000000E+00  0.68801052199E+03  0.68801052199E+03  0.25500000920E-02 0. -1.
        2   -1    0    0  501    0  0.00000000000E+00  0.00000000000E+00 -0.29389255578E+03  0.29389255579E+03  0.25500000920E-02 0.  1.
    10030    2    1    2    0    0  0.00000000000E+00  0.00000000000E+00  0.39411796621E+03  0.98190307778E+03  0.89933568976E+03 0.  0.
        2    1    3    3  502    0  0.44537858880E+02  0.22763276824E+02 -0.29084588842E+03  0.29511543244E+03  0.25500000920E-02 0.  1.
       -2    1    3    3    0  502 -0.44537858880E+02 -0.22763276824E+02  0.68496385463E+03  0.68678764535E+03  0.25500000920E-02 0. -1.
</event>
<event>
 5   0  0.3794006E-03  0.8955475E+03  0.7818609E-02  0.9431164E-01
        1   -1    0    0  501    0  0.00000000000E+00  0.00000000000E+00  0.81003109231E+03  0.81003109233E+03  0.50400001928E-02 0.  1.
       -1   -1    0    0    0  501  0.00000000000E+00  0.00000000000E+00 -0.24752302122E+03  0.24752302127E+03  0.50400001928E-02 0. -1.
    10030    2    1    2    0    0  0.00000000000E+00  0.00000000000E+00  0.56250807109E+03  0.10575541136E+04  0.89554752702E+03 0.  0.
        5    1    3    3  502    0  0.43461444184E+03 -0.98464805461E+02  0.33265004908E+03  0.55611435526E+03  0.46999998093E+01 0. -1.
       -5    1    3    3    0  502 -0.43461444184E+03  0.98464805461E+02  0.22985802201E+03  0.50143975834E+03  0.46999998093E+01 0.  1.
</event>
<event>
 5   0  0.6524705E-03  0.9018865E+03  0.7818609E-02  0.9423226E-01
        2   -1    0    0  501    0  0.00000000000E+00  0.00000000000E+00  0.12631075997E+04  0.12631075997E+04  0.25500000920E-02 0.  1.
       -2   -1    0    0    0  501  0.00000000000E+00  0.00000000000E+00 -0.16099166389E+03  0.16099166391E+03  0.25500000920E-02 0. -1.
    10030    2    1    2    0    0  0.00000000000E+00  0.00000000000E+00  0.11021159359E+04  0.14240992636E+04  0.90188645442E+03 0.  0.
        3    1    3    3  502    0  0.14195996239E+01 -0.29462886913E+03  0.12008176464E+02  0.29487691040E+03  0.10100000352E+00 0. -1.
       -3    1    3    3    0  502 -0.14195996239E+01  0.29462886913E+03  0.10901077594E+04  0.11292223532E+04  0.10100000352E+00 0.  1.
</event>
<event>
 5   0  0.6863405E-03  0.9147507E+03  0.7818609E-02  0.9407328E-01
       -2   -1    0    0    0  501  0.00000000000E+00  0.00000000000E+00  0.16876154586E+04  0.16876154586E+04  0.25500000920E-02 0.  1.
        2   -1    0    0  501    0  0.00000000000E+00  0.00000000000E+00 -0.12395727655E+03  0.12395727658E+03  0.25500000920E-02 0. -1.
    10030    2    1    2    0    0  0.00000000000E+00  0.00000000000E+00  0.15636581821E+04  0.18115727352E+04  0.91475071170E+03 0.  0.
        1    1    3    3  502    0 -0.21094428463E+02 -0.44443890785E+03  0.57204402190E+03  0.72471048063E+03  0.50400001928E-02 0.  1.
       -1    1    3    3    0  502  0.21094428463E+02  0.44443890785E+03  0.99161416018E+03  0.10868622546E+04  0.50400001928E-02 0. -1.
</event>
<event>
 5   0  0.6534628E-03  0.8937200E+03  0.7818609E-02  0.9433466E-01
        2   -1    0    0  501    0  0.00000000000E+00  0.00000000000E+00  0.37259207457E+03  0.37259207458E+03  0.25500000920E-02 0. -1.
       -2   -1    0    0    0  501  0.00000000000E+00  0.00000000000E+00 -0.53593153163E+03  0.53593153163E+03  0.25500000920E-02 0.  1.
    10030    2    1    2    0    0  0.00000000000E+00  0.00000000000E+00 -0.16333945706E+03  0.90852360621E+03  0.89371995883E+03 0.  0.
        4    1    3    3  502    0 -0.28014713910E+02 -0.30111346894E+03 -0.41609935372E+03  0.51438743223E+03  0.12699999809E+01 0.  1.
       -4    1    3    3    0  502  0.28014713910E+02  0.30111346894E+03  0.25275989666E+03  0.39413617398E+03  0.12699999809E+01 0. -1.
</event>
<event>
 5   0  0.6609191E-03  0.9054953E+03  0.7818609E-02  0.9418738E-01
        2   -1    0    0  501    0  0.00000000000E+00  0.00000000000E+00  0.10717463687E+04  0.10717463688E+04  0.25500000920E-02 0.  1.
       -2   -1    0    0    0  501  0.00000000000E+00  0.00000000000E+00 -0.19125834323E+03  0.19125834325E+03  0.25500000920E-02 0. -1.
    10030    2    1    2    0    0  0.00000000000E+00  0.00000000000E+00  0.88048802552E+03  0.12630047120E+04  0.90549530063E+03 0.  0.
        2    1    3    3  502    0  0.43165021149E+02 -0.43005770323E+03  0.62824814839E+03  0.76256710073E+03  0.25500000920E-02 0. -1.
       -2    1    3    3    0  502 -0.43165021149E+02  0.43005770323E+03  0.25223987712E+03  0.50043761127E+03  0.25500000920E-02 0.  1.
</event>
<event>
 5   0  0.3794006E-03  0.8980219E+03  0.7818609E-02  0.9428058E-01
        1   -1    0    0  501    0  0.00000000000E+00  0.00000000000E+00  0.13514276643E+04  0.13514276643E+04  0.50400001928E-02 0. -1.
       -1   -1    0    0    0  501  0.00000000000E+00  0.00000000000E+00 -0.14918359255E+03  0.14918359264E+03  0.50400001928E-02 0.  1.
    10030    2    1    2    0    0  0.00000000000E+00  0.00000000000E+00  0.12022440718E+04  0.15006112570E+04  0.89802190198E+03 0.  0.
        5    1    3    3  502    0 -0.42190636686E+03 -0.14680310137E+03  0.52578501856E+03  0.68994790290E+03  0.46999998093E+01 0.  1.
       -5    1    3    3    0  502  0.42190636686E+03  0.14680310137E+03  0.67645905322E+03  0.81066335408E+03  0.46999998093E+01 0. -1.
</event>
<event>
 5   0  0.6609191E-03  0.9032287E+03  0.7818609E-02  0.9421554E-01
        2   -1    0    0  501    0  0.00000000000E+00  0.00000000000E+00  0.36255318232E+03  0.36255318233E+03  0.25500000920E-02 0.  1.
       -2   -1    0    0    0  501  0.00000000000E+00  0.00000000000E+00 -0.56255337262E+03  0.56255337262E+03  0.25500000920E-02 0. -1.
    10030    2    1    2    0    0  0.00000000000E+00  0.00000000000E+00 -0.20000019030E+03  0.92510655495E+03  0.90322868749E+03 0.  0.
        2    1    3    3  502    0  0.22974918974E+03  0.34059142094E+03 -0.29207462568E+03  0.50407816177E+03  0.25500000920E-02 0. -1.
       -2    1    3    3    0  502 -0.22974918974E+03 -0.34059142094E+03  0.92074435387E+02  0.42102839318E+03  0.25500000920E-02 0.  1.
</event>
<event>
 5   0  0.3794006E-03  0.9081853E+03  0.7818609E-02  0.9415407E-01
        1   -1    0    0  501    0  0.00000000000E+00  0.00000000000E+00  0.64451010253E+03  0.64451010255E+03  0.50400001928E-02 0.  1.
       -1   -1    0    0    0  501  0.00000000000E+00  0.00000000000E+00 -0.31993310226E+03  0.31993310230E+03  0.50400001928E-02 0. -1.
    10030    2    1    2    0    0  0.00000000000E+00  0.00000000000E+00  0.32457700027E+03  0.96444320485E+03  0.90818525989E+03 0.  0.
        5    1    3    3  502    0 -0.11989593912E+03  0.36601835658E+03 -0.93094594717E+02  0.39627410606E+03  0.46999998093E+01 0.  1.
       -5    1    3    3    0  502  0.11989593912E+03 -0.36601835658E+03  0.41767159499E+03  0.56816909880E+03  0.46999998093E+01 0. -1.
</event>
<event>
 5   0  0.3927993E-03  0.8967624E+03  0.7818609E-02  0.9429638E-01
        1   -1    0    0  501    0  0.00000000000E+00  0.00000000000E+00  0.99178718834E+03  0.99178718835E+03  0.50400001928E-02 0. -1.
       -1   -1    0    0    0  501  0.00000000000E+00  0.00000000000E+00 -0.20271052961E+03  0.20271052968E+03  0.50400001928E-02 0.  1.
    10030    2    1    2    0    0  0.00000000000E+00  0.00000000000E+00  0.78907665872E+03  0.11944977180E+04  0.89676241281E+03 0.  0.
        2    1    3    3  502    0 -0.15348126632E+03  0.32015640869E+03  0.29778550637E+02  0.35629115513E+03  0.25500000920E-02 0.  1.
       -2    1    3    3    0  502  0.15348126632E+03 -0.32015640869E+03  0.75929810809E+03  0.83820656290E+03  0.25500000920E-02 0. -1.
</event>
<event>
 5   0  0.3927993E-03  0.8988440E+03  0.7818609E-02  0.9427028E-01
        1   -1    0    0  501    0  0.00000000000E+00  0.00000000000E+00  0.40376040721E+03  0.40376040724E+03  0.50400001928E-02 0. -1.
       -1   -1    0    0    0  501  0.00000000000E+00  0.00000000000E+00 -0.50024754898E+03  0.50024754901E+03  0.50400001928E-02 0.  1.
    10030    2    1    2    0    0  0.00000000000E+00  0.00000000000E+00 -0.96487141770E+02  0.90400795625E+03  0.89884404456E+03 0.  0.
        2    1    3    3  502    0 -0.13455594443E+02 -0.37714772046E+03 -0.29369214030E+03  0.47820134813E+03  0.25500000920E-02 0.  1.
       -2    1    3    3    0  502  0.13455594443E+02  0.37714772046E+03  0.19720499853E+03  0.42580660812E+03  0.25500000920E-02 0. -1.
</event>
<event>
 5   0  0.3998066E-03  0.8965922E+03  0.7818609E-02  0.9429851E-01
       -1   -1    0    0    0  501  0.00000000000E+00  0.00000000000E+00  0.76981821490E+03  0.76981821492E+03  0.50400001928E-02 0.  1.
        1   -1    0    0  501    0  0.00000000000E+00  0.00000000000E+00 -0.26106086597E+03  0.26106086602E+03  0.50400001928E-02 0. -1.
    10030    2    1    2    0    0  0.00000000000E+00  0.00000000000E+00  0.50875734893E+03  0.10308790809E+04  0.89659223699E+03 0.  0.
        4    1    3    3  502    0 -0.17762203309E+03  0.20341738391E+03  0.66579817253E+03  0.71848245501E+03  0.12699999809E+01 0.  1.
       -4    1    3    3    0  502  0.17762203309E+03 -0.20341738391E+03 -0.15704082360E+03  0.31239662593E+03  0.12699999809E+01 0. -1.
</event>
<event>
 5   0  0.6863405E-03  0.9016368E+03  0.7818609E-02  0.9423538E-01
        2   -1    0    0  501    0  0.00000000000E+00  0.00000000000E+00  0.14624576621E+04  0.14624576621E+04  0.25500000920E-02 0.  1.
       -2   -1    0    0    0  501  0.00000000000E+00  0.00000000000E+00 -0.13896963671E+03  0.13896963673E+03  0.25500000920E-02 0. -1.
    10030    2    1    2    0    0  0.00000000000E+00  0.00000000000E+00  0.13234880254E+04  0.16014272989E+04  0.90163675620E+03 0.  0.
        1    1    3    3  502    0 -0.14981143737E+03  0.38824743084E+03  0.35381308054E+03  0.54622635446E+03  0.50400001928E-02 0. -1.
       -1    1    3    3    0  502  0.14981143737E+03 -0.38824743084E+03  0.96967494488E+03  0.10552009444E+04  0.50400001928E-02 0.  1.
</event>
<event>
 5   0  0.6534628E-03  0.8959756E+03  0.7818609E-02  0.9430626E-01
        2   -1    0    0  501    0  0.00000000000E+00  0.00000000000E+00  0.45568784133E+03  0.45568784134E+03  0.25500000920E-02 0.  1.
       -2   -1    0    0    0  501  0.00000000000E+00  0.00000000000E+00 -0.44041791859E+03  0.44041791860E+03  0.25500000920E-02 0. -1.
    10030    2    1    2    0    0  0.00000000000E+00  0.00000000000E+00  0.15269922742E+02  0.89610575994E+03  0.89597564836E+03 0.  0.
        4    1    3    3  502    0  0.90612725325E+02  0.32533184124E+03  0.30202444821E+03  0.45306936901E+03  0.12699999809E+01 0.  1.
       -4    1    3    3    0  502 -0.90612725325E+02 -0.32533184124E+03 -0.28675452547E+03  0.44303639093E+03  0.12699999809E+01 0. -1.
</event>
<event>
 5   0  0.3943549E-03  0.9027623E+03  0.7818609E-02  0.9422135E-01
        1   -1    0    0  501    0  0.00000000000E+00  0.00000000000E+00  0.14799128186E+04  0.14799128186E+04  0.50400001928E-02 0. -1.
       -1   -1    0    0    0  501  0.00000000000E+00  0.00000000000E+00 -0.13767360168E+03  0.13767360177E+03  0.50400001928E-02 0.  1.
    10030    2    1    2    0    0  0.00000000000E+00  0.00000000000E+00  0.13422392169E+04  0.16175864204E+04  0.90276226769E+03 0.  0.
        3    1    3    3  502    0  0.43408918621E+03  0.10802790718E+03  0.56299306712E+03  0.71907207854E+03  0.10100000352E+00 0.  1.
       -3    1    3    3    0  502 -0.43408918621E+03 -0.10802790718E+03  0.77924614982E+03  0.89851434185E+03  0.10100000352E+00 0. -1.
</event>
<event>
 5   0  0.6524705E-03  0.9062894E+03  0.7818609E-02  0.9417753E-01
        2   -1    0    0  501    0  0.00000000000E+00  0.00000000000E+00  0.10079470303E+04  0.10079470303E+04  0.25500000920E-02 0. -1.
       -2   -1    0    0    0  501  0.00000000000E+00  0.00000000000E+00 -0.20372115887E+03  0.20372115888E+03  0.25500000920E-02 0.  1.
    10030    2    1    2    0    0  0.00000000000E+00  0.00000000000E+00  0.80422587142E+03  0.12116681892E+04  0.90628943964E+03 0.  0.
        3    1    3    3  502    0  0.39668117199E+03  0.14287437098E+03  0.62410821801E+03  0.75318000245E+03  0.10100000352E+00 0. -1.
       -3    1    3    3    0  502 -0.39668117199E+03 -0.14287437098E+03  0.18011765341E+03  0.45848818673E+03  0.10100000352E+00 0.  1.
</event>
<event>
 5   0  0.3943549E-03  0.9184568E+03  0.7818609E-02  0.9402799E-01
       -1   -1    0    0    0  501  0.00000000000E+00  0.00000000000E+00  0.10910194018E+04  0.10910194018E+04  0.50400001928E-02 0.  1.
        1   -1    0    0  501    0  0.00000000000E+00  0.00000000000E+00 -0.19329695459E+03  0.19329695466E+03  0.50400001928E-02 0. -1.
    10030    2    1    2    0    0  0.00000000000E+00  0.00000000000E+00  0.89772244722E+03  0.12843163565E+04  0.91845680970E+03 0.  0.
        3    1    3    3  502    0 -0.27745172233E+03 -0.29336283999E+03  0.75474186560E+03  0.85596524929E+03  0.10100000352E+00 0.  1.
       -3    1    3    3    0  502  0.27745172233E+03  0.29336283999E+03  0.14298058162E+03  0.42835110719E+03  0.10100000352E+00 0. -1.
</event>
<event>
 5   0  0.3927993E-03  0.9137119E+03  0.7818609E-02  0.9408601E-01
        1   -1    0    0  501    0  0.00000000000E+00  0.00000000000E+00  0.23433667683E+03  0.23433667688E+03  0.50400001928E-02 0.  1.
       -1   -1    0    0    0  501  0.00000000000E+00  0.00000000000E+00 -0.89067312842E+03  0.89067312844E+03  0.50400001928E-02 0. -1.
    10030    2    1    2    0    0  0.00000000000E+00  0.00000000000E+00 -0.65633645159E+03  0.11250098053E+04  0.91371194825E+03 0.  0.
        2    1    3    3  502    0  0.18617982866E+03  0.41228949745E+03 -0.40673545508E+03  0.60834142447E+03  0.25500000920E-02 0.  1.
       -2    1    3    3    0  502 -0.18617982866E+03 -0.41228949745E+03 -0.24960099651E+03  0.51666838085E+03  0.25500000920E-02 0. -1.
</event>
<event>
 5   0  0.6609191E-03  0.8981158E+03  0.7818609E-02  0.9427940E-01
        2   -1    0    0  501    0  0.00000000000E+00  0.00000000000E+00  0.62927458338E+03  0.62927458339E+03  0.25500000920E-02 0.  1.
       -2   -1    0    0    0  501  0.00000000000E+00  0.00000000000E+00 -0.32045308767E+03  0.32045308768E+03  0.25500000920E-02 0. -1.
    10030    2    1    2    0    0  0.00000000000E+00  0.00000000000E+00  0.30882149572E+03  0.94972767107E+03  0.89811576814E+03 0.  0.
        2    1    3    3  502    0 -0.16123755002E+03  0.10765976339E+02  0.59746227240E+03  0.61893022283E+03  0.25500000920E-02 0.  1.
       -2    1    3    3    0  502  0.16123755002E+03 -0.10765976339E+02 -0.28864077669E+03  0.33079744823E+03  0.25500000920E-02 0. -1.
</event>
<event>
 5   0  0.3794006E-03  0.9440804E+03  0.7818609E-02  0.9372097E-01
        1   -1    0    0  501    0  0.00000000000E+00  0.00000000000E+00  0.43154569728E+03  0.43154569731E+03  0.50400001928E-02 0. -1.
       -1   -1    0    0    0  501  0.00000000000E+00  0.00000000000E+00 -0.51633449660E+03  0.51633449662E+03  0.50400001928E-02 0.  1.
    10030    2    1    2    0    0  0.00000000000E+00  0.00000000000E+00 -0.84788799316E+02  0.94788019393E+03  0.94408035757E+03 0.  0.
        5    1    3    3  502    0 -0.53377105383E+02 -0.20803245003E+03  0.37962251197E+03  0.43619027641E+03  0.46999998093E+01 0. -1.
       -5    1    3    3    0  502  0.53377105383E+02  0.20803245003E+03 -0.46441131128E+03  0.51168991752E+03  0.46999998093E+01 0.  1.
</event>
<event>
 5   0  0.3969536E-03  0.9902261E+03  0.7818609E-02  0.9319330E-01
       -1   -1    0    0    0  501  0.00000000000E+00  0.00000000000E+00  0.35629207865E+03  0.35629207868E+03  0.50400001928E-02 0. -1.
        1   -1    0    0  501    0  0.00000000000E+00  0.00000000000E+00 -0.68802238575E+03  0.68802238576E+03  0.50400001928E-02 0.  1.
    10030    2    1    2    0    0  0.00000000000E+00  0.00000000000E+00 -0.33173030710E+03  0.10443144644E+04  0.99022608732E+03 0.  0.
        1    1    3    3  502    0  0.21458003068E+03  0.16371736333E+03 -0.60361465102E+03  0.66120996028E+03  0.50400001928E-02 0.  1.
       -1    1    3    3    0  502 -0.21458003068E+03 -0.16371736333E+03  0.27188434392E+03  0.38310450417E+03  0.50400001928E-02 0. -1.
</event>
<event>
 5   0  0.6534628E-03  0.9021879E+03  0.7818609E-02  0.9422851E-01
       -2   -1    0    0    0  501  0.00000000000E+00  0.00000000000E+00  0.16510541014E+03  0.16510541016E+03  0.25500000920E-02 0.  1.
        2   -1    0    0  501    0  0.00000000000E+00  0.00000000000E+00 -0.12324596816E+04  0.12324596816E+04  0.25500000920E-02 0. -1.
    10030    2    1    2    0    0  0.00000000000E+00  0.00000000000E+00 -0.10673542714E+04  0.13975650917E+04  0.90218792106E+03 0.  0.
        4    1    3    3  502    0  0.35228220097E+03  0.24797791453E+03 -0.74086304498E+03  0.85701543716E+03  0.12699999809E+01 0.  1.
       -4    1    3    3    0  502 -0.35228220097E+03 -0.24797791453E+03 -0.32649122645E+03  0.54054965458E+03  0.12699999809E+01 0. -1.
</event>
<event>
 5   0  0.3969536E-03  0.9079076E+03  0.7818609E-02  0.9415750E-01
       -1   -1    0    0    0  501  0.00000000000E+00  0.00000000000E+00  0.37839693703E+03  0.37839693706E+03  0.50400001928E-02 0. -1.
        1   -1    0    0  501    0  0.00000000000E+00  0.00000000000E+00 -0.54459762166E+03  0.54459762168E+03  0.50400001928E-02 0.  1.
    10030    2    1    2    0    0  0.00000000000E+00  0.00000000000E+00 -0.16620068463E+03  0.92299455874E+03  0.90790764282E+03 0.  0.
        1    1    3    3  502    0 -0.79146401901E+02 -0.29980288391E+03  0.25396331437E+03  0.40080330239E+03  0.50400001928E-02 0. -1.
       -1    1    3    3    0  502  0.79146401901E+02  0.29980288391E+03 -0.42016399900E+03  0.52219125636E+03  0.50400001928E-02 0.  1.
</event>
<event>
 5   0  0.6534628E-03  0.9028151E+03  0.7818609E-02  0.9422069E-01
       -2   -1    0    0    0  501  0.00000000000E+00  0.00000000000E+00  0.55416057383E+03  0.55416057384E+03  0.25500000920E-02 0. -1.
        2   -1    0    0  501    0  0.00000000000E+00  0.00000000000E+00 -0.36770711628E+03  0.36770711629E+03  0.25500000920E-02 0.  1.
    10030    2    1    2    0    0  0.00000000000E+00  0.00000000000E+00  0.18645345755E+03  0.92186769013E+03  0.90281512297E+03 0.  0.
        4    1    3    3  502    0 -0.21844143422E+02  0.94679269763E+02 -0.35690025544E+03  0.36989287092E+03  0.12699999809E+01 0.  1.
       -4    1    3    3    0  502  0.21844143422E+02 -0.94679269763E+02  0.54335371299E+03  0.55197481921E+03  0.12699999809E+01 0. -1.
</event>
<event>
 5   0  0.6724773E-03  0.9107385E+03  0.7818609E-02  0.9412256E-01
       -2   -1    0    0    0  501  0.00000000000E+00  0.00000000000E+00  0.19140422639E+03  0.19140422640E+03  0.25500000920E-02 0.  1.
        2   -1    0    0  501    0  0.00000000000E+00  0.00000000000E+00 -0.10833676457E+04  0.10833676457E+04  0.25500000920E-02 0. -1.
    10030    2    1    2    0    0  0.00000000000E+00  0.00000000000E+00 -0.89196341927E+03  0.12747718721E+04  0.91073848304E+03 0.  0.
        5    1    3    3  502    0  0.27403756606E+03  0.25431555969E+03 -0.80981555480E+03  0.89196205878E+03  0.46999998093E+01 0. -1.
       -5    1    3    3    0  502 -0.27403756606E+03 -0.25431555969E+03 -0.82147864477E+02  0.38280981329E+03  0.46999998093E+01 0.  1.
</event>
<event>
 5   0  0.3998066E-03  0.8895351E+03  0.7818609E-02  0.9438758E-01
        1   -1    0    0  501    0  0.00000000000E+00  0.00000000000E+00  0.15132661302E+03  0.15132661311E+03  0.50400001928E-02 0. -1.
       -1   -1    0    0    0  501  0.00000000000E+00  0.00000000000E+00 -0.13072265467E+04  0.13072265467E+04  0.50400001928E-02 0.  1.
    10030    2    1    2    0    0  0.00000000000E+00  0.00000000000E+00 -0.11558999337E+04  0.14585531598E+04  0.88953508268E+03 0.  0.
        4    1    3    3  502    0 -0.17623222244E+03 -0.39644557435E+03 -0.73851865547E+03  0.85652688634E+03  0.12699999809E+01 0.  1.
       -4    1    3    3    0  502  0.17623222244E+03  0.39644557435E+03 -0.41738127819E+03  0.60202627345E+03  0.12699999809E+01 0. -1.
</event>
<event>
 5   0  0.6724773E-03  0.8981120E+03  0.7818609E-02  0.9427945E-01
       -2   -1    0    0    0  501  0.00000000000E+00  0.00000000000E+00  0.25020638415E+03  0.25020638416E+03  0.25500000920E-02 0.  1.
        2   -1    0    0  501    0  0.00000000000E+00  0.00000000000E+00 -0.80593980796E+03  0.80593980796E+03  0.25500000920E-02 0. -1.
    10030    2    1    2    0    0  0.00000000000E+00  0.00000000000E+00 -0.55573342381E+03  0.10561461921E+04  0.89811198679E+03 0.  0.
        5    1    3    3  502    0 -0.22297135338E+03  0.28474964029E+03  0.35104250493E+02  0.36339094715E+03  0.46999998093E+01 0.  1.
       -5    1    3    3    0  502  0.22297135338E+03 -0.28474964029E+03 -0.59083767430E+03  0.69275524498E+03  0.46999998093E+01 0. -1.
</event>
<event>
 5   0  0.3927993E-03  0.7914920E+03  0.7818609E-02  0.9572414E-01
       -1   -1    0    0    0  501  0.00000000000E+00  0.00000000000E+00  0.33219633746E+03  0.33219633749E+03  0.50400001928E-02 0.  1.
        1   -1    0    0  501    0  0.00000000000E+00  0.00000000000E+00 -0.47145286741E+03  0.47145286743E+03  0.50400001928E-02 0. -1.
    10030    2    1    2    0    0  0.00000000000E+00  0.00000000000E+00 -0.13925652995E+03  0.80364920493E+03  0.79149204888E+03 0.  0.
        2    1    3    3  502    0 -0.86490524640E+02  0.37649760523E+03  0.17620972195E+02  0.38670603340E+03  0.25500000920E-02 0. -1.
       -2    1    3    3    0  502  0.86490524640E+02 -0.37649760523E+03 -0.15687750215E+03  0.41694317153E+03  0.25500000920E-02 0.  1.
</event>
<event>
 5   0  0.6609191E-03  0.8980552E+03  0.7818609E-02  0.9428016E-01
        2   -1    0    0  501    0  0.00000000000E+00  0.00000000000E+00  0.15991615689E+04  0.15991615689E+04  0.25500000920E-02 0.  1.
       -2   -1    0    0    0  501  0.00000000000E+00  0.00000000000E+00 -0.12608218871E+03  0.12608218874E+03  0.25500000920E-02 0. -1.
    10030    2    1    2    0    0  0.00000000000E+00  0.00000000000E+00  0.14730793802E+04  0.17252437577E+04  0.89805521152E+03 0.  0.
        2    1    3    3  502    0  0.24911239339E+03 -0.13157321713E+03  0.14082543366E+04  0.14361576420E+04  0.25500000920E-02 0.  1.
       -2    1    3    3    0  502 -0.24911239339E+03  0.13157321713E+03  0.64825043616E+02  0.28908611570E+03  0.25500000920E-02 0. -1.
</event>
<event>
 5   0  0.3794006E-03  0.8963405E+03  0.7818609E-02  0.9430168E-01
       -1   -1    0    0    0  501  0.00000000000E+00  0.00000000000E+00  0.11910192924E+04  0.11910192924E+04  0.50400001928E-02 0.  1.
        1   -1    0    0  501    0  0.00000000000E+00  0.00000000000E+00 -0.16864258217E+03  0.16864258224E+03  0.50400001928E-02 0. -1.
    10030    2    1    2    0    0  0.00000000000E+00  0.00000000000E+00  0.10223767102E+04  0.13596618747E+04  0.89634049097E+03 0.  0.
        5    1    3    3  502    0  0.14737628665E+03  0.40431310103E+03  0.32145033326E+03  0.53716036738E+03  0.46999998093E+01 0. -1.
       -5    1    3    3    0  502 -0.14737628665E+03 -0.40431310103E+03  0.70092637698E+03  0.82250150728E+03  0.46999998093E+01 0.  1.
</event>
</LesHouchesEvents>
